<LesHouchesEvents version="3.0">
<header>
<!--
#*********************************************************************
#                                                                    *
#                        MadGraph5_aMC@NLO                           *
#                                                                    *
#                           Going Beyond                             *
#                                                                    *
#                   http://madgraph.hep.uiuc.edu                     *
#                   http://madgraph.phys.ucl.ac.be                   *
#                   http://amcatnlo.cern.ch                          *
#                                                                    *
#                     The MadGraph5_aMC@NLO team                     *
#                                                                    *
#....................................................................*
#                                                                    *
# This file contains all the information necessary to reproduce      *
# the events generated:                                              *
#                                                                    *
# 1. software version                                                *
# 2. proc_card          : code generation info including model       *
# 3. param_card         : model primary parameters in the LH format  *
# 4. run_card           : running parameters (collider and cuts)     *
# 5. pythia_card        : present only if pythia has been run        *
# 6. pgs_card           : present only if pgs has been run           *
# 7. delphes_cards      : present only if delphes has been run       *
#                                                                    *
#                                                                    *
#*********************************************************************
-->
<MGVersion>
#5.2.2.3
</MGVersion>
<MG5ProcCard>
#************************************************************
#*                     MadGraph5_aMC@NLO                    *
#*                                                          *
#*                *                       *                 *
#*                  *        * *        *                   *
#*                    * * * * 5 * * * *                     *
#*                  *        * *        *                   *
#*                *                       *                 *
#*                                                          *
#*                                                          *
#*         VERSION 2.2.3                 2015-02-10         *
#*                                                          *
#*    The MadGraph5_aMC@NLO Development Team - Find us at   *
#*    https://server06.fynu.ucl.ac.be/projects/madgraph     *
#*                                                          *
#************************************************************
#*                                                          *
#*               Command File for MadGraph5_aMC@NLO         *
#*                                                          *
#*     run as ./bin/mg5_aMC  filename                       *
#*                                                          *
#************************************************************
set group_subprocesses Auto
set ignore_six_quark_processes False
set loop_optimized_output True
set gauge unitary
set complex_mass_scheme False
import model sm
define p = g u c d s u~ c~ d~ s~
define j = g u c d s u~ c~ d~ s~
define l+ = e+ mu+
define l- = e- mu-
define vl = ve vm vt
define vl~ = ve~ vm~ vt~
import model Zprime_UFO
generate p p > zph, zph > j j
add process p p > zph, zph > b b~
output Dijet_signal
</MG5ProcCard>
<MGProcCard>
#*********************************************************************
#                        MadGraph/MadEvent                           *
#                   http://madgraph.hep.uiuc.edu                     *
#                                                                    *
#                          proc_card.dat                             *
#*********************************************************************
#                                                                    *
#            This Files is generated by MADGRAPH 5                   *
#                                                                    *
# WARNING: This Files is generated for MADEVENT (compatibility issue)*
#          This files is NOT a valid MG4 proc_card.dat               *
#          Running this in MG4 will NEVER reproduce the result of MG5*
#                                                                    *
#*********************************************************************
#*********************************************************************
# Process(es) requested : mg2 input                                  *
#*********************************************************************
# Begin PROCESS # This is TAG. Do not modify this line
p p > zph , zph > j j           #Process
# Be carefull the coupling are here in MG5 convention
          
end_coup           # End the couplings input

done               # this tells MG there are no more procs
# End PROCESS  # This is TAG. Do not modify this line
#*********************************************************************
# Model information                                                  *
#*********************************************************************
# Begin MODEL  # This is TAG. Do not modify this line
Zprime_UFO
# End   MODEL  # This is TAG. Do not modify this line
#*********************************************************************
# Start multiparticle definitions                                    *
#*********************************************************************
# Begin MULTIPARTICLES # This is TAG. Do not modify this line

# End  MULTIPARTICLES # This is TAG. Do not modify this line
</MGProcCard>
<MGRunCard>
#*********************************************************************
#                       MadGraph5_aMC@NLO                            *
#                                                                    *
#                     run_card.dat MadEvent                          *
#                                                                    *
#  This file is used to set the parameters of the run.               *
#                                                                    *
#  Some notation/conventions:                                        *
#                                                                    *
#   Lines starting with a '# ' are info or comments                  *
#                                                                    *
#   mind the format:   value    = variable     ! comment             *
#*********************************************************************
#
#*******************                                                 
# Running parameters
#*******************                                                 
#                                                                    
#*********************************************************************
# Tag name for the run (one word)                                    *
#*********************************************************************
  tag_1     = run_tag ! name of the run 
#*********************************************************************
# Run to generate the grid pack                                      *
#*********************************************************************
  .false.     = gridpack  !True = setting up the grid pack
#*********************************************************************
# Number of events and rnd seed                                      *
# Warning: Do not generate more than 1M events in a single run       *
# If you want to run Pythia, avoid more than 50k events in a run.    *
#*********************************************************************
  2000 = nevents ! Number of unweighted events requested 
 1695 = iseed   ! rnd seed (0=assigned automatically=default))
#*********************************************************************
# Collider type and energy                                           *
# lpp: 0=No PDF, 1=proton, -1=antiproton, 2=photon from proton,      *
#                                         3=photon from electron     *
#*********************************************************************
        1     = lpp1    ! beam 1 type 
        1     = lpp2    ! beam 2 type
     4000     = ebeam1  ! beam 1 total energy in GeV
     4000     = ebeam2  ! beam 2 total energy in GeV
#*********************************************************************
# Beam polarization from -100 (left-handed) to 100 (right-handed)    *
#*********************************************************************
        0     = polbeam1 ! beam polarization for beam 1
        0     = polbeam2 ! beam polarization for beam 2
#*********************************************************************
# PDF CHOICE: this automatically fixes also alpha_s and its evol.    *
#*********************************************************************
 'nn23lo1'    = pdlabel     ! PDF set                                     
 230000    = lhaid     ! if pdlabel=lhapdf, this is the lhapdf number
#*********************************************************************
# Renormalization and factorization scales                           *
#*********************************************************************
 F        = fixed_ren_scale  ! if .true. use fixed ren scale
 F        = fixed_fac_scale  ! if .true. use fixed fac scale
 91.1880  = scale            ! fixed ren scale
 91.1880  = dsqrt_q2fact1    ! fixed fact scale for pdf1
 91.1880  = dsqrt_q2fact2    ! fixed fact scale for pdf2
 1        = scalefact        ! scale factor for event-by-event scales
#*********************************************************************
# Matching - Warning! ickkw > 1 is still beta
#*********************************************************************
 0        = ickkw            ! 0 no matching, 1 MLM, 2 CKKW matching
 1        = highestmult      ! for ickkw=2, highest mult group
 1        = ktscheme         ! for ickkw=1, 1 Durham kT, 2 Pythia pTE
 1        = alpsfact         ! scale factor for QCD emission vx
 F        = chcluster        ! cluster only according to channel diag
 T        = pdfwgt           ! for ickkw=1, perform pdf reweighting
 5        = asrwgtflavor     ! highest quark flavor for a_s reweight
 T        = clusinfo         ! include clustering tag in output
 3.0      = lhe_version       ! Change the way clustering information pass to shower.        
#*********************************************************************
#**********************************************************
#
#**********************************************************
# Automatic ptj and mjj cuts if xqcut > 0
# (turn off for VBF and single top processes)
#**********************************************************
   T  = auto_ptj_mjj  ! Automatic setting of ptj and mjj
#**********************************************************
#                                                                    
#**********************************
# BW cutoff (M+/-bwcutoff*Gamma)
#**********************************
  15  = bwcutoff      ! (M+/-bwcutoff*Gamma)
#**********************************************************
# Apply pt/E/eta/dr/mij cuts on decay products or not
# (note that etmiss/ptll/ptheavy/ht/sorted cuts always apply)
#**********************************************************
   T  = cut_decays    ! Cut decay products 
#*************************************************************
# Number of helicities to sum per event (0 = all helicities)
# 0 gives more stable result, but longer run time (needed for
# long decay chains e.g.).
# Use >=2 if most helicities contribute, e.g. pure QCD.
#*************************************************************
   0  = nhel          ! Number of helicities used per event
#*******************                                                 
# Standard Cuts
#*******************                                                 
#                                                                    
#*********************************************************************
# Minimum and maximum pt's (for max, -1 means no cut)                *
#*********************************************************************
 20  = ptj       ! minimum pt for the jets 
  0  = ptb       ! minimum pt for the b 
 10  = pta       ! minimum pt for the photons 
 10  = ptl       ! minimum pt for the charged leptons 
  0  = misset    ! minimum missing Et (sum of neutrino's momenta)
  0  = ptheavy   ! minimum pt for one heavy final state
 1.0 = ptonium   ! minimum pt for the quarkonium states
 -1  = ptjmax    ! maximum pt for the jets
 -1  = ptbmax    ! maximum pt for the b
 -1  = ptamax    ! maximum pt for the photons
 -1  = ptlmax    ! maximum pt for the charged leptons
 -1  = missetmax ! maximum missing Et (sum of neutrino's momenta)
#*********************************************************************
# Minimum and maximum E's (in the center of mass frame)              *
#*********************************************************************
  0  = ej     ! minimum E for the jets 
  0  = eb     ! minimum E for the b 
  0  = ea     ! minimum E for the photons 
  0  = el     ! minimum E for the charged leptons 
 -1   = ejmax ! maximum E for the jets
 -1   = ebmax ! maximum E for the b
 -1   = eamax ! maximum E for the photons
 -1   = elmax ! maximum E for the charged leptons
#*********************************************************************
# Maximum and minimum absolute rapidity (for max, -1 means no cut)   *
#*********************************************************************
   5  = etaj    ! max rap for the jets 
  -1  = etab    ! max rap for the b
 2.5  = etaa    ! max rap for the photons 
 2.5  = etal    ! max rap for the charged leptons 
 0.6  = etaonium ! max rap for the quarkonium states
   0  = etajmin ! min rap for the jets
   0  = etabmin ! min rap for the b
   0  = etaamin ! min rap for the photons
   0  = etalmin ! main rap for the charged leptons
#*********************************************************************
# Minimum and maximum DeltaR distance                                *
#*********************************************************************
 0.4 = drjj    ! min distance between jets 
 0   = drbb    ! min distance between b's 
 0.4 = drll    ! min distance between leptons 
 0.4 = draa    ! min distance between gammas 
 0   = drbj    ! min distance between b and jet 
 0.4 = draj    ! min distance between gamma and jet 
 0.4 = drjl    ! min distance between jet and lepton 
 0   = drab    ! min distance between gamma and b 
 0   = drbl    ! min distance between b and lepton 
 0.4 = dral    ! min distance between gamma and lepton 
 -1  = drjjmax ! max distance between jets
 -1  = drbbmax ! max distance between b's
 -1  = drllmax ! max distance between leptons
 -1  = draamax ! max distance between gammas
 -1  = drbjmax ! max distance between b and jet
 -1  = drajmax ! max distance between gamma and jet
 -1  = drjlmax ! max distance between jet and lepton
 -1  = drabmax ! max distance between gamma and b
 -1  = drblmax ! max distance between b and lepton
 -1  = dralmax ! maxdistance between gamma and lepton
#*********************************************************************
# Minimum and maximum invariant mass for pairs                       *
# WARNING: for four lepton final state mmll cut require to have      *
#          different lepton masses for each flavor!                  *           
#*********************************************************************
 0   = mmjj    ! min invariant mass of a jet pair 
 0   = mmbb    ! min invariant mass of a b pair 
 0   = mmaa    ! min invariant mass of gamma gamma pair
 0   = mmll    ! min invariant mass of l+l- (same flavour) lepton pair
 -1  = mmjjmax ! max invariant mass of a jet pair
 -1  = mmbbmax ! max invariant mass of a b pair
 -1  = mmaamax ! max invariant mass of gamma gamma pair
 -1  = mmllmax ! max invariant mass of l+l- (same flavour) lepton pair
#*********************************************************************
# Minimum and maximum invariant mass for all letpons                 *
#*********************************************************************
 0   = mmnl    ! min invariant mass for all letpons (l+- and vl) 
 -1  = mmnlmax ! max invariant mass for all letpons (l+- and vl) 
#*********************************************************************
# Minimum and maximum pt for 4-momenta sum of leptons                *
#*********************************************************************
 0   = ptllmin  ! Minimum pt for 4-momenta sum of leptons(l and vl)
 -1  = ptllmax  ! Maximum pt for 4-momenta sum of leptons(l and vl)
#*********************************************************************
# Inclusive cuts                                                     *
#*********************************************************************
 0  = xptj ! minimum pt for at least one jet  
 0  = xptb ! minimum pt for at least one b 
 0  = xpta ! minimum pt for at least one photon 
 0  = xptl ! minimum pt for at least one charged lepton 
#*********************************************************************
# Control the pt's of the jets sorted by pt                          *
#*********************************************************************
 0   = ptj1min ! minimum pt for the leading jet in pt
 0   = ptj2min ! minimum pt for the second jet in pt
 0   = ptj3min ! minimum pt for the third jet in pt
 0   = ptj4min ! minimum pt for the fourth jet in pt
 -1  = ptj1max ! maximum pt for the leading jet in pt 
 -1  = ptj2max ! maximum pt for the second jet in pt
 -1  = ptj3max ! maximum pt for the third jet in pt
 -1  = ptj4max ! maximum pt for the fourth jet in pt
 0   = cutuse  ! reject event if fails any (0) / all (1) jet pt cuts
#*********************************************************************
# Control the pt's of leptons sorted by pt                           *
#*********************************************************************
 0   = ptl1min ! minimum pt for the leading lepton in pt
 0   = ptl2min ! minimum pt for the second lepton in pt
 0   = ptl3min ! minimum pt for the third lepton in pt
 0   = ptl4min ! minimum pt for the fourth lepton in pt
 -1  = ptl1max ! maximum pt for the leading lepton in pt 
 -1  = ptl2max ! maximum pt for the second lepton in pt
 -1  = ptl3max ! maximum pt for the third lepton in pt
 -1  = ptl4max ! maximum pt for the fourth lepton in pt
#*********************************************************************
# Control the Ht(k)=Sum of k leading jets                            *
#*********************************************************************
 0   = htjmin ! minimum jet HT=Sum(jet pt)
 -1  = htjmax ! maximum jet HT=Sum(jet pt)
 0   = ihtmin  !inclusive Ht for all partons (including b)
 -1  = ihtmax  !inclusive Ht for all partons (including b)
 0   = ht2min ! minimum Ht for the two leading jets
 0   = ht3min ! minimum Ht for the three leading jets
 0   = ht4min ! minimum Ht for the four leading jets
 -1  = ht2max ! maximum Ht for the two leading jets
 -1  = ht3max ! maximum Ht for the three leading jets
 -1  = ht4max ! maximum Ht for the four leading jets
#***********************************************************************
# Photon-isolation cuts, according to hep-ph/9801442                   *
# When ptgmin=0, all the other parameters are ignored                  *
# When ptgmin>0, pta and draj are not going to be used                 *
#***********************************************************************
   0 = ptgmin ! Min photon transverse momentum
 0.4 = R0gamma ! Radius of isolation code
 1.0 = xn ! n parameter of eq.(3.4) in hep-ph/9801442
 1.0 = epsgamma ! epsilon_gamma parameter of eq.(3.4) in hep-ph/9801442
 .true. = isoEM ! isolate photons from EM energy (photons and leptons)
#*********************************************************************
# WBF cuts                                                           *
#*********************************************************************
 0   = xetamin ! minimum rapidity for two jets in the WBF case  
 0   = deltaeta ! minimum rapidity for two jets in the WBF case 
#*********************************************************************
# KT DURHAM CUT                                                      *
#*********************************************************************
 -1    =  ktdurham        
 0.4  =  dparameter 
#*********************************************************************
# maximal pdg code for quark to be considered as a light jet         *
# (otherwise b cuts are applied)                                     *
#*********************************************************************
 4 = maxjetflavor    ! Maximum jet pdg code
#*********************************************************************
# Jet measure cuts                                                   *
#*********************************************************************
 0   = xqcut   ! minimum kt jet measure between partons
#*********************************************************************
#
#*********************************************************************
# Store info for systematics studies                                 *
# WARNING: If use_syst is T, matched Pythia output is                *
#          meaningful ONLY if plotted taking matchscale              *
#          reweighting into account!                                 *
#*********************************************************************
   F  = use_syst      ! Enable systematics studies
#
#**************************************
# Parameter of the systematics study
#  will be used by SysCalc (if installed)
#**************************************                                  
#
0.5 1 2 = sys_scalefact  # factorization/renormalization scale factor
0.5 1 2 = sys_alpsfact  # \alpha_s emission scale factors
30 50 = sys_matchscale # variation of merging scale
# PDF sets and number of members (0 or none for all members).
CT10nlo.LHgrid = sys_pdf # matching scales
# MSTW2008nlo68cl.LHgrid 1  = sys_pdf
</MGRunCard>
<slha>
######################################################################
## PARAM_CARD AUTOMATICALY GENERATED BY MG5 FOLLOWING UFO MODEL   ####
######################################################################
##                                                                  ##
##  Width set on Auto will be computed following the information    ##
##        present in the decay.py files of the model.               ##
##        See  arXiv:1402.1178 for more details.                    ##
##                                                                  ##
######################################################################

###################################
## INFORMATION FOR CKMBLOCK
###################################
Block ckmblock 
    1 2.277360e-01 # cabi 

###################################
## INFORMATION FOR FRBLOCK
###################################
Block frblock 
    1 8.000000e-01 # gz 

###################################
## INFORMATION FOR MASS
###################################
Block mass 
    1 5.040000e-03 # MD 
    2 2.550000e-03 # MU 
    3 1.010000e-01 # MS 
    4 1.270000e+00 # MC 
    5 4.700000e+00 # MB 
    6 1.720000e+02 # MT 
   11 5.110000e-04 # Me 
   13 1.056600e-01 # MM 
   15 1.777000e+00 # MTA 
   23 9.118760e+01 # MZ 
   25 1.200000e+02 # MH 
  10030 3.000000e+03 # MZph 
  10031 3.000000e+02 # MZpl 
## Dependent parameters, given by model restrictions.
## Those values should be edited following the 
## analytical expression. MG5 ignores those values 
## but they are important for interfacing the output of MG5
## to external program such as Pythia.
  12 0.000000 # ve : 0.0 
  14 0.000000 # vm : 0.0 
  16 0.000000 # vt : 0.0 
  21 0.000000 # g : 0.0 
  22 0.000000 # a : 0.0 
  24 79.824360 # w+ : cmath.sqrt(MZ__exp__2/2. + cmath.sqrt(MZ__exp__4/4. - (aEW*cmath.pi*MZ__exp__2)/(Gf*sqrt__2))) 

###################################
## INFORMATION FOR SMINPUTS
###################################
Block sminputs 
    1 1.279000e+02 # aEWM1 
    2 1.166370e-05 # Gf 
    3 1.184000e-01 # aS 

###################################
## INFORMATION FOR YUKAWA
###################################
Block yukawa 
    1 5.040000e-03 # ymdo 
    2 2.550000e-03 # ymup 
    3 1.010000e-01 # yms 
    4 1.270000e+00 # ymc 
    5 4.700000e+00 # ymb 
    6 1.720000e+02 # ymt 
   11 5.110000e-04 # yme 
   13 1.056600e-01 # ymm 
   15 1.777000e+00 # ymtau 

###################################
## INFORMATION FOR DECAY
###################################
DECAY   6 1.508336e+00 # WT 
DECAY  23 2.495200e+00 # WZ 
DECAY  24 2.085000e+00 # WW 
DECAY  25 5.753088e-03 # WH 
## Dependent parameters, given by model restrictions.
## Those values should be edited following the 
## analytical expression. MG5 ignores those values 
## but they are important for interfacing the output of MG5
## to external program such as Pythia.
DECAY  1 0.000000 # d : 0.0 
DECAY  2 0.000000 # u : 0.0 
DECAY  3 0.000000 # s : 0.0 
DECAY  4 0.000000 # c : 0.0 
DECAY  5 0.000000 # b : 0.0 
DECAY  11 0.000000 # e- : 0.0 
DECAY  12 0.000000 # ve : 0.0 
DECAY  13 0.000000 # mu- : 0.0 
DECAY  14 0.000000 # vm : 0.0 
DECAY  15 0.000000 # ta- : 0.0 
DECAY  16 0.000000 # vt : 0.0 
DECAY  21 0.000000 # g : 0.0 
DECAY  22 0.000000 # a : 0.0 
DECAY  10030 0.308725 # zph : (gz__exp__2*MZph*(5 + cmath.sqrt(1 - (4*MT__exp__2)/MZph__exp__2)))/(144.*cmath.pi) 
DECAY  10031 0.132629 # zpl : (5*gz__exp__2*MZpl)/(144.*cmath.pi) 
#===========================================================
# QUANTUM NUMBERS OF NEW STATE(S) (NON SM PDG CODE)
#===========================================================

Block QNUMBERS 10030  # zph 
        1 0  # 3 times electric charge
        2 3  # number of spin states (2S+1)
        3 1  # colour rep (1: singlet, 3: triplet, 8: octet)
        4 0  # Particle/Antiparticle distinction (0=own anti)
Block QNUMBERS 10031  # zpl 
        1 0  # 3 times electric charge
        2 3  # number of spin states (2S+1)
        3 1  # colour rep (1: singlet, 3: triplet, 8: octet)
        4 0  # Particle/Antiparticle distinction (0=own anti)
</slha>
## END BANNER##
<MGGenerationInfo>
#  Number of Events        :         3891
#  Integrated weight (pb)  :  0.77996E-03
#  Max wgt                 :  0.31133E-06
#  Average wgt             :  0.20045E-06
</MGGenerationInfo>
</header>
<init>
     2212     2212  0.40000000000E+04  0.40000000000E+04 0 0  247000  247000 2   1
  0.78073000360E-03  0.16674445356E-05  0.31133280000E-06   0
</init>
<event>
 5   0  0.3113328E-06  0.3003099E+04  0.7818609E-02  0.8242846E-01
       -2   -1    0    0    0  501  0.00000000000E+00  0.00000000000E+00  0.18173438546E+04  0.18173438546E+04  0.25500000920E-02 0.  1.
        2   -1    0    0  501    0  0.00000000000E+00  0.00000000000E+00 -0.12406301226E+04  0.12406301226E+04  0.25500000920E-02 0. -1.
    10030    2    1    2    0    0  0.00000000000E+00  0.00000000000E+00  0.57671373195E+03  0.30579739772E+04  0.30030994184E+04 0.  0.
        1    1    3    3  502    0 -0.92931695089E+03  0.80947682388E+03 -0.58508652088E+03  0.13642613241E+04  0.50400001928E-02 0. -1.
       -1    1    3    3    0  502  0.92931695089E+03 -0.80947682388E+03  0.11618002528E+04  0.16937126531E+04  0.50400001928E-02 0.  1.
</event>
<event>
 5   0  0.3113328E-06  0.2711773E+04  0.7818609E-02  0.8331195E-01
        2   -1    0    0  501    0  0.00000000000E+00  0.00000000000E+00  0.14033765504E+04  0.14033765504E+04  0.25500000920E-02 0.  1.
       -2   -1    0    0    0  501  0.00000000000E+00  0.00000000000E+00 -0.13100030604E+04  0.13100030604E+04  0.25500000920E-02 0. -1.
    10030    2    1    2    0    0  0.00000000000E+00  0.00000000000E+00  0.93373490082E+02  0.27133796108E+04  0.27117725391E+04 0.  0.
        1    1    3    3  502    0  0.12685917697E+04 -0.21032430438E+03 -0.38352873974E+03  0.13418851238E+04  0.50400001928E-02 0.  1.
       -1    1    3    3    0  502 -0.12685917697E+04  0.21032430438E+03  0.47690222982E+03  0.13714944870E+04  0.50400001928E-02 0. -1.
</event>
<event>
 5   0  0.2985941E-06  0.2994979E+04  0.7818609E-02  0.8245166E-01
        2   -1    0    0  501    0  0.00000000000E+00  0.00000000000E+00  0.16277195335E+04  0.16277195335E+04  0.25500000920E-02 0.  1.
       -2   -1    0    0    0  501  0.00000000000E+00  0.00000000000E+00 -0.13776785508E+04  0.13776785508E+04  0.25500000920E-02 0. -1.
    10030    2    1    2    0    0  0.00000000000E+00  0.00000000000E+00  0.25004098268E+03  0.30053980843E+04  0.29949786564E+04 0.  0.
        3    1    3    3  502    0  0.54485933795E+02 -0.10431756416E+04 -0.95169426828E+03  0.14131192896E+04  0.10100000352E+00 0. -1.
       -3    1    3    3    0  502 -0.54485933795E+02  0.10431756416E+04  0.12017352510E+04  0.15922787947E+04  0.10100000352E+00 0.  1.
</event>
<event>
 5   0  0.3113328E-06  0.3043402E+04  0.7818609E-02  0.8231445E-01
        2   -1    0    0  501    0  0.00000000000E+00  0.00000000000E+00  0.14576143764E+04  0.14576143764E+04  0.25500000920E-02 0. -1.
       -2   -1    0    0    0  501  0.00000000000E+00  0.00000000000E+00 -0.15886054419E+04  0.15886054419E+04  0.25500000920E-02 0.  1.
    10030    2    1    2    0    0  0.00000000000E+00  0.00000000000E+00 -0.13099106549E+03  0.30462198182E+04  0.30434021295E+04 0.  0.
        1    1    3    3  502    0 -0.39619902590E+03  0.12552747346E+04  0.69868089652E+03  0.14902494162E+04  0.50400001928E-02 0.  1.
       -1    1    3    3    0  502  0.39619902590E+03 -0.12552747346E+04 -0.82967196201E+03  0.15559704020E+04  0.50400001928E-02 0. -1.
</event>
<event>
 5   0  0.2985941E-06  0.3007923E+04  0.7818609E-02  0.8241472E-01
       -2   -1    0    0    0  501  0.00000000000E+00  0.00000000000E+00  0.17258592160E+04  0.17258592160E+04  0.25500000920E-02 0.  1.
        2   -1    0    0  501    0  0.00000000000E+00  0.00000000000E+00 -0.13105932852E+04  0.13105932852E+04  0.25500000920E-02 0. -1.
    10030    2    1    2    0    0  0.00000000000E+00  0.00000000000E+00  0.41526593075E+03  0.30364525012E+04  0.30079225387E+04 0.  0.
        3    1    3    3  502    0 -0.10335319420E+04 -0.37005747209E+03 -0.83011003100E+03  0.13763042838E+04  0.10100000352E+00 0. -1.
       -3    1    3    3    0  502  0.10335319420E+04  0.37005747209E+03  0.12453759618E+04  0.16601482175E+04  0.10100000352E+00 0.  1.
</event>
<event>
 5   0  0.1091075E-06  0.3013242E+04  0.7818609E-02  0.8239960E-01
        1   -1    0    0  501    0  0.00000000000E+00  0.00000000000E+00  0.17380564576E+04  0.17380564576E+04  0.50400001928E-02 0.  1.
       -1   -1    0    0    0  501  0.00000000000E+00  0.00000000000E+00 -0.13060029568E+04  0.13060029568E+04  0.50400001928E-02 0. -1.
    10030    2    1    2    0    0  0.00000000000E+00  0.00000000000E+00  0.43205350081E+03  0.30440594144E+04  0.30132420233E+04 0.  0.
        1    1    3    3  502    0  0.28005631746E+01 -0.34818293189E+03 -0.12647982382E+04  0.13118512799E+04  0.50400001928E-02 0. -1.
       -1    1    3    3    0  502 -0.28005631746E+01  0.34818293189E+03  0.16968517390E+04  0.17322081345E+04  0.50400001928E-02 0.  1.
</event>
<event>
 5   0  0.1091076E-06  0.3273845E+04  0.7818609E-02  0.8169583E-01
        1   -1    0    0  501    0  0.00000000000E+00  0.00000000000E+00  0.24082920842E+04  0.24082920842E+04  0.50400001928E-02 0. -1.
       -1   -1    0    0    0  501  0.00000000000E+00  0.00000000000E+00 -0.11126206429E+04  0.11126206429E+04  0.50400001928E-02 0.  1.
    10030    2    1    2    0    0  0.00000000000E+00  0.00000000000E+00  0.12956714414E+04  0.35209127271E+04  0.32738451319E+04 0.  0.
        3    1    3    3  502    0  0.42688024257E+03 -0.11443868623E+04  0.18198814453E+04  0.21917610539E+04  0.10100000352E+00 0. -1.
       -3    1    3    3    0  502 -0.42688024257E+03  0.11443868623E+04 -0.52421000396E+03  0.13291516732E+04  0.10100000352E+00 0.  1.
</event>
<event>
 5   0  0.3113328E-06  0.3023818E+04  0.7818609E-02  0.8236962E-01
        2   -1    0    0  501    0  0.00000000000E+00  0.00000000000E+00  0.24183270017E+04  0.24183270017E+04  0.25500000920E-02 0. -1.
       -2   -1    0    0    0  501  0.00000000000E+00  0.00000000000E+00 -0.94522735752E+03  0.94522735753E+03  0.25500000920E-02 0.  1.
    10030    2    1    2    0    0  0.00000000000E+00  0.00000000000E+00  0.14730996441E+04  0.33635543592E+04  0.30238180113E+04 0.  0.
        1    1    3    3  502    0  0.10443488279E+03 -0.14533287790E+04  0.11853643184E+04  0.18783396264E+04  0.50400001928E-02 0. -1.
       -1    1    3    3    0  502 -0.10443488279E+03  0.14533287790E+04  0.28773532570E+03  0.14852147328E+04  0.50400001928E-02 0.  1.
</event>
<event>
 5   0  0.1054384E-06  0.2997986E+04  0.7818609E-02  0.8244306E-01
       -1   -1    0    0    0  501  0.00000000000E+00  0.00000000000E+00  0.13994565374E+04  0.13994565374E+04  0.50400001928E-02 0. -1.
        1   -1    0    0  501    0  0.00000000000E+00  0.00000000000E+00 -0.16056087614E+04  0.16056087614E+04  0.50400001928E-02 0.  1.
    10030    2    1    2    0    0  0.00000000000E+00  0.00000000000E+00 -0.20615222403E+03  0.30050652988E+04  0.29979857755E+04 0.  0.
        2    1    3    3  502    0 -0.33045549756E+03 -0.10381012474E+04  0.92897881211E+03  0.14317320521E+04  0.25500000920E-02 0.  1.
       -2    1    3    3    0  502  0.33045549756E+03  0.10381012474E+04 -0.11351310361E+04  0.15733332466E+04  0.25500000920E-02 0. -1.
</event>
<event>
 5   0  0.3113328E-06  0.3001103E+04  0.7818609E-02  0.8243416E-01
       -2   -1    0    0    0  501  0.00000000000E+00  0.00000000000E+00  0.14504884201E+04  0.14504884201E+04  0.25500000920E-02 0. -1.
        2   -1    0    0  501    0  0.00000000000E+00  0.00000000000E+00 -0.15523421401E+04  0.15523421401E+04  0.25500000920E-02 0.  1.
    10030    2    1    2    0    0  0.00000000000E+00  0.00000000000E+00 -0.10185371997E+03  0.30028305602E+04  0.30011026628E+04 0.  0.
        1    1    3    3  502    0  0.10317681316E+04  0.10862941783E+04 -0.13508104570E+03  0.15042697258E+04  0.50400001928E-02 0. -1.
       -1    1    3    3    0  502 -0.10317681316E+04 -0.10862941783E+04  0.33227325737E+02  0.14985608344E+04  0.50400001928E-02 0.  1.
</event>
<event>
 5   0  0.1054384E-06  0.3012530E+04  0.7818609E-02  0.8240162E-01
        1   -1    0    0  501    0  0.00000000000E+00  0.00000000000E+00  0.17341847388E+04  0.17341847388E+04  0.50400001928E-02 0. -1.
       -1   -1    0    0    0  501  0.00000000000E+00  0.00000000000E+00 -0.13082997939E+04  0.13082997939E+04  0.50400001928E-02 0.  1.
    10030    2    1    2    0    0  0.00000000000E+00  0.00000000000E+00  0.42588494493E+03  0.30424845327E+04  0.30125295261E+04 0.  0.
        2    1    3    3  502    0  0.12514910562E+04  0.31121613075E+03 -0.57309478259E+03  0.14112132984E+04  0.25500000920E-02 0.  1.
       -2    1    3    3    0  502 -0.12514910562E+04 -0.31121613075E+03  0.99897972752E+03  0.16312712343E+04  0.25500000920E-02 0. -1.
</event>
<event>
 5   0  0.2948711E-06  0.2995553E+04  0.7818609E-02  0.8245002E-01
        2   -1    0    0  501    0  0.00000000000E+00  0.00000000000E+00  0.12622929553E+04  0.12622929553E+04  0.25500000920E-02 0. -1.
       -2   -1    0    0    0  501  0.00000000000E+00  0.00000000000E+00 -0.17771903127E+04  0.17771903127E+04  0.25500000920E-02 0.  1.
    10030    2    1    2    0    0  0.00000000000E+00  0.00000000000E+00 -0.51489735739E+03  0.30394832680E+04  0.29955532457E+04 0.  0.
        5    1    3    3  502    0  0.13944811970E+04 -0.45366106197E+03  0.51860373065E+02  0.14673437758E+04  0.46999998093E+01 0. -1.
       -5    1    3    3    0  502 -0.13944811970E+04  0.45366106197E+03 -0.56675773045E+03  0.15721394922E+04  0.46999998093E+01 0.  1.
</event>
<event>
 5   0  0.1113245E-06  0.2997854E+04  0.7818609E-02  0.8244344E-01
        1   -1    0    0  501    0  0.00000000000E+00  0.00000000000E+00  0.13820745182E+04  0.13820745183E+04  0.50400001928E-02 0. -1.
       -1   -1    0    0    0  501  0.00000000000E+00  0.00000000000E+00 -0.16256595640E+04  0.16256595640E+04  0.50400001928E-02 0.  1.
    10030    2    1    2    0    0  0.00000000000E+00  0.00000000000E+00 -0.24358504574E+03  0.30077340823E+04  0.29978543385E+04 0.  0.
        5    1    3    3  502    0  0.59362228976E+03 -0.67216558527E+03  0.10832346547E+04  0.14062764323E+04  0.46999998093E+01 0. -1.
       -5    1    3    3    0  502 -0.59362228976E+03  0.67216558527E+03 -0.13268197005E+04  0.16014576499E+04  0.46999998093E+01 0.  1.
</event>
<event>
 5   0  0.1091075E-06  0.3009307E+04  0.7818609E-02  0.8241078E-01
        1   -1    0    0  501    0  0.00000000000E+00  0.00000000000E+00  0.14592482045E+04  0.14592482045E+04  0.50400001928E-02 0. -1.
       -1   -1    0    0    0  501  0.00000000000E+00  0.00000000000E+00 -0.15514715820E+04  0.15514715820E+04  0.50400001928E-02 0.  1.
    10030    2    1    2    0    0  0.00000000000E+00  0.00000000000E+00 -0.92223377471E+02  0.30107197865E+04  0.30093069769E+04 0.  0.
        1    1    3    3  502    0  0.11209479839E+04  0.25805453301E+03  0.92432596431E+03  0.14756337665E+04  0.50400001928E-02 0. -1.
       -1    1    3    3    0  502 -0.11209479839E+04 -0.25805453301E+03 -0.10165493418E+04  0.15350860200E+04  0.50400001928E-02 0.  1.
</event>
<event>
 5   0  0.1091076E-06  0.2864814E+04  0.7818609E-02  0.8283424E-01
       -1   -1    0    0    0  501  0.00000000000E+00  0.00000000000E+00  0.12516673675E+04  0.12516673675E+04  0.50400001928E-02 0.  1.
        1   -1    0    0  501    0  0.00000000000E+00  0.00000000000E+00 -0.16392447642E+04  0.16392447642E+04  0.50400001928E-02 0. -1.
    10030    2    1    2    0    0  0.00000000000E+00  0.00000000000E+00 -0.38757739668E+03  0.28909121317E+04  0.28648135568E+04 0.  0.
        3    1    3    3  502    0 -0.45496557771E+03  0.10361662801E+04 -0.10799429971E+04  0.15642605679E+04  0.10100000352E+00 0.  1.
       -3    1    3    3    0  502  0.45496557771E+03 -0.10361662801E+04  0.69236560046E+03  0.13266515638E+04  0.10100000352E+00 0. -1.
</event>
<event>
 5   0  0.1091076E-06  0.3003340E+04  0.7818609E-02  0.8242778E-01
        1   -1    0    0  501    0  0.00000000000E+00  0.00000000000E+00  0.15461296779E+04  0.15461296779E+04  0.50400001928E-02 0. -1.
       -1   -1    0    0    0  501  0.00000000000E+00  0.00000000000E+00 -0.14584888430E+04  0.14584888431E+04  0.50400001928E-02 0.  1.
    10030    2    1    2    0    0  0.00000000000E+00  0.00000000000E+00  0.87640834867E+02  0.30046185210E+04  0.30033400641E+04 0.  0.
        3    1    3    3  502    0 -0.17552713212E+03  0.35049391678E+03  0.14940433315E+04  0.15446103866E+04  0.10100000352E+00 0. -1.
       -3    1    3    3    0  502  0.17552713212E+03 -0.35049391678E+03 -0.14064024966E+04  0.14600081344E+04  0.10100000352E+00 0.  1.
</event>
<event>
 5   0  0.3113328E-06  0.2989329E+04  0.7818609E-02  0.8246785E-01
        2   -1    0    0  501    0  0.00000000000E+00  0.00000000000E+00  0.25812023814E+04  0.25812023814E+04  0.25500000920E-02 0.  1.
       -2   -1    0    0    0  501  0.00000000000E+00  0.00000000000E+00 -0.86549666344E+03  0.86549666344E+03  0.25500000920E-02 0. -1.
    10030    2    1    2    0    0  0.00000000000E+00  0.00000000000E+00  0.17157057180E+04  0.34466990449E+04  0.29893290544E+04 0.  0.
        1    1    3    3  502    0 -0.89099422444E+02  0.71279989046E+03 -0.65341406408E+03  0.97106762385E+03  0.50400001928E-02 0. -1.
       -1    1    3    3    0  502  0.89099422444E+02 -0.71279989046E+03  0.23691197821E+04  0.24756314210E+04  0.50400001928E-02 0.  1.
</event>
<event>
 5   0  0.1097402E-06  0.2989515E+04  0.7818609E-02  0.8246731E-01
       -1   -1    0    0    0  501  0.00000000000E+00  0.00000000000E+00  0.10323073929E+04  0.10323073929E+04  0.50400001928E-02 0.  1.
        1   -1    0    0  501    0  0.00000000000E+00  0.00000000000E+00 -0.21643745847E+04  0.21643745847E+04  0.50400001928E-02 0. -1.
    10030    2    1    2    0    0  0.00000000000E+00  0.00000000000E+00 -0.11320671919E+04  0.31966819776E+04  0.29895149337E+04 0.  0.
        4    1    3    3  502    0  0.52007051448E+03  0.11442015364E+04  0.29912538343E+03  0.12919551478E+04  0.12699999809E+01 0.  1.
       -4    1    3    3    0  502 -0.52007051448E+03 -0.11442015364E+04 -0.14311925753E+04  0.19047268298E+04  0.12699999809E+01 0. -1.
</event>
<event>
 5   0  0.1091075E-06  0.2996998E+04  0.7818609E-02  0.8244589E-01
       -1   -1    0    0    0  501  0.00000000000E+00  0.00000000000E+00  0.13801230992E+04  0.13801230992E+04  0.50400001928E-02 0. -1.
        1   -1    0    0  501    0  0.00000000000E+00  0.00000000000E+00 -0.16270284957E+04  0.16270284957E+04  0.50400001928E-02 0.  1.
    10030    2    1    2    0    0  0.00000000000E+00  0.00000000000E+00 -0.24690539646E+03  0.30071515949E+04  0.29969982382E+04 0.  0.
        1    1    3    3  502    0 -0.11790406390E+04  0.11621757049E+02  0.80446555515E+03  0.14273880773E+04  0.50400001928E-02 0. -1.
       -1    1    3    3    0  502  0.11790406390E+04 -0.11621757049E+02 -0.10513709516E+04  0.15797635176E+04  0.50400001928E-02 0.  1.
</event>
<event>
 5   0  0.2862033E-06  0.2999728E+04  0.7818609E-02  0.8243809E-01
        2   -1    0    0  501    0  0.00000000000E+00  0.00000000000E+00  0.13372597240E+04  0.13372597240E+04  0.25500000920E-02 0. -1.
       -2   -1    0    0    0  501  0.00000000000E+00  0.00000000000E+00 -0.16822401329E+04  0.16822401329E+04  0.25500000920E-02 0.  1.
    10030    2    1    2    0    0  0.00000000000E+00  0.00000000000E+00 -0.34498040898E+03  0.30194998569E+04  0.29997279715E+04 0.  0.
        2    1    3    3  502    0 -0.11203191552E+04 -0.75965649298E+03  0.47783237284E+03  0.14354500247E+04  0.25500000920E-02 0. -1.
       -2    1    3    3    0  502  0.11203191552E+04  0.75965649298E+03 -0.82281278182E+03  0.15840498322E+04  0.25500000920E-02 0.  1.
</event>
<event>
 5   0  0.1091076E-06  0.3026039E+04  0.7818609E-02  0.8236334E-01
        1   -1    0    0  501    0  0.00000000000E+00  0.00000000000E+00  0.17676381439E+04  0.17676381439E+04  0.50400001928E-02 0.  1.
       -1   -1    0    0    0  501  0.00000000000E+00  0.00000000000E+00 -0.12950769321E+04  0.12950769321E+04  0.50400001928E-02 0. -1.
    10030    2    1    2    0    0  0.00000000000E+00  0.00000000000E+00  0.47256121178E+03  0.30627150760E+04  0.30260385882E+04 0.  0.
        3    1    3    3  502    0 -0.65167074877E+03 -0.22425937792E+03 -0.11269895832E+04  0.13210119470E+04  0.10100000352E+00 0. -1.
       -3    1    3    3    0  502  0.65167074877E+03  0.22425937792E+03  0.15995507950E+04  0.17417031289E+04  0.10100000352E+00 0.  1.
</event>
<event>
 5   0  0.2985941E-06  0.3034385E+04  0.7818609E-02  0.8233980E-01
       -2   -1    0    0    0  501  0.00000000000E+00  0.00000000000E+00  0.14299291103E+04  0.14299291103E+04  0.25500000920E-02 0.  1.
        2   -1    0    0  501    0  0.00000000000E+00  0.00000000000E+00 -0.16097808869E+04  0.16097808869E+04  0.25500000920E-02 0. -1.
    10030    2    1    2    0    0  0.00000000000E+00  0.00000000000E+00 -0.17985177652E+03  0.30397099972E+04  0.30343846502E+04 0.  0.
        3    1    3    3  502    0 -0.79977559956E+03  0.65230441635E+03  0.10241096653E+04  0.14539403970E+04  0.10100000352E+00 0.  1.
       -3    1    3    3    0  502  0.79977559956E+03 -0.65230441635E+03 -0.12039614418E+04  0.15857696002E+04  0.10100000352E+00 0. -1.
</event>
<event>
 5   0  0.1091075E-06  0.2997675E+04  0.7818609E-02  0.8244395E-01
        1   -1    0    0  501    0  0.00000000000E+00  0.00000000000E+00  0.23388136134E+04  0.23388136134E+04  0.50400001928E-02 0. -1.
       -1   -1    0    0    0  501  0.00000000000E+00  0.00000000000E+00 -0.96053578942E+03  0.96053578943E+03  0.50400001928E-02 0.  1.
    10030    2    1    2    0    0  0.00000000000E+00  0.00000000000E+00  0.13782778240E+04  0.32993494028E+04  0.29976752195E+04 0.  0.
        1    1    3    3  502    0  0.28638111127E+03 -0.14011218811E+04  0.19525184647E+03  0.14433571803E+04  0.50400001928E-02 0.  1.
       -1    1    3    3    0  502 -0.28638111127E+03  0.14011218811E+04  0.11830259775E+04  0.18559922225E+04  0.50400001928E-02 0. -1.
</event>
<event>
 5   0  0.2862033E-06  0.2988833E+04  0.7818609E-02  0.8246927E-01
       -2   -1    0    0    0  501  0.00000000000E+00  0.00000000000E+00  0.15418365457E+04  0.15418365457E+04  0.25500000920E-02 0.  1.
        2   -1    0    0  501    0  0.00000000000E+00  0.00000000000E+00 -0.14484552158E+04  0.14484552158E+04  0.25500000920E-02 0. -1.
    10030    2    1    2    0    0  0.00000000000E+00  0.00000000000E+00  0.93381329827E+02  0.29902917615E+04  0.29888333420E+04 0.  0.
        2    1    3    3  502    0 -0.20927817937E+03 -0.14610008938E+04  0.28124101755E+03  0.15024704583E+04  0.25500000920E-02 0.  1.
       -2    1    3    3    0  502  0.20927817937E+03  0.14610008938E+04 -0.18785968772E+03  0.14878213032E+04  0.25500000920E-02 0. -1.
</event>
<event>
 5   0  0.1054384E-06  0.3000328E+04  0.7818609E-02  0.8243637E-01
       -1   -1    0    0    0  501  0.00000000000E+00  0.00000000000E+00  0.14883239216E+04  0.14883239216E+04  0.50400001928E-02 0. -1.
        1   -1    0    0  501    0  0.00000000000E+00  0.00000000000E+00 -0.15120985410E+04  0.15120985410E+04  0.50400001928E-02 0.  1.
    10030    2    1    2    0    0  0.00000000000E+00  0.00000000000E+00 -0.23774619481E+02  0.30004224626E+04  0.30003282690E+04 0.  0.
        2    1    3    3  502    0  0.11419769602E+04 -0.28036978518E+03  0.91968572752E+03  0.14928296726E+04  0.25500000920E-02 0. -1.
       -2    1    3    3    0  502 -0.11419769602E+04  0.28036978518E+03 -0.94346034700E+03  0.15075927900E+04  0.25500000920E-02 0.  1.
</event>
<event>
 5   0  0.2985941E-06  0.2997499E+04  0.7818609E-02  0.8244445E-01
       -2   -1    0    0    0  501  0.00000000000E+00  0.00000000000E+00  0.15637897512E+04  0.15637897512E+04  0.25500000920E-02 0.  1.
        2   -1    0    0  501    0  0.00000000000E+00  0.00000000000E+00 -0.14364143625E+04  0.14364143625E+04  0.25500000920E-02 0. -1.
    10030    2    1    2    0    0  0.00000000000E+00  0.00000000000E+00  0.12737538876E+03  0.30002041137E+04  0.29974989965E+04 0.  0.
        3    1    3    3  502    0  0.12486776544E+04 -0.71867526715E+03  0.47704953288E+03  0.15176515711E+04  0.10100000352E+00 0.  1.
       -3    1    3    3    0  502 -0.12486776544E+04  0.71867526715E+03 -0.34967414412E+03  0.14825525426E+04  0.10100000352E+00 0. -1.
</event>
<event>
 5   0  0.2948711E-06  0.2986902E+04  0.7818609E-02  0.8247481E-01
       -2   -1    0    0    0  501  0.00000000000E+00  0.00000000000E+00  0.15498151953E+04  0.15498151953E+04  0.25500000920E-02 0.  1.
        2   -1    0    0  501    0  0.00000000000E+00  0.00000000000E+00 -0.14391363015E+04  0.14391363015E+04  0.25500000920E-02 0. -1.
    10030    2    1    2    0    0  0.00000000000E+00  0.00000000000E+00  0.11067889382E+03  0.29889514968E+04  0.29869016108E+04 0.  0.
        5    1    3    3  502    0  0.79155871207E+03 -0.88838971618E+03 -0.84781623575E+03  0.14610324918E+04  0.46999998093E+01 0. -1.
       -5    1    3    3    0  502 -0.79155871207E+03  0.88838971618E+03  0.95849512958E+03  0.15279190050E+04  0.46999998093E+01 0.  1.
</event>
<event>
 5   0  0.1054384E-06  0.3000175E+04  0.7818609E-02  0.8243681E-01
        1   -1    0    0  501    0  0.00000000000E+00  0.00000000000E+00  0.24774593982E+04  0.24774593982E+04  0.50400001928E-02 0.  1.
       -1   -1    0    0    0  501  0.00000000000E+00  0.00000000000E+00 -0.90829438589E+03  0.90829438591E+03  0.50400001928E-02 0. -1.
    10030    2    1    2    0    0  0.00000000000E+00  0.00000000000E+00  0.15691650123E+04  0.33857537841E+04  0.30001749700E+04 0.  0.
        2    1    3    3  502    0  0.59352081519E+03  0.78759999296E+03  0.20601990285E+04  0.22840754681E+04  0.25500000920E-02 0.  1.
       -2    1    3    3    0  502 -0.59352081519E+03 -0.78759999296E+03 -0.49103401616E+03  0.11016783160E+04  0.25500000920E-02 0. -1.
</event>
<event>
 5   0  0.2985941E-06  0.3002976E+04  0.7818609E-02  0.8242882E-01
       -2   -1    0    0    0  501  0.00000000000E+00  0.00000000000E+00  0.16495840620E+04  0.16495840620E+04  0.25500000920E-02 0. -1.
        2   -1    0    0  501    0  0.00000000000E+00  0.00000000000E+00 -0.13666878121E+04  0.13666878121E+04  0.25500000920E-02 0.  1.
    10030    2    1    2    0    0  0.00000000000E+00  0.00000000000E+00  0.28289624994E+03  0.30162718741E+04  0.30029761455E+04 0.  0.
        3    1    3    3  502    0  0.12081119230E+04 -0.88861439961E+03  0.68349173437E+02  0.15012799837E+04  0.10100000352E+00 0.  1.
       -3    1    3    3    0  502 -0.12081119230E+04  0.88861439961E+03  0.21454707650E+03  0.15149918904E+04  0.10100000352E+00 0. -1.
</event>
<event>
 5   0  0.3113328E-06  0.3081445E+04  0.7818609E-02  0.8220849E-01
       -2   -1    0    0    0  501  0.00000000000E+00  0.00000000000E+00  0.11996149057E+04  0.11996149057E+04  0.25500000920E-02 0.  1.
        2   -1    0    0  501    0  0.00000000000E+00  0.00000000000E+00 -0.19788236154E+04  0.19788236154E+04  0.25500000920E-02 0. -1.
    10030    2    1    2    0    0  0.00000000000E+00  0.00000000000E+00 -0.77920870964E+03  0.31784385211E+04  0.30814453134E+04 0.  0.
        1    1    3    3  502    0 -0.25703980978E+03  0.32229946706E+03 -0.19208797784E+04  0.19646184193E+04  0.50400001928E-02 0. -1.
       -1    1    3    3    0  502  0.25703980978E+03 -0.32229946706E+03  0.11416710688E+04  0.12138201018E+04  0.50400001928E-02 0.  1.
</event>
<event>
 5   0  0.1113245E-06  0.2992906E+04  0.7818609E-02  0.8245759E-01
        1   -1    0    0  501    0  0.00000000000E+00  0.00000000000E+00  0.14496115470E+04  0.14496115470E+04  0.50400001928E-02 0.  1.
       -1   -1    0    0    0  501  0.00000000000E+00  0.00000000000E+00 -0.15448084783E+04  0.15448084783E+04  0.50400001928E-02 0. -1.
    10030    2    1    2    0    0  0.00000000000E+00  0.00000000000E+00 -0.95196931305E+02  0.29944200253E+04  0.29929064188E+04 0.  0.
        5    1    3    3  502    0 -0.92645137633E+03  0.72452456875E+03 -0.97332426132E+03  0.15266401708E+04  0.46999998093E+01 0. -1.
       -5    1    3    3    0  502  0.92645137633E+03 -0.72452456875E+03  0.87812733001E+03  0.14677798545E+04  0.46999998093E+01 0.  1.
</event>
<event>
 5   0  0.2985941E-06  0.2981905E+04  0.7818609E-02  0.8248917E-01
        2   -1    0    0  501    0  0.00000000000E+00  0.00000000000E+00  0.21165382281E+04  0.21165382281E+04  0.25500000920E-02 0. -1.
       -2   -1    0    0    0  501  0.00000000000E+00  0.00000000000E+00 -0.10502712861E+04  0.10502712861E+04  0.25500000920E-02 0.  1.
    10030    2    1    2    0    0  0.00000000000E+00  0.00000000000E+00  0.10662669420E+04  0.31668095143E+04  0.29819049797E+04 0.  0.
        3    1    3    3  502    0 -0.14359265699E+04 -0.23836151246E+02  0.10768519108E+03  0.14401560286E+04  0.10100000352E+00 0.  1.
       -3    1    3    3    0  502  0.14359265699E+04  0.23836151246E+02  0.95858175095E+03  0.17266534857E+04  0.10100000352E+00 0. -1.
</event>
<event>
 5   0  0.1097402E-06  0.2986704E+04  0.7818609E-02  0.8247538E-01
       -1   -1    0    0    0  501  0.00000000000E+00  0.00000000000E+00  0.12207172928E+04  0.12207172928E+04  0.50400001928E-02 0.  1.
        1   -1    0    0  501    0  0.00000000000E+00  0.00000000000E+00 -0.18268764122E+04  0.18268764122E+04  0.50400001928E-02 0. -1.
    10030    2    1    2    0    0  0.00000000000E+00  0.00000000000E+00 -0.60615911944E+03  0.30475937050E+04  0.29867036198E+04 0.  0.
        4    1    3    3  502    0 -0.64970075090E+03 -0.48990391164E+02 -0.16741953616E+04  0.17965085154E+04  0.12699999809E+01 0. -1.
       -4    1    3    3    0  502  0.64970075090E+03  0.48990391164E+02  0.10680362422E+04  0.12510851896E+04  0.12699999809E+01 0.  1.
</event>
<event>
 5   0  0.1091075E-06  0.2803679E+04  0.7818609E-02  0.8302127E-01
        1   -1    0    0  501    0  0.00000000000E+00  0.00000000000E+00  0.12748125512E+04  0.12748125512E+04  0.50400001928E-02 0. -1.
       -1   -1    0    0    0  501  0.00000000000E+00  0.00000000000E+00 -0.15415237166E+04  0.15415237166E+04  0.50400001928E-02 0.  1.
    10030    2    1    2    0    0  0.00000000000E+00  0.00000000000E+00 -0.26671116542E+03  0.28163362679E+04  0.28036788561E+04 0.  0.
        1    1    3    3  502    0 -0.78941345273E+03  0.21003572674E+03  0.10110264521E+04  0.12997934808E+04  0.50400001928E-02 0. -1.
       -1    1    3    3    0  502  0.78941345273E+03 -0.21003572674E+03 -0.12777376175E+04  0.15165427871E+04  0.50400001928E-02 0.  1.
</event>
<event>
 5   0  0.1091076E-06  0.2788450E+04  0.7818609E-02  0.8306863E-01
        1   -1    0    0  501    0  0.00000000000E+00  0.00000000000E+00  0.18678908475E+04  0.18678908475E+04  0.50400001928E-02 0.  1.
       -1   -1    0    0    0  501  0.00000000000E+00  0.00000000000E+00 -0.10406730669E+04  0.10406730669E+04  0.50400001928E-02 0. -1.
    10030    2    1    2    0    0  0.00000000000E+00  0.00000000000E+00  0.82721778057E+03  0.29085639144E+04  0.27884502483E+04 0.  0.
        3    1    3    3  502    0 -0.90604266995E+03 -0.88234755994E+03 -0.19853789640E+03  0.12801827381E+04  0.10100000352E+00 0.  1.
       -3    1    3    3    0  502  0.90604266995E+03  0.88234755994E+03  0.10257556770E+04  0.16283811763E+04  0.10100000352E+00 0. -1.
</event>
<event>
 5   0  0.2970915E-06  0.3032208E+04  0.7818609E-02  0.8234593E-01
       -2   -1    0    0    0  501  0.00000000000E+00  0.00000000000E+00  0.97681169856E+03  0.97681169856E+03  0.25500000920E-02 0. -1.
        2   -1    0    0  501    0  0.00000000000E+00  0.00000000000E+00 -0.23531358387E+04  0.23531358387E+04  0.25500000920E-02 0.  1.
    10030    2    1    2    0    0  0.00000000000E+00  0.00000000000E+00 -0.13763241401E+04  0.33299475373E+04  0.30322075229E+04 0.  0.
        4    1    3    3  502    0 -0.90486795551E+03  0.21371001803E+03 -0.20032956169E+04  0.22085409053E+04  0.12699999809E+01 0.  1.
       -4    1    3    3    0  502  0.90486795551E+03 -0.21371001803E+03  0.62697147675E+03  0.11214066320E+04  0.12699999809E+01 0. -1.
</event>
<event>
 5   0  0.2970915E-06  0.3060411E+04  0.7818609E-02  0.8226687E-01
       -2   -1    0    0    0  501  0.00000000000E+00  0.00000000000E+00  0.13263620018E+04  0.13263620018E+04  0.25500000920E-02 0. -1.
        2   -1    0    0  501    0  0.00000000000E+00  0.00000000000E+00 -0.17653769280E+04  0.17653769280E+04  0.25500000920E-02 0.  1.
    10030    2    1    2    0    0  0.00000000000E+00  0.00000000000E+00 -0.43901492619E+03  0.30917389298E+04  0.30604110026E+04 0.  0.
        4    1    3    3  502    0 -0.14234690351E+04 -0.53438128478E+03 -0.45407007100E+02  0.15211478760E+04  0.12699999809E+01 0. -1.
       -4    1    3    3    0  502  0.14234690351E+04  0.53438128478E+03 -0.39360791909E+03  0.15705910538E+04  0.12699999809E+01 0.  1.
</event>
<event>
 5   0  0.1054384E-06  0.3006633E+04  0.7818609E-02  0.8241839E-01
        1   -1    0    0  501    0  0.00000000000E+00  0.00000000000E+00  0.17088806706E+04  0.17088806706E+04  0.50400001928E-02 0. -1.
       -1   -1    0    0    0  501  0.00000000000E+00  0.00000000000E+00 -0.13224798711E+04  0.13224798711E+04  0.50400001928E-02 0.  1.
    10030    2    1    2    0    0  0.00000000000E+00  0.00000000000E+00  0.38640079946E+03  0.30313605417E+04  0.30066328602E+04 0.  0.
        2    1    3    3  502    0 -0.24322806936E+03 -0.14829802550E+04  0.23314897595E+03  0.15207724272E+04  0.25500000920E-02 0.  1.
       -2    1    3    3    0  502  0.24322806936E+03  0.14829802550E+04  0.15325182351E+03  0.15105881145E+04  0.25500000920E-02 0. -1.
</event>
<event>
 5   0  0.1113245E-06  0.2999295E+04  0.7818609E-02  0.8243932E-01
        1   -1    0    0  501    0  0.00000000000E+00  0.00000000000E+00  0.14356268945E+04  0.14356268945E+04  0.50400001928E-02 0. -1.
       -1   -1    0    0    0  501  0.00000000000E+00  0.00000000000E+00 -0.15665226787E+04  0.15665226787E+04  0.50400001928E-02 0.  1.
    10030    2    1    2    0    0  0.00000000000E+00  0.00000000000E+00 -0.13089578418E+03  0.30021495733E+04  0.29992946427E+04 0.  0.
        5    1    3    3  502    0 -0.11979317647E+04  0.81887951598E+03  0.31348322193E+03  0.14845531297E+04  0.46999998093E+01 0. -1.
       -5    1    3    3    0  502  0.11979317647E+04 -0.81887951598E+03 -0.44437900611E+03  0.15175964436E+04  0.46999998093E+01 0.  1.
</event>
<event>
 5   0  0.1113245E-06  0.2749918E+04  0.7818609E-02  0.8318988E-01
        1   -1    0    0  501    0  0.00000000000E+00  0.00000000000E+00  0.25844233210E+04  0.25844233210E+04  0.50400001928E-02 0.  1.
       -1   -1    0    0    0  501  0.00000000000E+00  0.00000000000E+00 -0.73150269257E+03  0.73150269258E+03  0.50400001928E-02 0. -1.
    10030    2    1    2    0    0  0.00000000000E+00  0.00000000000E+00  0.18529206285E+04  0.33159260136E+04  0.27499182665E+04 0.  0.
        5    1    3    3  502    0  0.85927203351E+03 -0.38585733205E+03 -0.28132842568E+03  0.98305751681E+03  0.46999998093E+01 0. -1.
       -5    1    3    3    0  502 -0.85927203351E+03  0.38585733205E+03  0.21342490541E+04  0.23328684968E+04  0.46999998093E+01 0.  1.
</event>
<event>
 5   0  0.2862033E-06  0.2989595E+04  0.7818609E-02  0.8246708E-01
        2   -1    0    0  501    0  0.00000000000E+00  0.00000000000E+00  0.21521734413E+04  0.21521734413E+04  0.25500000920E-02 0.  1.
       -2   -1    0    0    0  501  0.00000000000E+00  0.00000000000E+00 -0.10382153397E+04  0.10382153397E+04  0.25500000920E-02 0. -1.
    10030    2    1    2    0    0  0.00000000000E+00  0.00000000000E+00  0.11139581016E+04  0.31903887810E+04  0.29895949428E+04 0.  0.
        2    1    3    3  502    0 -0.52160398868E+03  0.32834829859E+03  0.20102577611E+04  0.21026220754E+04  0.25500000920E-02 0.  1.
       -2    1    3    3    0  502  0.52160398868E+03 -0.32834829859E+03 -0.89629965945E+03  0.10877667056E+04  0.25500000920E-02 0. -1.
</event>
<event>
 5   0  0.2985941E-06  0.3029352E+04  0.7818609E-02  0.8235399E-01
       -2   -1    0    0    0  501  0.00000000000E+00  0.00000000000E+00  0.13233693806E+04  0.13233693807E+04  0.25500000920E-02 0.  1.
        2   -1    0    0  501    0  0.00000000000E+00  0.00000000000E+00 -0.17336376732E+04  0.17336376732E+04  0.25500000920E-02 0. -1.
    10030    2    1    2    0    0  0.00000000000E+00  0.00000000000E+00 -0.41026829260E+03  0.30570070539E+04  0.30293517550E+04 0.  0.
        3    1    3    3  502    0  0.61636866757E+03 -0.90044503690E+03 -0.12652152295E+04  0.16707726315E+04  0.10100000352E+00 0. -1.
       -3    1    3    3    0  502 -0.61636866757E+03  0.90044503690E+03  0.85494693691E+03  0.13862344224E+04  0.10100000352E+00 0.  1.
</event>
<event>
 5   0  0.3113328E-06  0.3005506E+04  0.7818609E-02  0.8242160E-01
       -2   -1    0    0    0  501  0.00000000000E+00  0.00000000000E+00  0.11548933180E+04  0.11548933180E+04  0.25500000920E-02 0.  1.
        2   -1    0    0  501    0  0.00000000000E+00  0.00000000000E+00 -0.19553902484E+04  0.19553902484E+04  0.25500000920E-02 0. -1.
    10030    2    1    2    0    0  0.00000000000E+00  0.00000000000E+00 -0.80049693039E+03  0.31102835663E+04  0.30055063679E+04 0.  0.
        1    1    3    3  502    0  0.61724051613E+03 -0.69984184958E+03 -0.16192359474E+04  0.18688738648E+04  0.50400001928E-02 0. -1.
       -1    1    3    3    0  502 -0.61724051613E+03  0.69984184958E+03  0.81873901698E+03  0.12414097016E+04  0.50400001928E-02 0.  1.
</event>
<event>
 5   0  0.2862033E-06  0.2978701E+04  0.7818609E-02  0.8249839E-01
        2   -1    0    0  501    0  0.00000000000E+00  0.00000000000E+00  0.17286596117E+04  0.17286596117E+04  0.25500000920E-02 0.  1.
       -2   -1    0    0    0  501  0.00000000000E+00  0.00000000000E+00 -0.12831703163E+04  0.12831703163E+04  0.25500000920E-02 0. -1.
    10030    2    1    2    0    0  0.00000000000E+00  0.00000000000E+00  0.44548929548E+03  0.30118299280E+04  0.29787008582E+04 0.  0.
        2    1    3    3  502    0  0.12634392806E+04  0.28977404990E+03  0.96432999874E+03  0.16156052000E+04  0.25500000920E-02 0.  1.
       -2    1    3    3    0  502 -0.12634392806E+04 -0.28977404990E+03 -0.51884070326E+03  0.13962247280E+04  0.25500000920E-02 0. -1.
</event>
<event>
 5   0  0.2985941E-06  0.2740348E+04  0.7818609E-02  0.8322031E-01
        2   -1    0    0  501    0  0.00000000000E+00  0.00000000000E+00  0.17752266282E+04  0.17752266282E+04  0.25500000920E-02 0. -1.
       -2   -1    0    0    0  501  0.00000000000E+00  0.00000000000E+00 -0.10575421931E+04  0.10575421931E+04  0.25500000920E-02 0.  1.
    10030    2    1    2    0    0  0.00000000000E+00  0.00000000000E+00  0.71768443513E+03  0.28327688213E+04  0.27403481981E+04 0.  0.
        3    1    3    3  502    0 -0.12125715523E+04  0.34287800123E+03 -0.19733876543E+03  0.12754754768E+04  0.10100000352E+00 0.  1.
       -3    1    3    3    0  502  0.12125715523E+04 -0.34287800123E+03  0.91502320056E+03  0.15572933446E+04  0.10100000352E+00 0. -1.
</event>
<event>
 5   0  0.1113245E-06  0.3022792E+04  0.7818609E-02  0.8237252E-01
       -1   -1    0    0    0  501  0.00000000000E+00  0.00000000000E+00  0.27262605921E+04  0.27262605921E+04  0.50400001928E-02 0. -1.
        1   -1    0    0  501    0  0.00000000000E+00  0.00000000000E+00 -0.83789443484E+03  0.83789443486E+03  0.50400001928E-02 0.  1.
    10030    2    1    2    0    0  0.00000000000E+00  0.00000000000E+00  0.18883661572E+04  0.35641550269E+04  0.30227924693E+04 0.  0.
        5    1    3    3  502    0 -0.58343664814E+03 -0.55972589747E+03  0.24498283014E+04  0.25798008061E+04  0.46999998093E+01 0. -1.
       -5    1    3    3    0  502  0.58343664814E+03  0.55972589747E+03 -0.56146214421E+03  0.98435422083E+03  0.46999998093E+01 0.  1.
</event>
<event>
 5   0  0.2948711E-06  0.3168941E+04  0.7818609E-02  0.8197068E-01
        2   -1    0    0  501    0  0.00000000000E+00  0.00000000000E+00  0.20681226540E+04  0.20681226540E+04  0.25500000920E-02 0.  1.
       -2   -1    0    0    0  501  0.00000000000E+00  0.00000000000E+00 -0.12139255058E+04  0.12139255058E+04  0.25500000920E-02 0. -1.
    10030    2    1    2    0    0  0.00000000000E+00  0.00000000000E+00  0.85419714820E+03  0.32820481598E+04  0.31689410463E+04 0.  0.
        5    1    3    3  502    0 -0.14675442103E+04 -0.55834612506E+03  0.64701766557E+03  0.16982609794E+04  0.46999998093E+01 0.  1.
       -5    1    3    3    0  502  0.14675442103E+04  0.55834612506E+03  0.20717948263E+03  0.15837871804E+04  0.46999998093E+01 0. -1.
</event>
<event>
 5   0  0.1113245E-06  0.3018388E+04  0.7818609E-02  0.8238500E-01
       -1   -1    0    0    0  501  0.00000000000E+00  0.00000000000E+00  0.65897751754E+03  0.65897751756E+03  0.50400001928E-02 0. -1.
        1   -1    0    0  501    0  0.00000000000E+00  0.00000000000E+00 -0.34563637301E+04  0.34563637301E+04  0.50400001928E-02 0.  1.
    10030    2    1    2    0    0  0.00000000000E+00  0.00000000000E+00 -0.27973862126E+04  0.41153412477E+04  0.30183876429E+04 0.  0.
        5    1    3    3  502    0 -0.49566258967E+03  0.47256001796E+02 -0.33411433662E+04  0.33780431637E+04  0.46999998093E+01 0.  1.
       -5    1    3    3    0  502  0.49566258967E+03 -0.47256001796E+02  0.54375715362E+03  0.73729808396E+03  0.46999998093E+01 0. -1.
</event>
<event>
 5   0  0.1091076E-06  0.3012860E+04  0.7818609E-02  0.8240068E-01
        1   -1    0    0  501    0  0.00000000000E+00  0.00000000000E+00  0.14817240461E+04  0.14817240461E+04  0.50400001928E-02 0. -1.
       -1   -1    0    0    0  501  0.00000000000E+00  0.00000000000E+00 -0.15315476356E+04  0.15315476356E+04  0.50400001928E-02 0.  1.
    10030    2    1    2    0    0  0.00000000000E+00  0.00000000000E+00 -0.49823589414E+02  0.30132716817E+04  0.30128597441E+04 0.  0.
        3    1    3    3  502    0  0.11159235386E+04  0.38551688073E+03  0.91085620165E+03  0.14911631834E+04  0.10100000352E+00 0. -1.
       -3    1    3    3    0  502 -0.11159235386E+04 -0.38551688073E+03 -0.96067979107E+03  0.15221084983E+04  0.10100000352E+00 0.  1.
</event>
<event>
 5   0  0.2985941E-06  0.2973557E+04  0.7818609E-02  0.8251322E-01
        2   -1    0    0  501    0  0.00000000000E+00  0.00000000000E+00  0.20432602605E+04  0.20432602605E+04  0.25500000920E-02 0. -1.
       -2   -1    0    0    0  501  0.00000000000E+00  0.00000000000E+00 -0.10818543507E+04  0.10818543507E+04  0.25500000920E-02 0.  1.
    10030    2    1    2    0    0  0.00000000000E+00  0.00000000000E+00  0.96140590987E+03  0.31251146112E+04  0.29735567944E+04 0.  0.
        3    1    3    3  502    0  0.70922916031E+03  0.91397763859E+03  0.14621910176E+04  0.18645009273E+04  0.10100000352E+00 0. -1.
       -3    1    3    3    0  502 -0.70922916031E+03 -0.91397763859E+03 -0.50078510776E+03  0.12606136839E+04  0.10100000352E+00 0.  1.
</event>
<event>
 5   0  0.1091075E-06  0.2988975E+04  0.7818609E-02  0.8246886E-01
        1   -1    0    0  501    0  0.00000000000E+00  0.00000000000E+00  0.13289418495E+04  0.13289418495E+04  0.50400001928E-02 0. -1.
       -1   -1    0    0    0  501  0.00000000000E+00  0.00000000000E+00 -0.16806545479E+04  0.16806545479E+04  0.50400001928E-02 0.  1.
    10030    2    1    2    0    0  0.00000000000E+00  0.00000000000E+00 -0.35171269839E+03  0.30095963975E+04  0.29889745154E+04 0.  0.
        1    1    3    3  502    0  0.44693466376E+03 -0.96326902238E+03 -0.12347077451E+04  0.16285395356E+04  0.50400001928E-02 0.  1.
       -1    1    3    3    0  502 -0.44693466376E+03  0.96326902238E+03  0.88299504673E+03  0.13810568619E+04  0.50400001928E-02 0. -1.
</event>
<event>
 5   0  0.1091076E-06  0.3080381E+04  0.7818609E-02  0.8221143E-01
        1   -1    0    0  501    0  0.00000000000E+00  0.00000000000E+00  0.24139401234E+04  0.24139401234E+04  0.50400001928E-02 0.  1.
       -1   -1    0    0    0  501  0.00000000000E+00  0.00000000000E+00 -0.98270326823E+03  0.98270326824E+03  0.50400001928E-02 0. -1.
    10030    2    1    2    0    0  0.00000000000E+00  0.00000000000E+00  0.14312368552E+04  0.33966433916E+04  0.30803810469E+04 0.  0.
        3    1    3    3  502    0  0.34145361238E+03  0.14824588825E+04  0.45026204821E+03  0.15865090072E+04  0.10100000352E+00 0.  1.
       -3    1    3    3    0  502 -0.34145361238E+03 -0.14824588825E+04  0.98097480697E+03  0.18101343844E+04  0.10100000352E+00 0. -1.
</event>
<event>
 5   0  0.1097402E-06  0.2996270E+04  0.7818609E-02  0.8244797E-01
       -1   -1    0    0    0  501  0.00000000000E+00  0.00000000000E+00  0.21260742693E+04  0.21260742693E+04  0.50400001928E-02 0. -1.
        1   -1    0    0  501    0  0.00000000000E+00  0.00000000000E+00 -0.10556585722E+04  0.10556585723E+04  0.50400001928E-02 0.  1.
    10030    2    1    2    0    0  0.00000000000E+00  0.00000000000E+00  0.10704156970E+04  0.31817328415E+04  0.29962700329E+04 0.  0.
        4    1    3    3  502    0  0.11221501317E+04 -0.92419627563E+03  0.15079605737E+03  0.14615405358E+04  0.12699999809E+01 0.  1.
       -4    1    3    3    0  502 -0.11221501317E+04  0.92419627563E+03  0.91961963965E+03  0.17201923057E+04  0.12699999809E+01 0. -1.
</event>
<event>
 5   0  0.1113245E-06  0.3000204E+04  0.7818609E-02  0.8243673E-01
       -1   -1    0    0    0  501  0.00000000000E+00  0.00000000000E+00  0.16533707398E+04  0.16533707398E+04  0.50400001928E-02 0.  1.
        1   -1    0    0  501    0  0.00000000000E+00  0.00000000000E+00 -0.13610417708E+04  0.13610417708E+04  0.50400001928E-02 0. -1.
    10030    2    1    2    0    0  0.00000000000E+00  0.00000000000E+00  0.29232896898E+03  0.30144125106E+04  0.30002044193E+04 0.  0.
        5    1    3    3  502    0 -0.48031173854E+03  0.31564461796E+03 -0.12460213493E+04  0.13721961172E+04  0.46999998093E+01 0. -1.
       -5    1    3    3    0  502  0.48031173854E+03 -0.31564461796E+03  0.15383503183E+04  0.16422163934E+04  0.46999998093E+01 0.  1.
</event>
<event>
 5   0  0.2970915E-06  0.2993178E+04  0.7818609E-02  0.8245682E-01
        2   -1    0    0  501    0  0.00000000000E+00  0.00000000000E+00  0.17890921231E+04  0.17890921231E+04  0.25500000920E-02 0.  1.
       -2   -1    0    0    0  501  0.00000000000E+00  0.00000000000E+00 -0.12519076738E+04  0.12519076738E+04  0.25500000920E-02 0. -1.
    10030    2    1    2    0    0  0.00000000000E+00  0.00000000000E+00  0.53718444933E+03  0.30409997969E+04  0.29931776814E+04 0.  0.
        4    1    3    3  502    0  0.14573759366E+03  0.13666894239E+04 -0.33306618463E+03  0.14142185559E+04  0.12699999809E+01 0. -1.
       -4    1    3    3    0  502 -0.14573759366E+03 -0.13666894239E+04  0.87025063396E+03  0.16267812411E+04  0.12699999809E+01 0.  1.
</event>
<event>
 5   0  0.3113328E-06  0.2996455E+04  0.7818609E-02  0.8244744E-01
        2   -1    0    0  501    0  0.00000000000E+00  0.00000000000E+00  0.24768558174E+04  0.24768558174E+04  0.25500000920E-02 0. -1.
       -2   -1    0    0    0  501  0.00000000000E+00  0.00000000000E+00 -0.90626432240E+03  0.90626432240E+03  0.25500000920E-02 0.  1.
    10030    2    1    2    0    0  0.00000000000E+00  0.00000000000E+00  0.15705914950E+04  0.33831201398E+04  0.29964552785E+04 0.  0.
        1    1    3    3  502    0 -0.11826550258E+03  0.19474911844E+03  0.24571806255E+04  0.24677217377E+04  0.50400001928E-02 0. -1.
       -1    1    3    3    0  502  0.11826550258E+03 -0.19474911844E+03 -0.88658913051E+03  0.91539840212E+03  0.50400001928E-02 0.  1.
</event>
<event>
 5   0  0.1097402E-06  0.2995688E+04  0.7818609E-02  0.8244963E-01
        1   -1    0    0  501    0  0.00000000000E+00  0.00000000000E+00  0.14668359755E+04  0.14668359755E+04  0.50400001928E-02 0.  1.
       -1   -1    0    0    0  501  0.00000000000E+00  0.00000000000E+00 -0.15295072825E+04  0.15295072825E+04  0.50400001928E-02 0. -1.
    10030    2    1    2    0    0  0.00000000000E+00  0.00000000000E+00 -0.62671306998E+02  0.29963432580E+04  0.29956877720E+04 0.  0.
        4    1    3    3  502    0  0.87624973170E+03 -0.45710120806E+03 -0.11570949597E+04  0.15217179323E+04  0.12699999809E+01 0. -1.
       -4    1    3    3    0  502 -0.87624973170E+03  0.45710120806E+03  0.10944236527E+04  0.14746253257E+04  0.12699999809E+01 0.  1.
</event>
<event>
 5   0  0.2862033E-06  0.2975730E+04  0.7818609E-02  0.8250696E-01
       -2   -1    0    0    0  501  0.00000000000E+00  0.00000000000E+00  0.16154577009E+04  0.16154577009E+04  0.25500000920E-02 0.  1.
        2   -1    0    0  501    0  0.00000000000E+00  0.00000000000E+00 -0.13703494700E+04  0.13703494700E+04  0.25500000920E-02 0. -1.
    10030    2    1    2    0    0  0.00000000000E+00  0.00000000000E+00  0.24510823095E+03  0.29858071709E+04  0.29757295605E+04 0.  0.
        2    1    3    3  502    0  0.18618887589E+03  0.67049567887E+03  0.14421165489E+04  0.16012279330E+04  0.25500000920E-02 0.  1.
       -2    1    3    3    0  502 -0.18618887589E+03 -0.67049567887E+03 -0.11970083179E+04  0.13845792379E+04  0.25500000920E-02 0. -1.
</event>
<event>
 5   0  0.1113245E-06  0.3005872E+04  0.7818609E-02  0.8242056E-01
       -1   -1    0    0    0  501  0.00000000000E+00  0.00000000000E+00  0.95902001566E+03  0.95902001567E+03  0.50400001928E-02 0. -1.
        1   -1    0    0  501    0  0.00000000000E+00  0.00000000000E+00 -0.23553384931E+04  0.23553384931E+04  0.50400001928E-02 0.  1.
    10030    2    1    2    0    0  0.00000000000E+00  0.00000000000E+00 -0.13963184774E+04  0.33143585087E+04  0.30058720921E+04 0.  0.
        5    1    3    3  502    0 -0.66277722107E+03  0.45824634499E+03 -0.20970335732E+04  0.22465162484E+04  0.46999998093E+01 0.  1.
       -5    1    3    3    0  502  0.66277722107E+03 -0.45824634499E+03  0.70071509577E+03  0.10678422603E+04  0.46999998093E+01 0. -1.
</event>
<event>
 5   0  0.2862033E-06  0.2774986E+04  0.7818609E-02  0.8311077E-01
        2   -1    0    0  501    0  0.00000000000E+00  0.00000000000E+00  0.13281182478E+04  0.13281182478E+04  0.25500000920E-02 0.  1.
       -2   -1    0    0    0  501  0.00000000000E+00  0.00000000000E+00 -0.14495221239E+04  0.14495221239E+04  0.25500000920E-02 0. -1.
    10030    2    1    2    0    0  0.00000000000E+00  0.00000000000E+00 -0.12140387603E+03  0.27776403717E+04  0.27749859700E+04 0.  0.
        2    1    3    3  502    0 -0.80346230854E+03  0.17712303716E+03 -0.11790049468E+04  0.14376984788E+04  0.25500000920E-02 0. -1.
       -2    1    3    3    0  502  0.80346230854E+03 -0.17712303716E+03  0.10576010707E+04  0.13399418929E+04  0.25500000920E-02 0.  1.
</event>
<event>
 5   0  0.1097402E-06  0.2996173E+04  0.7818609E-02  0.8244825E-01
       -1   -1    0    0    0  501  0.00000000000E+00  0.00000000000E+00  0.67794869577E+03  0.67794869579E+03  0.50400001928E-02 0.  1.
        1   -1    0    0  501    0  0.00000000000E+00  0.00000000000E+00 -0.33103734876E+04  0.33103734876E+04  0.50400001928E-02 0. -1.
    10030    2    1    2    0    0  0.00000000000E+00  0.00000000000E+00 -0.26324247918E+04  0.39883221834E+04  0.29961731515E+04 0.  0.
        4    1    3    3  502    0  0.32552958124E+03  0.14593654624E+04 -0.11931650910E+04  0.19129457934E+04  0.12699999809E+01 0. -1.
       -4    1    3    3    0  502 -0.32552958124E+03 -0.14593654624E+04 -0.14392597008E+04  0.20753763900E+04  0.12699999809E+01 0.  1.
</event>
<event>
 5   0  0.1097402E-06  0.3013661E+04  0.7818609E-02  0.8239841E-01
       -1   -1    0    0    0  501  0.00000000000E+00  0.00000000000E+00  0.89623175906E+03  0.89623175908E+03  0.50400001928E-02 0. -1.
        1   -1    0    0  501    0  0.00000000000E+00  0.00000000000E+00 -0.25334278373E+04  0.25334278373E+04  0.50400001928E-02 0.  1.
    10030    2    1    2    0    0  0.00000000000E+00  0.00000000000E+00 -0.16371960782E+04  0.34296595964E+04  0.30136612199E+04 0.  0.
        4    1    3    3  502    0  0.75455714486E+03  0.11344431260E+04 -0.86158650318E+02  0.13651895901E+04  0.12699999809E+01 0. -1.
       -4    1    3    3    0  502 -0.75455714486E+03 -0.11344431260E+04 -0.15510374279E+04  0.20644700062E+04  0.12699999809E+01 0.  1.
</event>
<event>
 5   0  0.1054384E-06  0.2677390E+04  0.7818609E-02  0.8342379E-01
        1   -1    0    0  501    0  0.00000000000E+00  0.00000000000E+00  0.20377884317E+04  0.20377884317E+04  0.50400001928E-02 0.  1.
       -1   -1    0    0    0  501  0.00000000000E+00  0.00000000000E+00 -0.87943564715E+03  0.87943564717E+03  0.50400001928E-02 0. -1.
    10030    2    1    2    0    0  0.00000000000E+00  0.00000000000E+00  0.11583527846E+04  0.29172240789E+04  0.26773896155E+04 0.  0.
        2    1    3    3  502    0 -0.93319342199E+02 -0.12255166746E+04  0.10795058062E+01  0.12290650043E+04  0.25500000920E-02 0. -1.
       -2    1    3    3    0  502  0.93319342199E+02  0.12255166746E+04  0.11572732788E+04  0.16881590746E+04  0.25500000920E-02 0.  1.
</event>
<event>
 5   0  0.2862033E-06  0.2956615E+04  0.7818609E-02  0.8256229E-01
        2   -1    0    0  501    0  0.00000000000E+00  0.00000000000E+00  0.11880511322E+04  0.11880511322E+04  0.25500000920E-02 0.  1.
       -2   -1    0    0    0  501  0.00000000000E+00  0.00000000000E+00 -0.18394773460E+04  0.18394773460E+04  0.25500000920E-02 0. -1.
    10030    2    1    2    0    0  0.00000000000E+00  0.00000000000E+00 -0.65142621375E+03  0.30275284782E+04  0.29566150535E+04 0.  0.
        2    1    3    3  502    0 -0.96099010070E+03  0.81354042719E+03  0.46749052114E+03  0.13430924718E+04  0.25500000920E-02 0.  1.
       -2    1    3    3    0  502  0.96099010070E+03 -0.81354042719E+03 -0.11189167349E+04  0.16844360065E+04  0.25500000920E-02 0. -1.
</event>
<event>
 5   0  0.9749500E-07  0.3001722E+04  0.7818609E-02  0.8243239E-01
       -3   -1    0    0    0  501  0.00000000000E+00  0.00000000000E+00  0.15575023439E+04  0.15575023472E+04  0.10100000352E+00 0. -1.
        3   -1    0    0  501    0  0.00000000000E+00  0.00000000000E+00 -0.14462795206E+04  0.14462795242E+04  0.10100000352E+00 0.  1.
    10030    2    1    2    0    0  0.00000000000E+00  0.00000000000E+00  0.11122282324E+03  0.30037818713E+04  0.30017220081E+04 0.  0.
        1    1    3    3  502    0  0.89244131879E+03  0.87733686238E+03 -0.77345714325E+03  0.14711925197E+04  0.50400001928E-02 0.  1.
       -1    1    3    3    0  502 -0.89244131879E+03 -0.87733686238E+03  0.88467996649E+03  0.15325893516E+04  0.50400001928E-02 0. -1.
</event>
<event>
 5   0  0.2948711E-06  0.2997255E+04  0.7818609E-02  0.8244515E-01
       -2   -1    0    0    0  501  0.00000000000E+00  0.00000000000E+00  0.18433255279E+04  0.18433255279E+04  0.25500000920E-02 0.  1.
        2   -1    0    0  501    0  0.00000000000E+00  0.00000000000E+00 -0.12183874323E+04  0.12183874323E+04  0.25500000920E-02 0. -1.
    10030    2    1    2    0    0  0.00000000000E+00  0.00000000000E+00  0.62493809552E+03  0.30617129602E+04  0.29972551822E+04 0.  0.
        5    1    3    3  502    0  0.12378417912E+04 -0.46134835177E+03  0.10353370850E+04  0.16784038761E+04  0.46999998093E+01 0.  1.
       -5    1    3    3    0  502 -0.12378417912E+04  0.46134835177E+03 -0.41039898946E+03  0.13833090841E+04  0.46999998093E+01 0. -1.
</event>
<event>
 5   0  0.2948711E-06  0.3001047E+04  0.7818609E-02  0.8243432E-01
       -2   -1    0    0    0  501  0.00000000000E+00  0.00000000000E+00  0.11801707634E+04  0.11801707634E+04  0.25500000920E-02 0.  1.
        2   -1    0    0  501    0  0.00000000000E+00  0.00000000000E+00 -0.19078351661E+04  0.19078351661E+04  0.25500000920E-02 0. -1.
    10030    2    1    2    0    0  0.00000000000E+00  0.00000000000E+00 -0.72766440268E+03  0.30880059294E+04  0.30010473401E+04 0.  0.
        5    1    3    3  502    0 -0.11026241358E+04 -0.53340918268E+03 -0.12556902687E+04  0.17541623306E+04  0.46999998093E+01 0. -1.
       -5    1    3    3    0  502  0.11026241358E+04  0.53340918268E+03  0.52802586601E+03  0.13338435989E+04  0.46999998093E+01 0.  1.
</event>
<event>
 5   0  0.2970915E-06  0.2996938E+04  0.7818609E-02  0.8244606E-01
       -2   -1    0    0    0  501  0.00000000000E+00  0.00000000000E+00  0.22041495498E+04  0.22041495498E+04  0.25500000920E-02 0.  1.
        2   -1    0    0  501    0  0.00000000000E+00  0.00000000000E+00 -0.10187188410E+04  0.10187188410E+04  0.25500000920E-02 0. -1.
    10030    2    1    2    0    0  0.00000000000E+00  0.00000000000E+00  0.11854307088E+04  0.32228683908E+04  0.29969375535E+04 0.  0.
        4    1    3    3  502    0  0.13647371703E+04  0.50855889715E+03  0.21362439799E+03  0.14719975177E+04  0.12699999809E+01 0. -1.
       -4    1    3    3    0  502 -0.13647371703E+04 -0.50855889715E+03  0.97180631078E+03  0.17508708731E+04  0.12699999809E+01 0.  1.
</event>
<event>
 5   0  0.1097402E-06  0.2972076E+04  0.7818609E-02  0.8251750E-01
        1   -1    0    0  501    0  0.00000000000E+00  0.00000000000E+00  0.14456860812E+04  0.14456860812E+04  0.50400001928E-02 0.  1.
       -1   -1    0    0    0  501  0.00000000000E+00  0.00000000000E+00 -0.15275163489E+04  0.15275163489E+04  0.50400001928E-02 0. -1.
    10030    2    1    2    0    0  0.00000000000E+00  0.00000000000E+00 -0.81830267731E+02  0.29732024301E+04  0.29720761258E+04 0.  0.
        4    1    3    3  502    0 -0.12920269554E+03 -0.13384356691E+04  0.59194149817E+03  0.14691833537E+04  0.12699999809E+01 0.  1.
       -4    1    3    3    0  502  0.12920269554E+03  0.13384356691E+04 -0.67377176590E+03  0.15040190764E+04  0.12699999809E+01 0. -1.
</event>
<event>
 5   0  0.1054384E-06  0.2999026E+04  0.7818609E-02  0.8244009E-01
       -1   -1    0    0    0  501  0.00000000000E+00  0.00000000000E+00  0.18659505537E+04  0.18659505537E+04  0.50400001928E-02 0.  1.
        1   -1    0    0  501    0  0.00000000000E+00  0.00000000000E+00 -0.12050364971E+04  0.12050364971E+04  0.50400001928E-02 0. -1.
    10030    2    1    2    0    0  0.00000000000E+00  0.00000000000E+00  0.66091405662E+03  0.30709870507E+04  0.29990255210E+04 0.  0.
        2    1    3    3  502    0 -0.80400219735E+03 -0.12390940472E+04  0.65867887809E+02  0.14785506991E+04  0.25500000920E-02 0. -1.
       -2    1    3    3    0  502  0.80400219735E+03  0.12390940472E+04  0.59504616881E+03  0.15924363517E+04  0.25500000920E-02 0.  1.
</event>
<event>
 5   0  0.2862033E-06  0.3014297E+04  0.7818609E-02  0.8239660E-01
       -2   -1    0    0    0  501  0.00000000000E+00  0.00000000000E+00  0.11018646899E+04  0.11018646899E+04  0.25500000920E-02 0.  1.
        2   -1    0    0  501    0  0.00000000000E+00  0.00000000000E+00 -0.20615016271E+04  0.20615016271E+04  0.25500000920E-02 0. -1.
    10030    2    1    2    0    0  0.00000000000E+00  0.00000000000E+00 -0.95963693712E+03  0.31633663170E+04  0.30142965024E+04 0.  0.
        2    1    3    3  502    0  0.34086243270E+03 -0.95677558196E+03  0.68875210056E+03  0.12271862810E+04  0.25500000920E-02 0.  1.
       -2    1    3    3    0  502 -0.34086243270E+03  0.95677558196E+03 -0.16483890377E+04  0.19361800360E+04  0.25500000920E-02 0. -1.
</event>
<event>
 5   0  0.1054384E-06  0.3014376E+04  0.7818609E-02  0.8239638E-01
       -1   -1    0    0    0  501  0.00000000000E+00  0.00000000000E+00  0.15119415366E+04  0.15119415366E+04  0.50400001928E-02 0.  1.
        1   -1    0    0  501    0  0.00000000000E+00  0.00000000000E+00 -0.15024494538E+04  0.15024494538E+04  0.50400001928E-02 0. -1.
    10030    2    1    2    0    0  0.00000000000E+00  0.00000000000E+00  0.94920828016E+01  0.30143909905E+04  0.30143760455E+04 0.  0.
        2    1    3    3  502    0 -0.12913605784E+04 -0.95812177667E+02  0.77599795695E+03  0.15096241075E+04  0.25500000920E-02 0.  1.
       -2    1    3    3    0  502  0.12913605784E+04  0.95812177667E+02 -0.76650587415E+03  0.15047668829E+04  0.25500000920E-02 0. -1.
</event>
<event>
 5   0  0.2985941E-06  0.3007085E+04  0.7818609E-02  0.8241711E-01
        2   -1    0    0  501    0  0.00000000000E+00  0.00000000000E+00  0.17195063778E+04  0.17195063778E+04  0.25500000920E-02 0.  1.
       -2   -1    0    0    0  501  0.00000000000E+00  0.00000000000E+00 -0.13147028743E+04  0.13147028743E+04  0.25500000920E-02 0. -1.
    10030    2    1    2    0    0  0.00000000000E+00  0.00000000000E+00  0.40480350354E+03  0.30342092521E+04  0.30070849521E+04 0.  0.
        3    1    3    3  502    0  0.58890203374E+03 -0.11757225765E+04  0.93802572072E+03  0.16152465587E+04  0.10100000352E+00 0. -1.
       -3    1    3    3    0  502 -0.58890203374E+03  0.11757225765E+04 -0.53322221717E+03  0.14189626935E+04  0.10100000352E+00 0.  1.
</event>
<event>
 5   0  0.2948711E-06  0.2985549E+04  0.7818609E-02  0.8247869E-01
       -2   -1    0    0    0  501  0.00000000000E+00  0.00000000000E+00  0.10771255085E+04  0.10771255085E+04  0.25500000920E-02 0.  1.
        2   -1    0    0  501    0  0.00000000000E+00  0.00000000000E+00 -0.20688177297E+04  0.20688177297E+04  0.25500000920E-02 0. -1.
    10030    2    1    2    0    0  0.00000000000E+00  0.00000000000E+00 -0.99169222118E+03  0.31459432383E+04  0.29855494296E+04 0.  0.
        5    1    3    3  502    0 -0.40209725500E+03  0.14008325562E+04 -0.15547517987E+03  0.14656768656E+04  0.46999998093E+01 0. -1.
       -5    1    3    3    0  502  0.40209725500E+03 -0.14008325562E+04 -0.83621704130E+03  0.16802663726E+04  0.46999998093E+01 0.  1.
</event>
<event>
 5   0  0.1113245E-06  0.3332071E+04  0.7818609E-02  0.8154783E-01
       -1   -1    0    0    0  501  0.00000000000E+00  0.00000000000E+00  0.16343689262E+04  0.16343689262E+04  0.50400001928E-02 0. -1.
        1   -1    0    0  501    0  0.00000000000E+00  0.00000000000E+00 -0.16983154743E+04  0.16983154743E+04  0.50400001928E-02 0.  1.
    10030    2    1    2    0    0  0.00000000000E+00  0.00000000000E+00 -0.63946548136E+02  0.33326844006E+04  0.33320708505E+04 0.  0.
        5    1    3    3  502    0 -0.13208483178E+04 -0.10110176415E+04  0.62145053188E+02  0.16645362861E+04  0.46999998093E+01 0. -1.
       -5    1    3    3    0  502  0.13208483178E+04  0.10110176415E+04 -0.12609160132E+03  0.16681481145E+04  0.46999998093E+01 0.  1.
</event>
<event>
 5   0  0.1091076E-06  0.2997620E+04  0.7818609E-02  0.8244411E-01
       -1   -1    0    0    0  501  0.00000000000E+00  0.00000000000E+00  0.13937003678E+04  0.13937003678E+04  0.50400001928E-02 0.  1.
        1   -1    0    0  501    0  0.00000000000E+00  0.00000000000E+00 -0.16118471833E+04  0.16118471833E+04  0.50400001928E-02 0. -1.
    10030    2    1    2    0    0  0.00000000000E+00  0.00000000000E+00 -0.21814681549E+03  0.30055475510E+04  0.29976203977E+04 0.  0.
        3    1    3    3  502    0 -0.12786430644E+04  0.62890262919E+03 -0.57504470313E+03  0.15365946193E+04  0.10100000352E+00 0. -1.
       -3    1    3    3    0  502  0.12786430644E+04 -0.62890262919E+03  0.35689788764E+03  0.14689529317E+04  0.10100000352E+00 0.  1.
</event>
<event>
 5   0  0.2985941E-06  0.2987535E+04  0.7818609E-02  0.8247299E-01
       -2   -1    0    0    0  501  0.00000000000E+00  0.00000000000E+00  0.16992311499E+04  0.16992311499E+04  0.25500000920E-02 0. -1.
        2   -1    0    0  501    0  0.00000000000E+00  0.00000000000E+00 -0.13131479169E+04  0.13131479169E+04  0.25500000920E-02 0.  1.
    10030    2    1    2    0    0  0.00000000000E+00  0.00000000000E+00  0.38608323299E+03  0.30123790667E+04  0.29875353352E+04 0.  0.
        3    1    3    3  502    0 -0.95705678639E+03 -0.94928117532E+03 -0.45593270103E+03  0.14230133802E+04  0.10100000352E+00 0.  1.
       -3    1    3    3    0  502  0.95705678639E+03  0.94928117532E+03  0.84201593402E+03  0.15893656865E+04  0.10100000352E+00 0. -1.
</event>
<event>
 5   0  0.3113328E-06  0.2985940E+04  0.7818609E-02  0.8247757E-01
       -2   -1    0    0    0  501  0.00000000000E+00  0.00000000000E+00  0.10355640133E+04  0.10355640133E+04  0.25500000920E-02 0.  1.
        2   -1    0    0  501    0  0.00000000000E+00  0.00000000000E+00 -0.21524116132E+04  0.21524116132E+04  0.25500000920E-02 0. -1.
    10030    2    1    2    0    0  0.00000000000E+00  0.00000000000E+00 -0.11168475998E+04  0.31879756265E+04  0.29859403935E+04 0.  0.
        1    1    3    3  502    0  0.39103480320E+02 -0.99004193359E+03  0.63394402498E+03  0.11762640602E+04  0.50400001928E-02 0.  1.
       -1    1    3    3    0  502 -0.39103480320E+02  0.99004193359E+03 -0.17507916248E+04  0.20117115663E+04  0.50400001928E-02 0. -1.
</event>
<event>
 5   0  0.3113328E-06  0.3005397E+04  0.7818609E-02  0.8242191E-01
       -2   -1    0    0    0  501  0.00000000000E+00  0.00000000000E+00  0.18340171740E+04  0.18340171740E+04  0.25500000920E-02 0.  1.
        2   -1    0    0  501    0  0.00000000000E+00  0.00000000000E+00 -0.12312330140E+04  0.12312330140E+04  0.25500000920E-02 0. -1.
    10030    2    1    2    0    0  0.00000000000E+00  0.00000000000E+00  0.60278415995E+03  0.30652501880E+04  0.30053968077E+04 0.  0.
        1    1    3    3  502    0 -0.51977208704E+03  0.83702812438E+03 -0.85580661977E+03  0.13050609464E+04  0.50400001928E-02 0. -1.
       -1    1    3    3    0  502  0.51977208704E+03 -0.83702812438E+03  0.14585907797E+04  0.17601892416E+04  0.50400001928E-02 0.  1.
</event>
<event>
 5   0  0.2862033E-06  0.3018614E+04  0.7818609E-02  0.8238435E-01
       -2   -1    0    0    0  501  0.00000000000E+00  0.00000000000E+00  0.14042195327E+04  0.14042195327E+04  0.25500000920E-02 0.  1.
        2   -1    0    0  501    0  0.00000000000E+00  0.00000000000E+00 -0.16222587350E+04  0.16222587350E+04  0.25500000920E-02 0. -1.
    10030    2    1    2    0    0  0.00000000000E+00  0.00000000000E+00 -0.21803920233E+03  0.30264782677E+04  0.30186138559E+04 0.  0.
        2    1    3    3  502    0 -0.99406984362E+02 -0.85806491689E+03  0.11318843139E+04  0.14238396154E+04  0.25500000920E-02 0.  1.
       -2    1    3    3    0  502  0.99406984362E+02  0.85806491689E+03 -0.13499235163E+04  0.16026386523E+04  0.25500000920E-02 0. -1.
</event>
<event>
 5   0  0.1091075E-06  0.2846536E+04  0.7818609E-02  0.8288965E-01
       -1   -1    0    0    0  501  0.00000000000E+00  0.00000000000E+00  0.18373808250E+04  0.18373808250E+04  0.50400001928E-02 0. -1.
        1   -1    0    0  501    0  0.00000000000E+00  0.00000000000E+00 -0.11024891544E+04  0.11024891544E+04  0.50400001928E-02 0.  1.
    10030    2    1    2    0    0  0.00000000000E+00  0.00000000000E+00  0.73489167066E+03  0.29398699794E+04  0.28465364442E+04 0.  0.
        1    1    3    3  502    0  0.90262354538E+03  0.65194806317E+02  0.15019689160E+04  0.17535364986E+04  0.50400001928E-02 0. -1.
       -1    1    3    3    0  502 -0.90262354538E+03 -0.65194806317E+02 -0.76707724530E+03  0.11863334808E+04  0.50400001928E-02 0.  1.
</event>
<event>
 5   0  0.3113328E-06  0.2994077E+04  0.7818609E-02  0.8245424E-01
        2   -1    0    0  501    0  0.00000000000E+00  0.00000000000E+00  0.17635401311E+04  0.17635401311E+04  0.25500000920E-02 0.  1.
       -2   -1    0    0    0  501  0.00000000000E+00  0.00000000000E+00 -0.12708097217E+04  0.12708097217E+04  0.25500000920E-02 0. -1.
    10030    2    1    2    0    0  0.00000000000E+00  0.00000000000E+00  0.49273040935E+03  0.30343498528E+04  0.29940767814E+04 0.  0.
        1    1    3    3  502    0  0.20956197355E+03  0.17760189614E+03  0.17377797931E+04  0.17593570597E+04  0.50400001928E-02 0.  1.
       -1    1    3    3    0  502 -0.20956197355E+03 -0.17760189614E+03 -0.12450493838E+04  0.12749927930E+04  0.50400001928E-02 0. -1.
</event>
<event>
 5   0  0.2970915E-06  0.2972128E+04  0.7818609E-02  0.8251735E-01
        2   -1    0    0  501    0  0.00000000000E+00  0.00000000000E+00  0.20483405631E+04  0.20483405631E+04  0.25500000920E-02 0.  1.
       -2   -1    0    0    0  501  0.00000000000E+00  0.00000000000E+00 -0.10781344766E+04  0.10781344766E+04  0.25500000920E-02 0. -1.
    10030    2    1    2    0    0  0.00000000000E+00  0.00000000000E+00  0.97020608652E+03  0.31264750397E+04  0.29721282482E+04 0.  0.
        4    1    3    3  502    0  0.51223417305E+03  0.11315717293E+04 -0.37307349247E+03  0.12969286296E+04  0.12699999809E+01 0. -1.
       -4    1    3    3    0  502 -0.51223417305E+03 -0.11315717293E+04  0.13432795790E+04  0.18295464101E+04  0.12699999809E+01 0.  1.
</event>
<event>
 5   0  0.2985941E-06  0.2974174E+04  0.7818609E-02  0.8251144E-01
        2   -1    0    0  501    0  0.00000000000E+00  0.00000000000E+00  0.19708779747E+04  0.19708779747E+04  0.25500000920E-02 0. -1.
       -2   -1    0    0    0  501  0.00000000000E+00  0.00000000000E+00 -0.11220519409E+04  0.11220519409E+04  0.25500000920E-02 0.  1.
    10030    2    1    2    0    0  0.00000000000E+00  0.00000000000E+00  0.84882603387E+03  0.30929299156E+04  0.29741738058E+04 0.  0.
        3    1    3    3  502    0  0.84742286090E+03  0.34458359419E+03 -0.79481864285E+03  0.12118580956E+04  0.10100000352E+00 0.  1.
       -3    1    3    3    0  502 -0.84742286090E+03 -0.34458359419E+03  0.16436446767E+04  0.18810718200E+04  0.10100000352E+00 0. -1.
</event>
<event>
 5   0  0.1113245E-06  0.2988855E+04  0.7818609E-02  0.8246920E-01
        1   -1    0    0  501    0  0.00000000000E+00  0.00000000000E+00  0.11113346479E+04  0.11113346479E+04  0.50400001928E-02 0.  1.
       -1   -1    0    0    0  501  0.00000000000E+00  0.00000000000E+00 -0.20095783212E+04  0.20095783212E+04  0.50400001928E-02 0. -1.
    10030    2    1    2    0    0  0.00000000000E+00  0.00000000000E+00 -0.89824367335E+03  0.31209129691E+04  0.29888553100E+04 0.  0.
        5    1    3    3  502    0 -0.57767428761E+03 -0.12878155618E+04 -0.96185246537E+03  0.17080277395E+04  0.46999998093E+01 0. -1.
       -5    1    3    3    0  502  0.57767428761E+03  0.12878155618E+04  0.63608792018E+02  0.14128852296E+04  0.46999998093E+01 0.  1.
</event>
<event>
 5   0  0.1054384E-06  0.3025987E+04  0.7818609E-02  0.8236349E-01
       -1   -1    0    0    0  501  0.00000000000E+00  0.00000000000E+00  0.12356505763E+04  0.12356505763E+04  0.50400001928E-02 0. -1.
        1   -1    0    0  501    0  0.00000000000E+00  0.00000000000E+00 -0.18525868062E+04  0.18525868062E+04  0.50400001928E-02 0.  1.
    10030    2    1    2    0    0  0.00000000000E+00  0.00000000000E+00 -0.61693622988E+03  0.30882373825E+04  0.30259874122E+04 0.  0.
        2    1    3    3  502    0  0.92647753930E+03 -0.11849611637E+04 -0.14184163625E+03  0.15108317709E+04  0.25500000920E-02 0. -1.
       -2    1    3    3    0  502 -0.92647753930E+03  0.11849611637E+04 -0.47509459362E+03  0.15774056115E+04  0.25500000920E-02 0.  1.
</event>
<event>
 5   0  0.3113328E-06  0.2992201E+04  0.7818609E-02  0.8245962E-01
       -2   -1    0    0    0  501  0.00000000000E+00  0.00000000000E+00  0.10352405110E+04  0.10352405110E+04  0.25500000920E-02 0. -1.
        2   -1    0    0  501    0  0.00000000000E+00  0.00000000000E+00 -0.21621220063E+04  0.21621220063E+04  0.25500000920E-02 0.  1.
    10030    2    1    2    0    0  0.00000000000E+00  0.00000000000E+00 -0.11268814953E+04  0.31973625173E+04  0.29922007223E+04 0.  0.
        1    1    3    3  502    0 -0.57786586588E+03  0.13778201916E+04 -0.64620355279E+03  0.16278502606E+04  0.50400001928E-02 0. -1.
       -1    1    3    3    0  502  0.57786586588E+03 -0.13778201916E+04 -0.48067794249E+03  0.15695122567E+04  0.50400001928E-02 0.  1.
</event>
<event>
 5   0  0.2970915E-06  0.2980871E+04  0.7818609E-02  0.8249215E-01
        2   -1    0    0  501    0  0.00000000000E+00  0.00000000000E+00  0.13106398211E+04  0.13106398211E+04  0.25500000920E-02 0. -1.
       -2   -1    0    0    0  501  0.00000000000E+00  0.00000000000E+00 -0.16948954131E+04  0.16948954132E+04  0.25500000920E-02 0.  1.
    10030    2    1    2    0    0  0.00000000000E+00  0.00000000000E+00 -0.38425559207E+03  0.30055352342E+04  0.29808706252E+04 0.  0.
        4    1    3    3  502    0 -0.66831690778E+03  0.64276547471E+03  0.98440382874E+03  0.13523488661E+04  0.12699999809E+01 0. -1.
       -4    1    3    3    0  502  0.66831690778E+03 -0.64276547471E+03 -0.13686594208E+04  0.16531863681E+04  0.12699999809E+01 0.  1.
</event>
<event>
 5   0  0.2985941E-06  0.3004387E+04  0.7818609E-02  0.8242479E-01
        2   -1    0    0  501    0  0.00000000000E+00  0.00000000000E+00  0.32928890773E+04  0.32928890773E+04  0.25500000920E-02 0. -1.
       -2   -1    0    0    0  501  0.00000000000E+00  0.00000000000E+00 -0.68529045884E+03  0.68529045885E+03  0.25500000920E-02 0.  1.
    10030    2    1    2    0    0  0.00000000000E+00  0.00000000000E+00  0.26075986184E+04  0.39781795361E+04  0.30043871033E+04 0.  0.
        3    1    3    3  502    0 -0.72289032044E+03  0.13051415694E+04  0.15355039892E+04  0.21409664740E+04  0.10100000352E+00 0. -1.
       -3    1    3    3    0  502  0.72289032044E+03 -0.13051415694E+04  0.10720946292E+04  0.18372130621E+04  0.10100000352E+00 0.  1.
</event>
<event>
 5   0  0.1091075E-06  0.2999622E+04  0.7818609E-02  0.8243839E-01
       -1   -1    0    0    0  501  0.00000000000E+00  0.00000000000E+00  0.90887415488E+03  0.90887415490E+03  0.50400001928E-02 0. -1.
        1   -1    0    0  501    0  0.00000000000E+00  0.00000000000E+00 -0.24749657997E+04  0.24749657997E+04  0.50400001928E-02 0.  1.
    10030    2    1    2    0    0  0.00000000000E+00  0.00000000000E+00 -0.15660916448E+04  0.33838399546E+04  0.29996216092E+04 0.  0.
        1    1    3    3  502    0  0.13298397588E+04  0.68745686937E+03 -0.88620101721E+03  0.17396617414E+04  0.50400001928E-02 0. -1.
       -1    1    3    3    0  502 -0.13298397588E+04 -0.68745686937E+03 -0.67989062763E+03  0.16441782133E+04  0.50400001928E-02 0.  1.
</event>
<event>
 5   0  0.2862033E-06  0.2973293E+04  0.7818609E-02  0.8251399E-01
        2   -1    0    0  501    0  0.00000000000E+00  0.00000000000E+00  0.21467138874E+04  0.21467138874E+04  0.25500000920E-02 0.  1.
       -2   -1    0    0    0  501  0.00000000000E+00  0.00000000000E+00 -0.10295354503E+04  0.10295354503E+04  0.25500000920E-02 0. -1.
    10030    2    1    2    0    0  0.00000000000E+00  0.00000000000E+00  0.11171784370E+04  0.31762493377E+04  0.29732931566E+04 0.  0.
        2    1    3    3  502    0  0.49557497408E+03  0.12851350519E+04 -0.39017264410E+02  0.13779292448E+04  0.25500000920E-02 0. -1.
       -2    1    3    3    0  502 -0.49557497408E+03 -0.12851350519E+04  0.11561957015E+04  0.17983200930E+04  0.25500000920E-02 0.  1.
</event>
<event>
 5   0  0.1091075E-06  0.3011249E+04  0.7818609E-02  0.8240526E-01
       -1   -1    0    0    0  501  0.00000000000E+00  0.00000000000E+00  0.12558652545E+04  0.12558652546E+04  0.50400001928E-02 0. -1.
        1   -1    0    0  501    0  0.00000000000E+00  0.00000000000E+00 -0.18050548897E+04  0.18050548897E+04  0.50400001928E-02 0.  1.
    10030    2    1    2    0    0  0.00000000000E+00  0.00000000000E+00 -0.54918963513E+03  0.30609201442E+04  0.30112493876E+04 0.  0.
        1    1    3    3  502    0 -0.13094687734E+04  0.57166908130E+03 -0.75718029171E+03  0.16170454543E+04  0.50400001928E-02 0.  1.
       -1    1    3    3    0  502  0.13094687734E+04 -0.57166908130E+03  0.20799065657E+03  0.14438746900E+04  0.50400001928E-02 0. -1.
</event>
<event>
 5   0  0.1054384E-06  0.3005659E+04  0.7818609E-02  0.8242117E-01
       -1   -1    0    0    0  501  0.00000000000E+00  0.00000000000E+00  0.90368350510E+03  0.90368350511E+03  0.50400001928E-02 0. -1.
        1   -1    0    0  501    0  0.00000000000E+00  0.00000000000E+00 -0.24992119355E+04  0.24992119355E+04  0.50400001928E-02 0.  1.
    10030    2    1    2    0    0  0.00000000000E+00  0.00000000000E+00 -0.15955284304E+04  0.34028954406E+04  0.30056590637E+04 0.  0.
        2    1    3    3  502    0 -0.54616737844E+03  0.17548801027E+03 -0.23703712827E+04  0.24388019322E+04  0.25500000920E-02 0.  1.
       -2    1    3    3    0  502  0.54616737844E+03 -0.17548801027E+03  0.77484285231E+03  0.96409350833E+03  0.25500000920E-02 0. -1.
</event>
<event>
 5   0  0.2948711E-06  0.3010161E+04  0.7818609E-02  0.8240835E-01
        2   -1    0    0  501    0  0.00000000000E+00  0.00000000000E+00  0.22052932648E+04  0.22052932648E+04  0.25500000920E-02 0.  1.
       -2   -1    0    0    0  501  0.00000000000E+00  0.00000000000E+00 -0.10271957447E+04  0.10271957447E+04  0.25500000920E-02 0. -1.
    10030    2    1    2    0    0  0.00000000000E+00  0.00000000000E+00  0.11780975202E+04  0.32324890095E+04  0.30101613627E+04 0.  0.
        5    1    3    3  502    0 -0.76710283063E+03 -0.38765148238E+03  0.19158298996E+04  0.20997968279E+04  0.46999998093E+01 0.  1.
       -5    1    3    3    0  502  0.76710283063E+03  0.38765148238E+03 -0.73773237938E+03  0.11326921815E+04  0.46999998093E+01 0. -1.
</event>
<event>
 5   0  0.1091075E-06  0.3026266E+04  0.7818609E-02  0.8236270E-01
       -1   -1    0    0    0  501  0.00000000000E+00  0.00000000000E+00  0.14520296052E+04  0.14520296052E+04  0.50400001928E-02 0. -1.
        1   -1    0    0  501    0  0.00000000000E+00  0.00000000000E+00 -0.15768075317E+04  0.15768075317E+04  0.50400001928E-02 0.  1.
    10030    2    1    2    0    0  0.00000000000E+00  0.00000000000E+00 -0.12477792652E+03  0.30288371369E+04  0.30262658296E+04 0.  0.
        1    1    3    3  502    0  0.35747253938E+03  0.12459750385E+04 -0.84364864925E+03  0.15466038459E+04  0.50400001928E-02 0.  1.
       -1    1    3    3    0  502 -0.35747253938E+03 -0.12459750385E+04  0.71887072273E+03  0.14822332910E+04  0.50400001928E-02 0. -1.
</event>
<event>
 5   0  0.2970915E-06  0.3006238E+04  0.7818609E-02  0.8241952E-01
       -2   -1    0    0    0  501  0.00000000000E+00  0.00000000000E+00  0.26258734694E+04  0.26258734694E+04  0.25500000920E-02 0.  1.
        2   -1    0    0  501    0  0.00000000000E+00  0.00000000000E+00 -0.86042474199E+03  0.86042474200E+03  0.25500000920E-02 0. -1.
    10030    2    1    2    0    0  0.00000000000E+00  0.00000000000E+00  0.17654487274E+04  0.34862982114E+04  0.30062378498E+04 0.  0.
        4    1    3    3  502    0  0.52333988621E+03  0.32463993732E+02 -0.75092439216E+03  0.91587532068E+03  0.12699999809E+01 0. -1.
       -4    1    3    3    0  502 -0.52333988621E+03 -0.32463993732E+02  0.25163731196E+04  0.25704228907E+04  0.12699999809E+01 0.  1.
</event>
<event>
 5   0  0.9749500E-07  0.2948533E+04  0.7818609E-02  0.8258582E-01
       -3   -1    0    0    0  501  0.00000000000E+00  0.00000000000E+00  0.17533532175E+04  0.17533532204E+04  0.10100000352E+00 0.  1.
        3   -1    0    0  501    0  0.00000000000E+00  0.00000000000E+00 -0.12396028052E+04  0.12396028093E+04  0.10100000352E+00 0. -1.
    10030    2    1    2    0    0  0.00000000000E+00  0.00000000000E+00  0.51375041227E+03  0.29929560297E+04  0.29485329081E+04 0.  0.
        3    1    3    3  502    0 -0.97021400822E+02 -0.24077615552E+03 -0.12162216423E+04  0.12436162602E+04  0.10100000352E+00 0. -1.
       -3    1    3    3    0  502  0.97021400822E+02  0.24077615552E+03  0.17299720546E+04  0.17493397695E+04  0.10100000352E+00 0.  1.
</event>
<event>
 5   0  0.2985941E-06  0.3038544E+04  0.7818609E-02  0.8232809E-01
       -2   -1    0    0    0  501  0.00000000000E+00  0.00000000000E+00  0.16176664778E+04  0.16176664778E+04  0.25500000920E-02 0.  1.
        2   -1    0    0  501    0  0.00000000000E+00  0.00000000000E+00 -0.14268626123E+04  0.14268626123E+04  0.25500000920E-02 0. -1.
    10030    2    1    2    0    0  0.00000000000E+00  0.00000000000E+00  0.19080386550E+03  0.30445290902E+04  0.30385442675E+04 0.  0.
        3    1    3    3  502    0  0.50208647377E+02  0.15178310110E+04  0.52236689233E+02  0.15195593335E+04  0.10100000352E+00 0. -1.
       -3    1    3    3    0  502 -0.50208647377E+02 -0.15178310110E+04  0.13856717626E+03  0.15249697567E+04  0.10100000352E+00 0.  1.
</event>
<event>
 5   0  0.2985941E-06  0.3121703E+04  0.7818609E-02  0.8209807E-01
       -2   -1    0    0    0  501  0.00000000000E+00  0.00000000000E+00  0.16338909477E+04  0.16338909477E+04  0.25500000920E-02 0. -1.
        2   -1    0    0  501    0  0.00000000000E+00  0.00000000000E+00 -0.14910773039E+04  0.14910773039E+04  0.25500000920E-02 0.  1.
    10030    2    1    2    0    0  0.00000000000E+00  0.00000000000E+00  0.14281364380E+03  0.31249682516E+04  0.31217031948E+04 0.  0.
        3    1    3    3  502    0  0.85411465723E+03  0.56690909515E+03  0.12496510242E+04  0.16163308641E+04  0.10100000352E+00 0. -1.
       -3    1    3    3    0  502 -0.85411465723E+03 -0.56690909515E+03 -0.11068373804E+04  0.15086373874E+04  0.10100000352E+00 0.  1.
</event>
<event>
 5   0  0.1091076E-06  0.2840786E+04  0.7818609E-02  0.8290717E-01
        1   -1    0    0  501    0  0.00000000000E+00  0.00000000000E+00  0.15124224356E+04  0.15124224356E+04  0.50400001928E-02 0.  1.
       -1   -1    0    0    0  501  0.00000000000E+00  0.00000000000E+00 -0.13339638331E+04  0.13339638331E+04  0.50400001928E-02 0. -1.
    10030    2    1    2    0    0  0.00000000000E+00  0.00000000000E+00  0.17845860244E+03  0.28463862687E+04  0.28407863908E+04 0.  0.
        3    1    3    3  502    0 -0.82282244366E+03 -0.10875360335E+04 -0.30872539877E+03  0.13982427471E+04  0.10100000352E+00 0. -1.
       -3    1    3    3    0  502  0.82282244366E+03  0.10875360335E+04  0.48718400121E+03  0.14481435216E+04  0.10100000352E+00 0.  1.
</event>
<event>
 5   0  0.2862033E-06  0.2818336E+04  0.7818609E-02  0.8297598E-01
        2   -1    0    0  501    0  0.00000000000E+00  0.00000000000E+00  0.19107067416E+04  0.19107067416E+04  0.25500000920E-02 0.  1.
       -2   -1    0    0    0  501  0.00000000000E+00  0.00000000000E+00 -0.10392774047E+04  0.10392774047E+04  0.25500000920E-02 0. -1.
    10030    2    1    2    0    0  0.00000000000E+00  0.00000000000E+00  0.87142933688E+03  0.29499841463E+04  0.28183359229E+04 0.  0.
        2    1    3    3  502    0  0.88682633034E+03  0.10911417509E+04  0.53336269813E+03  0.15038374342E+04  0.25500000920E-02 0.  1.
       -2    1    3    3    0  502 -0.88682633034E+03 -0.10911417509E+04  0.33806663875E+03  0.14461467121E+04  0.25500000920E-02 0. -1.
</event>
<event>
 5   0  0.2970915E-06  0.2983881E+04  0.7818609E-02  0.8248349E-01
       -2   -1    0    0    0  501  0.00000000000E+00  0.00000000000E+00  0.10887310208E+04  0.10887310208E+04  0.25500000920E-02 0.  1.
        2   -1    0    0  501    0  0.00000000000E+00  0.00000000000E+00 -0.20444779200E+04  0.20444779200E+04  0.25500000920E-02 0. -1.
    10030    2    1    2    0    0  0.00000000000E+00  0.00000000000E+00 -0.95574689921E+03  0.31332089409E+04  0.29838810519E+04 0.  0.
        4    1    3    3  502    0  0.61186048252E+03  0.72504456249E+03 -0.16869407334E+04  0.19354155932E+04  0.12699999809E+01 0. -1.
       -4    1    3    3    0  502 -0.61186048252E+03 -0.72504456249E+03  0.73119383415E+03  0.11977933477E+04  0.12699999809E+01 0.  1.
</event>
<event>
 5   0  0.2970915E-06  0.3018028E+04  0.7818609E-02  0.8238602E-01
       -2   -1    0    0    0  501  0.00000000000E+00  0.00000000000E+00  0.99539862754E+03  0.99539862754E+03  0.25500000920E-02 0.  1.
        2   -1    0    0  501    0  0.00000000000E+00  0.00000000000E+00 -0.22876498016E+04  0.22876498016E+04  0.25500000920E-02 0. -1.
    10030    2    1    2    0    0  0.00000000000E+00  0.00000000000E+00 -0.12922511740E+04  0.32830484291E+04  0.30180281462E+04 0.  0.
        4    1    3    3  502    0  0.54887384549E+03 -0.12278483729E+04 -0.13905007022E+04  0.19345200802E+04  0.12699999809E+01 0. -1.
       -4    1    3    3    0  502 -0.54887384549E+03  0.12278483729E+04  0.98249528204E+02  0.13485283489E+04  0.12699999809E+01 0.  1.
</event>
<event>
 5   0  0.1097402E-06  0.2939625E+04  0.7818609E-02  0.8261184E-01
        1   -1    0    0  501    0  0.00000000000E+00  0.00000000000E+00  0.20735482290E+04  0.20735482290E+04  0.50400001928E-02 0.  1.
       -1   -1    0    0    0  501  0.00000000000E+00  0.00000000000E+00 -0.10418611000E+04  0.10418611001E+04  0.50400001928E-02 0. -1.
    10030    2    1    2    0    0  0.00000000000E+00  0.00000000000E+00  0.10316871290E+04  0.31154093291E+04  0.29396253087E+04 0.  0.
        4    1    3    3  502    0 -0.29415273637E+03 -0.10972828933E+04  0.15042392800E+04  0.18850180383E+04  0.12699999809E+01 0. -1.
       -4    1    3    3    0  502  0.29415273637E+03  0.10972828933E+04 -0.47255215097E+03  0.12303912908E+04  0.12699999809E+01 0.  1.
</event>
<event>
 5   0  0.1113245E-06  0.3020162E+04  0.7818609E-02  0.8237997E-01
       -1   -1    0    0    0  501  0.00000000000E+00  0.00000000000E+00  0.12627124486E+04  0.12627124486E+04  0.50400001928E-02 0. -1.
        1   -1    0    0  501    0  0.00000000000E+00  0.00000000000E+00 -0.18059098017E+04  0.18059098017E+04  0.50400001928E-02 0.  1.
    10030    2    1    2    0    0  0.00000000000E+00  0.00000000000E+00 -0.54319735306E+03  0.30686222503E+04  0.30201621067E+04 0.  0.
        5    1    3    3  502    0 -0.12163205929E+04  0.89465295503E+03 -0.24926871152E+03  0.15303583486E+04  0.46999998093E+01 0. -1.
       -5    1    3    3    0  502  0.12163205929E+04 -0.89465295503E+03 -0.29392864154E+03  0.15382639016E+04  0.46999998093E+01 0.  1.
</event>
<event>
 5   0  0.1091075E-06  0.3025824E+04  0.7818609E-02  0.8236395E-01
        1   -1    0    0  501    0  0.00000000000E+00  0.00000000000E+00  0.22662887625E+04  0.22662887625E+04  0.50400001928E-02 0.  1.
       -1   -1    0    0    0  501  0.00000000000E+00  0.00000000000E+00 -0.10099785423E+04  0.10099785423E+04  0.50400001928E-02 0. -1.
    10030    2    1    2    0    0  0.00000000000E+00  0.00000000000E+00  0.12563102202E+04  0.32762673047E+04  0.30258241989E+04 0.  0.
        1    1    3    3  502    0  0.96708476020E+03 -0.27683703004E+03 -0.59542670535E+03  0.11689416735E+04  0.50400001928E-02 0. -1.
       -1    1    3    3    0  502 -0.96708476020E+03  0.27683703004E+03  0.18517369255E+04  0.21073256312E+04  0.50400001928E-02 0.  1.
</event>
<event>
 5   0  0.1097402E-06  0.3009575E+04  0.7818609E-02  0.8241002E-01
       -1   -1    0    0    0  501  0.00000000000E+00  0.00000000000E+00  0.17408523800E+04  0.17408523800E+04  0.50400001928E-02 0. -1.
        1   -1    0    0  501    0  0.00000000000E+00  0.00000000000E+00 -0.13007333640E+04  0.13007333640E+04  0.50400001928E-02 0.  1.
    10030    2    1    2    0    0  0.00000000000E+00  0.00000000000E+00  0.44011901600E+03  0.30415857440E+04  0.30095745695E+04 0.  0.
        4    1    3    3  502    0 -0.22566602273E+03  0.31562178460E+03 -0.12493102708E+04  0.13081743119E+04  0.12699999809E+01 0.  1.
       -4    1    3    3    0  502  0.22566602273E+03 -0.31562178460E+03  0.16894292868E+04  0.17334114320E+04  0.12699999809E+01 0. -1.
</event>
<event>
 5   0  0.1091075E-06  0.3008761E+04  0.7818609E-02  0.8241234E-01
       -1   -1    0    0    0  501  0.00000000000E+00  0.00000000000E+00  0.10856140584E+04  0.10856140584E+04  0.50400001928E-02 0. -1.
        1   -1    0    0  501    0  0.00000000000E+00  0.00000000000E+00 -0.20846827951E+04  0.20846827951E+04  0.50400001928E-02 0.  1.
    10030    2    1    2    0    0  0.00000000000E+00  0.00000000000E+00 -0.99906873673E+03  0.31702968535E+04  0.30087611734E+04 0.  0.
        1    1    3    3  502    0  0.10507719054E+04 -0.10754775313E+04 -0.55101901211E+03  0.16013729951E+04  0.50400001928E-02 0.  1.
       -1    1    3    3    0  502 -0.10507719054E+04  0.10754775313E+04 -0.44804972462E+03  0.15689238584E+04  0.50400001928E-02 0. -1.
</event>
<event>
 5   0  0.2862033E-06  0.3005093E+04  0.7818609E-02  0.8242278E-01
       -2   -1    0    0    0  501  0.00000000000E+00  0.00000000000E+00  0.10718985959E+04  0.10718985959E+04  0.25500000920E-02 0.  1.
        2   -1    0    0  501    0  0.00000000000E+00  0.00000000000E+00 -0.21062118028E+04  0.21062118028E+04  0.25500000920E-02 0. -1.
    10030    2    1    2    0    0  0.00000000000E+00  0.00000000000E+00 -0.10343132068E+04  0.31781103987E+04  0.30050926602E+04 0.  0.
        2    1    3    3  502    0 -0.10273366500E+04  0.91107276384E+03  0.12802585590E+03  0.13790811409E+04  0.25500000920E-02 0.  1.
       -2    1    3    3    0  502  0.10273366500E+04 -0.91107276384E+03 -0.11623390628E+04  0.17990292578E+04  0.25500000920E-02 0. -1.
</event>
<event>
 5   0  0.1097402E-06  0.3043274E+04  0.7818609E-02  0.8231481E-01
       -1   -1    0    0    0  501  0.00000000000E+00  0.00000000000E+00  0.12992611287E+04  0.12992611287E+04  0.50400001928E-02 0. -1.
        1   -1    0    0  501    0  0.00000000000E+00  0.00000000000E+00 -0.17820739757E+04  0.17820739757E+04  0.50400001928E-02 0.  1.
    10030    2    1    2    0    0  0.00000000000E+00  0.00000000000E+00 -0.48281284708E+03  0.30813351044E+04  0.30432741875E+04 0.  0.
        4    1    3    3  502    0 -0.35115314053E+03  0.11024409883E+04 -0.12420442702E+04  0.16974569929E+04  0.12699999809E+01 0.  1.
       -4    1    3    3    0  502  0.35115314053E+03 -0.11024409883E+04  0.75923142309E+03  0.13838781115E+04  0.12699999809E+01 0. -1.
</event>
<event>
 5   0  0.2862033E-06  0.3003276E+04  0.7818609E-02  0.8242796E-01
       -2   -1    0    0    0  501  0.00000000000E+00  0.00000000000E+00  0.96771052370E+03  0.96771052371E+03  0.25500000920E-02 0.  1.
        2   -1    0    0  501    0  0.00000000000E+00  0.00000000000E+00 -0.23301567144E+04  0.23301567144E+04  0.25500000920E-02 0. -1.
    10030    2    1    2    0    0  0.00000000000E+00  0.00000000000E+00 -0.13624461907E+04  0.32978672381E+04  0.30032763272E+04 0.  0.
        2    1    3    3  502    0  0.85036825230E+03 -0.12113768890E+04 -0.40265208781E+03  0.15338477224E+04  0.25500000920E-02 0. -1.
       -2    1    3    3    0  502 -0.85036825230E+03  0.12113768890E+04 -0.95979410291E+03  0.17640195157E+04  0.25500000920E-02 0.  1.
</event>
<event>
 5   0  0.1091075E-06  0.3026180E+04  0.7818609E-02  0.8236294E-01
        1   -1    0    0  501    0  0.00000000000E+00  0.00000000000E+00  0.14359075859E+04  0.14359075859E+04  0.50400001928E-02 0.  1.
       -1   -1    0    0    0  501  0.00000000000E+00  0.00000000000E+00 -0.15944210934E+04  0.15944210934E+04  0.50400001928E-02 0. -1.
    10030    2    1    2    0    0  0.00000000000E+00  0.00000000000E+00 -0.15851350749E+03  0.30303286792E+04  0.30261799967E+04 0.  0.
        1    1    3    3  502    0 -0.40557423427E+03 -0.16832556764E+03  0.13706984045E+04  0.14393186139E+04  0.50400001928E-02 0.  1.
       -1    1    3    3    0  502  0.40557423427E+03  0.16832556764E+03 -0.15292119120E+04  0.15910100653E+04  0.50400001928E-02 0. -1.
</event>
<event>
 5   0  0.1091076E-06  0.2998046E+04  0.7818609E-02  0.8244289E-01
       -1   -1    0    0    0  501  0.00000000000E+00  0.00000000000E+00  0.95497553256E+03  0.95497553258E+03  0.50400001928E-02 0.  1.
        1   -1    0    0  501    0  0.00000000000E+00  0.00000000000E+00 -0.23530134292E+04  0.23530134292E+04  0.50400001928E-02 0. -1.
    10030    2    1    2    0    0  0.00000000000E+00  0.00000000000E+00 -0.13980378966E+04  0.33079889618E+04  0.29980461989E+04 0.  0.
        3    1    3    3  502    0 -0.71056365579E+03 -0.16369803100E+03  0.74610451047E+03  0.10432495890E+04  0.10100000352E+00 0.  1.
       -3    1    3    3    0  502  0.71056365579E+03  0.16369803100E+03 -0.21441424071E+04  0.22647393727E+04  0.10100000352E+00 0. -1.
</event>
<event>
 5   0  0.2862033E-06  0.3006420E+04  0.7818609E-02  0.8241900E-01
        2   -1    0    0  501    0  0.00000000000E+00  0.00000000000E+00  0.15707167662E+04  0.15707167662E+04  0.25500000920E-02 0. -1.
       -2   -1    0    0    0  501  0.00000000000E+00  0.00000000000E+00 -0.14386045793E+04  0.14386045793E+04  0.25500000920E-02 0.  1.
    10030    2    1    2    0    0  0.00000000000E+00  0.00000000000E+00  0.13211218696E+03  0.30093213455E+04  0.30064200190E+04 0.  0.
        2    1    3    3  502    0  0.12729812912E+04  0.66189905864E+03 -0.38276105157E+03  0.14849571557E+04  0.25500000920E-02 0.  1.
       -2    1    3    3    0  502 -0.12729812912E+04 -0.66189905864E+03  0.51487323853E+03  0.15243641899E+04  0.25500000920E-02 0. -1.
</event>
<event>
 5   0  0.2985941E-06  0.3005576E+04  0.7818609E-02  0.8242141E-01
       -2   -1    0    0    0  501  0.00000000000E+00  0.00000000000E+00  0.14022296428E+04  0.14022296428E+04  0.25500000920E-02 0. -1.
        2   -1    0    0  501    0  0.00000000000E+00  0.00000000000E+00 -0.16105572668E+04  0.16105572668E+04  0.25500000920E-02 0.  1.
    10030    2    1    2    0    0  0.00000000000E+00  0.00000000000E+00 -0.20832762397E+03  0.30127869096E+04  0.30055755794E+04 0.  0.
        3    1    3    3  502    0  0.66205859779E+03  0.12109834979E+04  0.49187913381E+03  0.14651783890E+04  0.10100000352E+00 0. -1.
       -3    1    3    3    0  502 -0.66205859779E+03 -0.12109834979E+04 -0.70020675778E+03  0.15476085206E+04  0.10100000352E+00 0.  1.
</event>
<event>
 5   0  0.2948711E-06  0.2936610E+04  0.7818609E-02  0.8262067E-01
       -2   -1    0    0    0  501  0.00000000000E+00  0.00000000000E+00  0.22581316287E+04  0.22581316287E+04  0.25500000920E-02 0.  1.
        2   -1    0    0  501    0  0.00000000000E+00  0.00000000000E+00 -0.95473618905E+03  0.95473618905E+03  0.25500000920E-02 0. -1.
    10030    2    1    2    0    0  0.00000000000E+00  0.00000000000E+00  0.13033954397E+04  0.32128678178E+04  0.29366102810E+04 0.  0.
        5    1    3    3  502    0 -0.39315637640E+02  0.10445304801E+04  0.17798718471E+04  0.20641113161E+04  0.46999998093E+01 0.  1.
       -5    1    3    3    0  502  0.39315637640E+02 -0.10445304801E+04 -0.47647640746E+03  0.11487565016E+04  0.46999998093E+01 0. -1.
</event>
<event>
 5   0  0.1097402E-06  0.2996165E+04  0.7818609E-02  0.8244827E-01
        1   -1    0    0  501    0  0.00000000000E+00  0.00000000000E+00  0.24037663499E+04  0.24037663499E+04  0.50400001928E-02 0. -1.
       -1   -1    0    0    0  501  0.00000000000E+00  0.00000000000E+00 -0.93363960288E+03  0.93363960290E+03  0.50400001928E-02 0.  1.
    10030    2    1    2    0    0  0.00000000000E+00  0.00000000000E+00  0.14701267471E+04  0.33374059528E+04  0.29961651893E+04 0.  0.
        4    1    3    3  502    0 -0.14684512522E+04 -0.26276380853E+03  0.58210703781E+03  0.16013257369E+04  0.12699999809E+01 0.  1.
       -4    1    3    3    0  502  0.14684512522E+04  0.26276380853E+03  0.88801970924E+03  0.17360802159E+04  0.12699999809E+01 0. -1.
</event>
<event>
 5   0  0.1091075E-06  0.3002285E+04  0.7818609E-02  0.8243079E-01
       -1   -1    0    0    0  501  0.00000000000E+00  0.00000000000E+00  0.12006475501E+04  0.12006475501E+04  0.50400001928E-02 0. -1.
        1   -1    0    0  501    0  0.00000000000E+00  0.00000000000E+00 -0.18768443668E+04  0.18768443668E+04  0.50400001928E-02 0.  1.
    10030    2    1    2    0    0  0.00000000000E+00  0.00000000000E+00 -0.67619681673E+03  0.30774919169E+04  0.30022848572E+04 0.  0.
        1    1    3    3  502    0  0.25387824217E+03  0.14452952602E+03  0.11712282477E+04  0.12071116576E+04  0.50400001928E-02 0. -1.
       -1    1    3    3    0  502 -0.25387824217E+03 -0.14452952602E+03 -0.18474250644E+04  0.18703802593E+04  0.50400001928E-02 0.  1.
</event>
<event>
 5   0  0.1113245E-06  0.2981480E+04  0.7818609E-02  0.8249039E-01
        1   -1    0    0  501    0  0.00000000000E+00  0.00000000000E+00  0.27883601200E+04  0.27883601200E+04  0.50400001928E-02 0. -1.
       -1   -1    0    0    0  501  0.00000000000E+00  0.00000000000E+00 -0.79699356207E+03  0.79699356208E+03  0.50400001928E-02 0.  1.
    10030    2    1    2    0    0  0.00000000000E+00  0.00000000000E+00  0.19913665579E+04  0.35853536821E+04  0.29814795417E+04 0.  0.
        5    1    3    3  502    0  0.23779936420E+01  0.88040401316E+03  0.24423195815E+04  0.25961633057E+04  0.46999998093E+01 0. -1.
       -5    1    3    3    0  502 -0.23779936420E+01 -0.88040401316E+03 -0.45095302364E+03  0.98919037640E+03  0.46999998093E+01 0.  1.
</event>
<event>
 5   0  0.2985941E-06  0.3022746E+04  0.7818609E-02  0.8237265E-01
       -2   -1    0    0    0  501  0.00000000000E+00  0.00000000000E+00  0.14994346459E+04  0.14994346459E+04  0.25500000920E-02 0.  1.
        2   -1    0    0  501    0  0.00000000000E+00  0.00000000000E+00 -0.15234067181E+04  0.15234067181E+04  0.25500000920E-02 0. -1.
    10030    2    1    2    0    0  0.00000000000E+00  0.00000000000E+00 -0.23972072237E+02  0.30228413640E+04  0.30227463095E+04 0.  0.
        3    1    3    3  502    0 -0.42380705812E+03  0.14445171860E+04 -0.14617847963E+03  0.15124848698E+04  0.10100000352E+00 0. -1.
       -3    1    3    3    0  502  0.42380705812E+03 -0.14445171860E+04  0.12220640740E+03  0.15103564942E+04  0.10100000352E+00 0.  1.
</event>
<event>
 5   0  0.2862033E-06  0.3026640E+04  0.7818609E-02  0.8236164E-01
       -2   -1    0    0    0  501  0.00000000000E+00  0.00000000000E+00  0.17046881901E+04  0.17046881901E+04  0.25500000920E-02 0.  1.
        2   -1    0    0  501    0  0.00000000000E+00  0.00000000000E+00 -0.13434345253E+04  0.13434345253E+04  0.25500000920E-02 0. -1.
    10030    2    1    2    0    0  0.00000000000E+00  0.00000000000E+00  0.36125366487E+03  0.30481227154E+04  0.30266397007E+04 0.  0.
        2    1    3    3  502    0 -0.85276170791E+03  0.61888025581E+03 -0.91332527998E+03  0.13944096846E+04  0.25500000920E-02 0. -1.
       -2    1    3    3    0  502  0.85276170791E+03 -0.61888025581E+03  0.12745789449E+04  0.16537130308E+04  0.25500000920E-02 0.  1.
</event>
<event>
 5   0  0.1054384E-06  0.2948607E+04  0.7818609E-02  0.8258561E-01
       -1   -1    0    0    0  501  0.00000000000E+00  0.00000000000E+00  0.82418353862E+03  0.82418353863E+03  0.50400001928E-02 0. -1.
        1   -1    0    0  501    0  0.00000000000E+00  0.00000000000E+00 -0.26372403663E+04  0.26372403664E+04  0.50400001928E-02 0.  1.
    10030    2    1    2    0    0  0.00000000000E+00  0.00000000000E+00 -0.18130568277E+04  0.34614239050E+04  0.29486065165E+04 0.  0.
        2    1    3    3  502    0  0.28149123305E+03  0.57281044786E+03 -0.24666573305E+04  0.25478907963E+04  0.25500000920E-02 0.  1.
       -2    1    3    3    0  502 -0.28149123305E+03 -0.57281044786E+03  0.65360050280E+03  0.91353310872E+03  0.25500000920E-02 0. -1.
</event>
<event>
 5   0  0.1054384E-06  0.3003204E+04  0.7818609E-02  0.8242817E-01
       -1   -1    0    0    0  501  0.00000000000E+00  0.00000000000E+00  0.82034792438E+03  0.82034792440E+03  0.50400001928E-02 0. -1.
        1   -1    0    0  501    0  0.00000000000E+00  0.00000000000E+00 -0.27486000560E+04  0.27486000560E+04  0.50400001928E-02 0.  1.
    10030    2    1    2    0    0  0.00000000000E+00  0.00000000000E+00 -0.19282521317E+04  0.35689479804E+04  0.30032038565E+04 0.  0.
        2    1    3    3  502    0 -0.10618898822E+04  0.78128152401E+03 -0.18184362211E+04  0.22460456878E+04  0.25500000920E-02 0.  1.
       -2    1    3    3    0  502  0.10618898822E+04 -0.78128152401E+03 -0.10981591057E+03  0.13229022926E+04  0.25500000920E-02 0. -1.
</event>
<event>
 5   0  0.2970915E-06  0.2978983E+04  0.7818609E-02  0.8249758E-01
        2   -1    0    0  501    0  0.00000000000E+00  0.00000000000E+00  0.14532006564E+04  0.14532006564E+04  0.25500000920E-02 0. -1.
       -2   -1    0    0    0  501  0.00000000000E+00  0.00000000000E+00 -0.15266889748E+04  0.15266889748E+04  0.25500000920E-02 0.  1.
    10030    2    1    2    0    0  0.00000000000E+00  0.00000000000E+00 -0.73488318444E+02  0.29798896311E+04  0.29789833301E+04 0.  0.
        4    1    3    3  502    0 -0.73585936904E+03 -0.41248871828E+03  0.11912073527E+04  0.14596617840E+04  0.12699999809E+01 0. -1.
       -4    1    3    3    0  502  0.73585936904E+03  0.41248871828E+03 -0.12646956711E+04  0.15202278471E+04  0.12699999809E+01 0.  1.
</event>
<event>
 5   0  0.1091076E-06  0.2796550E+04  0.7818609E-02  0.8304340E-01
       -1   -1    0    0    0  501  0.00000000000E+00  0.00000000000E+00  0.24145978502E+04  0.24145978502E+04  0.50400001928E-02 0.  1.
        1   -1    0    0  501    0  0.00000000000E+00  0.00000000000E+00 -0.80973034643E+03  0.80973034645E+03  0.50400001928E-02 0. -1.
    10030    2    1    2    0    0  0.00000000000E+00  0.00000000000E+00  0.16048675037E+04  0.32243281966E+04  0.27965501274E+04 0.  0.
        3    1    3    3  502    0 -0.11836824820E+04 -0.66523434052E+03  0.41738407584E+03  0.14205106205E+04  0.10100000352E+00 0. -1.
       -3    1    3    3    0  502  0.11836824820E+04  0.66523434052E+03  0.11874834279E+04  0.18038175761E+04  0.10100000352E+00 0.  1.
</event>
<event>
 5   0  0.3113328E-06  0.3004104E+04  0.7818609E-02  0.8242560E-01
       -2   -1    0    0    0  501  0.00000000000E+00  0.00000000000E+00  0.17925963683E+04  0.17925963683E+04  0.25500000920E-02 0.  1.
        2   -1    0    0  501    0  0.00000000000E+00  0.00000000000E+00 -0.12585993690E+04  0.12585993690E+04  0.25500000920E-02 0. -1.
    10030    2    1    2    0    0  0.00000000000E+00  0.00000000000E+00  0.53399699931E+03  0.30511957372E+04  0.30041042977E+04 0.  0.
        1    1    3    3  502    0 -0.93254313537E+03 -0.60040901941E+03 -0.76181278710E+03  0.13455431664E+04  0.50400001928E-02 0. -1.
       -1    1    3    3    0  502  0.93254313537E+03  0.60040901941E+03  0.12958097864E+04  0.17056525709E+04  0.50400001928E-02 0.  1.
</event>
<event>
 5   0  0.1054384E-06  0.2991766E+04  0.7818609E-02  0.8246086E-01
        1   -1    0    0  501    0  0.00000000000E+00  0.00000000000E+00  0.13474734121E+04  0.13474734121E+04  0.50400001928E-02 0. -1.
       -1   -1    0    0    0  501  0.00000000000E+00  0.00000000000E+00 -0.16606380915E+04  0.16606380915E+04  0.50400001928E-02 0.  1.
    10030    2    1    2    0    0  0.00000000000E+00  0.00000000000E+00 -0.31316467934E+03  0.30081115036E+04  0.29917658167E+04 0.  0.
        2    1    3    3  502    0  0.33734720147E+03 -0.13204377684E+04 -0.77664173058E+03  0.15686081130E+04  0.25500000920E-02 0.  1.
       -2    1    3    3    0  502 -0.33734720147E+03  0.13204377684E+04  0.46347705124E+03  0.14395033906E+04  0.25500000920E-02 0. -1.
</event>
<event>
 5   0  0.1097402E-06  0.3016944E+04  0.7818609E-02  0.8238909E-01
        1   -1    0    0  501    0  0.00000000000E+00  0.00000000000E+00  0.21819291320E+04  0.21819291320E+04  0.50400001928E-02 0.  1.
       -1   -1    0    0    0  501  0.00000000000E+00  0.00000000000E+00 -0.10428791826E+04  0.10428791826E+04  0.50400001928E-02 0. -1.
    10030    2    1    2    0    0  0.00000000000E+00  0.00000000000E+00  0.11390499494E+04  0.32248083146E+04  0.30169444607E+04 0.  0.
        4    1    3    3  502    0 -0.21407361658E+03  0.13233595099E+03  0.21593287938E+04  0.21739463586E+04  0.12699999809E+01 0.  1.
       -4    1    3    3    0  502  0.21407361658E+03 -0.13233595099E+03 -0.10202788445E+04  0.10508619560E+04  0.12699999809E+01 0. -1.
</event>
<event>
 5   0  0.2970915E-06  0.2997995E+04  0.7818609E-02  0.8244304E-01
        2   -1    0    0  501    0  0.00000000000E+00  0.00000000000E+00  0.21927097578E+04  0.21927097578E+04  0.25500000920E-02 0. -1.
       -2   -1    0    0    0  501  0.00000000000E+00  0.00000000000E+00 -0.10247562008E+04  0.10247562008E+04  0.25500000920E-02 0.  1.
    10030    2    1    2    0    0  0.00000000000E+00  0.00000000000E+00  0.11679535570E+04  0.32174659586E+04  0.29979946103E+04 0.  0.
        4    1    3    3  502    0 -0.11892409947E+04  0.27938997181E+03 -0.34831652676E+03  0.12703066226E+04  0.12699999809E+01 0.  1.
       -4    1    3    3    0  502  0.11892409947E+04 -0.27938997181E+03  0.15162700838E+04  0.19471593359E+04  0.12699999809E+01 0. -1.
</event>
<event>
 5   0  0.2862033E-06  0.2893620E+04  0.7818609E-02  0.8274778E-01
       -2   -1    0    0    0  501  0.00000000000E+00  0.00000000000E+00  0.73783343897E+03  0.73783343897E+03  0.25500000920E-02 0. -1.
        2   -1    0    0  501    0  0.00000000000E+00  0.00000000000E+00 -0.28370348853E+04  0.28370348853E+04  0.25500000920E-02 0.  1.
    10030    2    1    2    0    0  0.00000000000E+00  0.00000000000E+00 -0.20992014464E+04  0.35748683243E+04  0.28936200206E+04 0.  0.
        2    1    3    3  502    0 -0.22297173812E+03  0.33967099868E+03  0.66589961107E+03  0.78007376278E+03  0.25500000920E-02 0. -1.
       -2    1    3    3    0  502  0.22297173812E+03 -0.33967099868E+03 -0.27651010574E+04  0.27947945615E+04  0.25500000920E-02 0.  1.
</event>
<event>
 5   0  0.1113245E-06  0.3040484E+04  0.7818609E-02  0.8232264E-01
       -1   -1    0    0    0  501  0.00000000000E+00  0.00000000000E+00  0.10919829186E+04  0.10919829186E+04  0.50400001928E-02 0. -1.
        1   -1    0    0  501    0  0.00000000000E+00  0.00000000000E+00 -0.21164572200E+04  0.21164572200E+04  0.50400001928E-02 0.  1.
    10030    2    1    2    0    0  0.00000000000E+00  0.00000000000E+00 -0.10244743014E+04  0.32084401386E+04  0.30404836011E+04 0.  0.
        5    1    3    3  502    0 -0.89784871325E+03  0.91157858072E+02 -0.18032020785E+04  0.20164329626E+04  0.46999998093E+01 0.  1.
       -5    1    3    3    0  502  0.89784871325E+03 -0.91157858072E+02  0.77872777700E+03  0.11920071760E+04  0.46999998093E+01 0. -1.
</event>
<event>
 5   0  0.2948711E-06  0.2983608E+04  0.7818609E-02  0.8248427E-01
        2   -1    0    0  501    0  0.00000000000E+00  0.00000000000E+00  0.16765859102E+04  0.16765859102E+04  0.25500000920E-02 0. -1.
       -2   -1    0    0    0  501  0.00000000000E+00  0.00000000000E+00 -0.13273874788E+04  0.13273874788E+04  0.25500000920E-02 0.  1.
    10030    2    1    2    0    0  0.00000000000E+00  0.00000000000E+00  0.34919843137E+03  0.30039733890E+04  0.29836079798E+04 0.  0.
        5    1    3    3  502    0 -0.10173520956E+04  0.62696567359E+03 -0.72444929611E+03  0.13974763379E+04  0.46999998093E+01 0.  1.
       -5    1    3    3    0  502  0.10173520956E+04 -0.62696567359E+03  0.10736477275E+04  0.16064970511E+04  0.46999998093E+01 0. -1.
</event>
<event>
 5   0  0.2862033E-06  0.2999173E+04  0.7818609E-02  0.8243967E-01
       -2   -1    0    0    0  501  0.00000000000E+00  0.00000000000E+00  0.13206592923E+04  0.13206592923E+04  0.25500000920E-02 0.  1.
        2   -1    0    0  501    0  0.00000000000E+00  0.00000000000E+00 -0.17027553074E+04  0.17027553074E+04  0.25500000920E-02 0. -1.
    10030    2    1    2    0    0  0.00000000000E+00  0.00000000000E+00 -0.38209601519E+03  0.30234145997E+04  0.29991729655E+04 0.  0.
        2    1    3    3  502    0 -0.70270259287E+03 -0.96587507918E+03 -0.11050483765E+04  0.16272177227E+04  0.25500000920E-02 0. -1.
       -2    1    3    3    0  502  0.70270259287E+03  0.96587507918E+03  0.72295236133E+03  0.13961968770E+04  0.25500000920E-02 0.  1.
</event>
<event>
 5   0  0.9749500E-07  0.3049220E+04  0.7818609E-02  0.8229814E-01
        4   -1    0    0  501    0  0.00000000000E+00  0.00000000000E+00  0.22973191896E+04  0.22973195406E+04  0.12699999809E+01 0.  1.
       -4   -1    0    0    0  501  0.00000000000E+00  0.00000000000E+00 -0.10118026874E+04  0.10118034844E+04  0.12699999809E+01 0. -1.
    10030    2    1    2    0    0  0.00000000000E+00  0.00000000000E+00  0.12855165022E+04  0.33091230250E+04  0.30492199851E+04 0.  0.
        3    1    3    3  502    0 -0.79801487490E+03  0.10942403043E+04 -0.11709758041E+03  0.13593753852E+04  0.10100000352E+00 0. -1.
       -3    1    3    3    0  502  0.79801487490E+03 -0.10942403043E+04  0.14026140826E+04  0.19497476399E+04  0.10100000352E+00 0.  1.
</event>
<event>
 5   0  0.1091076E-06  0.2969672E+04  0.7818609E-02  0.8252444E-01
        1   -1    0    0  501    0  0.00000000000E+00  0.00000000000E+00  0.15383247618E+04  0.15383247618E+04  0.50400001928E-02 0.  1.
       -1   -1    0    0    0  501  0.00000000000E+00  0.00000000000E+00 -0.14332075232E+04  0.14332075232E+04  0.50400001928E-02 0. -1.
    10030    2    1    2    0    0  0.00000000000E+00  0.00000000000E+00  0.10511723866E+03  0.29715322850E+04  0.29696724545E+04 0.  0.
        3    1    3    3  502    0  0.12927619237E+04 -0.64839522601E+03 -0.28393884707E+03  0.14738626257E+04  0.10100000352E+00 0. -1.
       -3    1    3    3    0  502 -0.12927619237E+04  0.64839522601E+03  0.38905608573E+03  0.14976696593E+04  0.10100000352E+00 0.  1.
</event>
<event>
 5   0  0.3113328E-06  0.2750942E+04  0.7818609E-02  0.8318663E-01
       -2   -1    0    0    0  501  0.00000000000E+00  0.00000000000E+00  0.83160228369E+03  0.83160228369E+03  0.25500000920E-02 0.  1.
        2   -1    0    0  501    0  0.00000000000E+00  0.00000000000E+00 -0.22750310470E+04  0.22750310470E+04  0.25500000920E-02 0. -1.
    10030    2    1    2    0    0  0.00000000000E+00  0.00000000000E+00 -0.14434287633E+04  0.31066333307E+04  0.27509423943E+04 0.  0.
        1    1    3    3  502    0 -0.86127966917E+03 -0.10535997408E+04 -0.49572517222E+03  0.14483157559E+04  0.50400001928E-02 0. -1.
       -1    1    3    3    0  502  0.86127966917E+03  0.10535997408E+04 -0.94770359106E+03  0.16583175748E+04  0.50400001928E-02 0.  1.
</event>
<event>
 5   0  0.1091076E-06  0.3017394E+04  0.7818609E-02  0.8238781E-01
       -1   -1    0    0    0  501  0.00000000000E+00  0.00000000000E+00  0.17520277739E+04  0.17520277739E+04  0.50400001928E-02 0.  1.
        1   -1    0    0  501    0  0.00000000000E+00  0.00000000000E+00 -0.12991616967E+04  0.12991616967E+04  0.50400001928E-02 0. -1.
    10030    2    1    2    0    0  0.00000000000E+00  0.00000000000E+00  0.45286607717E+03  0.30511894707E+04  0.30173944890E+04 0.  0.
        3    1    3    3  502    0 -0.10881938620E+03  0.70606854257E+03  0.15701474337E+04  0.17250325850E+04  0.10100000352E+00 0.  1.
       -3    1    3    3    0  502  0.10881938620E+03 -0.70606854257E+03 -0.11172813565E+04  0.13261568857E+04  0.10100000352E+00 0. -1.
</event>
<event>
 5   0  0.2862033E-06  0.3011508E+04  0.7818609E-02  0.8240452E-01
        2   -1    0    0  501    0  0.00000000000E+00  0.00000000000E+00  0.17141011283E+04  0.17141011283E+04  0.25500000920E-02 0. -1.
       -2   -1    0    0    0  501  0.00000000000E+00  0.00000000000E+00 -0.13227313794E+04  0.13227313794E+04  0.25500000920E-02 0.  1.
    10030    2    1    2    0    0  0.00000000000E+00  0.00000000000E+00  0.39136974884E+03  0.30368325077E+04  0.30115081603E+04 0.  0.
        2    1    3    3  502    0 -0.63115069107E+03 -0.15882163870E+03 -0.11735698880E+04  0.13419544664E+04  0.25500000920E-02 0.  1.
       -2    1    3    3    0  502  0.63115069107E+03  0.15882163870E+03  0.15649396369E+04  0.16948780413E+04  0.25500000920E-02 0. -1.
</event>
<event>
 5   0  0.2985941E-06  0.2997879E+04  0.7818609E-02  0.8244337E-01
       -2   -1    0    0    0  501  0.00000000000E+00  0.00000000000E+00  0.12806453564E+04  0.12806453564E+04  0.25500000920E-02 0. -1.
        2   -1    0    0  501    0  0.00000000000E+00  0.00000000000E+00 -0.17544435538E+04  0.17544435538E+04  0.25500000920E-02 0.  1.
    10030    2    1    2    0    0  0.00000000000E+00  0.00000000000E+00 -0.47379819740E+03  0.30350889102E+04  0.29978792439E+04 0.  0.
        3    1    3    3  502    0 -0.30268089696E+03 -0.37432239637E+03 -0.16740559944E+04  0.17418945044E+04  0.10100000352E+00 0.  1.
       -3    1    3    3    0  502  0.30268089696E+03  0.37432239637E+03  0.12002577970E+04  0.12931944058E+04  0.10100000352E+00 0. -1.
</event>
<event>
 5   0  0.3113328E-06  0.2982689E+04  0.7818609E-02  0.8248691E-01
       -2   -1    0    0    0  501  0.00000000000E+00  0.00000000000E+00  0.16923095975E+04  0.16923095975E+04  0.25500000920E-02 0. -1.
        2   -1    0    0  501    0  0.00000000000E+00  0.00000000000E+00 -0.13142445664E+04  0.13142445664E+04  0.25500000920E-02 0.  1.
    10030    2    1    2    0    0  0.00000000000E+00  0.00000000000E+00  0.37806503111E+03  0.30065541639E+04  0.29826891848E+04 0.  0.
        1    1    3    3  502    0  0.67335074254E+03  0.62228269689E+02 -0.11508263170E+04  0.13347939137E+04  0.50400001928E-02 0.  1.
       -1    1    3    3    0  502 -0.67335074254E+03 -0.62228269689E+02  0.15288913481E+04  0.16717602503E+04  0.50400001928E-02 0. -1.
</event>
<event>
 5   0  0.2948711E-06  0.3008716E+04  0.7818609E-02  0.8241246E-01
        2   -1    0    0  501    0  0.00000000000E+00  0.00000000000E+00  0.18993074939E+04  0.18993074939E+04  0.25500000920E-02 0. -1.
       -2   -1    0    0    0  501  0.00000000000E+00  0.00000000000E+00 -0.11915361466E+04  0.11915361466E+04  0.25500000920E-02 0.  1.
    10030    2    1    2    0    0  0.00000000000E+00  0.00000000000E+00  0.70777134737E+03  0.30908436405E+04  0.30087163591E+04 0.  0.
        5    1    3    3  502    0 -0.77270685924E+03  0.12408749529E+04  0.71886503908E+03  0.16289983344E+04  0.46999998093E+01 0. -1.
       -5    1    3    3    0  502  0.77270685924E+03 -0.12408749529E+04 -0.11093691713E+02  0.14618453061E+04  0.46999998093E+01 0.  1.
</event>
<event>
 5   0  0.1097402E-06  0.2922677E+04  0.7818609E-02  0.8266162E-01
       -1   -1    0    0    0  501  0.00000000000E+00  0.00000000000E+00  0.18684466394E+04  0.18684466394E+04  0.50400001928E-02 0. -1.
        1   -1    0    0  501    0  0.00000000000E+00  0.00000000000E+00 -0.11429333185E+04  0.11429333185E+04  0.50400001928E-02 0.  1.
    10030    2    1    2    0    0  0.00000000000E+00  0.00000000000E+00  0.72551332089E+03  0.30113799578E+04  0.29226767990E+04 0.  0.
        4    1    3    3  502    0  0.98047320742E+03  0.94314162054E+03 -0.18697582574E+03  0.13732462995E+04  0.12699999809E+01 0.  1.
       -4    1    3    3    0  502 -0.98047320742E+03 -0.94314162054E+03  0.91248914663E+03  0.16381336583E+04  0.12699999809E+01 0. -1.
</event>
<event>
 5   0  0.1113245E-06  0.2973922E+04  0.7818609E-02  0.8251217E-01
       -1   -1    0    0    0  501  0.00000000000E+00  0.00000000000E+00  0.11284157674E+04  0.11284157674E+04  0.50400001928E-02 0.  1.
        1   -1    0    0  501    0  0.00000000000E+00  0.00000000000E+00 -0.19594308251E+04  0.19594308251E+04  0.50400001928E-02 0. -1.
    10030    2    1    2    0    0  0.00000000000E+00  0.00000000000E+00 -0.83101505776E+03  0.30878465925E+04  0.29739217462E+04 0.  0.
        5    1    3    3  502    0 -0.82650859154E+03 -0.12094982064E+04 -0.15073251742E+03  0.14726658633E+04  0.46999998093E+01 0.  1.
       -5    1    3    3    0  502  0.82650859154E+03  0.12094982064E+04 -0.68028254034E+03  0.16151807292E+04  0.46999998093E+01 0. -1.
</event>
<event>
 5   0  0.2970915E-06  0.2995485E+04  0.7818609E-02  0.8245021E-01
        2   -1    0    0  501    0  0.00000000000E+00  0.00000000000E+00  0.89631271177E+03  0.89631271178E+03  0.25500000920E-02 0. -1.
       -2   -1    0    0    0  501  0.00000000000E+00  0.00000000000E+00 -0.25027351344E+04  0.25027351344E+04  0.25500000920E-02 0.  1.
    10030    2    1    2    0    0  0.00000000000E+00  0.00000000000E+00 -0.16064224226E+04  0.33990478462E+04  0.29954854800E+04 0.  0.
        4    1    3    3  502    0 -0.51524315450E+03  0.10554494880E+04  0.25139974252E+03  0.12011047304E+04  0.12699999809E+01 0. -1.
       -4    1    3    3    0  502  0.51524315450E+03 -0.10554494880E+04 -0.18578221652E+04  0.21979431158E+04  0.12699999809E+01 0.  1.
</event>
<event>
 5   0  0.1097402E-06  0.2978463E+04  0.7818609E-02  0.8249908E-01
       -1   -1    0    0    0  501  0.00000000000E+00  0.00000000000E+00  0.15013179940E+04  0.15013179940E+04  0.50400001928E-02 0. -1.
        1   -1    0    0  501    0  0.00000000000E+00  0.00000000000E+00 -0.14772425190E+04  0.14772425190E+04  0.50400001928E-02 0.  1.
    10030    2    1    2    0    0  0.00000000000E+00  0.00000000000E+00  0.24075475028E+02  0.29785605131E+04  0.29784632114E+04 0.  0.
        4    1    3    3  502    0 -0.95351185930E+03 -0.17119405210E+03 -0.11190681289E+04  0.14801376150E+04  0.12699999809E+01 0.  1.
       -4    1    3    3    0  502  0.95351185930E+03  0.17119405210E+03  0.11431436039E+04  0.14984228981E+04  0.12699999809E+01 0. -1.
</event>
<event>
 5   0  0.1091075E-06  0.2994102E+04  0.7818609E-02  0.8245417E-01
       -1   -1    0    0    0  501  0.00000000000E+00  0.00000000000E+00  0.20407165521E+04  0.20407165521E+04  0.50400001928E-02 0.  1.
        1   -1    0    0  501    0  0.00000000000E+00  0.00000000000E+00 -0.10982229242E+04  0.10982229242E+04  0.50400001928E-02 0. -1.
    10030    2    1    2    0    0  0.00000000000E+00  0.00000000000E+00  0.94249362794E+03  0.31389394764E+04  0.29941020019E+04 0.  0.
        1    1    3    3  502    0 -0.12440392011E+04 -0.58518643954E+03 -0.14994036784E+03  0.13829529337E+04  0.50400001928E-02 0. -1.
       -1    1    3    3    0  502  0.12440392011E+04  0.58518643954E+03  0.10924339958E+04  0.17559865427E+04  0.50400001928E-02 0.  1.
</event>
<event>
 5   0  0.3113328E-06  0.2990430E+04  0.7818609E-02  0.8246469E-01
        2   -1    0    0  501    0  0.00000000000E+00  0.00000000000E+00  0.18259210782E+04  0.18259210782E+04  0.25500000920E-02 0.  1.
       -2   -1    0    0    0  501  0.00000000000E+00  0.00000000000E+00 -0.12244056640E+04  0.12244056640E+04  0.25500000920E-02 0. -1.
    10030    2    1    2    0    0  0.00000000000E+00  0.00000000000E+00  0.60151541417E+03  0.30503267422E+04  0.29904301431E+04 0.  0.
        1    1    3    3  502    0 -0.30621727640E+02  0.13299294733E+04  0.99708601969E+03  0.16624772554E+04  0.50400001928E-02 0. -1.
       -1    1    3    3    0  502  0.30621727640E+02 -0.13299294733E+04 -0.39557060552E+03  0.13878494868E+04  0.50400001928E-02 0.  1.
</event>
<event>
 5   0  0.1113245E-06  0.3018271E+04  0.7818609E-02  0.8238533E-01
       -1   -1    0    0    0  501  0.00000000000E+00  0.00000000000E+00  0.11319478540E+04  0.11319478541E+04  0.50400001928E-02 0.  1.
        1   -1    0    0  501    0  0.00000000000E+00  0.00000000000E+00 -0.20120091114E+04  0.20120091114E+04  0.50400001928E-02 0. -1.
    10030    2    1    2    0    0  0.00000000000E+00  0.00000000000E+00 -0.88006125738E+03  0.31439569655E+04  0.30182706280E+04 0.  0.
        5    1    3    3  502    0 -0.12272504628E+03  0.14521546386E+04 -0.31721942638E+02  0.14576840889E+04  0.46999998093E+01 0.  1.
       -5    1    3    3    0  502  0.12272504628E+03 -0.14521546386E+04 -0.84833931474E+03  0.16862728766E+04  0.46999998093E+01 0. -1.
</event>
<event>
 5   0  0.2970915E-06  0.2999396E+04  0.7818609E-02  0.8243903E-01
        2   -1    0    0  501    0  0.00000000000E+00  0.00000000000E+00  0.27068517074E+04  0.27068517074E+04  0.25500000920E-02 0. -1.
       -2   -1    0    0    0  501  0.00000000000E+00  0.00000000000E+00 -0.83088926898E+03  0.83088926899E+03  0.25500000920E-02 0.  1.
    10030    2    1    2    0    0  0.00000000000E+00  0.00000000000E+00  0.18759624384E+04  0.35377409764E+04  0.29993959635E+04 0.  0.
        4    1    3    3  502    0 -0.16726719433E+03  0.52967857955E+03 -0.70508540949E+03  0.89759944268E+03  0.12699999809E+01 0.  1.
       -4    1    3    3    0  502  0.16726719433E+03 -0.52967857955E+03  0.25810478479E+04  0.26401415337E+04  0.12699999809E+01 0. -1.
</event>
<event>
 5   0  0.3113328E-06  0.3000703E+04  0.7818609E-02  0.8243530E-01
        2   -1    0    0  501    0  0.00000000000E+00  0.00000000000E+00  0.70178779122E+03  0.70178779123E+03  0.25500000920E-02 0. -1.
       -2   -1    0    0    0  501  0.00000000000E+00  0.00000000000E+00 -0.32075996782E+04  0.32075996782E+04  0.25500000920E-02 0.  1.
    10030    2    1    2    0    0  0.00000000000E+00  0.00000000000E+00 -0.25058118870E+04  0.39093874695E+04  0.30007027799E+04 0.  0.
        1    1    3    3  502    0  0.56852062443E+03  0.52563869413E+03  0.42138381393E+03  0.88151917497E+03  0.50400001928E-02 0. -1.
       -1    1    3    3    0  502 -0.56852062443E+03 -0.52563869413E+03 -0.29271957009E+04  0.30278682945E+04  0.50400001928E-02 0.  1.
</event>
<event>
 5   0  0.2985941E-06  0.3006968E+04  0.7818609E-02  0.8241744E-01
        2   -1    0    0  501    0  0.00000000000E+00  0.00000000000E+00  0.11966006544E+04  0.11966006544E+04  0.25500000920E-02 0.  1.
       -2   -1    0    0    0  501  0.00000000000E+00  0.00000000000E+00 -0.18890717127E+04  0.18890717127E+04  0.25500000920E-02 0. -1.
    10030    2    1    2    0    0  0.00000000000E+00  0.00000000000E+00 -0.69247105833E+03  0.30856723672E+04  0.30069682058E+04 0.  0.
        3    1    3    3  502    0  0.79688302922E+03  0.51545547806E+03 -0.15428386020E+04  0.18113718211E+04  0.10100000352E+00 0. -1.
       -3    1    3    3    0  502 -0.79688302922E+03 -0.51545547806E+03  0.85036754370E+03  0.12743005461E+04  0.10100000352E+00 0.  1.
</event>
<event>
 5   0  0.2862033E-06  0.2987392E+04  0.7818609E-02  0.8247340E-01
       -2   -1    0    0    0  501  0.00000000000E+00  0.00000000000E+00  0.12521614629E+04  0.12521614629E+04  0.25500000920E-02 0. -1.
        2   -1    0    0  501    0  0.00000000000E+00  0.00000000000E+00 -0.17818208699E+04  0.17818208699E+04  0.25500000920E-02 0.  1.
    10030    2    1    2    0    0  0.00000000000E+00  0.00000000000E+00 -0.52965940702E+03  0.30339823327E+04  0.29873917902E+04 0.  0.
        2    1    3    3  502    0  0.10352953552E+04 -0.48710151468E+03  0.71036595223E+03  0.13467457608E+04  0.25500000920E-02 0. -1.
       -2    1    3    3    0  502 -0.10352953552E+04  0.48710151468E+03 -0.12400253593E+04  0.16872365719E+04  0.25500000920E-02 0.  1.
</event>
<event>
 5   0  0.3113328E-06  0.3027437E+04  0.7818609E-02  0.8235939E-01
       -2   -1    0    0    0  501  0.00000000000E+00  0.00000000000E+00  0.14199178449E+04  0.14199178449E+04  0.25500000920E-02 0. -1.
        2   -1    0    0  501    0  0.00000000000E+00  0.00000000000E+00 -0.16137156416E+04  0.16137156416E+04  0.25500000920E-02 0.  1.
    10030    2    1    2    0    0  0.00000000000E+00  0.00000000000E+00 -0.19379779670E+03  0.30336334866E+04  0.30274369597E+04 0.  0.
        1    1    3    3  502    0  0.30589522651E+02 -0.13950539424E+04  0.49101521092E+03  0.14792589897E+04  0.50400001928E-02 0. -1.
       -1    1    3    3    0  502 -0.30589522651E+02  0.13950539424E+04 -0.68481300762E+03  0.15543744969E+04  0.50400001928E-02 0.  1.
</event>
<event>
 5   0  0.2948711E-06  0.2964692E+04  0.7818609E-02  0.8253886E-01
       -2   -1    0    0    0  501  0.00000000000E+00  0.00000000000E+00  0.99380970128E+03  0.99380970128E+03  0.25500000920E-02 0.  1.
        2   -1    0    0  501    0  0.00000000000E+00  0.00000000000E+00 -0.22110371602E+04  0.22110371602E+04  0.25500000920E-02 0. -1.
    10030    2    1    2    0    0  0.00000000000E+00  0.00000000000E+00 -0.12172274589E+04  0.32048468615E+04  0.29646923481E+04 0.  0.
        5    1    3    3  502    0 -0.73270211277E+03 -0.39784045288E+03 -0.19335388595E+04  0.21056410006E+04  0.46999998093E+01 0. -1.
       -5    1    3    3    0  502  0.73270211277E+03  0.39784045288E+03  0.71631140061E+03  0.10992058609E+04  0.46999998093E+01 0.  1.
</event>
<event>
 5   0  0.2862033E-06  0.3027953E+04  0.7818609E-02  0.8235793E-01
        2   -1    0    0  501    0  0.00000000000E+00  0.00000000000E+00  0.92921745014E+03  0.92921745014E+03  0.25500000920E-02 0. -1.
       -2   -1    0    0    0  501  0.00000000000E+00  0.00000000000E+00 -0.24667261909E+04  0.24667261910E+04  0.25500000920E-02 0.  1.
    10030    2    1    2    0    0  0.00000000000E+00  0.00000000000E+00 -0.15375087408E+04  0.33959436411E+04  0.30279531181E+04 0.  0.
        2    1    3    3  502    0  0.40177868858E+03  0.10639057730E+04  0.35210554042E+03  0.11905040613E+04  0.25500000920E-02 0. -1.
       -2    1    3    3    0  502 -0.40177868858E+03 -0.10639057730E+04 -0.18896142812E+04  0.22054395798E+04  0.25500000920E-02 0.  1.
</event>
<event>
 5   0  0.1091076E-06  0.3009709E+04  0.7818609E-02  0.8240964E-01
       -1   -1    0    0    0  501  0.00000000000E+00  0.00000000000E+00  0.13186087255E+04  0.13186087255E+04  0.50400001928E-02 0. -1.
        1   -1    0    0  501    0  0.00000000000E+00  0.00000000000E+00 -0.17174059405E+04  0.17174059405E+04  0.50400001928E-02 0.  1.
    10030    2    1    2    0    0  0.00000000000E+00  0.00000000000E+00 -0.39879721500E+03  0.30360146661E+04  0.30097085962E+04 0.  0.
        3    1    3    3  502    0 -0.14786370321E+04  0.27283975330E+03 -0.26139672082E+03  0.15261511260E+04  0.10100000352E+00 0. -1.
       -3    1    3    3    0  502  0.14786370321E+04 -0.27283975330E+03 -0.13740049419E+03  0.15098635401E+04  0.10100000352E+00 0.  1.
</event>
<event>
 5   0  0.1091075E-06  0.2993935E+04  0.7818609E-02  0.8245465E-01
        1   -1    0    0  501    0  0.00000000000E+00  0.00000000000E+00  0.13822599542E+04  0.13822599542E+04  0.50400001928E-02 0. -1.
       -1   -1    0    0    0  501  0.00000000000E+00  0.00000000000E+00 -0.16211943489E+04  0.16211943489E+04  0.50400001928E-02 0.  1.
    10030    2    1    2    0    0  0.00000000000E+00  0.00000000000E+00 -0.23893439473E+03  0.30034543031E+04  0.29939352207E+04 0.  0.
        1    1    3    3  502    0 -0.16599398227E+03  0.89976469514E+03 -0.13080471185E+04  0.15962824853E+04  0.50400001928E-02 0.  1.
       -1    1    3    3    0  502  0.16599398227E+03 -0.89976469514E+03  0.10691127237E+04  0.14071718178E+04  0.50400001928E-02 0. -1.
</event>
<event>
 5   0  0.2862033E-06  0.3010757E+04  0.7818609E-02  0.8240666E-01
       -2   -1    0    0    0  501  0.00000000000E+00  0.00000000000E+00  0.12269016318E+04  0.12269016318E+04  0.25500000920E-02 0.  1.
        2   -1    0    0  501    0  0.00000000000E+00  0.00000000000E+00 -0.18470634495E+04  0.18470634495E+04  0.25500000920E-02 0. -1.
    10030    2    1    2    0    0  0.00000000000E+00  0.00000000000E+00 -0.62016181767E+03  0.30739650813E+04  0.30107574863E+04 0.  0.
        2    1    3    3  502    0 -0.82444519379E+03 -0.31005339376E+03 -0.15564975444E+04  0.17884427837E+04  0.25500000920E-02 0. -1.
       -2    1    3    3    0  502  0.82444519379E+03  0.31005339376E+03  0.93633572677E+03  0.12855222977E+04  0.25500000920E-02 0.  1.
</event>
<event>
 5   0  0.2948711E-06  0.2977612E+04  0.7818609E-02  0.8250153E-01
        2   -1    0    0  501    0  0.00000000000E+00  0.00000000000E+00  0.15915461275E+04  0.15915461275E+04  0.25500000920E-02 0. -1.
       -2   -1    0    0    0  501  0.00000000000E+00  0.00000000000E+00 -0.13926979490E+04  0.13926979490E+04  0.25500000920E-02 0.  1.
    10030    2    1    2    0    0  0.00000000000E+00  0.00000000000E+00  0.19884817855E+03  0.29842440765E+04  0.29776118132E+04 0.  0.
        5    1    3    3  502    0  0.31101399949E+03  0.38542221806E+02  0.15581059484E+04  0.15893179188E+04  0.46999998093E+01 0. -1.
       -5    1    3    3    0  502 -0.31101399949E+03 -0.38542221806E+02 -0.13592577698E+04  0.13949261577E+04  0.46999998093E+01 0.  1.
</event>
<event>
 5   0  0.2948711E-06  0.3009161E+04  0.7818609E-02  0.8241120E-01
       -2   -1    0    0    0  501  0.00000000000E+00  0.00000000000E+00  0.92423775905E+03  0.92423775906E+03  0.25500000920E-02 0.  1.
        2   -1    0    0  501    0  0.00000000000E+00  0.00000000000E+00 -0.24493291901E+04  0.24493291901E+04  0.25500000920E-02 0. -1.
    10030    2    1    2    0    0  0.00000000000E+00  0.00000000000E+00 -0.15250914311E+04  0.33735669492E+04  0.30091610272E+04 0.  0.
        5    1    3    3  502    0  0.13839048688E+03 -0.14920384578E+04 -0.61043220260E+03  0.16180173826E+04  0.46999998093E+01 0. -1.
       -5    1    3    3    0  502 -0.13839048688E+03  0.14920384578E+04 -0.91465922847E+03  0.17555495666E+04  0.46999998093E+01 0.  1.
</event>
<event>
 5   0  0.1097402E-06  0.3000824E+04  0.7818609E-02  0.8243496E-01
        1   -1    0    0  501    0  0.00000000000E+00  0.00000000000E+00  0.18939445840E+04  0.18939445840E+04  0.50400001928E-02 0.  1.
       -1   -1    0    0    0  501  0.00000000000E+00  0.00000000000E+00 -0.11886495327E+04  0.11886495327E+04  0.50400001928E-02 0. -1.
    10030    2    1    2    0    0  0.00000000000E+00  0.00000000000E+00  0.70529505136E+03  0.30825941167E+04  0.30008241167E+04 0.  0.
        4    1    3    3  502    0  0.38430571113E+02 -0.14986511131E+04  0.41599361367E+03  0.15557905923E+04  0.12699999809E+01 0.  1.
       -4    1    3    3    0  502 -0.38430571113E+02  0.14986511131E+04  0.28930143769E+03  0.15268035245E+04  0.12699999809E+01 0. -1.
</event>
<event>
 5   0  0.1113245E-06  0.2996919E+04  0.7818609E-02  0.8244611E-01
       -1   -1    0    0    0  501  0.00000000000E+00  0.00000000000E+00  0.13692692450E+04  0.13692692451E+04  0.50400001928E-02 0. -1.
        1   -1    0    0  501    0  0.00000000000E+00  0.00000000000E+00 -0.16398385933E+04  0.16398385933E+04  0.50400001928E-02 0.  1.
    10030    2    1    2    0    0  0.00000000000E+00  0.00000000000E+00 -0.27056934824E+03  0.30091078384E+04  0.29969187861E+04 0.  0.
        5    1    3    3  502    0  0.56176369539E+03  0.37753272579E+03  0.12070330225E+04  0.13838570071E+04  0.46999998093E+01 0. -1.
       -5    1    3    3    0  502 -0.56176369539E+03 -0.37753272579E+03 -0.14776023708E+04  0.16252508313E+04  0.46999998093E+01 0.  1.
</event>
<event>
 5   0  0.3113328E-06  0.3074194E+04  0.7818609E-02  0.8222856E-01
       -2   -1    0    0    0  501  0.00000000000E+00  0.00000000000E+00  0.14289491108E+04  0.14289491108E+04  0.25500000920E-02 0. -1.
        2   -1    0    0  501    0  0.00000000000E+00  0.00000000000E+00 -0.16534303880E+04  0.16534303880E+04  0.25500000920E-02 0.  1.
    10030    2    1    2    0    0  0.00000000000E+00  0.00000000000E+00 -0.22448127723E+03  0.30823794988E+04  0.30741944523E+04 0.  0.
        1    1    3    3  502    0  0.45405913769E+03 -0.39704453075E+03 -0.15298131743E+04  0.16444276841E+04  0.50400001928E-02 0.  1.
       -1    1    3    3    0  502 -0.45405913769E+03  0.39704453075E+03  0.13053318971E+04  0.14379518147E+04  0.50400001928E-02 0. -1.
</event>
<event>
 5   0  0.2970915E-06  0.2992358E+04  0.7818609E-02  0.8245916E-01
       -2   -1    0    0    0  501  0.00000000000E+00  0.00000000000E+00  0.18124748440E+04  0.18124748440E+04  0.25500000920E-02 0. -1.
        2   -1    0    0  501    0  0.00000000000E+00  0.00000000000E+00 -0.12350802873E+04  0.12350802873E+04  0.25500000920E-02 0.  1.
    10030    2    1    2    0    0  0.00000000000E+00  0.00000000000E+00  0.57739455669E+03  0.30475551313E+04  0.29923582346E+04 0.  0.
        4    1    3    3  502    0  0.17061545717E+03 -0.45247623738E+03  0.17306908589E+04  0.17969799224E+04  0.12699999809E+01 0. -1.
       -4    1    3    3    0  502 -0.17061545717E+03  0.45247623738E+03 -0.11532963022E+04  0.12505752089E+04  0.12699999809E+01 0.  1.
</event>
<event>
 5   0  0.2862033E-06  0.2995718E+04  0.7818609E-02  0.8244955E-01
       -2   -1    0    0    0  501  0.00000000000E+00  0.00000000000E+00  0.12087698309E+04  0.12087698309E+04  0.25500000920E-02 0.  1.
        2   -1    0    0  501    0  0.00000000000E+00  0.00000000000E+00 -0.18560872250E+04  0.18560872250E+04  0.25500000920E-02 0. -1.
    10030    2    1    2    0    0  0.00000000000E+00  0.00000000000E+00 -0.64731739415E+03  0.30648570559E+04  0.29957184387E+04 0.  0.
        2    1    3    3  502    0 -0.35538831331E+03 -0.34772875057E+03 -0.17691960724E+04  0.18377352584E+04  0.25500000920E-02 0. -1.
       -2    1    3    3    0  502  0.35538831331E+03  0.34772875057E+03  0.11218786782E+04  0.12271217975E+04  0.25500000920E-02 0.  1.
</event>
<event>
 5   0  0.2862033E-06  0.2992970E+04  0.7818609E-02  0.8245741E-01
        2   -1    0    0  501    0  0.00000000000E+00  0.00000000000E+00  0.22537785500E+04  0.22537785500E+04  0.25500000920E-02 0. -1.
       -2   -1    0    0    0  501  0.00000000000E+00  0.00000000000E+00 -0.99365030746E+03  0.99365030746E+03  0.25500000920E-02 0.  1.
    10030    2    1    2    0    0  0.00000000000E+00  0.00000000000E+00  0.12601282425E+04  0.32474288574E+04  0.29929702632E+04 0.  0.
        2    1    3    3  502    0 -0.24772127761E+03  0.14756819220E+04  0.65345585131E+03  0.16327913265E+04  0.25500000920E-02 0.  1.
       -2    1    3    3    0  502  0.24772127761E+03 -0.14756819220E+04  0.60667239121E+03  0.16146375310E+04  0.25500000920E-02 0. -1.
</event>
<event>
 5   0  0.1054384E-06  0.2994087E+04  0.7818609E-02  0.8245421E-01
        1   -1    0    0  501    0  0.00000000000E+00  0.00000000000E+00  0.13004693942E+04  0.13004693942E+04  0.50400001928E-02 0.  1.
       -1   -1    0    0    0  501  0.00000000000E+00  0.00000000000E+00 -0.17233311687E+04  0.17233311687E+04  0.50400001928E-02 0. -1.
    10030    2    1    2    0    0  0.00000000000E+00  0.00000000000E+00 -0.42286177457E+03  0.30238005629E+04  0.29940871337E+04 0.  0.
        2    1    3    3  502    0  0.10902548507E+04 -0.55802658744E+03  0.65797829554E+03  0.13903182187E+04  0.25500000920E-02 0.  1.
       -2    1    3    3    0  502 -0.10902548507E+04  0.55802658744E+03 -0.10808400701E+04  0.16334823442E+04  0.25500000920E-02 0. -1.
</event>
<event>
 5   0  0.1091076E-06  0.2990961E+04  0.7818609E-02  0.8246317E-01
        1   -1    0    0  501    0  0.00000000000E+00  0.00000000000E+00  0.19740115836E+04  0.19740115836E+04  0.50400001928E-02 0.  1.
       -1   -1    0    0    0  501  0.00000000000E+00  0.00000000000E+00 -0.11329524185E+04  0.11329524185E+04  0.50400001928E-02 0. -1.
    10030    2    1    2    0    0  0.00000000000E+00  0.00000000000E+00  0.84105916502E+03  0.31069640021E+04  0.29909605132E+04 0.  0.
        3    1    3    3  502    0  0.20696891643E+03  0.14761169236E+04  0.29456699782E+03  0.15193837668E+04  0.10100000352E+00 0. -1.
       -3    1    3    3    0  502 -0.20696891643E+03 -0.14761169236E+04  0.54649216720E+03  0.15875802353E+04  0.10100000352E+00 0.  1.
</event>
<event>
 5   0  0.2948711E-06  0.3009422E+04  0.7818609E-02  0.8241046E-01
        2   -1    0    0  501    0  0.00000000000E+00  0.00000000000E+00  0.25178451536E+04  0.25178451536E+04  0.25500000920E-02 0.  1.
       -2   -1    0    0    0  501  0.00000000000E+00  0.00000000000E+00 -0.89924315057E+03  0.89924315057E+03  0.25500000920E-02 0. -1.
    10030    2    1    2    0    0  0.00000000000E+00  0.00000000000E+00  0.16186020030E+04  0.34170883042E+04  0.30094218771E+04 0.  0.
        5    1    3    3  502    0 -0.10657581555E+04 -0.57405123869E+03 -0.20549942933E+03  0.12278547862E+04  0.46999998093E+01 0. -1.
       -5    1    3    3    0  502  0.10657581555E+04  0.57405123869E+03  0.18241014324E+04  0.21892335180E+04  0.46999998093E+01 0.  1.
</event>
<event>
 5   0  0.3113328E-06  0.2998309E+04  0.7818609E-02  0.8244214E-01
       -2   -1    0    0    0  501  0.00000000000E+00  0.00000000000E+00  0.14651132456E+04  0.14651132456E+04  0.25500000920E-02 0. -1.
        2   -1    0    0  501    0  0.00000000000E+00  0.00000000000E+00 -0.15339869281E+04  0.15339869281E+04  0.25500000920E-02 0.  1.
    10030    2    1    2    0    0  0.00000000000E+00  0.00000000000E+00 -0.68873682555E+02  0.29991001737E+04  0.29983092348E+04 0.  0.
        1    1    3    3  502    0 -0.37504099260E+03  0.96408599305E+02 -0.14830986293E+04  0.15328182894E+04  0.50400001928E-02 0.  1.
       -1    1    3    3    0  502  0.37504099260E+03 -0.96408599305E+02  0.14142249467E+04  0.14662818843E+04  0.50400001928E-02 0. -1.
</event>
<event>
 5   0  0.1097402E-06  0.2989770E+04  0.7818609E-02  0.8246658E-01
        1   -1    0    0  501    0  0.00000000000E+00  0.00000000000E+00  0.17777071689E+04  0.17777071689E+04  0.50400001928E-02 0. -1.
       -1   -1    0    0    0  501  0.00000000000E+00  0.00000000000E+00 -0.12570580324E+04  0.12570580324E+04  0.50400001928E-02 0.  1.
    10030    2    1    2    0    0  0.00000000000E+00  0.00000000000E+00  0.52064913646E+03  0.30347652013E+04  0.29897699416E+04 0.  0.
        4    1    3    3  502    0 -0.16900530700E+03 -0.14850205891E+04  0.28957701393E+03  0.15224011967E+04  0.12699999809E+01 0. -1.
       -4    1    3    3    0  502  0.16900530700E+03  0.14850205891E+04  0.23107212253E+03  0.15123640046E+04  0.12699999809E+01 0.  1.
</event>
<event>
 5   0  0.1091076E-06  0.2991790E+04  0.7818609E-02  0.8246079E-01
       -1   -1    0    0    0  501  0.00000000000E+00  0.00000000000E+00  0.13495360179E+04  0.13495360179E+04  0.50400001928E-02 0.  1.
        1   -1    0    0  501    0  0.00000000000E+00  0.00000000000E+00 -0.16581268699E+04  0.16581268699E+04  0.50400001928E-02 0. -1.
    10030    2    1    2    0    0  0.00000000000E+00  0.00000000000E+00 -0.30859085198E+03  0.30076628879E+04  0.29917900550E+04 0.  0.
        3    1    3    3  502    0  0.90854725143E+03  0.75495554562E+03 -0.10769259492E+04  0.15984947589E+04  0.10100000352E+00 0. -1.
       -3    1    3    3    0  502 -0.90854725143E+03 -0.75495554562E+03  0.76833509720E+03  0.14091681290E+04  0.10100000352E+00 0.  1.
</event>
<event>
 5   0  0.2948711E-06  0.2981257E+04  0.7818609E-02  0.8249103E-01
       -2   -1    0    0    0  501  0.00000000000E+00  0.00000000000E+00  0.19981421672E+04  0.19981421672E+04  0.25500000920E-02 0.  1.
        2   -1    0    0  501    0  0.00000000000E+00  0.00000000000E+00 -0.11120196271E+04  0.11120196271E+04  0.25500000920E-02 0. -1.
    10030    2    1    2    0    0  0.00000000000E+00  0.00000000000E+00  0.88612254003E+03  0.31101617943E+04  0.29812569884E+04 0.  0.
        5    1    3    3  502    0  0.61444170280E+03 -0.35038485055E+03 -0.92578641824E+03  0.11650797105E+04  0.46999998093E+01 0. -1.
       -5    1    3    3    0  502 -0.61444170280E+03  0.35038485055E+03  0.18119089583E+04  0.19450820838E+04  0.46999998093E+01 0.  1.
</event>
<event>
 5   0  0.2948711E-06  0.2998994E+04  0.7818609E-02  0.8244018E-01
       -2   -1    0    0    0  501  0.00000000000E+00  0.00000000000E+00  0.15188092135E+04  0.15188092135E+04  0.25500000920E-02 0. -1.
        2   -1    0    0  501    0  0.00000000000E+00  0.00000000000E+00 -0.14804299350E+04  0.14804299351E+04  0.25500000920E-02 0.  1.
    10030    2    1    2    0    0  0.00000000000E+00  0.00000000000E+00  0.38379278497E+02  0.29992391486E+04  0.29989935814E+04 0.  0.
        5    1    3    3  502    0 -0.28469073505E+03 -0.55801117045E+03  0.13816679783E+04  0.15170543079E+04  0.46999998093E+01 0. -1.
       -5    1    3    3    0  502  0.28469073505E+03  0.55801117045E+03 -0.13432886998E+04  0.14821848407E+04  0.46999998093E+01 0.  1.
</event>
<event>
 5   0  0.2862033E-06  0.2985078E+04  0.7818609E-02  0.8248005E-01
        2   -1    0    0  501    0  0.00000000000E+00  0.00000000000E+00  0.17113982404E+04  0.17113982404E+04  0.25500000920E-02 0.  1.
       -2   -1    0    0    0  501  0.00000000000E+00  0.00000000000E+00 -0.13016685608E+04  0.13016685608E+04  0.25500000920E-02 0. -1.
    10030    2    1    2    0    0  0.00000000000E+00  0.00000000000E+00  0.40972967964E+03  0.30130668012E+04  0.29850784140E+04 0.  0.
        2    1    3    3  502    0  0.85843447009E+03  0.10035115242E+04 -0.49716198024E+03  0.14110687982E+04  0.25500000920E-02 0. -1.
       -2    1    3    3    0  502 -0.85843447009E+03 -0.10035115242E+04  0.90689165988E+03  0.16019980029E+04  0.25500000920E-02 0.  1.
</event>
<event>
 5   0  0.2970915E-06  0.2939242E+04  0.7818609E-02  0.8261297E-01
       -2   -1    0    0    0  501  0.00000000000E+00  0.00000000000E+00  0.98827120707E+03  0.98827120707E+03  0.25500000920E-02 0.  1.
        2   -1    0    0  501    0  0.00000000000E+00  0.00000000000E+00 -0.21854188381E+04  0.21854188381E+04  0.25500000920E-02 0. -1.
    10030    2    1    2    0    0  0.00000000000E+00  0.00000000000E+00 -0.11971476310E+04  0.31736900452E+04  0.29392424283E+04 0.  0.
        4    1    3    3  502    0 -0.10780622634E+04  0.28787655519E+03 -0.16312566455E+04  0.19763833158E+04  0.12699999809E+01 0. -1.
       -4    1    3    3    0  502  0.10780622634E+04 -0.28787655519E+03  0.43410901444E+03  0.11973067293E+04  0.12699999809E+01 0.  1.
</event>
<event>
 5   0  0.1091075E-06  0.2987990E+04  0.7818609E-02  0.8247169E-01
       -1   -1    0    0    0  501  0.00000000000E+00  0.00000000000E+00  0.17601232789E+04  0.17601232789E+04  0.50400001928E-02 0. -1.
        1   -1    0    0  501    0  0.00000000000E+00  0.00000000000E+00 -0.12681047794E+04  0.12681047794E+04  0.50400001928E-02 0.  1.
    10030    2    1    2    0    0  0.00000000000E+00  0.00000000000E+00  0.49201849948E+03  0.30282280583E+04  0.29879897874E+04 0.  0.
        1    1    3    3  502    0  0.83425423828E+03  0.87103406629E+03 -0.64753291716E+03  0.13689336571E+04  0.50400001928E-02 0.  1.
       -1    1    3    3    0  502 -0.83425423828E+03 -0.87103406629E+03  0.11395514166E+04  0.16592944012E+04  0.50400001928E-02 0. -1.
</event>
<event>
 5   0  0.1091075E-06  0.2997120E+04  0.7818609E-02  0.8244554E-01
       -1   -1    0    0    0  501  0.00000000000E+00  0.00000000000E+00  0.91887118055E+03  0.91887118057E+03  0.50400001928E-02 0.  1.
        1   -1    0    0  501    0  0.00000000000E+00  0.00000000000E+00 -0.24439582486E+04  0.24439582486E+04  0.50400001928E-02 0. -1.
    10030    2    1    2    0    0  0.00000000000E+00  0.00000000000E+00 -0.15250870680E+04  0.33628294292E+04  0.29971204855E+04 0.  0.
        1    1    3    3  502    0  0.15381341958E+02  0.95641396643E+03  0.53178266247E+03  0.10944208793E+04  0.50400001928E-02 0.  1.
       -1    1    3    3    0  502 -0.15381341958E+02 -0.95641396643E+03 -0.20568697305E+04  0.22684085499E+04  0.50400001928E-02 0. -1.
</event>
<event>
 5   0  0.1113245E-06  0.2963197E+04  0.7818609E-02  0.8254319E-01
       -1   -1    0    0    0  501  0.00000000000E+00  0.00000000000E+00  0.11188273799E+04  0.11188273799E+04  0.50400001928E-02 0.  1.
        1   -1    0    0  501    0  0.00000000000E+00  0.00000000000E+00 -0.19619950977E+04  0.19619950977E+04  0.50400001928E-02 0. -1.
    10030    2    1    2    0    0  0.00000000000E+00  0.00000000000E+00 -0.84316771778E+03  0.30808224776E+04  0.29631968106E+04 0.  0.
        5    1    3    3  502    0 -0.34513312300E+03 -0.10165547929E+04  0.64003194441E+03  0.12498653925E+04  0.46999998093E+01 0.  1.
       -5    1    3    3    0  502  0.34513312300E+03  0.10165547929E+04 -0.14831996622E+04  0.18309570851E+04  0.46999998093E+01 0. -1.
</event>
<event>
 5   0  0.3113328E-06  0.2998097E+04  0.7818609E-02  0.8244275E-01
        2   -1    0    0  501    0  0.00000000000E+00  0.00000000000E+00  0.13815276785E+04  0.13815276785E+04  0.25500000920E-02 0. -1.
       -2   -1    0    0    0  501  0.00000000000E+00  0.00000000000E+00 -0.16265662906E+04  0.16265662906E+04  0.25500000920E-02 0.  1.
    10030    2    1    2    0    0  0.00000000000E+00  0.00000000000E+00 -0.24503861212E+03  0.30080939690E+04  0.29980969639E+04 0.  0.
        1    1    3    3  502    0 -0.87263102283E+03 -0.80413947301E+03 -0.10415545799E+04  0.15789113772E+04  0.50400001928E-02 0.  1.
       -1    1    3    3    0  502  0.87263102283E+03  0.80413947301E+03  0.79651596774E+03  0.14291825919E+04  0.50400001928E-02 0. -1.
</event>
<event>
 5   0  0.2862033E-06  0.3051713E+04  0.7818609E-02  0.8229116E-01
       -2   -1    0    0    0  501  0.00000000000E+00  0.00000000000E+00  0.10906190733E+04  0.10906190733E+04  0.25500000920E-02 0.  1.
        2   -1    0    0  501    0  0.00000000000E+00  0.00000000000E+00 -0.21347858659E+04  0.21347858659E+04  0.25500000920E-02 0. -1.
    10030    2    1    2    0    0  0.00000000000E+00  0.00000000000E+00 -0.10441667926E+04  0.32254049391E+04  0.30517130813E+04 0.  0.
        2    1    3    3  502    0 -0.11297952375E+04 -0.85401721083E+03 -0.11222550047E+04  0.18069972248E+04  0.25500000920E-02 0. -1.
       -2    1    3    3    0  502  0.11297952375E+04  0.85401721083E+03  0.78088212040E+02  0.14184077143E+04  0.25500000920E-02 0.  1.
</event>
<event>
 5   0  0.1097402E-06  0.3005284E+04  0.7818609E-02  0.8242224E-01
        1   -1    0    0  501    0  0.00000000000E+00  0.00000000000E+00  0.19711264169E+04  0.19711264169E+04  0.50400001928E-02 0.  1.
       -1   -1    0    0    0  501  0.00000000000E+00  0.00000000000E+00 -0.11455041354E+04  0.11455041354E+04  0.50400001928E-02 0. -1.
    10030    2    1    2    0    0  0.00000000000E+00  0.00000000000E+00  0.82562228152E+03  0.31166305522E+04  0.30052843206E+04 0.  0.
        4    1    3    3  502    0  0.93373332089E+03  0.28590564018E+03  0.15971986431E+04  0.18720697284E+04  0.12699999809E+01 0.  1.
       -4    1    3    3    0  502 -0.93373332089E+03 -0.28590564018E+03 -0.77157636156E+03  0.12445608238E+04  0.12699999809E+01 0. -1.
</event>
<event>
 5   0  0.1113245E-06  0.2997252E+04  0.7818609E-02  0.8244516E-01
        1   -1    0    0  501    0  0.00000000000E+00  0.00000000000E+00  0.20921775647E+04  0.20921775647E+04  0.50400001928E-02 0. -1.
       -1   -1    0    0    0  501  0.00000000000E+00  0.00000000000E+00 -0.10734652843E+04  0.10734652843E+04  0.50400001928E-02 0.  1.
    10030    2    1    2    0    0  0.00000000000E+00  0.00000000000E+00  0.10187122804E+04  0.31656428490E+04  0.29972520643E+04 0.  0.
        5    1    3    3  502    0 -0.95634767853E+03  0.25526302981E+02  0.17276815212E+04  0.19748817694E+04  0.46999998093E+01 0. -1.
       -5    1    3    3    0  502  0.95634767853E+03 -0.25526302981E+02 -0.70896924074E+03  0.11907610796E+04  0.46999998093E+01 0.  1.
</event>
<event>
 5   0  0.3113328E-06  0.2975393E+04  0.7818609E-02  0.8250793E-01
       -2   -1    0    0    0  501  0.00000000000E+00  0.00000000000E+00  0.96481291916E+03  0.96481291916E+03  0.25500000920E-02 0.  1.
        2   -1    0    0  501    0  0.00000000000E+00  0.00000000000E+00 -0.22939591597E+04  0.22939591597E+04  0.25500000920E-02 0. -1.
    10030    2    1    2    0    0  0.00000000000E+00  0.00000000000E+00 -0.13291462405E+04  0.32587720788E+04  0.29753933745E+04 0.  0.
        1    1    3    3  502    0  0.12103165786E+04  0.84918537654E+03 -0.48374423112E+03  0.15556318669E+04  0.50400001928E-02 0. -1.
       -1    1    3    3    0  502 -0.12103165786E+04 -0.84918537654E+03 -0.84540200939E+03  0.17031402120E+04  0.50400001928E-02 0.  1.
</event>
<event>
 5   0  0.1091076E-06  0.3056251E+04  0.7818609E-02  0.8227848E-01
        1   -1    0    0  501    0  0.00000000000E+00  0.00000000000E+00  0.15492045309E+04  0.15492045309E+04  0.50400001928E-02 0. -1.
       -1   -1    0    0    0  501  0.00000000000E+00  0.00000000000E+00 -0.15073336592E+04  0.15073336592E+04  0.50400001928E-02 0.  1.
    10030    2    1    2    0    0  0.00000000000E+00  0.00000000000E+00  0.41870871675E+02  0.30565381902E+04  0.30562513866E+04 0.  0.
        3    1    3    3  502    0  0.93993624888E+03  0.75887078443E+03  0.95686678276E+03  0.15410902211E+04  0.10100000352E+00 0. -1.
       -3    1    3    3    0  502 -0.93993624888E+03 -0.75887078443E+03 -0.91499591109E+03  0.15154479691E+04  0.10100000352E+00 0.  1.
</event>
<event>
 5   0  0.2862033E-06  0.3000924E+04  0.7818609E-02  0.8243467E-01
       -2   -1    0    0    0  501  0.00000000000E+00  0.00000000000E+00  0.13161935093E+04  0.13161935094E+04  0.25500000920E-02 0.  1.
        2   -1    0    0  501    0  0.00000000000E+00  0.00000000000E+00 -0.17105279027E+04  0.17105279027E+04  0.25500000920E-02 0. -1.
    10030    2    1    2    0    0  0.00000000000E+00  0.00000000000E+00 -0.39433439337E+03  0.30267214121E+04  0.30009236732E+04 0.  0.
        2    1    3    3  502    0  0.80921175348E+02  0.44912639752E+03  0.12444991222E+04  0.13255341651E+04  0.25500000920E-02 0.  1.
       -2    1    3    3    0  502 -0.80921175348E+02 -0.44912639752E+03 -0.16388335156E+04  0.17011872470E+04  0.25500000920E-02 0. -1.
</event>
<event>
 5   0  0.2862033E-06  0.3000944E+04  0.7818609E-02  0.8243461E-01
       -2   -1    0    0    0  501  0.00000000000E+00  0.00000000000E+00  0.11051998039E+04  0.11051998039E+04  0.25500000920E-02 0.  1.
        2   -1    0    0  501    0  0.00000000000E+00  0.00000000000E+00 -0.20371124864E+04  0.20371124864E+04  0.25500000920E-02 0. -1.
    10030    2    1    2    0    0  0.00000000000E+00  0.00000000000E+00 -0.93191268255E+03  0.31423122903E+04  0.30009440651E+04 0.  0.
        2    1    3    3  502    0 -0.66776121435E+03  0.41131888109E+03 -0.18054067287E+04  0.19683957217E+04  0.25500000920E-02 0. -1.
       -2    1    3    3    0  502  0.66776121435E+03 -0.41131888109E+03  0.87349404613E+03  0.11739165686E+04  0.25500000920E-02 0.  1.
</event>
<event>
 5   0  0.2862033E-06  0.2980948E+04  0.7818609E-02  0.8249192E-01
        2   -1    0    0  501    0  0.00000000000E+00  0.00000000000E+00  0.15787947141E+04  0.15787947141E+04  0.25500000920E-02 0. -1.
       -2   -1    0    0    0  501  0.00000000000E+00  0.00000000000E+00 -0.14070939963E+04  0.14070939963E+04  0.25500000920E-02 0.  1.
    10030    2    1    2    0    0  0.00000000000E+00  0.00000000000E+00  0.17170071785E+03  0.29858887104E+04  0.29809478785E+04 0.  0.
        2    1    3    3  502    0 -0.59761513154E+03  0.26264008524E+03  0.14279924687E+04  0.15701229730E+04  0.25500000920E-02 0. -1.
       -2    1    3    3    0  502  0.59761513154E+03 -0.26264008524E+03 -0.12562917508E+04  0.14157657373E+04  0.25500000920E-02 0.  1.
</event>
<event>
 5   0  0.2948711E-06  0.3078681E+04  0.7818609E-02  0.8221613E-01
       -2   -1    0    0    0  501  0.00000000000E+00  0.00000000000E+00  0.10625524630E+04  0.10625524630E+04  0.25500000920E-02 0. -1.
        2   -1    0    0  501    0  0.00000000000E+00  0.00000000000E+00 -0.22300733431E+04  0.22300733431E+04  0.25500000920E-02 0.  1.
    10030    2    1    2    0    0  0.00000000000E+00  0.00000000000E+00 -0.11675208801E+04  0.32926258061E+04  0.30786814862E+04 0.  0.
        5    1    3    3  502    0  0.71329991942E+03  0.13079326851E+04 -0.99806016604E+03  0.17932180205E+04  0.46999998093E+01 0.  1.
       -5    1    3    3    0  502 -0.71329991942E+03 -0.13079326851E+04 -0.16946071404E+03  0.14994077856E+04  0.46999998093E+01 0. -1.
</event>
<event>
 5   0  0.3113328E-06  0.2994333E+04  0.7818609E-02  0.8245351E-01
        2   -1    0    0  501    0  0.00000000000E+00  0.00000000000E+00  0.20539189950E+04  0.20539189950E+04  0.25500000920E-02 0.  1.
       -2   -1    0    0    0  501  0.00000000000E+00  0.00000000000E+00 -0.10913320140E+04  0.10913320140E+04  0.25500000920E-02 0. -1.
    10030    2    1    2    0    0  0.00000000000E+00  0.00000000000E+00  0.96258698095E+03  0.31452510090E+04  0.29943330165E+04 0.  0.
        1    1    3    3  502    0 -0.32986486080E+03 -0.21116509892E+03  0.19991526821E+04  0.20371580625E+04  0.50400001928E-02 0.  1.
       -1    1    3    3    0  502  0.32986486080E+03  0.21116509892E+03 -0.10365657011E+04  0.11080929465E+04  0.50400001928E-02 0. -1.
</event>
<event>
 5   0  0.2948711E-06  0.3008697E+04  0.7818609E-02  0.8241252E-01
        2   -1    0    0  501    0  0.00000000000E+00  0.00000000000E+00  0.18202868014E+04  0.18202868014E+04  0.25500000920E-02 0. -1.
       -2   -1    0    0    0  501  0.00000000000E+00  0.00000000000E+00 -0.12432458933E+04  0.12432458933E+04  0.25500000920E-02 0.  1.
    10030    2    1    2    0    0  0.00000000000E+00  0.00000000000E+00  0.57704090810E+03  0.30635326948E+04  0.30086967880E+04 0.  0.
        5    1    3    3  502    0 -0.15341882584E+03 -0.38131767244E+03 -0.11849551876E+04  0.12542254144E+04  0.46999998093E+01 0.  1.
       -5    1    3    3    0  502  0.15341882584E+03  0.38131767244E+03  0.17619960957E+04  0.18093072804E+04  0.46999998093E+01 0. -1.
</event>
<event>
 5   0  0.1097402E-06  0.3002473E+04  0.7818609E-02  0.8243025E-01
        1   -1    0    0  501    0  0.00000000000E+00  0.00000000000E+00  0.13162948516E+04  0.13162948517E+04  0.50400001928E-02 0.  1.
       -1   -1    0    0    0  501  0.00000000000E+00  0.00000000000E+00 -0.17121633157E+04  0.17121633158E+04  0.50400001928E-02 0. -1.
    10030    2    1    2    0    0  0.00000000000E+00  0.00000000000E+00 -0.39586846411E+03  0.30284581674E+04  0.30024734855E+04 0.  0.
        4    1    3    3  502    0 -0.19906805157E+03  0.14261169443E+04  0.23032541950E+03  0.14582486207E+04  0.12699999809E+01 0. -1.
       -4    1    3    3    0  502  0.19906805157E+03 -0.14261169443E+04 -0.62619388361E+03  0.15702095467E+04  0.12699999809E+01 0.  1.
</event>
<event>
 5   0  0.1113245E-06  0.3014773E+04  0.7818609E-02  0.8239525E-01
       -1   -1    0    0    0  501  0.00000000000E+00  0.00000000000E+00  0.82949390882E+03  0.82949390883E+03  0.50400001928E-02 0. -1.
        1   -1    0    0  501    0  0.00000000000E+00  0.00000000000E+00 -0.27392777127E+04  0.27392777127E+04  0.50400001928E-02 0.  1.
    10030    2    1    2    0    0  0.00000000000E+00  0.00000000000E+00 -0.19097838039E+04  0.35687716215E+04  0.30147730775E+04 0.  0.
        5    1    3    3  502    0  0.47260504181E+03 -0.35662411364E+03  0.68608296467E+03  0.90623849421E+03  0.46999998093E+01 0. -1.
       -5    1    3    3    0  502 -0.47260504181E+03  0.35662411364E+03 -0.25958667686E+04  0.26625331273E+04  0.46999998093E+01 0.  1.
</event>
<event>
 5   0  0.2970915E-06  0.2975135E+04  0.7818609E-02  0.8250867E-01
        2   -1    0    0  501    0  0.00000000000E+00  0.00000000000E+00  0.20867754339E+04  0.20867754339E+04  0.25500000920E-02 0.  1.
       -2   -1    0    0    0  501  0.00000000000E+00  0.00000000000E+00 -0.10604195099E+04  0.10604195099E+04  0.25500000920E-02 0. -1.
    10030    2    1    2    0    0  0.00000000000E+00  0.00000000000E+00  0.10263559240E+04  0.31471949438E+04  0.29751352123E+04 0.  0.
        4    1    3    3  502    0 -0.10833466261E+04 -0.14597804052E+03  0.15804394331E+04  0.19216503104E+04  0.12699999809E+01 0.  1.
       -4    1    3    3    0  502  0.10833466261E+04  0.14597804052E+03 -0.55408350908E+03  0.12255446335E+04  0.12699999809E+01 0. -1.
</event>
<event>
 5   0  0.2862033E-06  0.3008666E+04  0.7818609E-02  0.8241261E-01
        2   -1    0    0  501    0  0.00000000000E+00  0.00000000000E+00  0.13527229406E+04  0.13527229406E+04  0.25500000920E-02 0.  1.
       -2   -1    0    0    0  501  0.00000000000E+00  0.00000000000E+00 -0.16729351933E+04  0.16729351933E+04  0.25500000920E-02 0. -1.
    10030    2    1    2    0    0  0.00000000000E+00  0.00000000000E+00 -0.32021225273E+03  0.30256581339E+04  0.30086660261E+04 0.  0.
        2    1    3    3  502    0  0.10011026837E+04 -0.11227622587E+04 -0.14532135308E+03  0.15112643609E+04  0.25500000920E-02 0.  1.
       -2    1    3    3    0  502 -0.10011026837E+04  0.11227622587E+04 -0.17489089965E+03  0.15143937730E+04  0.25500000920E-02 0. -1.
</event>
<event>
 5   0  0.1113245E-06  0.3022070E+04  0.7818609E-02  0.8237457E-01
       -1   -1    0    0    0  501  0.00000000000E+00  0.00000000000E+00  0.16134650084E+04  0.16134650084E+04  0.50400001928E-02 0.  1.
        1   -1    0    0  501    0  0.00000000000E+00  0.00000000000E+00 -0.14151080185E+04  0.14151080185E+04  0.50400001928E-02 0. -1.
    10030    2    1    2    0    0  0.00000000000E+00  0.00000000000E+00  0.19835698988E+03  0.30285730268E+04  0.30220703307E+04 0.  0.
        5    1    3    3  502    0  0.10475042070E+03  0.10677143282E+04  0.11655256973E+04  0.15841271345E+04  0.46999998093E+01 0.  1.
       -5    1    3    3    0  502 -0.10475042070E+03 -0.10677143282E+04 -0.96716870741E+03  0.14444458923E+04  0.46999998093E+01 0. -1.
</event>
<event>
 5   0  0.1097402E-06  0.2914840E+04  0.7818609E-02  0.8268476E-01
        1   -1    0    0  501    0  0.00000000000E+00  0.00000000000E+00  0.18207681277E+04  0.18207681277E+04  0.50400001928E-02 0. -1.
       -1   -1    0    0    0  501  0.00000000000E+00  0.00000000000E+00 -0.11665807927E+04  0.11665807928E+04  0.50400001928E-02 0.  1.
    10030    2    1    2    0    0  0.00000000000E+00  0.00000000000E+00  0.65418733491E+03  0.29873489204E+04  0.29148400476E+04 0.  0.
        4    1    3    3  502    0 -0.10509159110E+04  0.10092019347E+04  0.36198035342E+03  0.15013141530E+04  0.12699999809E+01 0.  1.
       -4    1    3    3    0  502  0.10509159110E+04 -0.10092019347E+04  0.29220698149E+03  0.14860347674E+04  0.12699999809E+01 0. -1.
</event>
<event>
 5   0  0.2948711E-06  0.3017289E+04  0.7818609E-02  0.8238811E-01
       -2   -1    0    0    0  501  0.00000000000E+00  0.00000000000E+00  0.91913608156E+03  0.91913608157E+03  0.25500000920E-02 0. -1.
        2   -1    0    0  501    0  0.00000000000E+00  0.00000000000E+00 -0.24762480016E+04  0.24762480016E+04  0.25500000920E-02 0.  1.
    10030    2    1    2    0    0  0.00000000000E+00  0.00000000000E+00 -0.15571119200E+04  0.33953840832E+04  0.30172894360E+04 0.  0.
        5    1    3    3  502    0  0.29510519646E+03  0.13616759327E+04 -0.14296214655E+04  0.19962685309E+04  0.46999998093E+01 0. -1.
       -5    1    3    3    0  502 -0.29510519646E+03 -0.13616759327E+04 -0.12749045453E+03  0.13991155523E+04  0.46999998093E+01 0.  1.
</event>
<event>
 5   0  0.1054384E-06  0.2990557E+04  0.7818609E-02  0.8246433E-01
        1   -1    0    0  501    0  0.00000000000E+00  0.00000000000E+00  0.10556972358E+04  0.10556972358E+04  0.50400001928E-02 0.  1.
       -1   -1    0    0    0  501  0.00000000000E+00  0.00000000000E+00 -0.21178969239E+04  0.21178969239E+04  0.50400001928E-02 0. -1.
    10030    2    1    2    0    0  0.00000000000E+00  0.00000000000E+00 -0.10621996881E+04  0.31735941597E+04  0.29905570907E+04 0.  0.
        2    1    3    3  502    0 -0.10515988113E+04 -0.48130330561E+03  0.47472154601E+03  0.12501493823E+04  0.25500000920E-02 0.  1.
       -2    1    3    3    0  502  0.10515988113E+04  0.48130330561E+03 -0.15369212341E+04  0.19234447774E+04  0.25500000920E-02 0. -1.
</event>
<event>
 5   0  0.1091076E-06  0.2981390E+04  0.7818609E-02  0.8249065E-01
       -1   -1    0    0    0  501  0.00000000000E+00  0.00000000000E+00  0.12038717254E+04  0.12038717254E+04  0.50400001928E-02 0.  1.
        1   -1    0    0  501    0  0.00000000000E+00  0.00000000000E+00 -0.18458544299E+04  0.18458544299E+04  0.50400001928E-02 0. -1.
    10030    2    1    2    0    0  0.00000000000E+00  0.00000000000E+00 -0.64198270454E+03  0.30497261553E+04  0.29813902511E+04 0.  0.
        3    1    3    3  502    0  0.95908347909E+03 -0.50078560596E+03  0.72796125550E+03  0.13040532745E+04  0.10100000352E+00 0.  1.
       -3    1    3    3    0  502 -0.95908347909E+03  0.50078560596E+03 -0.13699439600E+04  0.17456728808E+04  0.10100000352E+00 0. -1.
</event>
<event>
 5   0  0.1091075E-06  0.3010257E+04  0.7818609E-02  0.8240808E-01
        1   -1    0    0  501    0  0.00000000000E+00  0.00000000000E+00  0.12891890753E+04  0.12891890753E+04  0.50400001928E-02 0.  1.
       -1   -1    0    0    0  501  0.00000000000E+00  0.00000000000E+00 -0.17572378405E+04  0.17572378405E+04  0.50400001928E-02 0. -1.
    10030    2    1    2    0    0  0.00000000000E+00  0.00000000000E+00 -0.46804876522E+03  0.30464269158E+04  0.30102570167E+04 0.  0.
        1    1    3    3  502    0  0.11783743048E+04  0.92170211262E+03 -0.66778164738E+02  0.14975179832E+04  0.50400001928E-02 0. -1.
       -1    1    3    3    0  502 -0.11783743048E+04 -0.92170211262E+03 -0.40127060048E+03  0.15489089326E+04  0.50400001928E-02 0.  1.
</event>
<event>
 5   0  0.3113328E-06  0.2999996E+04  0.7818609E-02  0.8243732E-01
        2   -1    0    0  501    0  0.00000000000E+00  0.00000000000E+00  0.13420948785E+04  0.13420948785E+04  0.25500000920E-02 0. -1.
       -2   -1    0    0    0  501  0.00000000000E+00  0.00000000000E+00 -0.16764791213E+04  0.16764791213E+04  0.25500000920E-02 0.  1.
    10030    2    1    2    0    0  0.00000000000E+00  0.00000000000E+00 -0.33438424276E+03  0.30185739998E+04  0.29999960284E+04 0.  0.
        1    1    3    3  502    0 -0.31734903120E+03  0.48071846525E+03 -0.15607574814E+04  0.16636599912E+04  0.50400001928E-02 0.  1.
       -1    1    3    3    0  502  0.31734903120E+03 -0.48071846525E+03  0.12263732386E+04  0.13549140087E+04  0.50400001928E-02 0. -1.
</event>
<event>
 5   0  0.2985941E-06  0.3013699E+04  0.7818609E-02  0.8239830E-01
        2   -1    0    0  501    0  0.00000000000E+00  0.00000000000E+00  0.20072123982E+04  0.20072123982E+04  0.25500000920E-02 0. -1.
       -2   -1    0    0    0  501  0.00000000000E+00  0.00000000000E+00 -0.11312182501E+04  0.11312182501E+04  0.25500000920E-02 0.  1.
    10030    2    1    2    0    0  0.00000000000E+00  0.00000000000E+00  0.87599414815E+03  0.31384306483E+04  0.30136989210E+04 0.  0.
        3    1    3    3  502    0  0.96453782618E+03 -0.79505205343E+03 -0.43835097082E+03  0.13246103463E+04  0.10100000352E+00 0.  1.
       -3    1    3    3    0  502 -0.96453782618E+03  0.79505205343E+03  0.13143451190E+04  0.18138203020E+04  0.10100000352E+00 0. -1.
</event>
<event>
 5   0  0.2948711E-06  0.3000595E+04  0.7818609E-02  0.8243561E-01
        2   -1    0    0  501    0  0.00000000000E+00  0.00000000000E+00  0.19944633101E+04  0.19944633101E+04  0.25500000920E-02 0. -1.
       -2   -1    0    0    0  501  0.00000000000E+00  0.00000000000E+00 -0.11285708666E+04  0.11285708666E+04  0.25500000920E-02 0.  1.
    10030    2    1    2    0    0  0.00000000000E+00  0.00000000000E+00  0.86589244357E+03  0.31230341767E+04  0.30005953984E+04 0.  0.
        5    1    3    3  502    0 -0.27275800855E+03 -0.65610367346E+03  0.18082279821E+04  0.19428277038E+04  0.46999998093E+01 0. -1.
       -5    1    3    3    0  502  0.27275800855E+03  0.65610367346E+03 -0.94233553850E+03  0.11802064729E+04  0.46999998093E+01 0.  1.
</event>
<event>
 5   0  0.2970915E-06  0.3003814E+04  0.7818609E-02  0.8242643E-01
        2   -1    0    0  501    0  0.00000000000E+00  0.00000000000E+00  0.20822542741E+04  0.20822542741E+04  0.25500000920E-02 0. -1.
       -2   -1    0    0    0  501  0.00000000000E+00  0.00000000000E+00 -0.10833088333E+04  0.10833088333E+04  0.25500000920E-02 0.  1.
    10030    2    1    2    0    0  0.00000000000E+00  0.00000000000E+00  0.99894544077E+03  0.31655631074E+04  0.30038138746E+04 0.  0.
        4    1    3    3  502    0 -0.40982642471E+03  0.78893162759E+03 -0.77622841241E+03  0.11802131047E+04  0.12699999809E+01 0.  1.
       -4    1    3    3    0  502  0.40982642471E+03 -0.78893162759E+03  0.17751738532E+04  0.19853500027E+04  0.12699999809E+01 0. -1.
</event>
<event>
 5   0  0.3113328E-06  0.3004920E+04  0.7818609E-02  0.8242327E-01
        2   -1    0    0  501    0  0.00000000000E+00  0.00000000000E+00  0.19813413653E+04  0.19813413653E+04  0.25500000920E-02 0.  1.
       -2   -1    0    0    0  501  0.00000000000E+00  0.00000000000E+00 -0.11393223290E+04  0.11393223290E+04  0.25500000920E-02 0. -1.
    10030    2    1    2    0    0  0.00000000000E+00  0.00000000000E+00  0.84201903627E+03  0.31206636943E+04  0.30049202711E+04 0.  0.
        1    1    3    3  502    0  0.11387965104E+04 -0.77428220039E+03  0.10449989935E+04  0.17286969990E+04  0.50400001928E-02 0.  1.
       -1    1    3    3    0  502 -0.11387965104E+04  0.77428220039E+03 -0.20297995720E+03  0.13919666953E+04  0.50400001928E-02 0. -1.
</event>
<event>
 5   0  0.1054384E-06  0.2992170E+04  0.7818609E-02  0.8245970E-01
       -1   -1    0    0    0  501  0.00000000000E+00  0.00000000000E+00  0.12467446945E+04  0.12467446945E+04  0.50400001928E-02 0. -1.
        1   -1    0    0  501    0  0.00000000000E+00  0.00000000000E+00 -0.17952913501E+04  0.17952913502E+04  0.50400001928E-02 0.  1.
    10030    2    1    2    0    0  0.00000000000E+00  0.00000000000E+00 -0.54854665563E+03  0.30420360447E+04  0.29921697585E+04 0.  0.
        2    1    3    3  502    0 -0.83354595869E+03  0.11954351436E+04  0.69603072313E+02  0.14590094707E+04  0.25500000920E-02 0.  1.
       -2    1    3    3    0  502  0.83354595869E+03 -0.11954351436E+04 -0.61814972794E+03  0.15830265740E+04  0.25500000920E-02 0. -1.
</event>
<event>
 5   0  0.1091076E-06  0.3147623E+04  0.7818609E-02  0.8202788E-01
       -1   -1    0    0    0  501  0.00000000000E+00  0.00000000000E+00  0.12483011114E+04  0.12483011114E+04  0.50400001928E-02 0.  1.
        1   -1    0    0  501    0  0.00000000000E+00  0.00000000000E+00 -0.19842027359E+04  0.19842027359E+04  0.50400001928E-02 0. -1.
    10030    2    1    2    0    0  0.00000000000E+00  0.00000000000E+00 -0.73590162451E+03  0.32325038473E+04  0.31476229002E+04 0.  0.
        3    1    3    3  502    0 -0.33679904862E+03  0.13072426891E+04  0.46291881650E+03  0.14270987661E+04  0.10100000352E+00 0.  1.
       -3    1    3    3    0  502  0.33679904862E+03 -0.13072426891E+04 -0.11988204410E+04  0.18054050812E+04  0.10100000352E+00 0. -1.
</event>
<event>
 5   0  0.2985941E-06  0.2987689E+04  0.7818609E-02  0.8247255E-01
        2   -1    0    0  501    0  0.00000000000E+00  0.00000000000E+00  0.15573381681E+04  0.15573381681E+04  0.25500000920E-02 0. -1.
       -2   -1    0    0    0  501  0.00000000000E+00  0.00000000000E+00 -0.14329398490E+04  0.14329398490E+04  0.25500000920E-02 0.  1.
    10030    2    1    2    0    0  0.00000000000E+00  0.00000000000E+00  0.12439831916E+03  0.29902780171E+04  0.29876893543E+04 0.  0.
        3    1    3    3  502    0 -0.10259085173E+04  0.97905616267E+02 -0.10201712016E+04  0.14501114048E+04  0.10100000352E+00 0.  1.
       -3    1    3    3    0  502  0.10259085173E+04 -0.97905616267E+02  0.11445695207E+04  0.15401666123E+04  0.10100000352E+00 0. -1.
</event>
<event>
 5   0  0.2985941E-06  0.2944401E+04  0.7818609E-02  0.8259788E-01
       -2   -1    0    0    0  501  0.00000000000E+00  0.00000000000E+00  0.11369666887E+04  0.11369666887E+04  0.25500000920E-02 0. -1.
        2   -1    0    0  501    0  0.00000000000E+00  0.00000000000E+00 -0.19062783908E+04  0.19062783908E+04  0.25500000920E-02 0.  1.
    10030    2    1    2    0    0  0.00000000000E+00  0.00000000000E+00 -0.76931170210E+03  0.30432450796E+04  0.29444014874E+04 0.  0.
        3    1    3    3  502    0  0.92610509334E+02  0.14594700320E+04 -0.55989257601E+03  0.15659211945E+04  0.10100000352E+00 0.  1.
       -3    1    3    3    0  502 -0.92610509334E+02 -0.14594700320E+04 -0.20941912609E+03  0.14773238850E+04  0.10100000352E+00 0. -1.
</event>
<event>
 5   0  0.1097402E-06  0.2979400E+04  0.7818609E-02  0.8249638E-01
        1   -1    0    0  501    0  0.00000000000E+00  0.00000000000E+00  0.30627826562E+04  0.30627826562E+04  0.50400001928E-02 0. -1.
       -1   -1    0    0    0  501  0.00000000000E+00  0.00000000000E+00 -0.72457201003E+03  0.72457201004E+03  0.50400001928E-02 0.  1.
    10030    2    1    2    0    0  0.00000000000E+00  0.00000000000E+00  0.23382106462E+04  0.37873546662E+04  0.29794003326E+04 0.  0.
        4    1    3    3  502    0 -0.13302349081E+04  0.54531155444E+03  0.67299418204E+03  0.15873916921E+04  0.12699999809E+01 0.  1.
       -4    1    3    3    0  502  0.13302349081E+04 -0.54531155444E+03  0.16652164641E+04  0.21999629741E+04  0.12699999809E+01 0. -1.
</event>
<event>
 5   0  0.1091075E-06  0.3053572E+04  0.7818609E-02  0.8228597E-01
        1   -1    0    0  501    0  0.00000000000E+00  0.00000000000E+00  0.10708211165E+04  0.10708211165E+04  0.50400001928E-02 0. -1.
       -1   -1    0    0    0  501  0.00000000000E+00  0.00000000000E+00 -0.21769041693E+04  0.21769041693E+04  0.50400001928E-02 0.  1.
    10030    2    1    2    0    0  0.00000000000E+00  0.00000000000E+00 -0.11060830527E+04  0.32477252858E+04  0.30535716485E+04 0.  0.
        1    1    3    3  502    0  0.63037308902E+03 -0.91008015280E+02 -0.20288641599E+04  0.21264859439E+04  0.50400001928E-02 0.  1.
       -1    1    3    3    0  502 -0.63037308902E+03  0.91008015280E+02  0.92278110714E+03  0.11212393419E+04  0.50400001928E-02 0. -1.
</event>
<event>
 5   0  0.2948711E-06  0.3018533E+04  0.7818609E-02  0.8238458E-01
       -2   -1    0    0    0  501  0.00000000000E+00  0.00000000000E+00  0.95808937711E+03  0.95808937711E+03  0.25500000920E-02 0.  1.
        2   -1    0    0  501    0  0.00000000000E+00  0.00000000000E+00 -0.23775296291E+04  0.23775296291E+04  0.25500000920E-02 0. -1.
    10030    2    1    2    0    0  0.00000000000E+00  0.00000000000E+00 -0.14194402520E+04  0.33356190062E+04  0.30185333401E+04 0.  0.
        5    1    3    3  502    0  0.10881020512E+04  0.62976436742E+03  0.21303953521E+03  0.12751380968E+04  0.46999998093E+01 0.  1.
       -5    1    3    3    0  502 -0.10881020512E+04 -0.62976436742E+03 -0.16324797872E+04  0.20604809094E+04  0.46999998093E+01 0. -1.
</event>
<event>
 5   0  0.1097402E-06  0.2853359E+04  0.7818609E-02  0.8286891E-01
       -1   -1    0    0    0  501  0.00000000000E+00  0.00000000000E+00  0.20734051768E+04  0.20734051768E+04  0.50400001928E-02 0.  1.
        1   -1    0    0  501    0  0.00000000000E+00  0.00000000000E+00 -0.98167742367E+03  0.98167742368E+03  0.50400001928E-02 0. -1.
    10030    2    1    2    0    0  0.00000000000E+00  0.00000000000E+00  0.10917277531E+04  0.30550826005E+04  0.28533594601E+04 0.  0.
        4    1    3    3  502    0 -0.10413834635E+04  0.70648090034E+03  0.12655589853E+04  0.17847229306E+04  0.12699999809E+01 0.  1.
       -4    1    3    3    0  502  0.10413834635E+04 -0.70648090034E+03 -0.17383123221E+03  0.12703596699E+04  0.12699999809E+01 0. -1.
</event>
<event>
 5   0  0.1091075E-06  0.2989755E+04  0.7818609E-02  0.8246662E-01
       -1   -1    0    0    0  501  0.00000000000E+00  0.00000000000E+00  0.14453347656E+04  0.14453347656E+04  0.50400001928E-02 0.  1.
        1   -1    0    0  501    0  0.00000000000E+00  0.00000000000E+00 -0.15461186283E+04  0.15461186283E+04  0.50400001928E-02 0. -1.
    10030    2    1    2    0    0  0.00000000000E+00  0.00000000000E+00 -0.10078386267E+03  0.29914533939E+04  0.29897551774E+04 0.  0.
        1    1    3    3  502    0  0.41021534455E+03  0.91971200766E+03 -0.11557873918E+04  0.15329681343E+04  0.50400001928E-02 0. -1.
       -1    1    3    3    0  502 -0.41021534455E+03 -0.91971200766E+03  0.10550035291E+04  0.14584852596E+04  0.50400001928E-02 0.  1.
</event>
<event>
 5   0  0.2970915E-06  0.2983697E+04  0.7818609E-02  0.8248402E-01
        2   -1    0    0  501    0  0.00000000000E+00  0.00000000000E+00  0.13341120613E+04  0.13341120613E+04  0.25500000920E-02 0.  1.
       -2   -1    0    0    0  501  0.00000000000E+00  0.00000000000E+00 -0.16682347724E+04  0.16682347724E+04  0.25500000920E-02 0. -1.
    10030    2    1    2    0    0  0.00000000000E+00  0.00000000000E+00 -0.33412271109E+03  0.30023468337E+04  0.29836971233E+04 0.  0.
        4    1    3    3  502    0  0.19643094972E+03  0.89302391672E+03  0.10190915168E+04  0.13691698092E+04  0.12699999809E+01 0.  1.
       -4    1    3    3    0  502 -0.19643094972E+03 -0.89302391672E+03 -0.13532142279E+04  0.16331770245E+04  0.12699999809E+01 0. -1.
</event>
<event>
 5   0  0.1091076E-06  0.3020776E+04  0.7818609E-02  0.8237823E-01
       -1   -1    0    0    0  501  0.00000000000E+00  0.00000000000E+00  0.10887080836E+04  0.10887080836E+04  0.50400001928E-02 0. -1.
        1   -1    0    0  501    0  0.00000000000E+00  0.00000000000E+00 -0.20953930820E+04  0.20953930820E+04  0.50400001928E-02 0.  1.
    10030    2    1    2    0    0  0.00000000000E+00  0.00000000000E+00 -0.10066849984E+04  0.31841011656E+04  0.30207756532E+04 0.  0.
        3    1    3    3  502    0 -0.11924400548E+04  0.86060535453E+03 -0.86652419876E+03  0.17068740603E+04  0.10100000352E+00 0.  1.
       -3    1    3    3    0  502  0.11924400548E+04 -0.86060535453E+03 -0.14016079967E+03  0.14772271053E+04  0.10100000352E+00 0. -1.
</event>
<event>
 5   0  0.1091076E-06  0.3000245E+04  0.7818609E-02  0.8243661E-01
        1   -1    0    0  501    0  0.00000000000E+00  0.00000000000E+00  0.19653624237E+04  0.19653624237E+04  0.50400001928E-02 0. -1.
       -1   -1    0    0    0  501  0.00000000000E+00  0.00000000000E+00 -0.11450138258E+04  0.11450138258E+04  0.50400001928E-02 0.  1.
    10030    2    1    2    0    0  0.00000000000E+00  0.00000000000E+00  0.82034859795E+03  0.31103762495E+04  0.30002447553E+04 0.  0.
        3    1    3    3  502    0  0.13377469563E+04 -0.62972240795E+03  0.67295441181E+03  0.16244952696E+04  0.10100000352E+00 0.  1.
       -3    1    3    3    0  502 -0.13377469563E+04  0.62972240795E+03  0.14739418614E+03  0.14858809800E+04  0.10100000352E+00 0. -1.
</event>
<event>
 5   0  0.1091075E-06  0.2957622E+04  0.7818609E-02  0.8255937E-01
        1   -1    0    0  501    0  0.00000000000E+00  0.00000000000E+00  0.14944203422E+04  0.14944203422E+04  0.50400001928E-02 0. -1.
       -1   -1    0    0    0  501  0.00000000000E+00  0.00000000000E+00 -0.14633651468E+04  0.14633651469E+04  0.50400001928E-02 0.  1.
    10030    2    1    2    0    0  0.00000000000E+00  0.00000000000E+00  0.31055195357E+02  0.29577854891E+04  0.29576224529E+04 0.  0.
        1    1    3    3  502    0 -0.94846210695E+03 -0.48520825274E+03 -0.10101386234E+04  0.14681237875E+04  0.50400001928E-02 0.  1.
       -1    1    3    3    0  502  0.94846210695E+03  0.48520825274E+03  0.10411938188E+04  0.14896617016E+04  0.50400001928E-02 0. -1.
</event>
<event>
 5   0  0.1113245E-06  0.3012528E+04  0.7818609E-02  0.8240163E-01
        1   -1    0    0  501    0  0.00000000000E+00  0.00000000000E+00  0.19104516348E+04  0.19104516348E+04  0.50400001928E-02 0. -1.
       -1   -1    0    0    0  501  0.00000000000E+00  0.00000000000E+00 -0.11875887745E+04  0.11875887745E+04  0.50400001928E-02 0.  1.
    10030    2    1    2    0    0  0.00000000000E+00  0.00000000000E+00  0.72286286025E+03  0.30980404093E+04  0.30125277862E+04 0.  0.
        5    1    3    3  502    0  0.51382572404E+03 -0.18848407226E+03 -0.10817076108E+04  0.12122939270E+04  0.46999998093E+01 0.  1.
       -5    1    3    3    0  502 -0.51382572404E+03  0.18848407226E+03  0.18045704711E+04  0.18857464823E+04  0.46999998093E+01 0. -1.
</event>
<event>
 5   0  0.1113245E-06  0.3025842E+04  0.7818609E-02  0.8236390E-01
        1   -1    0    0  501    0  0.00000000000E+00  0.00000000000E+00  0.21570808033E+04  0.21570808033E+04  0.50400001928E-02 0.  1.
       -1   -1    0    0    0  501  0.00000000000E+00  0.00000000000E+00 -0.10611235681E+04  0.10611235681E+04  0.50400001928E-02 0. -1.
    10030    2    1    2    0    0  0.00000000000E+00  0.00000000000E+00  0.10959572351E+04  0.32182043714E+04  0.30258415548E+04 0.  0.
        5    1    3    3  502    0 -0.75277539681E+03  0.11807744152E+04  0.11571083084E+04  0.18165408735E+04  0.46999998093E+01 0.  1.
       -5    1    3    3    0  502  0.75277539681E+03 -0.11807744152E+04 -0.61151073318E+02  0.14016634979E+04  0.46999998093E+01 0. -1.
</event>
<event>
 5   0  0.1054384E-06  0.2998796E+04  0.7818609E-02  0.8244075E-01
        1   -1    0    0  501    0  0.00000000000E+00  0.00000000000E+00  0.23749879072E+04  0.23749879073E+04  0.50400001928E-02 0. -1.
       -1   -1    0    0    0  501  0.00000000000E+00  0.00000000000E+00 -0.94661290843E+03  0.94661290845E+03  0.50400001928E-02 0.  1.
    10030    2    1    2    0    0  0.00000000000E+00  0.00000000000E+00  0.14283749988E+04  0.33216008157E+04  0.29987958986E+04 0.  0.
        2    1    3    3  502    0 -0.50147287310E+03  0.13861195976E+04  0.10183194830E+04  0.17915850944E+04  0.25500000920E-02 0. -1.
       -2    1    3    3    0  502  0.50147287310E+03 -0.13861195976E+04  0.41005551583E+03  0.15300157213E+04  0.25500000920E-02 0.  1.
</event>
<event>
 5   0  0.1054384E-06  0.2939507E+04  0.7818609E-02  0.8261219E-01
       -1   -1    0    0    0  501  0.00000000000E+00  0.00000000000E+00  0.13563083027E+04  0.13563083027E+04  0.50400001928E-02 0. -1.
        1   -1    0    0  501    0  0.00000000000E+00  0.00000000000E+00 -0.15926870161E+04  0.15926870161E+04  0.50400001928E-02 0.  1.
    10030    2    1    2    0    0  0.00000000000E+00  0.00000000000E+00 -0.23637871334E+03  0.29489953188E+04  0.29395065052E+04 0.  0.
        2    1    3    3  502    0 -0.11688312915E+04 -0.49208023485E+03 -0.86346360292E+03  0.15342356204E+04  0.25500000920E-02 0.  1.
       -2    1    3    3    0  502  0.11688312915E+04  0.49208023485E+03  0.62708488957E+03  0.14147596984E+04  0.25500000920E-02 0. -1.
</event>
<event>
 5   0  0.1054384E-06  0.2953162E+04  0.7818609E-02  0.8257234E-01
        1   -1    0    0  501    0  0.00000000000E+00  0.00000000000E+00  0.92363882197E+03  0.92363882199E+03  0.50400001928E-02 0. -1.
       -1   -1    0    0    0  501  0.00000000000E+00  0.00000000000E+00 -0.23605452029E+04  0.23605452030E+04  0.50400001928E-02 0.  1.
    10030    2    1    2    0    0  0.00000000000E+00  0.00000000000E+00 -0.14369063810E+04  0.32841840249E+04  0.29531618246E+04 0.  0.
        2    1    3    3  502    0 -0.14065230828E+03  0.13146216482E+04 -0.14496290187E+04  0.19619983287E+04  0.25500000920E-02 0.  1.
       -2    1    3    3    0  502  0.14065230828E+03 -0.13146216482E+04  0.12722637752E+02  0.13221856963E+04  0.25500000920E-02 0. -1.
</event>
<event>
 5   0  0.2948711E-06  0.3017067E+04  0.7818609E-02  0.8238874E-01
       -2   -1    0    0    0  501  0.00000000000E+00  0.00000000000E+00  0.15660047100E+04  0.15660047100E+04  0.25500000920E-02 0.  1.
        2   -1    0    0  501    0  0.00000000000E+00  0.00000000000E+00 -0.14531718186E+04  0.14531718186E+04  0.25500000920E-02 0. -1.
    10030    2    1    2    0    0  0.00000000000E+00  0.00000000000E+00  0.11283289136E+03  0.30191765286E+04  0.30170673923E+04 0.  0.
        5    1    3    3  502    0 -0.11124715260E+04 -0.33853105921E+03 -0.90522133267E+03  0.14736498652E+04  0.46999998093E+01 0. -1.
       -5    1    3    3    0  502  0.11124715260E+04  0.33853105921E+03  0.10180542240E+04  0.15455266634E+04  0.46999998093E+01 0.  1.
</event>
<event>
 5   0  0.1091075E-06  0.2992729E+04  0.7818609E-02  0.8245810E-01
       -1   -1    0    0    0  501  0.00000000000E+00  0.00000000000E+00  0.11817592135E+04  0.11817592135E+04  0.50400001928E-02 0. -1.
        1   -1    0    0  501    0  0.00000000000E+00  0.00000000000E+00 -0.18947229830E+04  0.18947229830E+04  0.50400001928E-02 0.  1.
    10030    2    1    2    0    0  0.00000000000E+00  0.00000000000E+00 -0.71296376951E+03  0.30764821965E+04  0.29927287496E+04 0.  0.
        1    1    3    3  502    0 -0.14435836992E+04  0.39296081566E+03 -0.32824981870E+03  0.15316984177E+04  0.50400001928E-02 0.  1.
       -1    1    3    3    0  502  0.14435836992E+04 -0.39296081566E+03 -0.38471395081E+03  0.15447837788E+04  0.50400001928E-02 0. -1.
</event>
<event>
 5   0  0.2985941E-06  0.2979271E+04  0.7818609E-02  0.8249675E-01
        2   -1    0    0  501    0  0.00000000000E+00  0.00000000000E+00  0.26438618320E+04  0.26438618320E+04  0.25500000920E-02 0.  1.
       -2   -1    0    0    0  501  0.00000000000E+00  0.00000000000E+00 -0.83930807355E+03  0.83930807355E+03  0.25500000920E-02 0. -1.
    10030    2    1    2    0    0  0.00000000000E+00  0.00000000000E+00  0.18045537584E+04  0.34831699055E+04  0.29792714418E+04 0.  0.
        3    1    3    3  502    0 -0.29511683133E+03 -0.94224208605E+03 -0.40176732790E+03  0.10659883155E+04  0.10100000352E+00 0. -1.
       -3    1    3    3    0  502  0.29511683133E+03  0.94224208605E+03  0.22063210863E+04  0.24171815900E+04  0.10100000352E+00 0.  1.
</event>
<event>
 5   0  0.1097402E-06  0.3010306E+04  0.7818609E-02  0.8240794E-01
        1   -1    0    0  501    0  0.00000000000E+00  0.00000000000E+00  0.22263649042E+04  0.22263649042E+04  0.50400001928E-02 0. -1.
       -1   -1    0    0    0  501  0.00000000000E+00  0.00000000000E+00 -0.10175717118E+04  0.10175717119E+04  0.50400001928E-02 0.  1.
    10030    2    1    2    0    0  0.00000000000E+00  0.00000000000E+00  0.12087931924E+04  0.32439366161E+04  0.30103062614E+04 0.  0.
        4    1    3    3  502    0  0.23807351435E+03 -0.88569222700E+03  0.18904847603E+04  0.21012053590E+04  0.12699999809E+01 0. -1.
       -4    1    3    3    0  502 -0.23807351435E+03  0.88569222700E+03 -0.68169156788E+03  0.11427312570E+04  0.12699999809E+01 0.  1.
</event>
<event>
 5   0  0.2970915E-06  0.2966207E+04  0.7818609E-02  0.8253447E-01
       -2   -1    0    0    0  501  0.00000000000E+00  0.00000000000E+00  0.10579419909E+04  0.10579419909E+04  0.25500000920E-02 0. -1.
        2   -1    0    0  501    0  0.00000000000E+00  0.00000000000E+00 -0.20791269932E+04  0.20791269932E+04  0.25500000920E-02 0.  1.
    10030    2    1    2    0    0  0.00000000000E+00  0.00000000000E+00 -0.10211850024E+04  0.31370689841E+04  0.29662068374E+04 0.  0.
        4    1    3    3  502    0  0.50665081086E+03 -0.79095699865E+03  0.70325099338E+03  0.11734017174E+04  0.12699999809E+01 0. -1.
       -4    1    3    3    0  502 -0.50665081086E+03  0.79095699865E+03 -0.17244359958E+04  0.19636672667E+04  0.12699999809E+01 0.  1.
</event>
<event>
 5   0  0.3113328E-06  0.2996885E+04  0.7818609E-02  0.8244621E-01
       -2   -1    0    0    0  501  0.00000000000E+00  0.00000000000E+00  0.13839390559E+04  0.13839390559E+04  0.25500000920E-02 0. -1.
        2   -1    0    0  501    0  0.00000000000E+00  0.00000000000E+00 -0.16224196521E+04  0.16224196521E+04  0.25500000920E-02 0.  1.
    10030    2    1    2    0    0  0.00000000000E+00  0.00000000000E+00 -0.23848059620E+03  0.30063587080E+04  0.29968849972E+04 0.  0.
        1    1    3    3  502    0 -0.21521858717E+03 -0.63353804581E+03 -0.14642398301E+04  0.16098719750E+04  0.50400001928E-02 0.  1.
       -1    1    3    3    0  502  0.21521858717E+03  0.63353804581E+03  0.12257592339E+04  0.13964867330E+04  0.50400001928E-02 0. -1.
</event>
<event>
 5   0  0.1091076E-06  0.3001315E+04  0.7818609E-02  0.8243356E-01
       -1   -1    0    0    0  501  0.00000000000E+00  0.00000000000E+00  0.12968660986E+04  0.12968660986E+04  0.50400001928E-02 0. -1.
        1   -1    0    0  501    0  0.00000000000E+00  0.00000000000E+00 -0.17364725569E+04  0.17364725569E+04  0.50400001928E-02 0.  1.
    10030    2    1    2    0    0  0.00000000000E+00  0.00000000000E+00 -0.43960645831E+03  0.30333386555E+04  0.30013146387E+04 0.  0.
        3    1    3    3  502    0 -0.72850398762E+03  0.82808428243E+03  0.80866497839E+03  0.13676186224E+04  0.10100000352E+00 0. -1.
       -3    1    3    3    0  502  0.72850398762E+03 -0.82808428243E+03 -0.12482714367E+04  0.16657200331E+04  0.10100000352E+00 0.  1.
</event>
<event>
 5   0  0.2985941E-06  0.3006284E+04  0.7818609E-02  0.8241939E-01
        2   -1    0    0  501    0  0.00000000000E+00  0.00000000000E+00  0.21427477510E+04  0.21427477510E+04  0.25500000920E-02 0. -1.
       -2   -1    0    0    0  501  0.00000000000E+00  0.00000000000E+00 -0.10544574871E+04  0.10544574871E+04  0.25500000920E-02 0.  1.
    10030    2    1    2    0    0  0.00000000000E+00  0.00000000000E+00  0.10882902639E+04  0.31972052381E+04  0.30062843571E+04 0.  0.
        3    1    3    3  502    0  0.14897685668E+04  0.14955014191E+03  0.68547868885E+03  0.16467108644E+04  0.10100000352E+00 0.  1.
       -3    1    3    3    0  502 -0.14897685668E+04 -0.14955014191E+03  0.40281157506E+03  0.15504943737E+04  0.10100000352E+00 0. -1.
</event>
<event>
 5   0  0.1097402E-06  0.3010690E+04  0.7818609E-02  0.8240685E-01
        1   -1    0    0  501    0  0.00000000000E+00  0.00000000000E+00  0.15631548389E+04  0.15631548390E+04  0.50400001928E-02 0.  1.
       -1   -1    0    0    0  501  0.00000000000E+00  0.00000000000E+00 -0.14496730417E+04  0.14496730418E+04  0.50400001928E-02 0. -1.
    10030    2    1    2    0    0  0.00000000000E+00  0.00000000000E+00  0.11348179720E+03  0.30128278807E+04  0.30106899077E+04 0.  0.
        4    1    3    3  502    0 -0.56663373620E+02 -0.14958745618E+04  0.21563140325E+03  0.15123987429E+04  0.12699999809E+01 0. -1.
       -4    1    3    3    0  502  0.56663373620E+02  0.14958745618E+04 -0.10214960605E+03  0.15004291378E+04  0.12699999809E+01 0.  1.
</event>
<event>
 5   0  0.2862033E-06  0.2992723E+04  0.7818609E-02  0.8245812E-01
       -2   -1    0    0    0  501  0.00000000000E+00  0.00000000000E+00  0.12004564799E+04  0.12004564799E+04  0.25500000920E-02 0.  1.
        2   -1    0    0  501    0  0.00000000000E+00  0.00000000000E+00 -0.18652055258E+04  0.18652055258E+04  0.25500000920E-02 0. -1.
    10030    2    1    2    0    0  0.00000000000E+00  0.00000000000E+00 -0.66474904592E+03  0.30656620057E+04  0.29927232146E+04 0.  0.
        2    1    3    3  502    0  0.12359979621E+04  0.51462009931E+03 -0.10169227846E+04  0.16812664152E+04  0.25500000920E-02 0.  1.
       -2    1    3    3    0  502 -0.12359979621E+04 -0.51462009931E+03  0.35217373867E+03  0.13843955906E+04  0.25500000920E-02 0. -1.
</event>
<event>
 5   0  0.1097402E-06  0.2995690E+04  0.7818609E-02  0.8244963E-01
        1   -1    0    0  501    0  0.00000000000E+00  0.00000000000E+00  0.13506842260E+04  0.13506842260E+04  0.50400001928E-02 0.  1.
       -1   -1    0    0    0  501  0.00000000000E+00  0.00000000000E+00 -0.16610395494E+04  0.16610395494E+04  0.50400001928E-02 0. -1.
    10030    2    1    2    0    0  0.00000000000E+00  0.00000000000E+00 -0.31035532346E+03  0.30117237754E+04  0.29956901830E+04 0.  0.
        4    1    3    3  502    0  0.18437841459E+02 -0.25063727233E+03 -0.16396915577E+04  0.16588396588E+04  0.12699999809E+01 0. -1.
       -4    1    3    3    0  502 -0.18437841459E+02  0.25063727233E+03  0.13293362343E+04  0.13528841166E+04  0.12699999809E+01 0.  1.
</event>
<event>
 5   0  0.1097402E-06  0.2996679E+04  0.7818609E-02  0.8244680E-01
       -1   -1    0    0    0  501  0.00000000000E+00  0.00000000000E+00  0.10878122939E+04  0.10878122939E+04  0.50400001928E-02 0. -1.
        1   -1    0    0  501    0  0.00000000000E+00  0.00000000000E+00 -0.20637948858E+04  0.20637948859E+04  0.50400001928E-02 0.  1.
    10030    2    1    2    0    0  0.00000000000E+00  0.00000000000E+00 -0.97598259199E+03  0.31516071797E+04  0.29966791279E+04 0.  0.
        4    1    3    3  502    0  0.71922269801E+03 -0.13137894601E+04 -0.53130041040E+03  0.15892154586E+04  0.12699999809E+01 0. -1.
       -4    1    3    3    0  502 -0.71922269801E+03  0.13137894601E+04 -0.44468218159E+03  0.15623917211E+04  0.12699999809E+01 0.  1.
</event>
<event>
 5   0  0.1054384E-06  0.2962163E+04  0.7818609E-02  0.8254619E-01
       -1   -1    0    0    0  501  0.00000000000E+00  0.00000000000E+00  0.11782170986E+04  0.11782170986E+04  0.50400001928E-02 0.  1.
        1   -1    0    0  501    0  0.00000000000E+00  0.00000000000E+00 -0.18617975876E+04  0.18617975876E+04  0.50400001928E-02 0. -1.
    10030    2    1    2    0    0  0.00000000000E+00  0.00000000000E+00 -0.68358048906E+03  0.30400146862E+04  0.29621625559E+04 0.  0.
        2    1    3    3  502    0  0.18319862234E+03  0.12169575959E+04  0.50391499673E+03  0.13298412873E+04  0.25500000920E-02 0.  1.
       -2    1    3    3    0  502 -0.18319862234E+03 -0.12169575959E+04 -0.11874954858E+04  0.17101733989E+04  0.25500000920E-02 0. -1.
</event>
<event>
 5   0  0.2862033E-06  0.3210984E+04  0.7818609E-02  0.8185922E-01
        2   -1    0    0  501    0  0.00000000000E+00  0.00000000000E+00  0.17391917667E+04  0.17391917667E+04  0.25500000920E-02 0. -1.
       -2   -1    0    0    0  501  0.00000000000E+00  0.00000000000E+00 -0.14820704780E+04  0.14820704780E+04  0.25500000920E-02 0.  1.
    10030    2    1    2    0    0  0.00000000000E+00  0.00000000000E+00  0.25712128869E+03  0.32212622447E+04  0.32109841314E+04 0.  0.
        2    1    3    3  502    0 -0.15758023260E+04 -0.20126482515E+03 -0.10444186256E+03  0.15920328524E+04  0.25500000920E-02 0.  1.
       -2    1    3    3    0  502  0.15758023260E+04  0.20126482515E+03  0.36156315126E+03  0.16292293923E+04  0.25500000920E-02 0. -1.
</event>
<event>
 5   0  0.3113328E-06  0.3000709E+04  0.7818609E-02  0.8243528E-01
        2   -1    0    0  501    0  0.00000000000E+00  0.00000000000E+00  0.19549298366E+04  0.19549298366E+04  0.25500000920E-02 0.  1.
       -2   -1    0    0    0  501  0.00000000000E+00  0.00000000000E+00 -0.11514804503E+04  0.11514804503E+04  0.25500000920E-02 0. -1.
    10030    2    1    2    0    0  0.00000000000E+00  0.00000000000E+00  0.80344938625E+03  0.31064102869E+04  0.30007089086E+04 0.  0.
        1    1    3    3  502    0 -0.74910009935E+03  0.11569894298E+04  0.10152981991E+04  0.17119012625E+04  0.50400001928E-02 0. -1.
       -1    1    3    3    0  502  0.74910009935E+03 -0.11569894298E+04 -0.21184881284E+03  0.13945090244E+04  0.50400001928E-02 0.  1.
</event>
<event>
 5   0  0.9749500E-07  0.2801920E+04  0.7818609E-02  0.8302673E-01
        4   -1    0    0  501    0  0.00000000000E+00  0.00000000000E+00  0.17497640761E+04  0.17497645370E+04  0.12699999809E+01 0. -1.
       -4   -1    0    0    0  501  0.00000000000E+00  0.00000000000E+00 -0.11216865792E+04  0.11216872982E+04  0.12699999809E+01 0.  1.
    10030    2    1    2    0    0  0.00000000000E+00  0.00000000000E+00  0.62807749691E+03  0.28714518352E+04  0.28019197526E+04 0.  0.
        4    1    3    3  502    0  0.25342685334E+03 -0.11431633749E+04  0.11023075657E+04  0.16081452839E+04  0.12699999809E+01 0. -1.
       -4    1    3    3    0  502 -0.25342685334E+03  0.11431633749E+04 -0.47423006882E+03  0.12633065513E+04  0.12699999809E+01 0.  1.
</event>
<event>
 5   0  0.3113328E-06  0.2987092E+04  0.7818609E-02  0.8247427E-01
        2   -1    0    0  501    0  0.00000000000E+00  0.00000000000E+00  0.11940359295E+04  0.11940359295E+04  0.25500000920E-02 0.  1.
       -2   -1    0    0    0  501  0.00000000000E+00  0.00000000000E+00 -0.18681842142E+04  0.18681842142E+04  0.25500000920E-02 0. -1.
    10030    2    1    2    0    0  0.00000000000E+00  0.00000000000E+00 -0.67414828471E+03  0.30622201437E+04  0.29870916121E+04 0.  0.
        1    1    3    3  502    0  0.71360169573E+03 -0.39023854629E+03  0.94709506565E+03  0.12484000026E+04  0.50400001928E-02 0.  1.
       -1    1    3    3    0  502 -0.71360169573E+03  0.39023854629E+03 -0.16212433504E+04  0.18138201411E+04  0.50400001928E-02 0. -1.
</event>
<event>
 5   0  0.1091075E-06  0.2975697E+04  0.7818609E-02  0.8250705E-01
       -1   -1    0    0    0  501  0.00000000000E+00  0.00000000000E+00  0.13855269927E+04  0.13855269927E+04  0.50400001928E-02 0. -1.
        1   -1    0    0  501    0  0.00000000000E+00  0.00000000000E+00 -0.15977261709E+04  0.15977261709E+04  0.50400001928E-02 0.  1.
    10030    2    1    2    0    0  0.00000000000E+00  0.00000000000E+00 -0.21219917817E+03  0.29832531636E+04  0.29756967162E+04 0.  0.
        1    1    3    3  502    0 -0.12096361644E+04 -0.31838462980E+03 -0.91381560016E+03  0.15490795247E+04  0.50400001928E-02 0.  1.
       -1    1    3    3    0  502  0.12096361644E+04  0.31838462980E+03  0.70161642199E+03  0.14341736389E+04  0.50400001928E-02 0. -1.
</event>
<event>
 5   0  0.2948711E-06  0.3003815E+04  0.7818609E-02  0.8242642E-01
        2   -1    0    0  501    0  0.00000000000E+00  0.00000000000E+00  0.19463954765E+04  0.19463954765E+04  0.25500000920E-02 0. -1.
       -2   -1    0    0    0  501  0.00000000000E+00  0.00000000000E+00 -0.11589245838E+04  0.11589245838E+04  0.25500000920E-02 0.  1.
    10030    2    1    2    0    0  0.00000000000E+00  0.00000000000E+00  0.78747089265E+03  0.31053200603E+04  0.30038146198E+04 0.  0.
        5    1    3    3  502    0 -0.80560859151E+03 -0.90828583276E+03 -0.52028834133E+03  0.13208748634E+04  0.46999998093E+01 0.  1.
       -5    1    3    3    0  502  0.80560859151E+03  0.90828583276E+03  0.13077592340E+04  0.17844451969E+04  0.46999998093E+01 0. -1.
</event>
<event>
 5   0  0.2970915E-06  0.2987587E+04  0.7818609E-02  0.8247285E-01
        2   -1    0    0  501    0  0.00000000000E+00  0.00000000000E+00  0.25360846011E+04  0.25360846011E+04  0.25500000920E-02 0.  1.
       -2   -1    0    0    0  501  0.00000000000E+00  0.00000000000E+00 -0.87986748610E+03  0.87986748611E+03  0.25500000920E-02 0. -1.
    10030    2    1    2    0    0  0.00000000000E+00  0.00000000000E+00  0.16562171150E+04  0.34159520872E+04  0.29875865728E+04 0.  0.
        4    1    3    3  502    0  0.80353335551E+02  0.14859655111E+04  0.97660128532E+03  0.17799724273E+04  0.12699999809E+01 0.  1.
       -4    1    3    3    0  502 -0.80353335551E+02 -0.14859655111E+04  0.67961582971E+03  0.16359796599E+04  0.12699999809E+01 0. -1.
</event>
<event>
 5   0  0.2970915E-06  0.2999709E+04  0.7818609E-02  0.8243814E-01
        2   -1    0    0  501    0  0.00000000000E+00  0.00000000000E+00  0.18361447710E+04  0.18361447710E+04  0.25500000920E-02 0.  1.
       -2   -1    0    0    0  501  0.00000000000E+00  0.00000000000E+00 -0.12251558388E+04  0.12251558388E+04  0.25500000920E-02 0. -1.
    10030    2    1    2    0    0  0.00000000000E+00  0.00000000000E+00  0.61098893224E+03  0.30613006098E+04  0.29997089772E+04 0.  0.
        4    1    3    3  502    0  0.14334923150E+04  0.42529520443E+03  0.18567140299E+03  0.15067354482E+04  0.12699999809E+01 0. -1.
       -4    1    3    3    0  502 -0.14334923150E+04 -0.42529520443E+03  0.42531752925E+03  0.15545651616E+04  0.12699999809E+01 0.  1.
</event>
<event>
 5   0  0.1054384E-06  0.2982371E+04  0.7818609E-02  0.8248783E-01
        1   -1    0    0  501    0  0.00000000000E+00  0.00000000000E+00  0.23362675256E+04  0.23362675256E+04  0.50400001928E-02 0. -1.
       -1   -1    0    0    0  501  0.00000000000E+00  0.00000000000E+00 -0.95178945386E+03  0.95178945387E+03  0.50400001928E-02 0.  1.
    10030    2    1    2    0    0  0.00000000000E+00  0.00000000000E+00  0.13844780717E+04  0.32880569794E+04  0.29823714002E+04 0.  0.
        2    1    3    3  502    0  0.44627769082E+03  0.10285061621E+03  0.22568118504E+04  0.23028117063E+04  0.25500000920E-02 0. -1.
       -2    1    3    3    0  502 -0.44627769082E+03 -0.10285061621E+03 -0.87233377875E+03  0.98524527308E+03  0.25500000920E-02 0.  1.
</event>
<event>
 5   0  0.1091076E-06  0.2789700E+04  0.7818609E-02  0.8306473E-01
        1   -1    0    0  501    0  0.00000000000E+00  0.00000000000E+00  0.18026424633E+04  0.18026424633E+04  0.50400001928E-02 0.  1.
       -1   -1    0    0    0  501  0.00000000000E+00  0.00000000000E+00 -0.10793083504E+04  0.10793083504E+04  0.50400001928E-02 0. -1.
    10030    2    1    2    0    0  0.00000000000E+00  0.00000000000E+00  0.72333411286E+03  0.28819508137E+04  0.27897003878E+04 0.  0.
        3    1    3    3  502    0 -0.49844944920E+03  0.12475407481E+04 -0.25970758379E+02  0.13436830959E+04  0.10100000352E+00 0. -1.
       -3    1    3    3    0  502  0.49844944920E+03 -0.12475407481E+04  0.74930487124E+03  0.15382677179E+04  0.10100000352E+00 0.  1.
</event>
<event>
 5   0  0.1113245E-06  0.2982314E+04  0.7818609E-02  0.8248799E-01
        1   -1    0    0  501    0  0.00000000000E+00  0.00000000000E+00  0.14937337323E+04  0.14937337323E+04  0.50400001928E-02 0. -1.
       -1   -1    0    0    0  501  0.00000000000E+00  0.00000000000E+00 -0.14885848113E+04  0.14885848113E+04  0.50400001928E-02 0.  1.
    10030    2    1    2    0    0  0.00000000000E+00  0.00000000000E+00  0.51489210236E+01  0.29823185436E+04  0.29823140989E+04 0.  0.
        5    1    3    3  502    0  0.13101627655E+04  0.25292810806E+03 -0.66303013435E+03  0.14900101171E+04  0.46999998093E+01 0.  1.
       -5    1    3    3    0  502 -0.13101627655E+04 -0.25292810806E+03  0.66817905538E+03  0.14923084266E+04  0.46999998093E+01 0. -1.
</event>
<event>
 5   0  0.2970915E-06  0.2913107E+04  0.7818609E-02  0.8268989E-01
       -2   -1    0    0    0  501  0.00000000000E+00  0.00000000000E+00  0.12768655635E+04  0.12768655635E+04  0.25500000920E-02 0. -1.
        2   -1    0    0  501    0  0.00000000000E+00  0.00000000000E+00 -0.16615277365E+04  0.16615277365E+04  0.25500000920E-02 0.  1.
    10030    2    1    2    0    0  0.00000000000E+00  0.00000000000E+00 -0.38466217295E+03  0.29383933000E+04  0.29131066232E+04 0.  0.
        4    1    3    3  502    0 -0.66534911153E+03  0.84075063806E+03 -0.11867869868E+04  0.15993798925E+04  0.12699999809E+01 0.  1.
       -4    1    3    3    0  502  0.66534911153E+03 -0.84075063806E+03  0.80212481381E+03  0.13390134075E+04  0.12699999809E+01 0. -1.
</event>
<event>
 5   0  0.2948711E-06  0.2983627E+04  0.7818609E-02  0.8248422E-01
        2   -1    0    0  501    0  0.00000000000E+00  0.00000000000E+00  0.17678752762E+04  0.17678752762E+04  0.25500000920E-02 0. -1.
       -2   -1    0    0    0  501  0.00000000000E+00  0.00000000000E+00 -0.12588602983E+04  0.12588602983E+04  0.25500000920E-02 0.  1.
    10030    2    1    2    0    0  0.00000000000E+00  0.00000000000E+00  0.50901497791E+03  0.30267355745E+04  0.29836273209E+04 0.  0.
        5    1    3    3  502    0  0.14179885913E+04  0.16829434733E+03 -0.18355480822E+03  0.14396975690E+04  0.46999998093E+01 0.  1.
       -5    1    3    3    0  502 -0.14179885913E+04 -0.16829434733E+03  0.69256978613E+03  0.15870380056E+04  0.46999998093E+01 0. -1.
</event>
<event>
 5   0  0.3113328E-06  0.3001619E+04  0.7818609E-02  0.8243269E-01
       -2   -1    0    0    0  501  0.00000000000E+00  0.00000000000E+00  0.20569490993E+04  0.20569490993E+04  0.25500000920E-02 0.  1.
        2   -1    0    0  501    0  0.00000000000E+00  0.00000000000E+00 -0.10950340285E+04  0.10950340285E+04  0.25500000920E-02 0. -1.
    10030    2    1    2    0    0  0.00000000000E+00  0.00000000000E+00  0.96191507081E+03  0.31519831278E+04  0.30016190689E+04 0.  0.
        1    1    3    3  502    0 -0.66069474293E+03  0.78240204294E+03  0.16330783914E+04  0.19275931969E+04  0.50400001928E-02 0.  1.
       -1    1    3    3    0  502  0.66069474293E+03 -0.78240204294E+03 -0.67116332057E+03  0.12243899310E+04  0.50400001928E-02 0. -1.
</event>
<event>
 5   0  0.3113328E-06  0.3015936E+04  0.7818609E-02  0.8239195E-01
        2   -1    0    0  501    0  0.00000000000E+00  0.00000000000E+00  0.14542950923E+04  0.14542950923E+04  0.25500000920E-02 0. -1.
       -2   -1    0    0    0  501  0.00000000000E+00  0.00000000000E+00 -0.15636218474E+04  0.15636218474E+04  0.25500000920E-02 0.  1.
    10030    2    1    2    0    0  0.00000000000E+00  0.00000000000E+00 -0.10932675508E+03  0.30179169397E+04  0.30159360595E+04 0.  0.
        1    1    3    3  502    0 -0.63761543295E+03 -0.32028459238E+03 -0.13840056880E+04  0.15571150905E+04  0.50400001928E-02 0.  1.
       -1    1    3    3    0  502  0.63761543295E+03  0.32028459238E+03  0.12746789330E+04  0.14608018492E+04  0.50400001928E-02 0. -1.
</event>
<event>
 5   0  0.9749500E-07  0.3105758E+04  0.7818609E-02  0.8214159E-01
       -3   -1    0    0    0  501  0.00000000000E+00  0.00000000000E+00  0.16559564887E+04  0.16559564918E+04  0.10100000352E+00 0.  1.
        3   -1    0    0  501    0  0.00000000000E+00  0.00000000000E+00 -0.14562176847E+04  0.14562176882E+04  0.10100000352E+00 0. -1.
    10030    2    1    2    0    0  0.00000000000E+00  0.00000000000E+00  0.19973880402E+03  0.31121741800E+04  0.31057579650E+04 0.  0.
        4    1    3    3  502    0 -0.43434045841E+03  0.29989310827E+03  0.15633124790E+04  0.16500106152E+04  0.12699999809E+01 0.  1.
       -4    1    3    3    0  502  0.43434045841E+03 -0.29989310827E+03 -0.13635736750E+04  0.14621635648E+04  0.12699999809E+01 0. -1.
</event>
<event>
 5   0  0.9749500E-07  0.3002143E+04  0.7818609E-02  0.8243119E-01
        3   -1    0    0  501    0  0.00000000000E+00  0.00000000000E+00  0.11087579558E+04  0.11087579604E+04  0.10100000352E+00 0.  1.
       -3   -1    0    0    0  501  0.00000000000E+00  0.00000000000E+00 -0.20321985269E+04  0.20321985294E+04  0.10100000352E+00 0. -1.
    10030    2    1    2    0    0  0.00000000000E+00  0.00000000000E+00 -0.92344057110E+03  0.31409564897E+04  0.30021434313E+04 0.  0.
        1    1    3    3  502    0  0.29679601685E+01 -0.12851267800E+04  0.34981020591E+03  0.13318884449E+04  0.50400001928E-02 0. -1.
       -1    1    3    3    0  502 -0.29679601685E+01  0.12851267800E+04 -0.12732507770E+04  0.18090680448E+04  0.50400001928E-02 0.  1.
</event>
<event>
 5   0  0.2970915E-06  0.3045812E+04  0.7818609E-02  0.8230769E-01
        2   -1    0    0  501    0  0.00000000000E+00  0.00000000000E+00  0.20254681787E+04  0.20254681787E+04  0.25500000920E-02 0. -1.
       -2   -1    0    0    0  501  0.00000000000E+00  0.00000000000E+00 -0.11450405625E+04  0.11450405625E+04  0.25500000920E-02 0.  1.
    10030    2    1    2    0    0  0.00000000000E+00  0.00000000000E+00  0.88042761614E+03  0.31705087412E+04  0.30458123532E+04 0.  0.
        4    1    3    3  502    0  0.11638663423E+04  0.94171814737E+03  0.14982378770E+03  0.15046151375E+04  0.12699999809E+01 0.  1.
       -4    1    3    3    0  502 -0.11638663423E+04 -0.94171814737E+03  0.73060382844E+03  0.16658936037E+04  0.12699999809E+01 0. -1.
</event>
<event>
 5   0  0.1097402E-06  0.3032775E+04  0.7818609E-02  0.8234433E-01
       -1   -1    0    0    0  501  0.00000000000E+00  0.00000000000E+00  0.10868296835E+04  0.10868296835E+04  0.50400001928E-02 0.  1.
        1   -1    0    0  501    0  0.00000000000E+00  0.00000000000E+00 -0.21157240039E+04  0.21157240039E+04  0.50400001928E-02 0. -1.
    10030    2    1    2    0    0  0.00000000000E+00  0.00000000000E+00 -0.10288943204E+04  0.32025536874E+04  0.30327753953E+04 0.  0.
        4    1    3    3  502    0  0.64824450508E+03  0.99263325419E+03  0.48393727672E+03  0.12805227903E+04  0.12699999809E+01 0.  1.
       -4    1    3    3    0  502 -0.64824450508E+03 -0.99263325419E+03 -0.15128315971E+04  0.19220308972E+04  0.12699999809E+01 0. -1.
</event>
<event>
 5   0  0.2970915E-06  0.3000688E+04  0.7818609E-02  0.8243535E-01
       -2   -1    0    0    0  501  0.00000000000E+00  0.00000000000E+00  0.12700431426E+04  0.12700431426E+04  0.25500000920E-02 0. -1.
        2   -1    0    0  501    0  0.00000000000E+00  0.00000000000E+00 -0.17724057430E+04  0.17724057430E+04  0.25500000920E-02 0.  1.
    10030    2    1    2    0    0  0.00000000000E+00  0.00000000000E+00 -0.50236260047E+03  0.30424488856E+04  0.30006877611E+04 0.  0.
        4    1    3    3  502    0 -0.64263091372E+03 -0.12145239219E+04  0.35968785705E+03  0.14203590446E+04  0.12699999809E+01 0. -1.
       -4    1    3    3    0  502  0.64263091372E+03  0.12145239219E+04 -0.86205045752E+03  0.16220898410E+04  0.12699999809E+01 0.  1.
</event>
<event>
 5   0  0.1091076E-06  0.3011411E+04  0.7818609E-02  0.8240480E-01
        1   -1    0    0  501    0  0.00000000000E+00  0.00000000000E+00  0.14901159623E+04  0.14901159623E+04  0.50400001928E-02 0.  1.
       -1   -1    0    0    0  501  0.00000000000E+00  0.00000000000E+00 -0.15214577030E+04  0.15214577030E+04  0.50400001928E-02 0. -1.
    10030    2    1    2    0    0  0.00000000000E+00  0.00000000000E+00 -0.31341740649E+02  0.30115736653E+04  0.30114105726E+04 0.  0.
        3    1    3    3  502    0  0.19448352849E+03 -0.97843849401E+03 -0.11435540425E+04  0.15175248228E+04  0.10100000352E+00 0. -1.
       -3    1    3    3    0  502 -0.19448352849E+03  0.97843849401E+03  0.11122123018E+04  0.14940488426E+04  0.10100000352E+00 0.  1.
</event>
<event>
 5   0  0.1097402E-06  0.3005305E+04  0.7818609E-02  0.8242218E-01
        1   -1    0    0  501    0  0.00000000000E+00  0.00000000000E+00  0.18835755437E+04  0.18835755437E+04  0.50400001928E-02 0.  1.
       -1   -1    0    0    0  501  0.00000000000E+00  0.00000000000E+00 -0.11987652585E+04  0.11987652585E+04  0.50400001928E-02 0. -1.
    10030    2    1    2    0    0  0.00000000000E+00  0.00000000000E+00  0.68481028517E+03  0.30823408022E+04  0.30053052581E+04 0.  0.
        4    1    3    3  502    0  0.56304649164E+03  0.28687799421E+03  0.17406719598E+04  0.18518263471E+04  0.12699999809E+01 0.  1.
       -4    1    3    3    0  502 -0.56304649164E+03 -0.28687799421E+03 -0.10558616747E+04  0.12305144551E+04  0.12699999809E+01 0. -1.
</event>
<event>
 5   0  0.1054384E-06  0.3040569E+04  0.7818609E-02  0.8232240E-01
       -1   -1    0    0    0  501  0.00000000000E+00  0.00000000000E+00  0.20202669066E+04  0.20202669066E+04  0.50400001928E-02 0. -1.
        1   -1    0    0  501    0  0.00000000000E+00  0.00000000000E+00 -0.11440392351E+04  0.11440392352E+04  0.50400001928E-02 0.  1.
    10030    2    1    2    0    0  0.00000000000E+00  0.00000000000E+00  0.87622767148E+03  0.31643061418E+04  0.30405687670E+04 0.  0.
        2    1    3    3  502    0  0.12996083597E+04 -0.76682471421E+03  0.63074815776E+03  0.16354954202E+04  0.25500000920E-02 0.  1.
       -2    1    3    3    0  502 -0.12996083597E+04  0.76682471421E+03  0.24547951372E+03  0.15288107216E+04  0.25500000920E-02 0. -1.
</event>
<event>
 5   0  0.3113328E-06  0.3003886E+04  0.7818609E-02  0.8242622E-01
       -2   -1    0    0    0  501  0.00000000000E+00  0.00000000000E+00  0.13146886043E+04  0.13146886043E+04  0.25500000920E-02 0.  1.
        2   -1    0    0  501    0  0.00000000000E+00  0.00000000000E+00 -0.17158683870E+04  0.17158683870E+04  0.25500000920E-02 0. -1.
    10030    2    1    2    0    0  0.00000000000E+00  0.00000000000E+00 -0.40117978271E+03  0.30305569913E+04  0.30038858932E+04 0.  0.
        1    1    3    3  502    0  0.66449720081E+03 -0.24871104503E+03 -0.15361332393E+04  0.16920753655E+04  0.50400001928E-02 0. -1.
       -1    1    3    3    0  502 -0.66449720081E+03  0.24871104503E+03  0.11349534566E+04  0.13384816257E+04  0.50400001928E-02 0.  1.
</event>
<event>
 5   0  0.1091076E-06  0.2993052E+04  0.7818609E-02  0.8245718E-01
        1   -1    0    0  501    0  0.00000000000E+00  0.00000000000E+00  0.23094393399E+04  0.23094393399E+04  0.50400001928E-02 0. -1.
       -1   -1    0    0    0  501  0.00000000000E+00  0.00000000000E+00 -0.96975479084E+03  0.96975479086E+03  0.50400001928E-02 0.  1.
    10030    2    1    2    0    0  0.00000000000E+00  0.00000000000E+00  0.13396845491E+04  0.32791941308E+04  0.29930518633E+04 0.  0.
        3    1    3    3  502    0 -0.52942349963E+03 -0.13983329454E+04  0.60084903163E+03  0.16114105117E+04  0.10100000352E+00 0. -1.
       -3    1    3    3    0  502  0.52942349963E+03  0.13983329454E+04  0.73883551744E+03  0.16677836191E+04  0.10100000352E+00 0.  1.
</event>
<event>
 5   0  0.3113328E-06  0.3012987E+04  0.7818609E-02  0.8240032E-01
       -2   -1    0    0    0  501  0.00000000000E+00  0.00000000000E+00  0.96147419587E+03  0.96147419587E+03  0.25500000920E-02 0.  1.
        2   -1    0    0  501    0  0.00000000000E+00  0.00000000000E+00 -0.23604605549E+04  0.23604605549E+04  0.25500000920E-02 0. -1.
    10030    2    1    2    0    0  0.00000000000E+00  0.00000000000E+00 -0.13989863590E+04  0.33219347507E+04  0.30129865010E+04 0.  0.
        1    1    3    3  502    0 -0.63796051541E+03 -0.57533063620E+03 -0.20639370258E+04  0.22355838178E+04  0.50400001928E-02 0. -1.
       -1    1    3    3    0  502  0.63796051541E+03  0.57533063620E+03  0.66495066677E+03  0.10863509329E+04  0.50400001928E-02 0.  1.
</event>
<event>
 5   0  0.2862033E-06  0.3012271E+04  0.7818609E-02  0.8240236E-01
        2   -1    0    0  501    0  0.00000000000E+00  0.00000000000E+00  0.23374107815E+04  0.23374107815E+04  0.25500000920E-02 0.  1.
       -2   -1    0    0    0  501  0.00000000000E+00  0.00000000000E+00 -0.97049435660E+03  0.97049435660E+03  0.25500000920E-02 0. -1.
    10030    2    1    2    0    0  0.00000000000E+00  0.00000000000E+00  0.13669164249E+04  0.33079051381E+04  0.30122708859E+04 0.  0.
        2    1    3    3  502    0 -0.14840164969E+03  0.13239162826E+04  0.14550292100E+04  0.19727867029E+04  0.25500000920E-02 0. -1.
       -2    1    3    3    0  502  0.14840164969E+03 -0.13239162826E+04 -0.88112785145E+02  0.13351184352E+04  0.25500000920E-02 0.  1.
</event>
<event>
 5   0  0.2970915E-06  0.2978963E+04  0.7818609E-02  0.8249764E-01
        2   -1    0    0  501    0  0.00000000000E+00  0.00000000000E+00  0.20413311739E+04  0.20413311739E+04  0.25500000920E-02 0. -1.
       -2   -1    0    0    0  501  0.00000000000E+00  0.00000000000E+00 -0.10868180974E+04  0.10868180974E+04  0.25500000920E-02 0.  1.
    10030    2    1    2    0    0  0.00000000000E+00  0.00000000000E+00  0.95451307646E+03  0.31281492713E+04  0.29789633516E+04 0.  0.
        4    1    3    3  502    0 -0.73268052874E+02 -0.58866487666E+03  0.19119359350E+04  0.20018479405E+04  0.12699999809E+01 0. -1.
       -4    1    3    3    0  502  0.73268052874E+02  0.58866487666E+03 -0.95742285855E+03  0.11263013307E+04  0.12699999809E+01 0.  1.
</event>
<event>
 5   0  0.1097402E-06  0.3002666E+04  0.7818609E-02  0.8242970E-01
       -1   -1    0    0    0  501  0.00000000000E+00  0.00000000000E+00  0.18339579348E+04  0.18339579348E+04  0.50400001928E-02 0. -1.
        1   -1    0    0  501    0  0.00000000000E+00  0.00000000000E+00 -0.12290359875E+04  0.12290359875E+04  0.50400001928E-02 0.  1.
    10030    2    1    2    0    0  0.00000000000E+00  0.00000000000E+00  0.60492194730E+03  0.30629939223E+04  0.30026656833E+04 0.  0.
        4    1    3    3  502    0  0.57663136419E+03 -0.12265974121E+04 -0.35623209740E+03  0.14014092413E+04  0.12699999809E+01 0.  1.
       -4    1    3    3    0  502 -0.57663136419E+03  0.12265974121E+04  0.96115404470E+03  0.16615846810E+04  0.12699999809E+01 0. -1.
</event>
<event>
 5   0  0.1091075E-06  0.2963385E+04  0.7818609E-02  0.8254264E-01
        1   -1    0    0  501    0  0.00000000000E+00  0.00000000000E+00  0.16818904095E+04  0.16818904095E+04  0.50400001928E-02 0. -1.
       -1   -1    0    0    0  501  0.00000000000E+00  0.00000000000E+00 -0.13053248826E+04  0.13053248826E+04  0.50400001928E-02 0.  1.
    10030    2    1    2    0    0  0.00000000000E+00  0.00000000000E+00  0.37656552699E+03  0.29872152921E+04  0.29633854972E+04 0.  0.
        1    1    3    3  502    0 -0.63221730323E+03 -0.81745804101E+03 -0.88208303820E+03  0.13586783481E+04  0.50400001928E-02 0.  1.
       -1    1    3    3    0  502  0.63221730323E+03  0.81745804101E+03  0.12586485652E+04  0.16285369440E+04  0.50400001928E-02 0. -1.
</event>
<event>
 5   0  0.2970915E-06  0.2994524E+04  0.7818609E-02  0.8245296E-01
        2   -1    0    0  501    0  0.00000000000E+00  0.00000000000E+00  0.17581685057E+04  0.17581685057E+04  0.25500000920E-02 0.  1.
       -2   -1    0    0    0  501  0.00000000000E+00  0.00000000000E+00 -0.12750727746E+04  0.12750727746E+04  0.25500000920E-02 0. -1.
    10030    2    1    2    0    0  0.00000000000E+00  0.00000000000E+00  0.48309573114E+03  0.30332412803E+04  0.29945235312E+04 0.  0.
        4    1    3    3  502    0  0.51257431787E+03  0.52188056574E+03  0.15648461480E+04  0.17273786024E+04  0.12699999809E+01 0.  1.
       -4    1    3    3    0  502 -0.51257431787E+03 -0.52188056574E+03 -0.10817504169E+04  0.13058626779E+04  0.12699999809E+01 0. -1.
</event>
<event>
 5   0  0.2948711E-06  0.2985420E+04  0.7818609E-02  0.8247907E-01
       -2   -1    0    0    0  501  0.00000000000E+00  0.00000000000E+00  0.14460625116E+04  0.14460625116E+04  0.25500000920E-02 0. -1.
        2   -1    0    0  501    0  0.00000000000E+00  0.00000000000E+00 -0.15408617733E+04  0.15408617733E+04  0.25500000920E-02 0.  1.
    10030    2    1    2    0    0  0.00000000000E+00  0.00000000000E+00 -0.94799261704E+02  0.29869242850E+04  0.29854195324E+04 0.  0.
        5    1    3    3  502    0  0.80475641838E+03 -0.14382644312E+03  0.12021659895E+04  0.14538033206E+04  0.46999998093E+01 0. -1.
       -5    1    3    3    0  502 -0.80475641838E+03  0.14382644312E+03 -0.12969652512E+04  0.15331209644E+04  0.46999998093E+01 0.  1.
</event>
<event>
 5   0  0.1054384E-06  0.3017881E+04  0.7818609E-02  0.8238643E-01
       -1   -1    0    0    0  501  0.00000000000E+00  0.00000000000E+00  0.12179019556E+04  0.12179019556E+04  0.50400001928E-02 0. -1.
        1   -1    0    0  501    0  0.00000000000E+00  0.00000000000E+00 -0.18695278514E+04  0.18695278514E+04  0.50400001928E-02 0.  1.
    10030    2    1    2    0    0  0.00000000000E+00  0.00000000000E+00 -0.65162589579E+03  0.30874298070E+04  0.30178811284E+04 0.  0.
        2    1    3    3  502    0  0.13065766187E+04  0.12052319922E+03 -0.10881248934E+04  0.17046067247E+04  0.25500000920E-02 0. -1.
       -2    1    3    3    0  502 -0.13065766187E+04 -0.12052319922E+03  0.43649899765E+03  0.13828230823E+04  0.25500000920E-02 0.  1.
</event>
<event>
 5   0  0.1091076E-06  0.3005364E+04  0.7818609E-02  0.8242201E-01
       -1   -1    0    0    0  501  0.00000000000E+00  0.00000000000E+00  0.88026611753E+03  0.88026611754E+03  0.50400001928E-02 0. -1.
        1   -1    0    0  501    0  0.00000000000E+00  0.00000000000E+00 -0.25651936809E+04  0.25651936809E+04  0.50400001928E-02 0.  1.
    10030    2    1    2    0    0  0.00000000000E+00  0.00000000000E+00 -0.16849275634E+04  0.34454597985E+04  0.30053639262E+04 0.  0.
        3    1    3    3  502    0  0.10313215348E+04 -0.81288416958E+03 -0.49775438749E+01  0.13131753757E+04  0.10100000352E+00 0. -1.
       -3    1    3    3    0  502 -0.10313215348E+04  0.81288416958E+03 -0.16799500195E+04  0.21322844227E+04  0.10100000352E+00 0.  1.
</event>
<event>
 5   0  0.2862033E-06  0.3018275E+04  0.7818609E-02  0.8238531E-01
       -2   -1    0    0    0  501  0.00000000000E+00  0.00000000000E+00  0.10082761149E+04  0.10082761149E+04  0.25500000920E-02 0. -1.
        2   -1    0    0  501    0  0.00000000000E+00  0.00000000000E+00 -0.22588021831E+04  0.22588021831E+04  0.25500000920E-02 0.  1.
    10030    2    1    2    0    0  0.00000000000E+00  0.00000000000E+00 -0.12505260681E+04  0.32670782980E+04  0.30182751959E+04 0.  0.
        2    1    3    3  502    0 -0.13164531476E+04  0.60815532928E+03 -0.10775519881E+04  0.18066599241E+04  0.25500000920E-02 0.  1.
       -2    1    3    3    0  502  0.13164531476E+04 -0.60815532928E+03 -0.17297408005E+03  0.14604183739E+04  0.25500000920E-02 0. -1.
</event>
<event>
 5   0  0.2970915E-06  0.2989684E+04  0.7818609E-02  0.8246683E-01
        2   -1    0    0  501    0  0.00000000000E+00  0.00000000000E+00  0.18801257169E+04  0.18801257169E+04  0.25500000920E-02 0.  1.
       -2   -1    0    0    0  501  0.00000000000E+00  0.00000000000E+00 -0.11885120604E+04  0.11885120604E+04  0.25500000920E-02 0. -1.
    10030    2    1    2    0    0  0.00000000000E+00  0.00000000000E+00  0.69161365652E+03  0.30686377774E+04  0.29896836553E+04 0.  0.
        4    1    3    3  502    0  0.38341853885E+03  0.26209048466E+03  0.18041923313E+04  0.18630117497E+04  0.12699999809E+01 0.  1.
       -4    1    3    3    0  502 -0.38341853885E+03 -0.26209048466E+03 -0.11125786748E+04  0.12056260277E+04  0.12699999809E+01 0. -1.
</event>
<event>
 5   0  0.1091075E-06  0.2811943E+04  0.7818609E-02  0.8299570E-01
        1   -1    0    0  501    0  0.00000000000E+00  0.00000000000E+00  0.13841033786E+04  0.13841033786E+04  0.50400001928E-02 0.  1.
       -1   -1    0    0    0  501  0.00000000000E+00  0.00000000000E+00 -0.14281852035E+04  0.14281852035E+04  0.50400001928E-02 0. -1.
    10030    2    1    2    0    0  0.00000000000E+00  0.00000000000E+00 -0.44081824925E+02  0.28122885821E+04  0.28119430759E+04 0.  0.
        1    1    3    3  502    0  0.11225924964E+04 -0.79613722038E+03 -0.30966550232E+03  0.14106527248E+04  0.50400001928E-02 0. -1.
       -1    1    3    3    0  502 -0.11225924964E+04  0.79613722038E+03  0.26558367740E+03  0.14016358573E+04  0.50400001928E-02 0.  1.
</event>
<event>
 5   0  0.1091075E-06  0.3015241E+04  0.7818609E-02  0.8239392E-01
       -1   -1    0    0    0  501  0.00000000000E+00  0.00000000000E+00  0.12006639238E+04  0.12006639238E+04  0.50400001928E-02 0. -1.
        1   -1    0    0  501    0  0.00000000000E+00  0.00000000000E+00 -0.18930519744E+04  0.18930519744E+04  0.50400001928E-02 0.  1.
    10030    2    1    2    0    0  0.00000000000E+00  0.00000000000E+00 -0.69238805060E+03  0.30937158982E+04  0.30152407609E+04 0.  0.
        1    1    3    3  502    0 -0.53602539061E+03  0.10883517610E+04 -0.12645226529E+04  0.17523841801E+04  0.50400001928E-02 0.  1.
       -1    1    3    3    0  502  0.53602539061E+03 -0.10883517610E+04  0.57213460225E+03  0.13413317181E+04  0.50400001928E-02 0. -1.
</event>
<event>
 5   0  0.2985941E-06  0.2964243E+04  0.7818609E-02  0.8254016E-01
       -2   -1    0    0    0  501  0.00000000000E+00  0.00000000000E+00  0.11089045338E+04  0.11089045338E+04  0.25500000920E-02 0.  1.
        2   -1    0    0  501    0  0.00000000000E+00  0.00000000000E+00 -0.19809495759E+04  0.19809495759E+04  0.25500000920E-02 0. -1.
    10030    2    1    2    0    0  0.00000000000E+00  0.00000000000E+00 -0.87204504203E+03  0.30898541097E+04  0.29642428821E+04 0.  0.
        3    1    3    3  502    0  0.32876602517E+03  0.14425961626E+04 -0.52637409845E+03  0.15704268494E+04  0.10100000352E+00 0.  1.
       -3    1    3    3    0  502 -0.32876602517E+03 -0.14425961626E+04 -0.34567094357E+03  0.15194272602E+04  0.10100000352E+00 0. -1.
</event>
<event>
 5   0  0.1097402E-06  0.3119944E+04  0.7818609E-02  0.8210286E-01
       -1   -1    0    0    0  501  0.00000000000E+00  0.00000000000E+00  0.96582718898E+03  0.96582718900E+03  0.50400001928E-02 0. -1.
        1   -1    0    0  501    0  0.00000000000E+00  0.00000000000E+00 -0.25196149798E+04  0.25196149798E+04  0.50400001928E-02 0.  1.
    10030    2    1    2    0    0  0.00000000000E+00  0.00000000000E+00 -0.15537877908E+04  0.34854421688E+04  0.31199440080E+04 0.  0.
        4    1    3    3  502    0 -0.24256181593E+03  0.15203975733E+04 -0.49634484005E+03  0.16176541127E+04  0.12699999809E+01 0.  1.
       -4    1    3    3    0  502  0.24256181593E+03 -0.15203975733E+04 -0.10574429507E+04  0.18677880560E+04  0.12699999809E+01 0. -1.
</event>
<event>
 5   0  0.1091076E-06  0.2984394E+04  0.7818609E-02  0.8248201E-01
       -1   -1    0    0    0  501  0.00000000000E+00  0.00000000000E+00  0.83615691127E+03  0.83615691128E+03  0.50400001928E-02 0. -1.
        1   -1    0    0  501    0  0.00000000000E+00  0.00000000000E+00 -0.26629593055E+04  0.26629593055E+04  0.50400001928E-02 0.  1.
    10030    2    1    2    0    0  0.00000000000E+00  0.00000000000E+00 -0.18268023942E+04  0.34991162168E+04  0.29843939604E+04 0.  0.
        3    1    3    3  502    0 -0.72556740639E+03 -0.60660883979E+03 -0.22666938782E+04  0.24560788859E+04  0.10100000352E+00 0.  1.
       -3    1    3    3    0  502  0.72556740639E+03  0.60660883979E+03  0.43989148403E+03  0.10430373309E+04  0.10100000352E+00 0. -1.
</event>
<event>
 5   0  0.1091075E-06  0.2996508E+04  0.7818609E-02  0.8244729E-01
       -1   -1    0    0    0  501  0.00000000000E+00  0.00000000000E+00  0.90405531937E+03  0.90405531938E+03  0.50400001928E-02 0.  1.
        1   -1    0    0  501    0  0.00000000000E+00  0.00000000000E+00 -0.24829954302E+04  0.24829954302E+04  0.50400001928E-02 0. -1.
    10030    2    1    2    0    0  0.00000000000E+00  0.00000000000E+00 -0.15789401108E+04  0.33870507496E+04  0.29965081189E+04 0.  0.
        1    1    3    3  502    0  0.10353921059E+04 -0.69565765245E+03 -0.17275704043E+04  0.21308392441E+04  0.50400001928E-02 0.  1.
       -1    1    3    3    0  502 -0.10353921059E+04  0.69565765245E+03  0.14863029342E+03  0.12562115055E+04  0.50400001928E-02 0. -1.
</event>
<event>
 5   0  0.1091076E-06  0.2998748E+04  0.7818609E-02  0.8244089E-01
        1   -1    0    0  501    0  0.00000000000E+00  0.00000000000E+00  0.13795754148E+04  0.13795754149E+04  0.50400001928E-02 0.  1.
       -1   -1    0    0    0  501  0.00000000000E+00  0.00000000000E+00 -0.16295750780E+04  0.16295750780E+04  0.50400001928E-02 0. -1.
    10030    2    1    2    0    0  0.00000000000E+00  0.00000000000E+00 -0.24999966320E+03  0.30091504929E+04  0.29987475481E+04 0.  0.
        3    1    3    3  502    0  0.48783356362E+03  0.11150289673E+04  0.75373807370E+03  0.14315698647E+04  0.10100000352E+00 0.  1.
       -3    1    3    3    0  502 -0.48783356362E+03 -0.11150289673E+04 -0.10037377369E+04  0.15775806282E+04  0.10100000352E+00 0. -1.
</event>
<event>
 5   0  0.2948711E-06  0.2991966E+04  0.7818609E-02  0.8246029E-01
        2   -1    0    0  501    0  0.00000000000E+00  0.00000000000E+00  0.14517128159E+04  0.14517128159E+04  0.25500000920E-02 0. -1.
       -2   -1    0    0    0  501  0.00000000000E+00  0.00000000000E+00 -0.15416032891E+04  0.15416032891E+04  0.25500000920E-02 0.  1.
    10030    2    1    2    0    0  0.00000000000E+00  0.00000000000E+00 -0.89890473106E+02  0.29933161050E+04  0.29919660772E+04 0.  0.
        5    1    3    3  502    0  0.78518773110E+03 -0.29451884059E+03 -0.12843270602E+04  0.15338771816E+04  0.46999998093E+01 0.  1.
       -5    1    3    3    0  502 -0.78518773110E+03  0.29451884059E+03  0.11944365871E+04  0.14594389234E+04  0.46999998093E+01 0. -1.
</event>
<event>
 5   0  0.1097402E-06  0.3020825E+04  0.7818609E-02  0.8237809E-01
        1   -1    0    0  501    0  0.00000000000E+00  0.00000000000E+00  0.17252360468E+04  0.17252360468E+04  0.50400001928E-02 0. -1.
       -1   -1    0    0    0  501  0.00000000000E+00  0.00000000000E+00 -0.13223384932E+04  0.13223384932E+04  0.50400001928E-02 0.  1.
    10030    2    1    2    0    0  0.00000000000E+00  0.00000000000E+00  0.40289755365E+03  0.30475745400E+04  0.30208250757E+04 0.  0.
        4    1    3    3  502    0 -0.37353729253E+03  0.13231827661E+04  0.83228710330E+03  0.16071857940E+04  0.12699999809E+01 0. -1.
       -4    1    3    3    0  502  0.37353729253E+03 -0.13231827661E+04 -0.42938954965E+03  0.14403887460E+04  0.12699999809E+01 0.  1.
</event>
<event>
 5   0  0.1091075E-06  0.2987088E+04  0.7818609E-02  0.8247428E-01
        1   -1    0    0  501    0  0.00000000000E+00  0.00000000000E+00  0.78242714538E+03  0.78242714540E+03  0.50400001928E-02 0. -1.
       -1   -1    0    0    0  501  0.00000000000E+00  0.00000000000E+00 -0.28509666472E+04  0.28509666472E+04  0.50400001928E-02 0.  1.
    10030    2    1    2    0    0  0.00000000000E+00  0.00000000000E+00 -0.20685395018E+04  0.36333937926E+04  0.29870880104E+04 0.  0.
        1    1    3    3  502    0  0.11209038968E+04  0.71491518045E+03 -0.18620645165E+04  0.22879714869E+04  0.50400001928E-02 0.  1.
       -1    1    3    3    0  502 -0.11209038968E+04 -0.71491518045E+03 -0.20647498537E+03  0.13454223058E+04  0.50400001928E-02 0. -1.
</event>
<event>
 5   0  0.1091076E-06  0.2964576E+04  0.7818609E-02  0.8253919E-01
       -1   -1    0    0    0  501  0.00000000000E+00  0.00000000000E+00  0.15338496105E+04  0.15338496105E+04  0.50400001928E-02 0. -1.
        1   -1    0    0  501    0  0.00000000000E+00  0.00000000000E+00 -0.14324598577E+04  0.14324598577E+04  0.50400001928E-02 0.  1.
    10030    2    1    2    0    0  0.00000000000E+00  0.00000000000E+00  0.10138975282E+03  0.29663094681E+04  0.29645761887E+04 0.  0.
        3    1    3    3  502    0  0.23039679354E+03  0.56424495075E+03  0.14026780230E+04  0.15293661083E+04  0.10100000352E+00 0. -1.
       -3    1    3    3    0  502 -0.23039679354E+03 -0.56424495075E+03 -0.13012882702E+04  0.14369433598E+04  0.10100000352E+00 0.  1.
</event>
<event>
 5   0  0.2948711E-06  0.2985132E+04  0.7818609E-02  0.8247989E-01
       -2   -1    0    0    0  501  0.00000000000E+00  0.00000000000E+00  0.20693173105E+04  0.20693173105E+04  0.25500000920E-02 0.  1.
        2   -1    0    0  501    0  0.00000000000E+00  0.00000000000E+00 -0.10765646515E+04  0.10765646515E+04  0.25500000920E-02 0. -1.
    10030    2    1    2    0    0  0.00000000000E+00  0.00000000000E+00  0.99275265906E+03  0.31458819620E+04  0.29851324052E+04 0.  0.
        5    1    3    3  502    0  0.10554213473E+04 -0.67874394394E+03  0.13480568574E+04  0.18417076159E+04  0.46999998093E+01 0.  1.
       -5    1    3    3    0  502 -0.10554213473E+04  0.67874394394E+03 -0.35530419833E+03  0.13041743461E+04  0.46999998093E+01 0. -1.
</event>
<event>
 5   0  0.2970915E-06  0.3019878E+04  0.7818609E-02  0.8238077E-01
       -2   -1    0    0    0  501  0.00000000000E+00  0.00000000000E+00  0.99340130021E+03  0.99340130021E+03  0.25500000920E-02 0.  1.
        2   -1    0    0  501    0  0.00000000000E+00  0.00000000000E+00 -0.22950594993E+04  0.22950594993E+04  0.25500000920E-02 0. -1.
    10030    2    1    2    0    0  0.00000000000E+00  0.00000000000E+00 -0.13016581991E+04  0.32884607996E+04  0.30198775410E+04 0.  0.
        4    1    3    3  502    0  0.39653140231E+03 -0.20369102253E+02 -0.22371928486E+04  0.22721543760E+04  0.12699999809E+01 0. -1.
       -4    1    3    3    0  502 -0.39653140231E+03  0.20369102253E+02  0.93553464949E+03  0.10163064236E+04  0.12699999809E+01 0.  1.
</event>
<event>
 5   0  0.1113245E-06  0.2992891E+04  0.7818609E-02  0.8245764E-01
        1   -1    0    0  501    0  0.00000000000E+00  0.00000000000E+00  0.13965692313E+04  0.13965692313E+04  0.50400001928E-02 0. -1.
       -1   -1    0    0    0  501  0.00000000000E+00  0.00000000000E+00 -0.16034644862E+04  0.16034644862E+04  0.50400001928E-02 0.  1.
    10030    2    1    2    0    0  0.00000000000E+00  0.00000000000E+00 -0.20689525485E+03  0.30000337175E+04  0.29928910203E+04 0.  0.
        5    1    3    3  502    0  0.14211456798E+04  0.11522470380E+03  0.35194409636E+03  0.14686110828E+04  0.46999998093E+01 0. -1.
       -5    1    3    3    0  502 -0.14211456798E+04 -0.11522470380E+03 -0.55883935121E+03  0.15314226347E+04  0.46999998093E+01 0.  1.
</event>
<event>
 5   0  0.2970915E-06  0.3019506E+04  0.7818609E-02  0.8238183E-01
       -2   -1    0    0    0  501  0.00000000000E+00  0.00000000000E+00  0.88887529979E+03  0.88887529979E+03  0.25500000920E-02 0. -1.
        2   -1    0    0  501    0  0.00000000000E+00  0.00000000000E+00 -0.25643130414E+04  0.25643130414E+04  0.25500000920E-02 0.  1.
    10030    2    1    2    0    0  0.00000000000E+00  0.00000000000E+00 -0.16754377416E+04  0.34531883412E+04  0.30195062666E+04 0.  0.
        4    1    3    3  502    0  0.10872481103E+04  0.10296308837E+04 -0.10580109063E+04  0.18334767249E+04  0.12699999809E+01 0.  1.
       -4    1    3    3    0  502 -0.10872481103E+04 -0.10296308837E+04 -0.61742683535E+03  0.16197116163E+04  0.12699999809E+01 0. -1.
</event>
<event>
 5   0  0.1091076E-06  0.2976149E+04  0.7818609E-02  0.8250575E-01
        1   -1    0    0  501    0  0.00000000000E+00  0.00000000000E+00  0.20803122641E+04  0.20803122641E+04  0.50400001928E-02 0. -1.
       -1   -1    0    0    0  501  0.00000000000E+00  0.00000000000E+00 -0.10644392695E+04  0.10644392695E+04  0.50400001928E-02 0.  1.
    10030    2    1    2    0    0  0.00000000000E+00  0.00000000000E+00  0.10158729946E+04  0.31447515336E+04  0.29761492347E+04 0.  0.
        3    1    3    3  502    0 -0.16053785541E+03 -0.58369098510E+03  0.19443209248E+04  0.20363819479E+04  0.10100000352E+00 0. -1.
       -3    1    3    3    0  502  0.16053785541E+03  0.58369098510E+03 -0.92844793022E+03  0.11083695857E+04  0.10100000352E+00 0.  1.
</event>
<event>
 5   0  0.2862033E-06  0.2986043E+04  0.7818609E-02  0.8247728E-01
       -2   -1    0    0    0  501  0.00000000000E+00  0.00000000000E+00  0.33543453427E+04  0.33543453427E+04  0.25500000920E-02 0.  1.
        2   -1    0    0  501    0  0.00000000000E+00  0.00000000000E+00 -0.66454511883E+03  0.66454511884E+03  0.25500000920E-02 0. -1.
    10030    2    1    2    0    0  0.00000000000E+00  0.00000000000E+00  0.26898002239E+04  0.40188904615E+04  0.29860434186E+04 0.  0.
        2    1    3    3  502    0  0.17946107888E+03 -0.10373982771E+04  0.27697106936E+04  0.29630556509E+04  0.25500000920E-02 0.  1.
       -2    1    3    3    0  502 -0.17946107888E+03  0.10373982771E+04 -0.79910469702E+02  0.10558348107E+04  0.25500000920E-02 0. -1.
</event>
<event>
 5   0  0.3113328E-06  0.2999523E+04  0.7818609E-02  0.8243867E-01
        2   -1    0    0  501    0  0.00000000000E+00  0.00000000000E+00  0.11276519246E+04  0.11276519246E+04  0.25500000920E-02 0. -1.
       -2   -1    0    0    0  501  0.00000000000E+00  0.00000000000E+00 -0.19946617662E+04  0.19946617662E+04  0.25500000920E-02 0.  1.
    10030    2    1    2    0    0  0.00000000000E+00  0.00000000000E+00 -0.86700984162E+03  0.31223136908E+04  0.29995227484E+04 0.  0.
        1    1    3    3  502    0  0.18802244653E+03 -0.53361142674E+03 -0.18793173044E+04  0.19626327027E+04  0.50400001928E-02 0.  1.
       -1    1    3    3    0  502 -0.18802244653E+03  0.53361142674E+03  0.10123074627E+04  0.11596809881E+04  0.50400001928E-02 0. -1.
</event>
<event>
 5   0  0.1097402E-06  0.3000514E+04  0.7818609E-02  0.8243584E-01
       -1   -1    0    0    0  501  0.00000000000E+00  0.00000000000E+00  0.19379933151E+04  0.19379933151E+04  0.50400001928E-02 0.  1.
        1   -1    0    0  501    0  0.00000000000E+00  0.00000000000E+00 -0.11613922528E+04  0.11613922528E+04  0.50400001928E-02 0. -1.
    10030    2    1    2    0    0  0.00000000000E+00  0.00000000000E+00  0.77660106234E+03  0.30993855679E+04  0.30005135708E+04 0.  0.
        4    1    3    3  502    0  0.10892340326E+04  0.68443239495E+03  0.11856765670E+04  0.17494882153E+04  0.12699999809E+01 0.  1.
       -4    1    3    3    0  502 -0.10892340326E+04 -0.68443239495E+03 -0.40907550467E+03  0.13498973526E+04  0.12699999809E+01 0. -1.
</event>
<event>
 5   0  0.3113328E-06  0.3006289E+04  0.7818609E-02  0.8241937E-01
       -2   -1    0    0    0  501  0.00000000000E+00  0.00000000000E+00  0.93117216418E+03  0.93117216419E+03  0.25500000920E-02 0. -1.
        2   -1    0    0  501    0  0.00000000000E+00  0.00000000000E+00 -0.24264507900E+04  0.24264507900E+04  0.25500000920E-02 0.  1.
    10030    2    1    2    0    0  0.00000000000E+00  0.00000000000E+00 -0.14952786258E+04  0.33576229542E+04  0.30062890303E+04 0.  0.
        1    1    3    3  502    0  0.13192651966E+04  0.18317820984E+03  0.30511609097E+02  0.13322709461E+04  0.50400001928E-02 0.  1.
       -1    1    3    3    0  502 -0.13192651966E+04 -0.18317820984E+03 -0.15257902349E+04  0.20253520080E+04  0.50400001928E-02 0. -1.
</event>
<event>
 5   0  0.1054384E-06  0.2912932E+04  0.7818609E-02  0.8269040E-01
        1   -1    0    0  501    0  0.00000000000E+00  0.00000000000E+00  0.11336641132E+04  0.11336641133E+04  0.50400001928E-02 0.  1.
       -1   -1    0    0    0  501  0.00000000000E+00  0.00000000000E+00 -0.18711830564E+04  0.18711830564E+04  0.50400001928E-02 0. -1.
    10030    2    1    2    0    0  0.00000000000E+00  0.00000000000E+00 -0.73751894318E+03  0.30048471697E+04  0.29129319116E+04 0.  0.
        2    1    3    3  502    0  0.30019381625E+03  0.10836461104E+04 -0.13236510210E+04  0.17367951074E+04  0.25500000920E-02 0. -1.
       -2    1    3    3    0  502 -0.30019381625E+03 -0.10836461104E+04  0.58613207779E+03  0.12680520622E+04  0.25500000920E-02 0.  1.
</event>
<event>
 5   0  0.2970915E-06  0.2945452E+04  0.7818609E-02  0.8259481E-01
        2   -1    0    0  501    0  0.00000000000E+00  0.00000000000E+00  0.18505035267E+04  0.18505035267E+04  0.25500000920E-02 0. -1.
       -2   -1    0    0    0  501  0.00000000000E+00  0.00000000000E+00 -0.11720715289E+04  0.11720715289E+04  0.25500000920E-02 0.  1.
    10030    2    1    2    0    0  0.00000000000E+00  0.00000000000E+00  0.67843199776E+03  0.30225750556E+04  0.29454524256E+04 0.  0.
        4    1    3    3  502    0  0.13823002315E+04  0.31167179721E+03  0.75100553166E+03  0.16037157356E+04  0.12699999809E+01 0. -1.
       -4    1    3    3    0  502 -0.13823002315E+04 -0.31167179721E+03 -0.72573533898E+02  0.14188593200E+04  0.12699999809E+01 0.  1.
</event>
<event>
 5   0  0.2985941E-06  0.3005819E+04  0.7818609E-02  0.8242071E-01
        2   -1    0    0  501    0  0.00000000000E+00  0.00000000000E+00  0.25033428653E+04  0.25033428653E+04  0.25500000920E-02 0. -1.
       -2   -1    0    0    0  501  0.00000000000E+00  0.00000000000E+00 -0.90228825854E+03  0.90228825855E+03  0.25500000920E-02 0.  1.
    10030    2    1    2    0    0  0.00000000000E+00  0.00000000000E+00  0.16010546068E+04  0.34056311239E+04  0.30058189397E+04 0.  0.
        3    1    3    3  502    0 -0.23718633035E+03 -0.11580629957E+04 -0.25102180985E+03  0.12084615081E+04  0.10100000352E+00 0.  1.
       -3    1    3    3    0  502  0.23718633035E+03  0.11580629957E+04  0.18520764166E+04  0.21971696158E+04  0.10100000352E+00 0. -1.
</event>
<event>
 5   0  0.1054384E-06  0.2722898E+04  0.7818609E-02  0.8327613E-01
        1   -1    0    0  501    0  0.00000000000E+00  0.00000000000E+00  0.15108839351E+04  0.15108839351E+04  0.50400001928E-02 0.  1.
       -1   -1    0    0    0  501  0.00000000000E+00  0.00000000000E+00 -0.12267941668E+04  0.12267941668E+04  0.50400001928E-02 0. -1.
    10030    2    1    2    0    0  0.00000000000E+00  0.00000000000E+00  0.28408976835E+03  0.27376781019E+04  0.27228981606E+04 0.  0.
        2    1    3    3  502    0  0.10111141357E+04 -0.85837826355E+03 -0.16683359898E+03  0.13367866279E+04  0.25500000920E-02 0. -1.
       -2    1    3    3    0  502 -0.10111141357E+04  0.85837826355E+03  0.45092336732E+03  0.14008914740E+04  0.25500000920E-02 0.  1.
</event>
<event>
 5   0  0.1097402E-06  0.3010230E+04  0.7818609E-02  0.8240816E-01
       -1   -1    0    0    0  501  0.00000000000E+00  0.00000000000E+00  0.10378623340E+04  0.10378623340E+04  0.50400001928E-02 0. -1.
        1   -1    0    0  501    0  0.00000000000E+00  0.00000000000E+00 -0.21827285146E+04  0.21827285146E+04  0.50400001928E-02 0.  1.
    10030    2    1    2    0    0  0.00000000000E+00  0.00000000000E+00 -0.11448661806E+04  0.32205908486E+04  0.30102303637E+04 0.  0.
        4    1    3    3  502    0  0.10120890806E+04 -0.35776501256E+03  0.55630493726E+03  0.12090479343E+04  0.12699999809E+01 0. -1.
       -4    1    3    3    0  502 -0.10120890806E+04  0.35776501256E+03 -0.17011711179E+04  0.20115429144E+04  0.12699999809E+01 0.  1.
</event>
<event>
 5   0  0.1091076E-06  0.2979489E+04  0.7818609E-02  0.8249612E-01
        1   -1    0    0  501    0  0.00000000000E+00  0.00000000000E+00  0.21326856006E+04  0.21326856006E+04  0.50400001928E-02 0. -1.
       -1   -1    0    0    0  501  0.00000000000E+00  0.00000000000E+00 -0.10406309105E+04  0.10406309105E+04  0.50400001928E-02 0.  1.
    10030    2    1    2    0    0  0.00000000000E+00  0.00000000000E+00  0.10920546901E+04  0.31733165111E+04  0.29794889215E+04 0.  0.
        3    1    3    3  502    0 -0.18961028703E+03 -0.10192912144E+04 -0.59334741702E+03  0.11945575784E+04  0.10100000352E+00 0.  1.
       -3    1    3    3    0  502  0.18961028703E+03  0.10192912144E+04  0.16854021071E+04  0.19787589327E+04  0.10100000352E+00 0. -1.
</event>
<event>
 5   0  0.1091076E-06  0.2988171E+04  0.7818609E-02  0.8247117E-01
       -1   -1    0    0    0  501  0.00000000000E+00  0.00000000000E+00  0.11645311813E+04  0.11645311813E+04  0.50400001928E-02 0. -1.
        1   -1    0    0  501    0  0.00000000000E+00  0.00000000000E+00 -0.19169010943E+04  0.19169010943E+04  0.50400001928E-02 0.  1.
    10030    2    1    2    0    0  0.00000000000E+00  0.00000000000E+00 -0.75236991301E+03  0.30814322757E+04  0.29881707420E+04 0.  0.
        3    1    3    3  502    0  0.53095627679E+03 -0.28460185639E+03 -0.17861093247E+04  0.18849666614E+04  0.10100000352E+00 0.  1.
       -3    1    3    3    0  502 -0.53095627679E+03  0.28460185639E+03  0.10337394117E+04  0.11964656143E+04  0.10100000352E+00 0. -1.
</event>
<event>
 5   0  0.3113328E-06  0.3014803E+04  0.7818609E-02  0.8239516E-01
        2   -1    0    0  501    0  0.00000000000E+00  0.00000000000E+00  0.89062289969E+03  0.89062289969E+03  0.25500000920E-02 0.  1.
       -2   -1    0    0    0  501  0.00000000000E+00  0.00000000000E+00 -0.25513149884E+04  0.25513149884E+04  0.25500000920E-02 0. -1.
    10030    2    1    2    0    0  0.00000000000E+00  0.00000000000E+00 -0.16606920887E+04  0.34419378881E+04  0.30148031796E+04 0.  0.
        1    1    3    3  502    0 -0.14078265036E+03 -0.89422702545E+03 -0.22064354613E+04  0.23849149193E+04  0.50400001928E-02 0. -1.
       -1    1    3    3    0  502  0.14078265036E+03  0.89422702545E+03  0.54574337258E+03  0.10570229687E+04  0.50400001928E-02 0.  1.
</event>
<event>
 5   0  0.2948711E-06  0.2638269E+04  0.7818609E-02  0.8355317E-01
       -2   -1    0    0    0  501  0.00000000000E+00  0.00000000000E+00  0.74270073593E+03  0.74270073593E+03  0.25500000920E-02 0.  1.
        2   -1    0    0  501    0  0.00000000000E+00  0.00000000000E+00 -0.23429565794E+04  0.23429565794E+04  0.25500000920E-02 0. -1.
    10030    2    1    2    0    0  0.00000000000E+00  0.00000000000E+00 -0.16002558435E+04  0.30856573153E+04  0.26382688080E+04 0.  0.
        5    1    3    3  502    0  0.80154547666E+03 -0.83516163516E+03 -0.15399471475E+04  0.19265070503E+04  0.46999998093E+01 0. -1.
       -5    1    3    3    0  502 -0.80154547666E+03  0.83516163516E+03 -0.60308695985E+02  0.11591502650E+04  0.46999998093E+01 0.  1.
</event>
<event>
 5   0  0.2862033E-06  0.3019517E+04  0.7818609E-02  0.8238180E-01
        2   -1    0    0  501    0  0.00000000000E+00  0.00000000000E+00  0.12195890279E+04  0.12195890279E+04  0.25500000920E-02 0. -1.
       -2   -1    0    0    0  501  0.00000000000E+00  0.00000000000E+00 -0.18689664414E+04  0.18689664414E+04  0.25500000920E-02 0.  1.
    10030    2    1    2    0    0  0.00000000000E+00  0.00000000000E+00 -0.64937741348E+03  0.30885554693E+04  0.30195171570E+04 0.  0.
        2    1    3    3  502    0  0.84346967289E+03 -0.54917365289E+03  0.82635748834E+03  0.13022670573E+04  0.25500000920E-02 0. -1.
       -2    1    3    3    0  502 -0.84346967289E+03  0.54917365289E+03 -0.14757349018E+04  0.17862884119E+04  0.25500000920E-02 0.  1.
</event>
<event>
 5   0  0.1091075E-06  0.2980740E+04  0.7818609E-02  0.8249252E-01
       -1   -1    0    0    0  501  0.00000000000E+00  0.00000000000E+00  0.10745556760E+04  0.10745556760E+04  0.50400001928E-02 0.  1.
        1   -1    0    0  501    0  0.00000000000E+00  0.00000000000E+00 -0.20670899887E+04  0.20670899887E+04  0.50400001928E-02 0. -1.
    10030    2    1    2    0    0  0.00000000000E+00  0.00000000000E+00 -0.99253431278E+03  0.31416456647E+04  0.29807403645E+04 0.  0.
        1    1    3    3  502    0 -0.13123054660E+03 -0.14151259422E+04 -0.23264905531E+02  0.14213881048E+04  0.50400001928E-02 0.  1.
       -1    1    3    3    0  502  0.13123054660E+03  0.14151259422E+04 -0.96926940725E+03  0.17202575599E+04  0.50400001928E-02 0. -1.
</event>
<event>
 5   0  0.2862033E-06  0.2996851E+04  0.7818609E-02  0.8244631E-01
        2   -1    0    0  501    0  0.00000000000E+00  0.00000000000E+00  0.15339381131E+04  0.15339381131E+04  0.25500000920E-02 0. -1.
       -2   -1    0    0    0  501  0.00000000000E+00  0.00000000000E+00 -0.14637352571E+04  0.14637352571E+04  0.25500000920E-02 0.  1.
    10030    2    1    2    0    0  0.00000000000E+00  0.00000000000E+00  0.70202856000E+02  0.29976733702E+04  0.29968512131E+04 0.  0.
        2    1    3    3  502    0  0.62360941166E+03  0.61455907516E+03  0.12514563074E+04  0.15273226393E+04  0.25500000920E-02 0. -1.
       -2    1    3    3    0  502 -0.62360941166E+03 -0.61455907516E+03 -0.11812534514E+04  0.14703507309E+04  0.25500000920E-02 0.  1.
</event>
<event>
 5   0  0.1091075E-06  0.2980598E+04  0.7818609E-02  0.8249293E-01
        1   -1    0    0  501    0  0.00000000000E+00  0.00000000000E+00  0.21214499463E+04  0.21214499463E+04  0.50400001928E-02 0. -1.
       -1   -1    0    0    0  501  0.00000000000E+00  0.00000000000E+00 -0.10469212229E+04  0.10469212229E+04  0.50400001928E-02 0.  1.
    10030    2    1    2    0    0  0.00000000000E+00  0.00000000000E+00  0.10745287233E+04  0.31683711692E+04  0.29805979079E+04 0.  0.
        1    1    3    3  502    0  0.31929331643E+03 -0.35619710110E+03  0.20376243135E+04  0.20930211274E+04  0.50400001928E-02 0. -1.
       -1    1    3    3    0  502 -0.31929331643E+03  0.35619710110E+03 -0.96309559013E+03  0.10753500418E+04  0.50400001928E-02 0.  1.
</event>
<event>
 5   0  0.1113245E-06  0.2984631E+04  0.7818609E-02  0.8248133E-01
        1   -1    0    0  501    0  0.00000000000E+00  0.00000000000E+00  0.14481241288E+04  0.14481241288E+04  0.50400001928E-02 0. -1.
       -1   -1    0    0    0  501  0.00000000000E+00  0.00000000000E+00 -0.15378557256E+04  0.15378557256E+04  0.50400001928E-02 0.  1.
    10030    2    1    2    0    0  0.00000000000E+00  0.00000000000E+00 -0.89731596811E+02  0.29859798545E+04  0.29846312891E+04 0.  0.
        5    1    3    3  502    0 -0.61512663311E+02 -0.10130062089E+04 -0.11394435543E+04  0.15258830526E+04  0.46999998093E+01 0.  1.
       -5    1    3    3    0  502  0.61512663311E+02  0.10130062089E+04  0.10497119574E+04  0.14600968018E+04  0.46999998093E+01 0. -1.
</event>
<event>
 5   0  0.2970915E-06  0.2982648E+04  0.7818609E-02  0.8248703E-01
       -2   -1    0    0    0  501  0.00000000000E+00  0.00000000000E+00  0.18232166181E+04  0.18232166181E+04  0.25500000920E-02 0.  1.
        2   -1    0    0  501    0  0.00000000000E+00  0.00000000000E+00 -0.12198478423E+04  0.12198478423E+04  0.25500000920E-02 0. -1.
    10030    2    1    2    0    0  0.00000000000E+00  0.00000000000E+00  0.60336877576E+03  0.30430644604E+04  0.29826477215E+04 0.  0.
        4    1    3    3  502    0 -0.78275479728E+03 -0.78887496184E+03 -0.71295320953E+03  0.13203532368E+04  0.12699999809E+01 0. -1.
       -4    1    3    3    0  502  0.78275479728E+03  0.78887496184E+03  0.13163219853E+04  0.17227112236E+04  0.12699999809E+01 0.  1.
</event>
<event>
 5   0  0.1091076E-06  0.2998661E+04  0.7818609E-02  0.8244113E-01
       -1   -1    0    0    0  501  0.00000000000E+00  0.00000000000E+00  0.12211275265E+04  0.12211275265E+04  0.50400001928E-02 0. -1.
        1   -1    0    0  501    0  0.00000000000E+00  0.00000000000E+00 -0.18409151684E+04  0.18409151684E+04  0.50400001928E-02 0.  1.
    10030    2    1    2    0    0  0.00000000000E+00  0.00000000000E+00 -0.61978764195E+03  0.30620426949E+04  0.29986611586E+04 0.  0.
        3    1    3    3  502    0  0.11907525581E+04  0.58583448173E+03  0.40263602020E+03  0.13867982800E+04  0.10100000352E+00 0. -1.
       -3    1    3    3    0  502 -0.11907525581E+04 -0.58583448173E+03 -0.10224236621E+04  0.16752444149E+04  0.10100000352E+00 0.  1.
</event>
<event>
 5   0  0.1091075E-06  0.3005422E+04  0.7818609E-02  0.8242184E-01
        1   -1    0    0  501    0  0.00000000000E+00  0.00000000000E+00  0.21615775686E+04  0.21615775686E+04  0.50400001928E-02 0. -1.
       -1   -1    0    0    0  501  0.00000000000E+00  0.00000000000E+00 -0.10446723255E+04  0.10446723256E+04  0.50400001928E-02 0.  1.
    10030    2    1    2    0    0  0.00000000000E+00  0.00000000000E+00  0.11169052431E+04  0.32062498942E+04  0.30054219441E+04 0.  0.
        1    1    3    3  502    0 -0.88507167364E+03  0.75982724318E+03 -0.45218922797E+03  0.12510653080E+04  0.50400001928E-02 0.  1.
       -1    1    3    3    0  502  0.88507167364E+03 -0.75982724318E+03  0.15690944711E+04  0.19551845862E+04  0.50400001928E-02 0. -1.
</event>
<event>
 5   0  0.1054384E-06  0.3023358E+04  0.7818609E-02  0.8237092E-01
       -1   -1    0    0    0  501  0.00000000000E+00  0.00000000000E+00  0.10735893492E+04  0.10735893492E+04  0.50400001928E-02 0.  1.
        1   -1    0    0  501    0  0.00000000000E+00  0.00000000000E+00 -0.21285358241E+04  0.21285358241E+04  0.50400001928E-02 0. -1.
    10030    2    1    2    0    0  0.00000000000E+00  0.00000000000E+00 -0.10549464749E+04  0.32021251733E+04  0.30233579941E+04 0.  0.
        2    1    3    3  502    0 -0.55812991654E+02  0.28498408230E+03 -0.20987156716E+04  0.21187115159E+04  0.25500000920E-02 0. -1.
       -2    1    3    3    0  502  0.55812991654E+02 -0.28498408230E+03  0.10437691967E+04  0.10834136575E+04  0.25500000920E-02 0.  1.
</event>
<event>
 5   0  0.1097402E-06  0.3005970E+04  0.7818609E-02  0.8242028E-01
       -1   -1    0    0    0  501  0.00000000000E+00  0.00000000000E+00  0.21272505961E+04  0.21272505961E+04  0.50400001928E-02 0.  1.
        1   -1    0    0  501    0  0.00000000000E+00  0.00000000000E+00 -0.10619173260E+04  0.10619173260E+04  0.50400001928E-02 0. -1.
    10030    2    1    2    0    0  0.00000000000E+00  0.00000000000E+00  0.10653332701E+04  0.31891679221E+04  0.30059702358E+04 0.  0.
        4    1    3    3  502    0  0.31308554674E+03  0.10823214973E+03  0.20880367255E+04  0.21141513044E+04  0.12699999809E+01 0.  1.
       -4    1    3    3    0  502 -0.31308554674E+03 -0.10823214973E+03 -0.10227034554E+04  0.10750166177E+04  0.12699999809E+01 0. -1.
</event>
<event>
 5   0  0.9749500E-07  0.2803318E+04  0.7818609E-02  0.8302239E-01
       -3   -1    0    0    0  501  0.00000000000E+00  0.00000000000E+00  0.13185987400E+04  0.13185987439E+04  0.10100000352E+00 0.  1.
        3   -1    0    0  501    0  0.00000000000E+00  0.00000000000E+00 -0.14899509223E+04  0.14899509258E+04  0.10100000352E+00 0. -1.
    10030    2    1    2    0    0  0.00000000000E+00  0.00000000000E+00 -0.17135218236E+03  0.28085496696E+04  0.28033176196E+04 0.  0.
        4    1    3    3  502    0  0.68737446048E+03  0.40133936468E+03  0.10702054503E+04  0.13337534455E+04  0.12699999809E+01 0.  1.
       -4    1    3    3    0  502 -0.68737446048E+03 -0.40133936468E+03 -0.12415576327E+04  0.14747962241E+04  0.12699999809E+01 0. -1.
</event>
<event>
 5   0  0.3113328E-06  0.2988086E+04  0.7818609E-02  0.8247141E-01
       -2   -1    0    0    0  501  0.00000000000E+00  0.00000000000E+00  0.25766274880E+04  0.25766274880E+04  0.25500000920E-02 0. -1.
        2   -1    0    0  501    0  0.00000000000E+00  0.00000000000E+00 -0.86631229334E+03  0.86631229334E+03  0.25500000920E-02 0.  1.
    10030    2    1    2    0    0  0.00000000000E+00  0.00000000000E+00  0.17103151947E+04  0.34429397813E+04  0.29880857205E+04 0.  0.
        1    1    3    3  502    0 -0.17335198691E+03  0.13669326646E+04  0.18964732424E+03  0.13908709245E+04  0.50400001928E-02 0.  1.
       -1    1    3    3    0  502  0.17335198691E+03 -0.13669326646E+04  0.15206678704E+04  0.20520688568E+04  0.50400001928E-02 0. -1.
</event>
<event>
 5   0  0.1054384E-06  0.2999496E+04  0.7818609E-02  0.8243875E-01
       -1   -1    0    0    0  501  0.00000000000E+00  0.00000000000E+00  0.10706053546E+04  0.10706053546E+04  0.50400001928E-02 0. -1.
        1   -1    0    0  501    0  0.00000000000E+00  0.00000000000E+00 -0.21009090268E+04  0.21009090268E+04  0.50400001928E-02 0.  1.
    10030    2    1    2    0    0  0.00000000000E+00  0.00000000000E+00 -0.10303036722E+04  0.31715143814E+04  0.29994962601E+04 0.  0.
        2    1    3    3  502    0  0.91794770866E+02  0.64769909618E+02 -0.20964536050E+04  0.20994616307E+04  0.25500000920E-02 0.  1.
       -2    1    3    3    0  502 -0.91794770866E+02 -0.64769909618E+02  0.10661499327E+04  0.10720527507E+04  0.25500000920E-02 0. -1.
</event>
<event>
 5   0  0.2985941E-06  0.2972809E+04  0.7818609E-02  0.8251538E-01
       -2   -1    0    0    0  501  0.00000000000E+00  0.00000000000E+00  0.10829265828E+04  0.10829265828E+04  0.25500000920E-02 0. -1.
        2   -1    0    0  501    0  0.00000000000E+00  0.00000000000E+00 -0.20402112850E+04  0.20402112850E+04  0.25500000920E-02 0.  1.
    10030    2    1    2    0    0  0.00000000000E+00  0.00000000000E+00 -0.95728470215E+03  0.31231378678E+04  0.29728094692E+04 0.  0.
        3    1    3    3  502    0  0.29449386995E+03 -0.30068275836E+03 -0.19763048560E+04  0.20206230857E+04  0.10100000352E+00 0.  1.
       -3    1    3    3    0  502 -0.29449386995E+03  0.30068275836E+03  0.10190201538E+04  0.11025147821E+04  0.10100000352E+00 0. -1.
</event>
<event>
 5   0  0.1097402E-06  0.3007753E+04  0.7818609E-02  0.8241521E-01
       -1   -1    0    0    0  501  0.00000000000E+00  0.00000000000E+00  0.19796028290E+04  0.19796028290E+04  0.50400001928E-02 0. -1.
        1   -1    0    0  501    0  0.00000000000E+00  0.00000000000E+00 -0.11424736782E+04  0.11424736782E+04  0.50400001928E-02 0.  1.
    10030    2    1    2    0    0  0.00000000000E+00  0.00000000000E+00  0.83712915079E+03  0.31220765072E+04  0.30077527328E+04 0.  0.
        4    1    3    3  502    0 -0.41431863968E+03  0.92782217027E+02 -0.10789686880E+04  0.11595014090E+04  0.12699999809E+01 0.  1.
       -4    1    3    3    0  502  0.41431863968E+03 -0.92782217027E+02  0.19160978388E+04  0.19625750981E+04  0.12699999809E+01 0. -1.
</event>
<event>
 5   0  0.3113328E-06  0.3011818E+04  0.7818609E-02  0.8240364E-01
        2   -1    0    0  501    0  0.00000000000E+00  0.00000000000E+00  0.17637385955E+04  0.17637385955E+04  0.25500000920E-02 0.  1.
       -2   -1    0    0    0  501  0.00000000000E+00  0.00000000000E+00 -0.12857702007E+04  0.12857702007E+04  0.25500000920E-02 0. -1.
    10030    2    1    2    0    0  0.00000000000E+00  0.00000000000E+00  0.47796839483E+03  0.30495087961E+04  0.30118184061E+04 0.  0.
        1    1    3    3  502    0  0.13689672352E+04 -0.29262540797E+02 -0.39562470739E+03  0.14252882152E+04  0.50400001928E-02 0. -1.
       -1    1    3    3    0  502 -0.13689672352E+04  0.29262540797E+02  0.87359310222E+03  0.16242205809E+04  0.50400001928E-02 0.  1.
</event>
<event>
 5   0  0.1091076E-06  0.3069082E+04  0.7818609E-02  0.8224275E-01
        1   -1    0    0  501    0  0.00000000000E+00  0.00000000000E+00  0.88990438084E+03  0.88990438085E+03  0.50400001928E-02 0. -1.
       -1   -1    0    0    0  501  0.00000000000E+00  0.00000000000E+00 -0.26461457520E+04  0.26461457520E+04  0.50400001928E-02 0.  1.
    10030    2    1    2    0    0  0.00000000000E+00  0.00000000000E+00 -0.17562413712E+04  0.35360501329E+04  0.30690824017E+04 0.  0.
        3    1    3    3  502    0 -0.13556671546E+04  0.44030721362E+03 -0.22320264615E+03  0.14427485256E+04  0.10100000352E+00 0. -1.
       -3    1    3    3    0  502  0.13556671546E+04 -0.44030721362E+03 -0.15330387250E+04  0.20933016073E+04  0.10100000352E+00 0.  1.
</event>
<event>
 5   0  0.2970915E-06  0.3014671E+04  0.7818609E-02  0.8239554E-01
       -2   -1    0    0    0  501  0.00000000000E+00  0.00000000000E+00  0.21336205329E+04  0.21336205329E+04  0.25500000920E-02 0.  1.
        2   -1    0    0  501    0  0.00000000000E+00  0.00000000000E+00 -0.10648848765E+04  0.10648848765E+04  0.25500000920E-02 0. -1.
    10030    2    1    2    0    0  0.00000000000E+00  0.00000000000E+00  0.10687356564E+04  0.31985054094E+04  0.30146709523E+04 0.  0.
        4    1    3    3  502    0 -0.88391553400E+03  0.11666188968E+04  0.91654497254E+03  0.17269518294E+04  0.12699999809E+01 0.  1.
       -4    1    3    3    0  502  0.88391553400E+03 -0.11666188968E+04  0.15219068388E+03  0.14715535800E+04  0.12699999809E+01 0. -1.
</event>
<event>
 5   0  0.2862033E-06  0.2728633E+04  0.7818609E-02  0.8325774E-01
        2   -1    0    0  501    0  0.00000000000E+00  0.00000000000E+00  0.16913831907E+04  0.16913831907E+04  0.25500000920E-02 0. -1.
       -2   -1    0    0    0  501  0.00000000000E+00  0.00000000000E+00 -0.11004954012E+04  0.11004954012E+04  0.25500000920E-02 0.  1.
    10030    2    1    2    0    0  0.00000000000E+00  0.00000000000E+00  0.59088778951E+03  0.27918785920E+04  0.27286329347E+04 0.  0.
        2    1    3    3  502    0  0.11268391365E+04 -0.44627992417E+03  0.93640395684E+03  0.15315954364E+04  0.25500000920E-02 0. -1.
       -2    1    3    3    0  502 -0.11268391365E+04  0.44627992417E+03 -0.34551616733E+03  0.12602831556E+04  0.25500000920E-02 0.  1.
</event>
<event>
 5   0  0.2948711E-06  0.2998412E+04  0.7818609E-02  0.8244184E-01
        2   -1    0    0  501    0  0.00000000000E+00  0.00000000000E+00  0.18899292472E+04  0.18899292472E+04  0.25500000920E-02 0.  1.
       -2   -1    0    0    0  501  0.00000000000E+00  0.00000000000E+00 -0.11892609430E+04  0.11892609430E+04  0.25500000920E-02 0. -1.
    10030    2    1    2    0    0  0.00000000000E+00  0.00000000000E+00  0.70066830420E+03  0.30791901902E+04  0.29984122724E+04 0.  0.
        5    1    3    3  502    0  0.34331253398E+03  0.26417117609E+03 -0.11235834165E+04  0.12042058338E+04  0.46999998093E+01 0. -1.
       -5    1    3    3    0  502 -0.34331253398E+03 -0.26417117609E+03  0.18242517207E+04  0.18749843564E+04  0.46999998093E+01 0.  1.
</event>
<event>
 5   0  0.2862033E-06  0.2990757E+04  0.7818609E-02  0.8246375E-01
       -2   -1    0    0    0  501  0.00000000000E+00  0.00000000000E+00  0.16927871460E+04  0.16927871460E+04  0.25500000920E-02 0. -1.
        2   -1    0    0  501    0  0.00000000000E+00  0.00000000000E+00 -0.13209909897E+04  0.13209909897E+04  0.25500000920E-02 0.  1.
    10030    2    1    2    0    0  0.00000000000E+00  0.00000000000E+00  0.37179615630E+03  0.30137781356E+04  0.29907568054E+04 0.  0.
        2    1    3    3  502    0  0.13825568127E+04 -0.75208973249E+02 -0.38328318328E+03  0.14366717540E+04  0.25500000920E-02 0.  1.
       -2    1    3    3    0  502 -0.13825568127E+04  0.75208973249E+02  0.75507933958E+03  0.15771063817E+04  0.25500000920E-02 0. -1.
</event>
<event>
 5   0  0.2985941E-06  0.3281272E+04  0.7818609E-02  0.8167677E-01
        2   -1    0    0  501    0  0.00000000000E+00  0.00000000000E+00  0.16592043537E+04  0.16592043537E+04  0.25500000920E-02 0.  1.
       -2   -1    0    0    0  501  0.00000000000E+00  0.00000000000E+00 -0.16222758882E+04  0.16222758882E+04  0.25500000920E-02 0. -1.
    10030    2    1    2    0    0  0.00000000000E+00  0.00000000000E+00  0.36928465544E+02  0.32814802419E+04  0.32812724462E+04 0.  0.
        3    1    3    3  502    0  0.52875967102E+03  0.14164154064E+04  0.65558213403E+03  0.16479099908E+04  0.10100000352E+00 0.  1.
       -3    1    3    3    0  502 -0.52875967102E+03 -0.14164154064E+04 -0.61865366848E+03  0.16335702510E+04  0.10100000352E+00 0. -1.
</event>
<event>
 5   0  0.2985941E-06  0.2979581E+04  0.7818609E-02  0.8249586E-01
        2   -1    0    0  501    0  0.00000000000E+00  0.00000000000E+00  0.15624518979E+04  0.15624518979E+04  0.25500000920E-02 0. -1.
       -2   -1    0    0    0  501  0.00000000000E+00  0.00000000000E+00 -0.14205079523E+04  0.14205079523E+04  0.25500000920E-02 0.  1.
    10030    2    1    2    0    0  0.00000000000E+00  0.00000000000E+00  0.14194394555E+03  0.29829598502E+04  0.29795807397E+04 0.  0.
        3    1    3    3  502    0 -0.83761528811E+03 -0.11728300740E+04 -0.30674303983E+03  0.14735063814E+04  0.10100000352E+00 0.  1.
       -3    1    3    3    0  502  0.83761528811E+03  0.11728300740E+04  0.44868698538E+03  0.15094534688E+04  0.10100000352E+00 0. -1.
</event>
<event>
 5   0  0.2862033E-06  0.2905758E+04  0.7818609E-02  0.8271166E-01
        2   -1    0    0  501    0  0.00000000000E+00  0.00000000000E+00  0.18843824471E+04  0.18843824471E+04  0.25500000920E-02 0.  1.
       -2   -1    0    0    0  501  0.00000000000E+00  0.00000000000E+00 -0.11201854601E+04  0.11201854601E+04  0.25500000920E-02 0. -1.
    10030    2    1    2    0    0  0.00000000000E+00  0.00000000000E+00  0.76419698700E+03  0.30045679072E+04  0.29057582958E+04 0.  0.
        2    1    3    3  502    0 -0.10555848720E+03 -0.65494898072E+03 -0.95443297856E+03  0.11623437840E+04  0.25500000920E-02 0. -1.
       -2    1    3    3    0  502  0.10555848720E+03  0.65494898072E+03  0.17186299656E+04  0.18422241232E+04  0.25500000920E-02 0.  1.
</event>
<event>
 5   0  0.9749500E-07  0.3009092E+04  0.7818609E-02  0.8241139E-01
        4   -1    0    0  501    0  0.00000000000E+00  0.00000000000E+00  0.11231589438E+04  0.11231596618E+04  0.12699999809E+01 0.  1.
       -4   -1    0    0    0  501  0.00000000000E+00  0.00000000000E+00 -0.20154374084E+04  0.20154378086E+04  0.12699999809E+01 0. -1.
    10030    2    1    2    0    0  0.00000000000E+00  0.00000000000E+00 -0.89227846467E+03  0.31385974704E+04  0.30090917604E+04 0.  0.
        4    1    3    3  502    0  0.11039808598E+04 -0.13526210918E+03 -0.15029521024E+04  0.18697422849E+04  0.12699999809E+01 0. -1.
       -4    1    3    3    0  502 -0.11039808598E+04  0.13526210918E+03  0.61067363770E+03  0.12688551855E+04  0.12699999809E+01 0.  1.
</event>
<event>
 5   0  0.2985941E-06  0.2998228E+04  0.7818609E-02  0.8244237E-01
        2   -1    0    0  501    0  0.00000000000E+00  0.00000000000E+00  0.31568586785E+04  0.31568586785E+04  0.25500000920E-02 0.  1.
       -2   -1    0    0    0  501  0.00000000000E+00  0.00000000000E+00 -0.71189204282E+03  0.71189204282E+03  0.25500000920E-02 0. -1.
    10030    2    1    2    0    0  0.00000000000E+00  0.00000000000E+00  0.24449666357E+04  0.38687507213E+04  0.29982278589E+04 0.  0.
        3    1    3    3  502    0  0.80118296418E+03 -0.10082737870E+04  0.22126355216E+04  0.25601301008E+04  0.10100000352E+00 0.  1.
       -3    1    3    3    0  502 -0.80118296418E+03  0.10082737870E+04  0.23233111413E+03  0.13086206205E+04  0.10100000352E+00 0. -1.
</event>
<event>
 5   0  0.1097402E-06  0.2962322E+04  0.7818609E-02  0.8254573E-01
        1   -1    0    0  501    0  0.00000000000E+00  0.00000000000E+00  0.15313679705E+04  0.15313679705E+04  0.50400001928E-02 0. -1.
       -1   -1    0    0    0  501  0.00000000000E+00  0.00000000000E+00 -0.14326002930E+04  0.14326002930E+04  0.50400001928E-02 0.  1.
    10030    2    1    2    0    0  0.00000000000E+00  0.00000000000E+00  0.98767677477E+02  0.29639682635E+04  0.29623221993E+04 0.  0.
        4    1    3    3  502    0 -0.80254317107E+03 -0.98472804184E+02 -0.11922989534E+04  0.14406078029E+04  0.12699999809E+01 0.  1.
       -4    1    3    3    0  502  0.80254317107E+03  0.98472804184E+02  0.12910666309E+04  0.15233604606E+04  0.12699999809E+01 0. -1.
</event>
<event>
 5   0  0.3113328E-06  0.2968590E+04  0.7818609E-02  0.8252757E-01
        2   -1    0    0  501    0  0.00000000000E+00  0.00000000000E+00  0.16517606825E+04  0.16517606825E+04  0.25500000920E-02 0.  1.
       -2   -1    0    0    0  501  0.00000000000E+00  0.00000000000E+00 -0.13338081221E+04  0.13338081221E+04  0.25500000920E-02 0. -1.
    10030    2    1    2    0    0  0.00000000000E+00  0.00000000000E+00  0.31795256048E+03  0.29855688046E+04  0.29685901126E+04 0.  0.
        1    1    3    3  502    0  0.55312808102E+03 -0.11352757691E+04 -0.62543980219E+03  0.14092468528E+04  0.50400001928E-02 0. -1.
       -1    1    3    3    0  502 -0.55312808102E+03  0.11352757691E+04  0.94339236266E+03  0.15763219518E+04  0.50400001928E-02 0.  1.
</event>
<event>
 5   0  0.2862033E-06  0.3007488E+04  0.7818609E-02  0.8241596E-01
       -2   -1    0    0    0  501  0.00000000000E+00  0.00000000000E+00  0.98304916907E+03  0.98304916908E+03  0.25500000920E-02 0. -1.
        2   -1    0    0  501    0  0.00000000000E+00  0.00000000000E+00 -0.23002369079E+04  0.23002369079E+04  0.25500000920E-02 0.  1.
    10030    2    1    2    0    0  0.00000000000E+00  0.00000000000E+00 -0.13171877388E+04  0.32832860770E+04  0.30074879757E+04 0.  0.
        2    1    3    3  502    0  0.82281511062E+03  0.24972953539E+03 -0.20053583930E+04  0.21819376324E+04  0.25500000920E-02 0.  1.
       -2    1    3    3    0  502 -0.82281511062E+03 -0.24972953539E+03  0.68817065420E+03  0.11013484446E+04  0.25500000920E-02 0. -1.
</event>
<event>
 5   0  0.1054384E-06  0.3191842E+04  0.7818609E-02  0.8190975E-01
        1   -1    0    0  501    0  0.00000000000E+00  0.00000000000E+00  0.15568334719E+04  0.15568334719E+04  0.50400001928E-02 0.  1.
       -1   -1    0    0    0  501  0.00000000000E+00  0.00000000000E+00 -0.16359899487E+04  0.16359899487E+04  0.50400001928E-02 0. -1.
    10030    2    1    2    0    0  0.00000000000E+00  0.00000000000E+00 -0.79156476784E+02  0.31928234206E+04  0.31918420461E+04 0.  0.
        2    1    3    3  502    0  0.60742627355E+03 -0.12872255936E+04  0.68247990364E+03  0.15785104452E+04  0.25500000920E-02 0.  1.
       -2    1    3    3    0  502 -0.60742627355E+03  0.12872255936E+04 -0.76163638042E+03  0.16143129754E+04  0.25500000920E-02 0. -1.
</event>
<event>
 5   0  0.2948711E-06  0.2972199E+04  0.7818609E-02  0.8251715E-01
       -2   -1    0    0    0  501  0.00000000000E+00  0.00000000000E+00  0.13409011937E+04  0.13409011937E+04  0.25500000920E-02 0. -1.
        2   -1    0    0  501    0  0.00000000000E+00  0.00000000000E+00 -0.16470201923E+04  0.16470201923E+04  0.25500000920E-02 0.  1.
    10030    2    1    2    0    0  0.00000000000E+00  0.00000000000E+00 -0.30611899857E+03  0.29879213860E+04  0.29721987429E+04 0.  0.
        5    1    3    3  502    0 -0.86860097271E+03 -0.11950318625E+04 -0.31484700284E+03  0.15105361721E+04  0.46999998093E+01 0.  1.
       -5    1    3    3    0  502  0.86860097271E+03  0.11950318625E+04  0.87280042711E+01  0.14773852139E+04  0.46999998093E+01 0. -1.
</event>
<event>
 5   0  0.1091076E-06  0.2996658E+04  0.7818609E-02  0.8244686E-01
        1   -1    0    0  501    0  0.00000000000E+00  0.00000000000E+00  0.20113061342E+04  0.20113061342E+04  0.50400001928E-02 0. -1.
       -1   -1    0    0    0  501  0.00000000000E+00  0.00000000000E+00 -0.11161849631E+04  0.11161849632E+04  0.50400001928E-02 0.  1.
    10030    2    1    2    0    0  0.00000000000E+00  0.00000000000E+00  0.89512117101E+03  0.31274910973E+04  0.29966579139E+04 0.  0.
        3    1    3    3  502    0  0.61435930823E+03 -0.12649224987E+04 -0.92247982286E+02  0.14092466029E+04  0.10100000352E+00 0.  1.
       -3    1    3    3    0  502 -0.61435930823E+03  0.12649224987E+04  0.98736915330E+03  0.17182444944E+04  0.10100000352E+00 0. -1.
</event>
<event>
 5   0  0.1091076E-06  0.3008616E+04  0.7818609E-02  0.8241275E-01
        1   -1    0    0  501    0  0.00000000000E+00  0.00000000000E+00  0.22937402813E+04  0.22937402813E+04  0.50400001928E-02 0. -1.
       -1   -1    0    0    0  501  0.00000000000E+00  0.00000000000E+00 -0.98657299915E+03  0.98657299916E+03  0.50400001928E-02 0.  1.
    10030    2    1    2    0    0  0.00000000000E+00  0.00000000000E+00  0.13071672822E+04  0.32803132805E+04  0.30086157805E+04 0.  0.
        3    1    3    3  502    0  0.29651494017E+03  0.56779793639E+03  0.21376131689E+04  0.22315254147E+04  0.10100000352E+00 0. -1.
       -3    1    3    3    0  502 -0.29651494017E+03 -0.56779793639E+03 -0.83044588677E+03  0.10487878658E+04  0.10100000352E+00 0.  1.
</event>
<event>
 5   0  0.1097402E-06  0.2978664E+04  0.7818609E-02  0.8249850E-01
        1   -1    0    0  501    0  0.00000000000E+00  0.00000000000E+00  0.15648362517E+04  0.15648362517E+04  0.50400001928E-02 0.  1.
       -1   -1    0    0    0  501  0.00000000000E+00  0.00000000000E+00 -0.14174707082E+04  0.14174707082E+04  0.50400001928E-02 0. -1.
    10030    2    1    2    0    0  0.00000000000E+00  0.00000000000E+00  0.14736554352E+03  0.29823069599E+04  0.29786638279E+04 0.  0.
        4    1    3    3  502    0  0.83043485677E+03  0.12331853858E+04  0.16176588000E+03  0.14955059545E+04  0.12699999809E+01 0.  1.
       -4    1    3    3    0  502 -0.83043485677E+03 -0.12331853858E+04 -0.14400336480E+02  0.14868010054E+04  0.12699999809E+01 0. -1.
</event>
<event>
 5   0  0.2970915E-06  0.2988937E+04  0.7818609E-02  0.8246897E-01
        2   -1    0    0  501    0  0.00000000000E+00  0.00000000000E+00  0.15050670129E+04  0.15050670129E+04  0.25500000920E-02 0.  1.
       -2   -1    0    0    0  501  0.00000000000E+00  0.00000000000E+00 -0.14839445244E+04  0.14839445244E+04  0.25500000920E-02 0. -1.
    10030    2    1    2    0    0  0.00000000000E+00  0.00000000000E+00  0.21122488477E+02  0.29890115373E+04  0.29889369031E+04 0.  0.
        4    1    3    3  502    0  0.41402440251E+03  0.11361526677E+04  0.88874901623E+03  0.15007116701E+04  0.12699999809E+01 0. -1.
       -4    1    3    3    0  502 -0.41402440251E+03 -0.11361526677E+04 -0.86762652775E+03  0.14882998672E+04  0.12699999809E+01 0.  1.
</event>
<event>
 5   0  0.2862033E-06  0.3085751E+04  0.7818609E-02  0.8219659E-01
       -2   -1    0    0    0  501  0.00000000000E+00  0.00000000000E+00  0.12358115688E+04  0.12358115688E+04  0.25500000920E-02 0. -1.
        2   -1    0    0  501    0  0.00000000000E+00  0.00000000000E+00 -0.19262365677E+04  0.19262365677E+04  0.25500000920E-02 0.  1.
    10030    2    1    2    0    0  0.00000000000E+00  0.00000000000E+00 -0.69042499886E+03  0.31620481365E+04  0.30857514058E+04 0.  0.
        2    1    3    3  502    0  0.11878338493E+04 -0.60414384081E+03 -0.11419498507E+04  0.17549895998E+04  0.25500000920E-02 0.  1.
       -2    1    3    3    0  502 -0.11878338493E+04  0.60414384081E+03  0.45152485186E+03  0.14070585367E+04  0.25500000920E-02 0. -1.
</event>
<event>
 5   0  0.2970915E-06  0.3012638E+04  0.7818609E-02  0.8240131E-01
       -2   -1    0    0    0  501  0.00000000000E+00  0.00000000000E+00  0.13165512597E+04  0.13165512597E+04  0.25500000920E-02 0. -1.
        2   -1    0    0  501    0  0.00000000000E+00  0.00000000000E+00 -0.17234400556E+04  0.17234400556E+04  0.25500000920E-02 0.  1.
    10030    2    1    2    0    0  0.00000000000E+00  0.00000000000E+00 -0.40688879592E+03  0.30399913153E+04  0.30126381637E+04 0.  0.
        4    1    3    3  502    0  0.35567686915E+02  0.12240359445E+04  0.68171244407E+03  0.14015215029E+04  0.12699999809E+01 0. -1.
       -4    1    3    3    0  502 -0.35567686915E+02 -0.12240359445E+04 -0.10886012400E+04  0.16384698125E+04  0.12699999809E+01 0.  1.
</event>
<event>
 5   0  0.3113328E-06  0.2975702E+04  0.7818609E-02  0.8250704E-01
        2   -1    0    0  501    0  0.00000000000E+00  0.00000000000E+00  0.25083784825E+04  0.25083784825E+04  0.25500000920E-02 0.  1.
       -2   -1    0    0    0  501  0.00000000000E+00  0.00000000000E+00 -0.88252247379E+03  0.88252247379E+03  0.25500000920E-02 0. -1.
    10030    2    1    2    0    0  0.00000000000E+00  0.00000000000E+00  0.16258560088E+04  0.33909009563E+04  0.29757018558E+04 0.  0.
        1    1    3    3  502    0  0.31783429004E+03 -0.97757542607E+03 -0.41280993822E+03  0.11077384144E+04  0.50400001928E-02 0. -1.
       -1    1    3    3    0  502 -0.31783429004E+03  0.97757542607E+03  0.20386659470E+04  0.22831625420E+04  0.50400001928E-02 0.  1.
</event>
<event>
 5   0  0.2985941E-06  0.3006719E+04  0.7818609E-02  0.8241815E-01
       -2   -1    0    0    0  501  0.00000000000E+00  0.00000000000E+00  0.95716608601E+03  0.95716608602E+03  0.25500000920E-02 0.  1.
        2   -1    0    0  501    0  0.00000000000E+00  0.00000000000E+00 -0.23612305678E+04  0.23612305678E+04  0.25500000920E-02 0. -1.
    10030    2    1    2    0    0  0.00000000000E+00  0.00000000000E+00 -0.14040644817E+04  0.33183966538E+04  0.30067190229E+04 0.  0.
        3    1    3    3  502    0 -0.13928068793E+04 -0.22049332181E+03 -0.12689756481E+03  0.14158500310E+04  0.10100000352E+00 0.  1.
       -3    1    3    3    0  502  0.13928068793E+04  0.22049332181E+03 -0.12771669169E+04  0.19025466228E+04  0.10100000352E+00 0. -1.
</event>
<event>
 5   0  0.1091075E-06  0.2998599E+04  0.7818609E-02  0.8244131E-01
       -1   -1    0    0    0  501  0.00000000000E+00  0.00000000000E+00  0.20209267187E+04  0.20209267187E+04  0.50400001928E-02 0. -1.
        1   -1    0    0  501    0  0.00000000000E+00  0.00000000000E+00 -0.11123106259E+04  0.11123106259E+04  0.50400001928E-02 0.  1.
    10030    2    1    2    0    0  0.00000000000E+00  0.00000000000E+00  0.90861609278E+03  0.31332373445E+04  0.29985985148E+04 0.  0.
        1    1    3    3  502    0  0.23904370640E+03 -0.72117216497E+03 -0.89627075854E+03  0.11749606197E+04  0.50400001928E-02 0.  1.
       -1    1    3    3    0  502 -0.23904370640E+03  0.72117216497E+03  0.18048868513E+04  0.19582767249E+04  0.50400001928E-02 0. -1.
</event>
<event>
 5   0  0.2862033E-06  0.2979293E+04  0.7818609E-02  0.8249669E-01
        2   -1    0    0  501    0  0.00000000000E+00  0.00000000000E+00  0.24105949375E+04  0.24105949375E+04  0.25500000920E-02 0.  1.
       -2   -1    0    0    0  501  0.00000000000E+00  0.00000000000E+00 -0.92053886690E+03  0.92053886691E+03  0.25500000920E-02 0. -1.
    10030    2    1    2    0    0  0.00000000000E+00  0.00000000000E+00  0.14900560706E+04  0.33311338044E+04  0.29792927566E+04 0.  0.
        2    1    3    3  502    0 -0.64752816947E+03 -0.19584750952E+02 -0.75479196084E+03  0.99467944428E+03  0.25500000920E-02 0. -1.
       -2    1    3    3    0  502  0.64752816947E+03  0.19584750952E+02  0.22448480314E+04  0.23364543601E+04  0.25500000920E-02 0.  1.
</event>
<event>
 5   0  0.1054384E-06  0.3009246E+04  0.7818609E-02  0.8241096E-01
       -1   -1    0    0    0  501  0.00000000000E+00  0.00000000000E+00  0.15904499480E+04  0.15904499480E+04  0.50400001928E-02 0.  1.
        1   -1    0    0  501    0  0.00000000000E+00  0.00000000000E+00 -0.14234273626E+04  0.14234273626E+04  0.50400001928E-02 0. -1.
    10030    2    1    2    0    0  0.00000000000E+00  0.00000000000E+00  0.16702258538E+03  0.30138773107E+04  0.30092457360E+04 0.  0.
        2    1    3    3  502    0 -0.44685370758E+03  0.48777804625E+03 -0.12699695403E+04  0.14319316644E+04  0.25500000920E-02 0. -1.
       -2    1    3    3    0  502  0.44685370758E+03 -0.48777804625E+03  0.14369921257E+04  0.15819456462E+04  0.25500000920E-02 0.  1.
</event>
<event>
 5   0  0.2862033E-06  0.2892256E+04  0.7818609E-02  0.8275185E-01
       -2   -1    0    0    0  501  0.00000000000E+00  0.00000000000E+00  0.16326759389E+04  0.16326759389E+04  0.25500000920E-02 0.  1.
        2   -1    0    0  501    0  0.00000000000E+00  0.00000000000E+00 -0.12808952446E+04  0.12808952446E+04  0.25500000920E-02 0. -1.
    10030    2    1    2    0    0  0.00000000000E+00  0.00000000000E+00  0.35178069431E+03  0.29135711836E+04  0.28922564521E+04 0.  0.
        2    1    3    3  502    0 -0.54101433366E+03 -0.13309669895E+04  0.34177695879E+03  0.14768145198E+04  0.25500000920E-02 0.  1.
       -2    1    3    3    0  502  0.54101433366E+03  0.13309669895E+04  0.10003735524E+02  0.14367566638E+04  0.25500000920E-02 0. -1.
</event>
<event>
 5   0  0.2970915E-06  0.3052510E+04  0.7818609E-02  0.8228893E-01
       -2   -1    0    0    0  501  0.00000000000E+00  0.00000000000E+00  0.23775840032E+04  0.23775840032E+04  0.25500000920E-02 0.  1.
        2   -1    0    0  501    0  0.00000000000E+00  0.00000000000E+00 -0.97975698191E+03  0.97975698191E+03  0.25500000920E-02 0. -1.
    10030    2    1    2    0    0  0.00000000000E+00  0.00000000000E+00  0.13978270213E+04  0.33573409851E+04  0.30525101325E+04 0.  0.
        4    1    3    3  502    0  0.88619388616E+03  0.10077655451E+04 -0.10068106371E+03  0.13457597435E+04  0.12699999809E+01 0. -1.
       -4    1    3    3    0  502 -0.88619388616E+03 -0.10077655451E+04  0.14985080850E+04  0.20115812416E+04  0.12699999809E+01 0.  1.
</event>
<event>
 5   0  0.1091075E-06  0.3035449E+04  0.7818609E-02  0.8233680E-01
        1   -1    0    0  501    0  0.00000000000E+00  0.00000000000E+00  0.24424232547E+04  0.24424232547E+04  0.50400001928E-02 0.  1.
       -1   -1    0    0    0  501  0.00000000000E+00  0.00000000000E+00 -0.94311541475E+03  0.94311541476E+03  0.50400001928E-02 0. -1.
    10030    2    1    2    0    0  0.00000000000E+00  0.00000000000E+00  0.14993078400E+04  0.33855386695E+04  0.30354485803E+04 0.  0.
        1    1    3    3  502    0  0.12253190448E+04  0.52957666961E+02  0.17467872087E+04  0.21343563031E+04  0.50400001928E-02 0.  1.
       -1    1    3    3    0  502 -0.12253190448E+04 -0.52957666961E+02 -0.24747936872E+03  0.12511823664E+04  0.50400001928E-02 0. -1.
</event>
<event>
 5   0  0.1091076E-06  0.2995175E+04  0.7818609E-02  0.8245110E-01
        1   -1    0    0  501    0  0.00000000000E+00  0.00000000000E+00  0.21533540573E+04  0.21533540573E+04  0.50400001928E-02 0.  1.
       -1   -1    0    0    0  501  0.00000000000E+00  0.00000000000E+00 -0.10415232329E+04  0.10415232329E+04  0.50400001928E-02 0. -1.
    10030    2    1    2    0    0  0.00000000000E+00  0.00000000000E+00  0.11118308243E+04  0.31948772902E+04  0.29951749728E+04 0.  0.
        3    1    3    3  502    0 -0.70682816087E+02  0.14955646014E+04  0.59062304093E+03  0.16095170469E+04  0.10100000352E+00 0. -1.
       -3    1    3    3    0  502  0.70682816087E+02 -0.14955646014E+04  0.52120778341E+03  0.15853602433E+04  0.10100000352E+00 0.  1.
</event>
<event>
 5   0  0.2985941E-06  0.2991871E+04  0.7818609E-02  0.8246056E-01
       -2   -1    0    0    0  501  0.00000000000E+00  0.00000000000E+00  0.26913617167E+04  0.26913617167E+04  0.25500000920E-02 0. -1.
        2   -1    0    0  501    0  0.00000000000E+00  0.00000000000E+00 -0.83148352071E+03  0.83148352072E+03  0.25500000920E-02 0.  1.
    10030    2    1    2    0    0  0.00000000000E+00  0.00000000000E+00  0.18598781960E+04  0.35228452374E+04  0.29918709302E+04 0.  0.
        3    1    3    3  502    0 -0.93629585984E+03  0.77494607090E+03 -0.96983899465E+02  0.12192609388E+04  0.10100000352E+00 0.  1.
       -3    1    3    3    0  502  0.93629585984E+03 -0.77494607090E+03  0.19568620954E+04  0.23035842986E+04  0.10100000352E+00 0. -1.
</event>
<event>
 5   0  0.1113245E-06  0.2978079E+04  0.7818609E-02  0.8250018E-01
        1   -1    0    0  501    0  0.00000000000E+00  0.00000000000E+00  0.15312491854E+04  0.15312491854E+04  0.50400001928E-02 0.  1.
       -1   -1    0    0    0  501  0.00000000000E+00  0.00000000000E+00 -0.14479931660E+04  0.14479931660E+04  0.50400001928E-02 0. -1.
    10030    2    1    2    0    0  0.00000000000E+00  0.00000000000E+00  0.83256019404E+02  0.29792423514E+04  0.29780788142E+04 0.  0.
        5    1    3    3  502    0  0.10839082052E+04  0.81393057259E+03 -0.57495384656E+03  0.14723905698E+04  0.46999998093E+01 0. -1.
       -5    1    3    3    0  502 -0.10839082052E+04 -0.81393057259E+03  0.65820986597E+03  0.15068517817E+04  0.46999998093E+01 0.  1.
</event>
<event>
 5   0  0.1097402E-06  0.2947564E+04  0.7818609E-02  0.8258865E-01
        1   -1    0    0  501    0  0.00000000000E+00  0.00000000000E+00  0.20218846697E+04  0.20218846697E+04  0.50400001928E-02 0.  1.
       -1   -1    0    0    0  501  0.00000000000E+00  0.00000000000E+00 -0.10742614228E+04  0.10742614229E+04  0.50400001928E-02 0. -1.
    10030    2    1    2    0    0  0.00000000000E+00  0.00000000000E+00  0.94762324689E+03  0.30961460926E+04  0.29475635377E+04 0.  0.
        4    1    3    3  502    0  0.18778662387E+03 -0.62052741187E+03  0.18640515161E+04  0.19735773996E+04  0.12699999809E+01 0.  1.
       -4    1    3    3    0  502 -0.18778662387E+03  0.62052741187E+03 -0.91642826917E+03  0.11225686930E+04  0.12699999809E+01 0. -1.
</event>
<event>
 5   0  0.2970915E-06  0.3013660E+04  0.7818609E-02  0.8239841E-01
       -2   -1    0    0    0  501  0.00000000000E+00  0.00000000000E+00  0.14070730636E+04  0.14070730636E+04  0.25500000920E-02 0.  1.
        2   -1    0    0  501    0  0.00000000000E+00  0.00000000000E+00 -0.16136589018E+04  0.16136589018E+04  0.25500000920E-02 0. -1.
    10030    2    1    2    0    0  0.00000000000E+00  0.00000000000E+00 -0.20658583815E+03  0.30207319654E+04  0.30136595525E+04 0.  0.
        4    1    3    3  502    0  0.27341983907E+03 -0.86199903639E+03 -0.13114154808E+04  0.15929886764E+04  0.12699999809E+01 0. -1.
       -4    1    3    3    0  502 -0.27341983907E+03  0.86199903639E+03  0.11048296426E+04  0.14277432890E+04  0.12699999809E+01 0.  1.
</event>
<event>
 5   0  0.3113328E-06  0.3024995E+04  0.7818609E-02  0.8236629E-01
       -2   -1    0    0    0  501  0.00000000000E+00  0.00000000000E+00  0.13694901949E+04  0.13694901949E+04  0.25500000920E-02 0. -1.
        2   -1    0    0  501    0  0.00000000000E+00  0.00000000000E+00 -0.16704385747E+04  0.16704385747E+04  0.25500000920E-02 0.  1.
    10030    2    1    2    0    0  0.00000000000E+00  0.00000000000E+00 -0.30094837974E+03  0.30399287696E+04  0.30249953714E+04 0.  0.
        1    1    3    3  502    0 -0.15049759579E+04  0.11326880082E+03 -0.50652084370E+02  0.15100821464E+04  0.50400001928E-02 0. -1.
       -1    1    3    3    0  502  0.15049759579E+04 -0.11326880082E+03 -0.25029629537E+03  0.15298466232E+04  0.50400001928E-02 0.  1.
</event>
<event>
 5   0  0.1054384E-06  0.3007873E+04  0.7818609E-02  0.8241486E-01
        1   -1    0    0  501    0  0.00000000000E+00  0.00000000000E+00  0.24248313877E+04  0.24248313877E+04  0.50400001928E-02 0.  1.
       -1   -1    0    0    0  501  0.00000000000E+00  0.00000000000E+00 -0.93277634652E+03  0.93277634653E+03  0.50400001928E-02 0. -1.
    10030    2    1    2    0    0  0.00000000000E+00  0.00000000000E+00  0.14920550412E+04  0.33576077343E+04  0.30078732439E+04 0.  0.
        2    1    3    3  502    0 -0.99340399108E+03  0.87395167858E+03  0.15441294222E+04  0.20334647030E+04  0.25500000920E-02 0.  1.
       -2    1    3    3    0  502  0.99340399108E+03 -0.87395167858E+03 -0.52074380994E+02  0.13241430312E+04  0.25500000920E-02 0. -1.
</event>
<event>
 5   0  0.2862033E-06  0.2995286E+04  0.7818609E-02  0.8245078E-01
        2   -1    0    0  501    0  0.00000000000E+00  0.00000000000E+00  0.16582171233E+04  0.16582171233E+04  0.25500000920E-02 0. -1.
       -2   -1    0    0    0  501  0.00000000000E+00  0.00000000000E+00 -0.13526182070E+04  0.13526182070E+04  0.25500000920E-02 0.  1.
    10030    2    1    2    0    0  0.00000000000E+00  0.00000000000E+00  0.30559891622E+03  0.30108353303E+04  0.29952860779E+04 0.  0.
        2    1    3    3  502    0  0.14732369860E+04  0.26107007920E+03  0.21909537595E+03  0.15121466817E+04  0.25500000920E-02 0. -1.
       -2    1    3    3    0  502 -0.14732369860E+04 -0.26107007920E+03  0.86503540272E+02  0.14986886486E+04  0.25500000920E-02 0.  1.
</event>
<event>
 5   0  0.3113328E-06  0.3005028E+04  0.7818609E-02  0.8242296E-01
        2   -1    0    0  501    0  0.00000000000E+00  0.00000000000E+00  0.18322418209E+04  0.18322418209E+04  0.25500000920E-02 0. -1.
       -2   -1    0    0    0  501  0.00000000000E+00  0.00000000000E+00 -0.12321238703E+04  0.12321238703E+04  0.25500000920E-02 0.  1.
    10030    2    1    2    0    0  0.00000000000E+00  0.00000000000E+00  0.60011795061E+03  0.30643656912E+04  0.30050283750E+04 0.  0.
        1    1    3    3  502    0  0.91540696319E+03 -0.81432529836E+03  0.11869761613E+04  0.17058745579E+04  0.50400001928E-02 0. -1.
       -1    1    3    3    0  502 -0.91540696319E+03  0.81432529836E+03 -0.58685821067E+03  0.13584911333E+04  0.50400001928E-02 0.  1.
</event>
<event>
 5   0  0.2985941E-06  0.3001055E+04  0.7818609E-02  0.8243430E-01
       -2   -1    0    0    0  501  0.00000000000E+00  0.00000000000E+00  0.10293542218E+04  0.10293542218E+04  0.25500000920E-02 0.  1.
        2   -1    0    0  501    0  0.00000000000E+00  0.00000000000E+00 -0.21873737634E+04  0.21873737634E+04  0.25500000920E-02 0. -1.
    10030    2    1    2    0    0  0.00000000000E+00  0.00000000000E+00 -0.11580195416E+04  0.32167279853E+04  0.30010547600E+04 0.  0.
        3    1    3    3  502    0  0.91708833875E+03 -0.24636771910E+03 -0.18243288808E+04  0.20566778916E+04  0.10100000352E+00 0. -1.
       -3    1    3    3    0  502 -0.91708833875E+03  0.24636771910E+03  0.66630933921E+03  0.11600500937E+04  0.10100000352E+00 0.  1.
</event>
<event>
 5   0  0.2862033E-06  0.2990926E+04  0.7818609E-02  0.8246327E-01
       -2   -1    0    0    0  501  0.00000000000E+00  0.00000000000E+00  0.18070703205E+04  0.18070703205E+04  0.25500000920E-02 0. -1.
        2   -1    0    0  501    0  0.00000000000E+00  0.00000000000E+00 -0.12375882702E+04  0.12375882702E+04  0.25500000920E-02 0.  1.
    10030    2    1    2    0    0  0.00000000000E+00  0.00000000000E+00  0.56948205032E+03  0.30446585908E+04  0.29909256308E+04 0.  0.
        2    1    3    3  502    0  0.14364824267E+04  0.12753804509E+03  0.68765643049E+03  0.15976917980E+04  0.25500000920E-02 0. -1.
       -2    1    3    3    0  502 -0.14364824267E+04 -0.12753804509E+03 -0.11817438017E+03  0.14469667927E+04  0.25500000920E-02 0.  1.
</event>
<event>
 5   0  0.1113245E-06  0.2990863E+04  0.7818609E-02  0.8246345E-01
        1   -1    0    0  501    0  0.00000000000E+00  0.00000000000E+00  0.12734895410E+04  0.12734895410E+04  0.50400001928E-02 0.  1.
       -1   -1    0    0    0  501  0.00000000000E+00  0.00000000000E+00 -0.17560532037E+04  0.17560532037E+04  0.50400001928E-02 0. -1.
    10030    2    1    2    0    0  0.00000000000E+00  0.00000000000E+00 -0.48256366268E+03  0.30295427447E+04  0.29908630115E+04 0.  0.
        5    1    3    3  502    0 -0.11878980690E+04 -0.56580226585E+03 -0.96114795566E+03  0.16294359481E+04  0.46999998093E+01 0.  1.
       -5    1    3    3    0  502  0.11878980690E+04  0.56580226585E+03  0.47858429298E+03  0.14001067966E+04  0.46999998093E+01 0. -1.
</event>
<event>
 5   0  0.2970915E-06  0.3000179E+04  0.7818609E-02  0.8243680E-01
       -2   -1    0    0    0  501  0.00000000000E+00  0.00000000000E+00  0.11506891516E+04  0.11506891516E+04  0.25500000920E-02 0. -1.
        2   -1    0    0  501    0  0.00000000000E+00  0.00000000000E+00 -0.19555839043E+04  0.19555839043E+04  0.25500000920E-02 0.  1.
    10030    2    1    2    0    0  0.00000000000E+00  0.00000000000E+00 -0.80489475265E+03  0.31062730559E+04  0.30001794505E+04 0.  0.
        4    1    3    3  502    0 -0.20581986873E+01  0.33730024255E+03  0.11109153071E+04  0.11609953154E+04  0.12699999809E+01 0. -1.
       -4    1    3    3    0  502  0.20581986873E+01 -0.33730024255E+03 -0.19158100598E+04  0.19452777405E+04  0.12699999809E+01 0.  1.
</event>
<event>
 5   0  0.1091076E-06  0.2988592E+04  0.7818609E-02  0.8246996E-01
        1   -1    0    0  501    0  0.00000000000E+00  0.00000000000E+00  0.17355138052E+04  0.17355138052E+04  0.50400001928E-02 0. -1.
       -1   -1    0    0    0  501  0.00000000000E+00  0.00000000000E+00 -0.12866048393E+04  0.12866048393E+04  0.50400001928E-02 0.  1.
    10030    2    1    2    0    0  0.00000000000E+00  0.00000000000E+00  0.44890896596E+03  0.30221186445E+04  0.29885919497E+04 0.  0.
        3    1    3    3  502    0 -0.13812526009E+04 -0.54402296900E+03  0.51951466009E+02  0.14854355265E+04  0.10100000352E+00 0.  1.
       -3    1    3    3    0  502  0.13812526009E+04  0.54402296900E+03  0.39695749995E+03  0.15366831180E+04  0.10100000352E+00 0. -1.
</event>
<event>
 5   0  0.1091076E-06  0.3138034E+04  0.7818609E-02  0.8205377E-01
       -1   -1    0    0    0  501  0.00000000000E+00  0.00000000000E+00  0.15967191562E+04  0.15967191562E+04  0.50400001928E-02 0.  1.
        1   -1    0    0  501    0  0.00000000000E+00  0.00000000000E+00 -0.15417950311E+04  0.15417950311E+04  0.50400001928E-02 0. -1.
    10030    2    1    2    0    0  0.00000000000E+00  0.00000000000E+00  0.54924125122E+02  0.31385141873E+04  0.31380335633E+04 0.  0.
        3    1    3    3  502    0  0.31526566771E+03 -0.15365237141E+04 -0.11480843877E+02  0.15685755912E+04  0.10100000352E+00 0. -1.
       -3    1    3    3    0  502 -0.31526566771E+03  0.15365237141E+04  0.66404968999E+02  0.15699385961E+04  0.10100000352E+00 0.  1.
</event>
<event>
 5   0  0.2985941E-06  0.3011487E+04  0.7818609E-02  0.8240458E-01
        2   -1    0    0  501    0  0.00000000000E+00  0.00000000000E+00  0.12863642138E+04  0.12863642138E+04  0.25500000920E-02 0. -1.
       -2   -1    0    0    0  501  0.00000000000E+00  0.00000000000E+00 -0.17625361411E+04  0.17625361411E+04  0.25500000920E-02 0.  1.
    10030    2    1    2    0    0  0.00000000000E+00  0.00000000000E+00 -0.47617192732E+03  0.30489003549E+04  0.30114869532E+04 0.  0.
        3    1    3    3  502    0 -0.95640501013E+03  0.11341640419E+04  0.22452914527E+02  0.14837596709E+04  0.10100000352E+00 0.  1.
       -3    1    3    3    0  502  0.95640501013E+03 -0.11341640419E+04 -0.49862484185E+03  0.15651406839E+04  0.10100000352E+00 0. -1.
</event>
<event>
 5   0  0.1091076E-06  0.3008837E+04  0.7818609E-02  0.8241212E-01
        1   -1    0    0  501    0  0.00000000000E+00  0.00000000000E+00  0.14902093490E+04  0.14902093490E+04  0.50400001928E-02 0.  1.
       -1   -1    0    0    0  501  0.00000000000E+00  0.00000000000E+00 -0.15187634087E+04  0.15187634087E+04  0.50400001928E-02 0. -1.
    10030    2    1    2    0    0  0.00000000000E+00  0.00000000000E+00 -0.28554059736E+02  0.30089727577E+04  0.30088372708E+04 0.  0.
        3    1    3    3  502    0 -0.20391768670E+03  0.14210664188E+04 -0.46403412751E+03  0.15087544105E+04  0.10100000352E+00 0. -1.
       -3    1    3    3    0  502  0.20391768670E+03 -0.14210664188E+04  0.43548006778E+03  0.15002183472E+04  0.10100000352E+00 0.  1.
</event>
<event>
 5   0  0.1097402E-06  0.3001115E+04  0.7818609E-02  0.8243412E-01
       -1   -1    0    0    0  501  0.00000000000E+00  0.00000000000E+00  0.16523856257E+04  0.16523856257E+04  0.50400001928E-02 0.  1.
        1   -1    0    0  501    0  0.00000000000E+00  0.00000000000E+00 -0.13626803192E+04  0.13626803192E+04  0.50400001928E-02 0. -1.
    10030    2    1    2    0    0  0.00000000000E+00  0.00000000000E+00  0.28970530655E+03  0.30150659449E+04  0.30011153739E+04 0.  0.
        4    1    3    3  502    0  0.38039460018E+03  0.43699217772E+03  0.15354870196E+04  0.16411533187E+04  0.12699999809E+01 0.  1.
       -4    1    3    3    0  502 -0.38039460018E+03 -0.43699217772E+03 -0.12457817130E+04  0.13739126263E+04  0.12699999809E+01 0. -1.
</event>
<event>
 5   0  0.1113245E-06  0.3004434E+04  0.7818609E-02  0.8242466E-01
        1   -1    0    0  501    0  0.00000000000E+00  0.00000000000E+00  0.14766605865E+04  0.14766605865E+04  0.50400001928E-02 0. -1.
       -1   -1    0    0    0  501  0.00000000000E+00  0.00000000000E+00 -0.15282157501E+04  0.15282157501E+04  0.50400001928E-02 0.  1.
    10030    2    1    2    0    0  0.00000000000E+00  0.00000000000E+00 -0.51555163605E+02  0.30048763367E+04  0.30044340338E+04 0.  0.
        5    1    3    3  502    0 -0.73147503483E+03 -0.12472871562E+04  0.38153278593E+03  0.14954498765E+04  0.46999998093E+01 0. -1.
       -5    1    3    3    0  502  0.73147503483E+03  0.12472871562E+04 -0.43308794954E+03  0.15094264601E+04  0.46999998093E+01 0.  1.
</event>
<event>
 5   0  0.1097402E-06  0.2963073E+04  0.7818609E-02  0.8254355E-01
       -1   -1    0    0    0  501  0.00000000000E+00  0.00000000000E+00  0.11136342254E+04  0.11136342254E+04  0.50400001928E-02 0. -1.
        1   -1    0    0  501    0  0.00000000000E+00  0.00000000000E+00 -0.19709793535E+04  0.19709793535E+04  0.50400001928E-02 0.  1.
    10030    2    1    2    0    0  0.00000000000E+00  0.00000000000E+00 -0.85734512808E+03  0.30846135789E+04  0.29630727738E+04 0.  0.
        4    1    3    3  502    0  0.35767237353E+03 -0.10294498658E+04  0.61611379970E+03  0.12519162832E+04  0.12699999809E+01 0. -1.
       -4    1    3    3    0  502 -0.35767237353E+03  0.10294498658E+04 -0.14734589278E+04  0.18326972957E+04  0.12699999809E+01 0.  1.
</event>
<event>
 5   0  0.2985941E-06  0.2937831E+04  0.7818609E-02  0.8261710E-01
        2   -1    0    0  501    0  0.00000000000E+00  0.00000000000E+00  0.20659831268E+04  0.20659831268E+04  0.25500000920E-02 0. -1.
       -2   -1    0    0    0  501  0.00000000000E+00  0.00000000000E+00 -0.10444002652E+04  0.10444002652E+04  0.25500000920E-02 0.  1.
    10030    2    1    2    0    0  0.00000000000E+00  0.00000000000E+00  0.10215828617E+04  0.31103833920E+04  0.29378313944E+04 0.  0.
        3    1    3    3  502    0 -0.66354895092E+03  0.12520259001E+04  0.92062869731E+03  0.16897997731E+04  0.10100000352E+00 0. -1.
       -3    1    3    3    0  502  0.66354895092E+03 -0.12520259001E+04  0.10095416438E+03  0.14205836189E+04  0.10100000352E+00 0.  1.
</event>
<event>
 5   0  0.1091075E-06  0.2997149E+04  0.7818609E-02  0.8244545E-01
       -1   -1    0    0    0  501  0.00000000000E+00  0.00000000000E+00  0.16644629495E+04  0.16644629495E+04  0.50400001928E-02 0. -1.
        1   -1    0    0  501    0  0.00000000000E+00  0.00000000000E+00 -0.13492195287E+04  0.13492195287E+04  0.50400001928E-02 0.  1.
    10030    2    1    2    0    0  0.00000000000E+00  0.00000000000E+00  0.31524342082E+03  0.30136824783E+04  0.29971492564E+04 0.  0.
        1    1    3    3  502    0  0.12966750475E+04 -0.57624864827E+03  0.64225265401E+03  0.15575356031E+04  0.50400001928E-02 0. -1.
       -1    1    3    3    0  502 -0.12966750475E+04  0.57624864827E+03 -0.32700923318E+03  0.14561468751E+04  0.50400001928E-02 0.  1.
</event>
<event>
 5   0  0.2985941E-06  0.3016577E+04  0.7818609E-02  0.8239013E-01
        2   -1    0    0  501    0  0.00000000000E+00  0.00000000000E+00  0.21216370051E+04  0.21216370051E+04  0.25500000920E-02 0.  1.
       -2   -1    0    0    0  501  0.00000000000E+00  0.00000000000E+00 -0.10722540986E+04  0.10722540986E+04  0.25500000920E-02 0. -1.
    10030    2    1    2    0    0  0.00000000000E+00  0.00000000000E+00  0.10493829066E+04  0.31938911037E+04  0.30165768509E+04 0.  0.
        3    1    3    3  502    0  0.36501950066E+03  0.14189414269E+04  0.90393566684E+03  0.17215497986E+04  0.10100000352E+00 0. -1.
       -3    1    3    3    0  502 -0.36501950066E+03 -0.14189414269E+04  0.14544723972E+03  0.14723413051E+04  0.10100000352E+00 0.  1.
</event>
<event>
 5   0  0.2970915E-06  0.3021580E+04  0.7818609E-02  0.8237595E-01
       -2   -1    0    0    0  501  0.00000000000E+00  0.00000000000E+00  0.12459435824E+04  0.12459435824E+04  0.25500000920E-02 0. -1.
        2   -1    0    0  501    0  0.00000000000E+00  0.00000000000E+00 -0.18319343373E+04  0.18319343373E+04  0.25500000920E-02 0.  1.
    10030    2    1    2    0    0  0.00000000000E+00  0.00000000000E+00 -0.58599075497E+03  0.30778779197E+04  0.30215802693E+04 0.  0.
        4    1    3    3  502    0  0.36760947423E+03 -0.12206459797E+04 -0.11188865362E+04  0.16961786543E+04  0.12699999809E+01 0.  1.
       -4    1    3    3    0  502 -0.36760947423E+03  0.12206459797E+04  0.53289578127E+03  0.13816992654E+04  0.12699999809E+01 0. -1.
</event>
<event>
 5   0  0.1097402E-06  0.2970670E+04  0.7818609E-02  0.8252156E-01
       -1   -1    0    0    0  501  0.00000000000E+00  0.00000000000E+00  0.12289980520E+04  0.12289980520E+04  0.50400001928E-02 0.  1.
        1   -1    0    0  501    0  0.00000000000E+00  0.00000000000E+00 -0.17951371276E+04  0.17951371277E+04  0.50400001928E-02 0. -1.
    10030    2    1    2    0    0  0.00000000000E+00  0.00000000000E+00 -0.56613907564E+03  0.30241351797E+04  0.29706699803E+04 0.  0.
        4    1    3    3  502    0  0.46749710520E+03  0.36903228603E+03  0.11021107770E+04  0.12527522298E+04  0.12699999809E+01 0.  1.
       -4    1    3    3    0  502 -0.46749710520E+03 -0.36903228603E+03 -0.16682498526E+04  0.17713829499E+04  0.12699999809E+01 0. -1.
</event>
<event>
 5   0  0.1091075E-06  0.2757720E+04  0.7818609E-02  0.8316516E-01
        1   -1    0    0  501    0  0.00000000000E+00  0.00000000000E+00  0.14140875639E+04  0.14140875640E+04  0.50400001928E-02 0. -1.
       -1   -1    0    0    0  501  0.00000000000E+00  0.00000000000E+00 -0.13445099086E+04  0.13445099086E+04  0.50400001928E-02 0.  1.
    10030    2    1    2    0    0  0.00000000000E+00  0.00000000000E+00  0.69577655364E+02  0.27585974725E+04  0.27577198852E+04 0.  0.
        1    1    3    3  502    0  0.13011124758E+03  0.71144421004E+02  0.14060876792E+04  0.14138857900E+04  0.50400001928E-02 0. -1.
       -1    1    3    3    0  502 -0.13011124758E+03 -0.71144421004E+02 -0.13365100239E+04  0.13447116826E+04  0.50400001928E-02 0.  1.
</event>
<event>
 5   0  0.2862033E-06  0.2988303E+04  0.7818609E-02  0.8247079E-01
        2   -1    0    0  501    0  0.00000000000E+00  0.00000000000E+00  0.16697644718E+04  0.16697644718E+04  0.25500000920E-02 0.  1.
       -2   -1    0    0    0  501  0.00000000000E+00  0.00000000000E+00 -0.13370077183E+04  0.13370077183E+04  0.25500000920E-02 0. -1.
    10030    2    1    2    0    0  0.00000000000E+00  0.00000000000E+00  0.33275675353E+03  0.30067721901E+04  0.29883025192E+04 0.  0.
        2    1    3    3  502    0  0.13820603963E+04 -0.55564548683E+02  0.73494579786E+03  0.15663089363E+04  0.25500000920E-02 0.  1.
       -2    1    3    3    0  502 -0.13820603963E+04  0.55564548683E+02 -0.40218904434E+03  0.14404632538E+04  0.25500000920E-02 0. -1.
</event>
<event>
 5   0  0.2985941E-06  0.3061350E+04  0.7818609E-02  0.8226426E-01
       -2   -1    0    0    0  501  0.00000000000E+00  0.00000000000E+00  0.10307142592E+04  0.10307142592E+04  0.25500000920E-02 0. -1.
        2   -1    0    0  501    0  0.00000000000E+00  0.00000000000E+00 -0.22731476844E+04  0.22731476844E+04  0.25500000920E-02 0.  1.
    10030    2    1    2    0    0  0.00000000000E+00  0.00000000000E+00 -0.12424334252E+04  0.33038619437E+04  0.30613498537E+04 0.  0.
        3    1    3    3  502    0 -0.10447983916E+04  0.87292209947E+03  0.13374891142E+03  0.13680224605E+04  0.10100000352E+00 0. -1.
       -3    1    3    3    0  502  0.10447983916E+04 -0.87292209947E+03 -0.13761823366E+04  0.19358394832E+04  0.10100000352E+00 0.  1.
</event>
<event>
 5   0  0.1097402E-06  0.2988345E+04  0.7818609E-02  0.8247067E-01
       -1   -1    0    0    0  501  0.00000000000E+00  0.00000000000E+00  0.11446109414E+04  0.11446109414E+04  0.50400001928E-02 0. -1.
        1   -1    0    0  501    0  0.00000000000E+00  0.00000000000E+00 -0.19504889882E+04  0.19504889882E+04  0.50400001928E-02 0.  1.
    10030    2    1    2    0    0  0.00000000000E+00  0.00000000000E+00 -0.80587804674E+03  0.30950999296E+04  0.29883447171E+04 0.  0.
        4    1    3    3  502    0  0.84496524904E+03 -0.29652945213E+03  0.83588951921E+03  0.12249934242E+04  0.12699999809E+01 0. -1.
       -4    1    3    3    0  502 -0.84496524904E+03  0.29652945213E+03 -0.16417675660E+04  0.18701065054E+04  0.12699999809E+01 0.  1.
</event>
<event>
 5   0  0.1054384E-06  0.2998510E+04  0.7818609E-02  0.8244157E-01
       -1   -1    0    0    0  501  0.00000000000E+00  0.00000000000E+00  0.11210467947E+04  0.11210467947E+04  0.50400001928E-02 0. -1.
        1   -1    0    0  501    0  0.00000000000E+00  0.00000000000E+00 -0.20050590692E+04  0.20050590692E+04  0.50400001928E-02 0.  1.
    10030    2    1    2    0    0  0.00000000000E+00  0.00000000000E+00 -0.88401227451E+03  0.31261058639E+04  0.29985096583E+04 0.  0.
        2    1    3    3  502    0 -0.12847202838E+04 -0.22086441960E+03 -0.12141135706E+04  0.17813924502E+04  0.25500000920E-02 0.  1.
       -2    1    3    3    0  502  0.12847202838E+04  0.22086441960E+03  0.33010129604E+03  0.13447134137E+04  0.25500000920E-02 0. -1.
</event>
<event>
 5   0  0.1091075E-06  0.2962268E+04  0.7818609E-02  0.8254588E-01
       -1   -1    0    0    0  501  0.00000000000E+00  0.00000000000E+00  0.13908597937E+04  0.13908597938E+04  0.50400001928E-02 0. -1.
        1   -1    0    0  501    0  0.00000000000E+00  0.00000000000E+00 -0.15772675114E+04  0.15772675114E+04  0.50400001928E-02 0.  1.
    10030    2    1    2    0    0  0.00000000000E+00  0.00000000000E+00 -0.18640771762E+03  0.29681273051E+04  0.29622680267E+04 0.  0.
        1    1    3    3  502    0 -0.71523907127E+03  0.72591723465E+02  0.12043175633E+04  0.14025752318E+04  0.50400001928E-02 0. -1.
       -1    1    3    3    0  502  0.71523907127E+03 -0.72591723465E+02 -0.13907252809E+04  0.15655520734E+04  0.50400001928E-02 0.  1.
</event>
<event>
 5   0  0.2862033E-06  0.2992860E+04  0.7818609E-02  0.8245773E-01
        2   -1    0    0  501    0  0.00000000000E+00  0.00000000000E+00  0.11807234111E+04  0.11807234111E+04  0.25500000920E-02 0. -1.
       -2   -1    0    0    0  501  0.00000000000E+00  0.00000000000E+00 -0.18965510098E+04  0.18965510098E+04  0.25500000920E-02 0.  1.
    10030    2    1    2    0    0  0.00000000000E+00  0.00000000000E+00 -0.71582759874E+03  0.30772744210E+04  0.29928596210E+04 0.  0.
        2    1    3    3  502    0  0.10049642067E+04 -0.96317248230E+03  0.20680211410E+03  0.14072744586E+04  0.25500000920E-02 0. -1.
       -2    1    3    3    0  502 -0.10049642067E+04  0.96317248230E+03 -0.92262971284E+03  0.16699999624E+04  0.25500000920E-02 0.  1.
</event>
<event>
 5   0  0.1113245E-06  0.2973680E+04  0.7818609E-02  0.8251287E-01
       -1   -1    0    0    0  501  0.00000000000E+00  0.00000000000E+00  0.17865741551E+04  0.17865741551E+04  0.50400001928E-02 0.  1.
        1   -1    0    0  501    0  0.00000000000E+00  0.00000000000E+00 -0.12373919964E+04  0.12373919965E+04  0.50400001928E-02 0. -1.
    10030    2    1    2    0    0  0.00000000000E+00  0.00000000000E+00  0.54918215868E+03  0.30239661516E+04  0.29736795797E+04 0.  0.
        5    1    3    3  502    0 -0.73658244001E+03 -0.50501599470E+03  0.14834217141E+04  0.17315186738E+04  0.46999998093E+01 0.  1.
       -5    1    3    3    0  502  0.73658244001E+03  0.50501599470E+03 -0.93423955544E+03  0.12924474778E+04  0.46999998093E+01 0. -1.
</event>
<event>
 5   0  0.1091076E-06  0.2961391E+04  0.7818609E-02  0.8254843E-01
        1   -1    0    0  501    0  0.00000000000E+00  0.00000000000E+00  0.10867778208E+04  0.10867778208E+04  0.50400001928E-02 0.  1.
       -1   -1    0    0    0  501  0.00000000000E+00  0.00000000000E+00 -0.20173935594E+04  0.20173935594E+04  0.50400001928E-02 0. -1.
    10030    2    1    2    0    0  0.00000000000E+00  0.00000000000E+00 -0.93061573854E+03  0.31041713802E+04  0.29613906033E+04 0.  0.
        3    1    3    3  502    0  0.10521536257E+04  0.10401580023E+04 -0.52734447210E+03  0.15706839670E+04  0.10100000352E+00 0. -1.
       -3    1    3    3    0  502 -0.10521536257E+04 -0.10401580023E+04 -0.40327126644E+03  0.15334874132E+04  0.10100000352E+00 0.  1.
</event>
<event>
 5   0  0.2985941E-06  0.2992686E+04  0.7818609E-02  0.8245822E-01
        2   -1    0    0  501    0  0.00000000000E+00  0.00000000000E+00  0.16372350960E+04  0.16372350960E+04  0.25500000920E-02 0.  1.
       -2   -1    0    0    0  501  0.00000000000E+00  0.00000000000E+00 -0.13675757242E+04  0.13675757242E+04  0.25500000920E-02 0. -1.
    10030    2    1    2    0    0  0.00000000000E+00  0.00000000000E+00  0.26965937179E+03  0.30048108201E+04  0.29926863999E+04 0.  0.
        3    1    3    3  502    0  0.41521282145E+03  0.30252376648E+03 -0.12762538957E+04  0.13757711775E+04  0.10100000352E+00 0. -1.
       -3    1    3    3    0  502 -0.41521282145E+03 -0.30252376648E+03  0.15459132675E+04  0.16290396426E+04  0.10100000352E+00 0.  1.
</event>
<event>
 5   0  0.2985941E-06  0.3006143E+04  0.7818609E-02  0.8241979E-01
        2   -1    0    0  501    0  0.00000000000E+00  0.00000000000E+00  0.10668636016E+04  0.10668636016E+04  0.25500000920E-02 0. -1.
       -2   -1    0    0    0  501  0.00000000000E+00  0.00000000000E+00 -0.21176313221E+04  0.21176313221E+04  0.25500000920E-02 0.  1.
    10030    2    1    2    0    0  0.00000000000E+00  0.00000000000E+00 -0.10507677205E+04  0.31844949237E+04  0.30061428969E+04 0.  0.
        3    1    3    3  502    0 -0.14800121629E+04  0.10524478093E+03 -0.27089933477E+03  0.15082768068E+04  0.10100000352E+00 0. -1.
       -3    1    3    3    0  502  0.14800121629E+04 -0.10524478093E+03 -0.77986838576E+03  0.16762181169E+04  0.10100000352E+00 0.  1.
</event>
<event>
 5   0  0.1091075E-06  0.3000212E+04  0.7818609E-02  0.8243670E-01
       -1   -1    0    0    0  501  0.00000000000E+00  0.00000000000E+00  0.14672432399E+04  0.14672432399E+04  0.50400001928E-02 0. -1.
        1   -1    0    0  501    0  0.00000000000E+00  0.00000000000E+00 -0.15337043353E+04  0.15337043353E+04  0.50400001928E-02 0.  1.
    10030    2    1    2    0    0  0.00000000000E+00  0.00000000000E+00 -0.66461095378E+02  0.30009475752E+04  0.30002115379E+04 0.  0.
        1    1    3    3  502    0 -0.21526373093E+03 -0.96851101092E+03  0.10921967030E+04  0.14755492843E+04  0.50400001928E-02 0. -1.
       -1    1    3    3    0  502  0.21526373093E+03  0.96851101092E+03 -0.11586577984E+04  0.15253982909E+04  0.50400001928E-02 0.  1.
</event>
<event>
 5   0  0.3113328E-06  0.3002853E+04  0.7818609E-02  0.8242917E-01
       -2   -1    0    0    0  501  0.00000000000E+00  0.00000000000E+00  0.92314498359E+03  0.92314498359E+03  0.25500000920E-02 0.  1.
        2   -1    0    0  501    0  0.00000000000E+00  0.00000000000E+00 -0.24419585182E+04  0.24419585182E+04  0.25500000920E-02 0. -1.
    10030    2    1    2    0    0  0.00000000000E+00  0.00000000000E+00 -0.15188135346E+04  0.33651035018E+04  0.30028531474E+04 0.  0.
        1    1    3    3  502    0 -0.53586878972E+03 -0.19716527544E+03 -0.23155381317E+04  0.23848996509E+04  0.50400001928E-02 0. -1.
       -1    1    3    3    0  502  0.53586878972E+03  0.19716527544E+03  0.79672459708E+03  0.98020385086E+03  0.50400001928E-02 0.  1.
</event>
<event>
 5   0  0.1054384E-06  0.3007112E+04  0.7818609E-02  0.8241703E-01
       -1   -1    0    0    0  501  0.00000000000E+00  0.00000000000E+00  0.18919114073E+04  0.18919114073E+04  0.50400001928E-02 0. -1.
        1   -1    0    0  501    0  0.00000000000E+00  0.00000000000E+00 -0.11949187096E+04  0.11949187096E+04  0.50400001928E-02 0.  1.
    10030    2    1    2    0    0  0.00000000000E+00  0.00000000000E+00  0.69699269773E+03  0.30868301169E+04  0.30071117954E+04 0.  0.
        2    1    3    3  502    0  0.10459415409E+04  0.10787401727E+04  0.29221335882E+03  0.15307066062E+04  0.25500000920E-02 0. -1.
       -2    1    3    3    0  502 -0.10459415409E+04 -0.10787401727E+04  0.40477933891E+03  0.15561235107E+04  0.25500000920E-02 0.  1.
</event>
<event>
 5   0  0.1091075E-06  0.2991689E+04  0.7818609E-02  0.8246108E-01
       -1   -1    0    0    0  501  0.00000000000E+00  0.00000000000E+00  0.12525109434E+04  0.12525109434E+04  0.50400001928E-02 0. -1.
        1   -1    0    0  501    0  0.00000000000E+00  0.00000000000E+00 -0.17864523696E+04  0.17864523697E+04  0.50400001928E-02 0.  1.
    10030    2    1    2    0    0  0.00000000000E+00  0.00000000000E+00 -0.53394142624E+03  0.30389633131E+04  0.29916892505E+04 0.  0.
        1    1    3    3  502    0  0.71260465400E+03  0.11096852483E+04 -0.98406087997E+03  0.16454733540E+04  0.50400001928E-02 0.  1.
       -1    1    3    3    0  502 -0.71260465400E+03 -0.11096852483E+04  0.45011945373E+03  0.13934899590E+04  0.50400001928E-02 0. -1.
</event>
<event>
 5   0  0.1054384E-06  0.2966150E+04  0.7818609E-02  0.8253464E-01
       -1   -1    0    0    0  501  0.00000000000E+00  0.00000000000E+00  0.15315216610E+04  0.15315216610E+04  0.50400001928E-02 0. -1.
        1   -1    0    0  501    0  0.00000000000E+00  0.00000000000E+00 -0.14361606497E+04  0.14361606498E+04  0.50400001928E-02 0.  1.
    10030    2    1    2    0    0  0.00000000000E+00  0.00000000000E+00  0.95361011216E+02  0.29676823107E+04  0.29661497897E+04 0.  0.
        2    1    3    3  502    0  0.70213407669E+03 -0.74122325321E+03  0.11239253500E+04  0.15184243034E+04  0.25500000920E-02 0. -1.
       -2    1    3    3    0  502 -0.70213407669E+03  0.74122325321E+03 -0.10285643388E+04  0.14492580073E+04  0.25500000920E-02 0.  1.
</event>
<event>
 5   0  0.3113328E-06  0.3001525E+04  0.7818609E-02  0.8243296E-01
        2   -1    0    0  501    0  0.00000000000E+00  0.00000000000E+00  0.13671956427E+04  0.13671956427E+04  0.25500000920E-02 0.  1.
       -2   -1    0    0    0  501  0.00000000000E+00  0.00000000000E+00 -0.16473777498E+04  0.16473777498E+04  0.25500000920E-02 0. -1.
    10030    2    1    2    0    0  0.00000000000E+00  0.00000000000E+00 -0.28018210711E+03  0.30145733925E+04  0.30015247335E+04 0.  0.
        1    1    3    3  502    0 -0.45716213951E+03  0.51299070067E+03 -0.14801068467E+04  0.16318311673E+04  0.50400001928E-02 0. -1.
       -1    1    3    3    0  502  0.45716213951E+03 -0.51299070067E+03  0.11999247396E+04  0.13827422253E+04  0.50400001928E-02 0.  1.
</event>
<event>
 5   0  0.1097402E-06  0.3003245E+04  0.7818609E-02  0.8242805E-01
        1   -1    0    0  501    0  0.00000000000E+00  0.00000000000E+00  0.18343407158E+04  0.18343407158E+04  0.50400001928E-02 0.  1.
       -1   -1    0    0    0  501  0.00000000000E+00  0.00000000000E+00 -0.12292537508E+04  0.12292537509E+04  0.50400001928E-02 0. -1.
    10030    2    1    2    0    0  0.00000000000E+00  0.00000000000E+00  0.60508696492E+03  0.30635944666E+04  0.30032450484E+04 0.  0.
        4    1    3    3  502    0 -0.86812540406E+03 -0.11640237644E+04  0.69268878139E+03  0.16088543756E+04  0.12699999809E+01 0.  1.
       -4    1    3    3    0  502  0.86812540406E+03  0.11640237644E+04 -0.87601816470E+02  0.14547400910E+04  0.12699999809E+01 0. -1.
</event>
<event>
 5   0  0.1054384E-06  0.2955746E+04  0.7818609E-02  0.8256482E-01
        1   -1    0    0  501    0  0.00000000000E+00  0.00000000000E+00  0.19132354933E+04  0.19132354933E+04  0.50400001928E-02 0.  1.
       -1   -1    0    0    0  501  0.00000000000E+00  0.00000000000E+00 -0.11415786006E+04  0.11415786006E+04  0.50400001928E-02 0. -1.
    10030    2    1    2    0    0  0.00000000000E+00  0.00000000000E+00  0.77165689275E+03  0.30548140939E+04  0.29557460629E+04 0.  0.
        2    1    3    3  502    0  0.82854393116E+03  0.40076454770E+03  0.15808761058E+04  0.18292803313E+04  0.25500000920E-02 0.  1.
       -2    1    3    3    0  502 -0.82854393116E+03 -0.40076454770E+03 -0.80921921307E+03  0.12255337626E+04  0.25500000920E-02 0. -1.
</event>
<event>
 5   0  0.2862033E-06  0.3010545E+04  0.7818609E-02  0.8240726E-01
       -2   -1    0    0    0  501  0.00000000000E+00  0.00000000000E+00  0.21280646242E+04  0.21280646242E+04  0.25500000920E-02 0. -1.
        2   -1    0    0  501    0  0.00000000000E+00  0.00000000000E+00 -0.10647444273E+04  0.10647444273E+04  0.25500000920E-02 0.  1.
    10030    2    1    2    0    0  0.00000000000E+00  0.00000000000E+00  0.10633201970E+04  0.31928090515E+04  0.30105447677E+04 0.  0.
        2    1    3    3  502    0  0.32395466803E+03  0.14671512881E+04  0.62866010003E+03  0.16287090135E+04  0.25500000920E-02 0. -1.
       -2    1    3    3    0  502 -0.32395466803E+03 -0.14671512881E+04  0.43466009695E+03  0.15641000380E+04  0.25500000920E-02 0.  1.
</event>
<event>
 5   0  0.1091076E-06  0.2935369E+04  0.7818609E-02  0.8262431E-01
       -1   -1    0    0    0  501  0.00000000000E+00  0.00000000000E+00  0.10882716071E+04  0.10882716071E+04  0.50400001928E-02 0. -1.
        1   -1    0    0  501    0  0.00000000000E+00  0.00000000000E+00 -0.19793750195E+04  0.19793750195E+04  0.50400001928E-02 0.  1.
    10030    2    1    2    0    0  0.00000000000E+00  0.00000000000E+00 -0.89110341243E+03  0.30676466266E+04  0.29353688924E+04 0.  0.
        3    1    3    3  502    0  0.88065024459E+03  0.46217953979E+03  0.68241154723E+03  0.12061676129E+04  0.10100000352E+00 0. -1.
       -3    1    3    3    0  502 -0.88065024459E+03 -0.46217953979E+03 -0.15735149597E+04  0.18614790138E+04  0.10100000352E+00 0.  1.
</event>
<event>
 5   0  0.2948711E-06  0.2986171E+04  0.7818609E-02  0.8247691E-01
        2   -1    0    0  501    0  0.00000000000E+00  0.00000000000E+00  0.17881039071E+04  0.17881039071E+04  0.25500000920E-02 0.  1.
       -2   -1    0    0    0  501  0.00000000000E+00  0.00000000000E+00 -0.12467423369E+04  0.12467423369E+04  0.25500000920E-02 0. -1.
    10030    2    1    2    0    0  0.00000000000E+00  0.00000000000E+00  0.54136157019E+03  0.30348462441E+04  0.29861713574E+04 0.  0.
        5    1    3    3  502    0  0.21789667501E+03 -0.30986953880E+03 -0.11970848061E+04  0.12556003405E+04  0.46999998093E+01 0. -1.
       -5    1    3    3    0  502 -0.21789667501E+03  0.30986953880E+03  0.17384463763E+04  0.17792459036E+04  0.46999998093E+01 0.  1.
</event>
<event>
 5   0  0.1091076E-06  0.2984450E+04  0.7818609E-02  0.8248185E-01
       -1   -1    0    0    0  501  0.00000000000E+00  0.00000000000E+00  0.78939970368E+03  0.78939970370E+03  0.50400001928E-02 0.  1.
        1   -1    0    0  501    0  0.00000000000E+00  0.00000000000E+00 -0.28207957600E+04  0.28207957600E+04  0.50400001928E-02 0. -1.
    10030    2    1    2    0    0  0.00000000000E+00  0.00000000000E+00 -0.20313960563E+04  0.36101954637E+04  0.29844499239E+04 0.  0.
        3    1    3    3  502    0  0.10532361649E+04  0.66264884505E+03 -0.19408731029E+02  0.12445025592E+04  0.10100000352E+00 0.  1.
       -3    1    3    3    0  502 -0.10532361649E+04 -0.66264884505E+03 -0.20119873253E+04  0.23656929044E+04  0.10100000352E+00 0. -1.
</event>
<event>
 5   0  0.2862033E-06  0.2997194E+04  0.7818609E-02  0.8244533E-01
       -2   -1    0    0    0  501  0.00000000000E+00  0.00000000000E+00  0.90074576850E+03  0.90074576850E+03  0.25500000920E-02 0.  1.
        2   -1    0    0  501    0  0.00000000000E+00  0.00000000000E+00 -0.24932593198E+04  0.24932593198E+04  0.25500000920E-02 0. -1.
    10030    2    1    2    0    0  0.00000000000E+00  0.00000000000E+00 -0.15925135513E+04  0.33940050883E+04  0.29971938756E+04 0.  0.
        2    1    3    3  502    0 -0.36542987966E+03 -0.22401193208E+03  0.82985206683E+03  0.93401006177E+03  0.25500000920E-02 0.  1.
       -2    1    3    3    0  502  0.36542987966E+03  0.22401193208E+03 -0.24223656181E+04  0.24599950265E+04  0.25500000920E-02 0. -1.
</event>
<event>
 5   0  0.2862033E-06  0.3023088E+04  0.7818609E-02  0.8237169E-01
        2   -1    0    0  501    0  0.00000000000E+00  0.00000000000E+00  0.21131048879E+04  0.21131048879E+04  0.25500000920E-02 0. -1.
       -2   -1    0    0    0  501  0.00000000000E+00  0.00000000000E+00 -0.10812361483E+04  0.10812361483E+04  0.25500000920E-02 0.  1.
    10030    2    1    2    0    0  0.00000000000E+00  0.00000000000E+00  0.10318687396E+04  0.31943410363E+04  0.30230880835E+04 0.  0.
        2    1    3    3  502    0 -0.15129265038E+03 -0.13539033533E+04 -0.17600624488E+03  0.13736527779E+04  0.25500000920E-02 0.  1.
       -2    1    3    3    0  502  0.15129265038E+03  0.13539033533E+04  0.12078749845E+04  0.18206882584E+04  0.25500000920E-02 0. -1.
</event>
<event>
 5   0  0.1091075E-06  0.2964971E+04  0.7818609E-02  0.8253805E-01
        1   -1    0    0  501    0  0.00000000000E+00  0.00000000000E+00  0.28779001126E+04  0.28779001126E+04  0.50400001928E-02 0.  1.
       -1   -1    0    0    0  501  0.00000000000E+00  0.00000000000E+00 -0.76366905265E+03  0.76366905266E+03  0.50400001928E-02 0. -1.
    10030    2    1    2    0    0  0.00000000000E+00  0.00000000000E+00  0.21142310600E+04  0.36415691653E+04  0.29649709966E+04 0.  0.
        1    1    3    3  502    0 -0.81578968210E+03  0.87987359981E+02  0.25735828760E+04  0.27012188732E+04  0.50400001928E-02 0.  1.
       -1    1    3    3    0  502  0.81578968210E+03 -0.87987359981E+02 -0.45935181606E+03  0.94035029211E+03  0.50400001928E-02 0. -1.
</event>
<event>
 5   0  0.2985941E-06  0.3057363E+04  0.7818609E-02  0.8227538E-01
        2   -1    0    0  501    0  0.00000000000E+00  0.00000000000E+00  0.17676485787E+04  0.17676485787E+04  0.25500000920E-02 0. -1.
       -2   -1    0    0    0  501  0.00000000000E+00  0.00000000000E+00 -0.13220203933E+04  0.13220203933E+04  0.25500000920E-02 0.  1.
    10030    2    1    2    0    0  0.00000000000E+00  0.00000000000E+00  0.44562818540E+03  0.30896689719E+04  0.30573632229E+04 0.  0.
        3    1    3    3  502    0  0.63214670838E+03  0.60672557120E+03 -0.10430761395E+04  0.13622529951E+04  0.10100000352E+00 0.  1.
       -3    1    3    3    0  502 -0.63214670838E+03 -0.60672557120E+03  0.14887043249E+04  0.17274159768E+04  0.10100000352E+00 0. -1.
</event>
<event>
 5   0  0.2862033E-06  0.2995254E+04  0.7818609E-02  0.8245087E-01
       -2   -1    0    0    0  501  0.00000000000E+00  0.00000000000E+00  0.96821488147E+03  0.96821488148E+03  0.25500000920E-02 0.  1.
        2   -1    0    0  501    0  0.00000000000E+00  0.00000000000E+00 -0.23165170769E+04  0.23165170769E+04  0.25500000920E-02 0. -1.
    10030    2    1    2    0    0  0.00000000000E+00  0.00000000000E+00 -0.13483021954E+04  0.32847319583E+04  0.29952537836E+04 0.  0.
        2    1    3    3  502    0  0.59922243926E+03  0.11594719036E+04 -0.14796025430E+04  0.19729841136E+04  0.25500000920E-02 0. -1.
       -2    1    3    3    0  502 -0.59922243926E+03 -0.11594719036E+04  0.13130034764E+03  0.13117478448E+04  0.25500000920E-02 0.  1.
</event>
<event>
 5   0  0.1091076E-06  0.2998999E+04  0.7818609E-02  0.8244017E-01
       -1   -1    0    0    0  501  0.00000000000E+00  0.00000000000E+00  0.19719800451E+04  0.19719800451E+04  0.50400001928E-02 0.  1.
        1   -1    0    0  501    0  0.00000000000E+00  0.00000000000E+00 -0.11402239835E+04  0.11402239835E+04  0.50400001928E-02 0. -1.
    10030    2    1    2    0    0  0.00000000000E+00  0.00000000000E+00  0.83175606159E+03  0.31122040286E+04  0.29989991280E+04 0.  0.
        3    1    3    3  502    0 -0.88467341620E+03 -0.96349113502E+03  0.11767223217E+04  0.17594424268E+04  0.10100000352E+00 0.  1.
       -3    1    3    3    0  502  0.88467341620E+03  0.96349113502E+03 -0.34496626007E+03  0.13527616018E+04  0.10100000352E+00 0. -1.
</event>
<event>
 5   0  0.1091076E-06  0.2967645E+04  0.7818609E-02  0.8253031E-01
        1   -1    0    0  501    0  0.00000000000E+00  0.00000000000E+00  0.32656885856E+04  0.32656885856E+04  0.50400001928E-02 0.  1.
       -1   -1    0    0    0  501  0.00000000000E+00  0.00000000000E+00 -0.67420059651E+03  0.67420059652E+03  0.50400001928E-02 0. -1.
    10030    2    1    2    0    0  0.00000000000E+00  0.00000000000E+00  0.25914879891E+04  0.39398891821E+04  0.29676449872E+04 0.  0.
        3    1    3    3  502    0 -0.13949101290E+04  0.33413984854E+03  0.79141554666E+03  0.16382192417E+04  0.10100000352E+00 0.  1.
       -3    1    3    3    0  502  0.13949101290E+04 -0.33413984854E+03  0.18000724424E+04  0.23016699404E+04  0.10100000352E+00 0. -1.
</event>
<event>
 5   0  0.1097402E-06  0.2924622E+04  0.7818609E-02  0.8265589E-01
       -1   -1    0    0    0  501  0.00000000000E+00  0.00000000000E+00  0.13463663948E+04  0.13463663948E+04  0.50400001928E-02 0.  1.
        1   -1    0    0  501    0  0.00000000000E+00  0.00000000000E+00 -0.15882404127E+04  0.15882404127E+04  0.50400001928E-02 0. -1.
    10030    2    1    2    0    0  0.00000000000E+00  0.00000000000E+00 -0.24187401789E+03  0.29346068075E+04  0.29246220396E+04 0.  0.
        4    1    3    3  502    0 -0.12806771944E+04 -0.70578508264E+03 -0.11167258408E+03  0.14665398181E+04  0.12699999809E+01 0. -1.
       -4    1    3    3    0  502  0.12806771944E+04  0.70578508264E+03 -0.13020143381E+03  0.14680669894E+04  0.12699999809E+01 0.  1.
</event>
<event>
 5   0  0.2985941E-06  0.3175609E+04  0.7818609E-02  0.8195289E-01
       -2   -1    0    0    0  501  0.00000000000E+00  0.00000000000E+00  0.97041707758E+03  0.97041707759E+03  0.25500000920E-02 0.  1.
        2   -1    0    0  501    0  0.00000000000E+00  0.00000000000E+00 -0.25979794331E+04  0.25979794331E+04  0.25500000920E-02 0. -1.
    10030    2    1    2    0    0  0.00000000000E+00  0.00000000000E+00 -0.16275623555E+04  0.35683965107E+04  0.31756093016E+04 0.  0.
        3    1    3    3  502    0 -0.12771070883E+04  0.63537471148E+03 -0.15974846649E+04  0.21416490851E+04  0.10100000352E+00 0. -1.
       -3    1    3    3    0  502  0.12771070883E+04 -0.63537471148E+03 -0.30077690669E+02  0.14267474256E+04  0.10100000352E+00 0.  1.
</event>
<event>
 5   0  0.2862033E-06  0.3037969E+04  0.7818609E-02  0.8232971E-01
       -2   -1    0    0    0  501  0.00000000000E+00  0.00000000000E+00  0.14678706813E+04  0.14678706813E+04  0.25500000920E-02 0.  1.
        2   -1    0    0  501    0  0.00000000000E+00  0.00000000000E+00 -0.15718784026E+04  0.15718784026E+04  0.25500000920E-02 0. -1.
    10030    2    1    2    0    0  0.00000000000E+00  0.00000000000E+00 -0.10400772130E+03  0.30397490839E+04  0.30379692044E+04 0.  0.
        2    1    3    3  502    0 -0.21494963829E+03 -0.12762596325E+02  0.14525219938E+04  0.14683958503E+04  0.25500000920E-02 0.  1.
       -2    1    3    3    0  502  0.21494963829E+03  0.12762596325E+02 -0.15565297151E+04  0.15713532336E+04  0.25500000920E-02 0. -1.
</event>
<event>
 5   0  0.2970915E-06  0.2983510E+04  0.7818609E-02  0.8248455E-01
       -2   -1    0    0    0  501  0.00000000000E+00  0.00000000000E+00  0.10413714954E+04  0.10413714954E+04  0.25500000920E-02 0. -1.
        2   -1    0    0  501    0  0.00000000000E+00  0.00000000000E+00 -0.21369257954E+04  0.21369257954E+04  0.25500000920E-02 0.  1.
    10030    2    1    2    0    0  0.00000000000E+00  0.00000000000E+00 -0.10955543001E+04  0.31782972908E+04  0.29835104230E+04 0.  0.
        4    1    3    3  502    0  0.11196872902E+03 -0.14208783570E+04 -0.78687854145E+02  0.14274542700E+04  0.12699999809E+01 0.  1.
       -4    1    3    3    0  502 -0.11196872902E+03  0.14208783570E+04 -0.10168664459E+04  0.17508430208E+04  0.12699999809E+01 0. -1.
</event>
<event>
 5   0  0.1054384E-06  0.3007106E+04  0.7818609E-02  0.8241705E-01
        1   -1    0    0  501    0  0.00000000000E+00  0.00000000000E+00  0.24977183313E+04  0.24977183313E+04  0.50400001928E-02 0. -1.
       -1   -1    0    0    0  501  0.00000000000E+00  0.00000000000E+00 -0.90509477536E+03  0.90509477538E+03  0.50400001928E-02 0.  1.
    10030    2    1    2    0    0  0.00000000000E+00  0.00000000000E+00  0.15926235559E+04  0.34028131066E+04  0.30071061251E+04 0.  0.
        2    1    3    3  502    0  0.65367323946E+03 -0.70261306228E+03  0.21060847875E+04  0.23144215155E+04  0.25500000920E-02 0. -1.
       -2    1    3    3    0  502 -0.65367323946E+03  0.70261306228E+03 -0.51346123161E+03  0.10883915911E+04  0.25500000920E-02 0.  1.
</event>
<event>
 5   0  0.2985941E-06  0.2986619E+04  0.7818609E-02  0.8247562E-01
        2   -1    0    0  501    0  0.00000000000E+00  0.00000000000E+00  0.14823885558E+04  0.14823885558E+04  0.25500000920E-02 0.  1.
       -2   -1    0    0    0  501  0.00000000000E+00  0.00000000000E+00 -0.15043111278E+04  0.15043111279E+04  0.25500000920E-02 0. -1.
    10030    2    1    2    0    0  0.00000000000E+00  0.00000000000E+00 -0.21922572076E+02  0.29866996836E+04  0.29866192260E+04 0.  0.
        3    1    3    3  502    0  0.30846985051E+03 -0.11718497781E+04  0.86175233996E+03  0.14869440664E+04  0.10100000352E+00 0.  1.
       -3    1    3    3    0  502 -0.30846985051E+03  0.11718497781E+04 -0.88367491204E+03  0.14997556172E+04  0.10100000352E+00 0. -1.
</event>
<event>
 5   0  0.2862033E-06  0.3016873E+04  0.7818609E-02  0.8238929E-01
       -2   -1    0    0    0  501  0.00000000000E+00  0.00000000000E+00  0.32893917586E+04  0.32893917586E+04  0.25500000920E-02 0.  1.
        2   -1    0    0  501    0  0.00000000000E+00  0.00000000000E+00 -0.69173278738E+03  0.69173278739E+03  0.25500000920E-02 0. -1.
    10030    2    1    2    0    0  0.00000000000E+00  0.00000000000E+00  0.25976589712E+04  0.39811245460E+04  0.30168726390E+04 0.  0.
        2    1    3    3  502    0  0.15083514840E+04  0.13331489941E+02  0.13104991280E+04  0.19981766420E+04  0.25500000920E-02 0. -1.
       -2    1    3    3    0  502 -0.15083514840E+04 -0.13331489941E+02  0.12871598432E+04  0.19829479040E+04  0.25500000920E-02 0.  1.
</event>
<event>
 5   0  0.1091075E-06  0.3003613E+04  0.7818609E-02  0.8242700E-01
       -1   -1    0    0    0  501  0.00000000000E+00  0.00000000000E+00  0.23556049830E+04  0.23556049830E+04  0.50400001928E-02 0. -1.
        1   -1    0    0  501    0  0.00000000000E+00  0.00000000000E+00 -0.95747072188E+03  0.95747072189E+03  0.50400001928E-02 0.  1.
    10030    2    1    2    0    0  0.00000000000E+00  0.00000000000E+00  0.13981342611E+04  0.33130757049E+04  0.30036130267E+04 0.  0.
        1    1    3    3  502    0  0.44286394884E+02  0.14896914495E+04  0.90329429777E+03  0.17427227226E+04  0.50400001928E-02 0. -1.
       -1    1    3    3    0  502 -0.44286394884E+02 -0.14896914495E+04  0.49483996333E+03  0.15703529823E+04  0.50400001928E-02 0.  1.
</event>
<event>
 5   0  0.1091076E-06  0.2972265E+04  0.7818609E-02  0.8251695E-01
       -1   -1    0    0    0  501  0.00000000000E+00  0.00000000000E+00  0.13194770870E+04  0.13194770870E+04  0.50400001928E-02 0.  1.
        1   -1    0    0  501    0  0.00000000000E+00  0.00000000000E+00 -0.16738373264E+04  0.16738373264E+04  0.50400001928E-02 0. -1.
    10030    2    1    2    0    0  0.00000000000E+00  0.00000000000E+00 -0.35436023934E+03  0.29933144134E+04  0.29722651292E+04 0.  0.
        3    1    3    3  502    0 -0.82013569558E+03  0.11635978921E+04 -0.60682464700E+03  0.15475202022E+04  0.10100000352E+00 0. -1.
       -3    1    3    3    0  502  0.82013569558E+03 -0.11635978921E+04  0.25246440765E+03  0.14457942112E+04  0.10100000352E+00 0.  1.
</event>
<event>
 5   0  0.1097402E-06  0.2996089E+04  0.7818609E-02  0.8244849E-01
        1   -1    0    0  501    0  0.00000000000E+00  0.00000000000E+00  0.19948012249E+04  0.19948012249E+04  0.50400001928E-02 0. -1.
       -1   -1    0    0    0  501  0.00000000000E+00  0.00000000000E+00 -0.11249928940E+04  0.11249928941E+04  0.50400001928E-02 0.  1.
    10030    2    1    2    0    0  0.00000000000E+00  0.00000000000E+00  0.86980833083E+03  0.31197941189E+04  0.29960889193E+04 0.  0.
        4    1    3    3  502    0 -0.12702597792E+04  0.74807711263E+03  0.71227881681E+03  0.16372299774E+04  0.12699999809E+01 0.  1.
       -4    1    3    3    0  502  0.12702597792E+04 -0.74807711263E+03  0.15752951402E+03  0.14825641415E+04  0.12699999809E+01 0. -1.
</event>
<event>
 5   0  0.1091076E-06  0.2997719E+04  0.7818609E-02  0.8244383E-01
        1   -1    0    0  501    0  0.00000000000E+00  0.00000000000E+00  0.20179213396E+04  0.20179213396E+04  0.50400001928E-02 0.  1.
       -1   -1    0    0    0  501  0.00000000000E+00  0.00000000000E+00 -0.11133136094E+04  0.11133136094E+04  0.50400001928E-02 0. -1.
    10030    2    1    2    0    0  0.00000000000E+00  0.00000000000E+00  0.90460773023E+03  0.31312349491E+04  0.29977186594E+04 0.  0.
        3    1    3    3  502    0  0.12557266427E+04 -0.33133538397E+03 -0.32932060198E+03  0.13398076753E+04  0.10100000352E+00 0. -1.
       -3    1    3    3    0  502 -0.12557266427E+04  0.33133538397E+03  0.12339283322E+04  0.17914272737E+04  0.10100000352E+00 0.  1.
</event>
<event>
 5   0  0.2985941E-06  0.2970116E+04  0.7818609E-02  0.8252316E-01
       -2   -1    0    0    0  501  0.00000000000E+00  0.00000000000E+00  0.99045106303E+03  0.99045106303E+03  0.25500000920E-02 0. -1.
        2   -1    0    0  501    0  0.00000000000E+00  0.00000000000E+00 -0.22266597261E+04  0.22266597261E+04  0.25500000920E-02 0.  1.
    10030    2    1    2    0    0  0.00000000000E+00  0.00000000000E+00 -0.12362086631E+04  0.32171107892E+04  0.29701161545E+04 0.  0.
        3    1    3    3  502    0  0.11495352273E+04  0.94019046751E+03 -0.61501619138E+03  0.16073687442E+04  0.10100000352E+00 0. -1.
       -3    1    3    3    0  502 -0.11495352273E+04 -0.94019046751E+03 -0.62119247172E+03  0.16097420449E+04  0.10100000352E+00 0.  1.
</event>
<event>
 5   0  0.1054384E-06  0.3052866E+04  0.7818609E-02  0.8228794E-01
        1   -1    0    0  501    0  0.00000000000E+00  0.00000000000E+00  0.13914913825E+04  0.13914913825E+04  0.50400001928E-02 0. -1.
       -1   -1    0    0    0  501  0.00000000000E+00  0.00000000000E+00 -0.16744611675E+04  0.16744611675E+04  0.50400001928E-02 0.  1.
    10030    2    1    2    0    0  0.00000000000E+00  0.00000000000E+00 -0.28296978497E+03  0.30659525500E+04  0.30528663809E+04 0.  0.
        2    1    3    3  502    0  0.85400050274E+03  0.12569046943E+04  0.36058918869E+01  0.15195852302E+04  0.25500000920E-02 0. -1.
       -2    1    3    3    0  502 -0.85400050274E+03 -0.12569046943E+04 -0.28657567686E+03  0.15463673198E+04  0.25500000920E-02 0.  1.
</event>
<event>
 5   0  0.3113328E-06  0.3082400E+04  0.7818609E-02  0.8220585E-01
        2   -1    0    0  501    0  0.00000000000E+00  0.00000000000E+00  0.10216327141E+04  0.10216327141E+04  0.25500000920E-02 0. -1.
       -2   -1    0    0    0  501  0.00000000000E+00  0.00000000000E+00 -0.23250010073E+04  0.23250010073E+04  0.25500000920E-02 0.  1.
    10030    2    1    2    0    0  0.00000000000E+00  0.00000000000E+00 -0.13033682932E+04  0.33466337213E+04  0.30823997724E+04 0.  0.
        1    1    3    3  502    0  0.61335301346E+03 -0.21615334417E+03 -0.21687366255E+04  0.22641428263E+04  0.50400001928E-02 0.  1.
       -1    1    3    3    0  502 -0.61335301346E+03  0.21615334417E+03  0.86536833225E+03  0.10824908950E+04  0.50400001928E-02 0. -1.
</event>
<event>
 5   0  0.1054384E-06  0.2978435E+04  0.7818609E-02  0.8249916E-01
       -1   -1    0    0    0  501  0.00000000000E+00  0.00000000000E+00  0.98267465455E+03  0.98267465456E+03  0.50400001928E-02 0.  1.
        1   -1    0    0  501    0  0.00000000000E+00  0.00000000000E+00 -0.22568701523E+04  0.22568701523E+04  0.50400001928E-02 0. -1.
    10030    2    1    2    0    0  0.00000000000E+00  0.00000000000E+00 -0.12741954977E+04  0.32395448068E+04  0.29784352249E+04 0.  0.
        2    1    3    3  502    0  0.42166215573E+03  0.11665082216E+04  0.25930637009E+03  0.12671938282E+04  0.25500000920E-02 0.  1.
       -2    1    3    3    0  502 -0.42166215573E+03 -0.11665082216E+04 -0.15335018678E+04  0.19723509787E+04  0.25500000920E-02 0. -1.
</event>
<event>
 5   0  0.1091076E-06  0.2958622E+04  0.7818609E-02  0.8255646E-01
       -1   -1    0    0    0  501  0.00000000000E+00  0.00000000000E+00  0.12709117550E+04  0.12709117551E+04  0.50400001928E-02 0.  1.
        1   -1    0    0  501    0  0.00000000000E+00  0.00000000000E+00 -0.17218827406E+04  0.17218827406E+04  0.50400001928E-02 0. -1.
    10030    2    1    2    0    0  0.00000000000E+00  0.00000000000E+00 -0.45097098554E+03  0.29927944956E+04  0.29586219872E+04 0.  0.
        3    1    3    3  502    0 -0.10603576072E+04 -0.23132020254E+03  0.79135825873E+03  0.13431735536E+04  0.10100000352E+00 0.  1.
       -3    1    3    3    0  502  0.10603576072E+04  0.23132020254E+03 -0.12423292443E+04  0.16496209421E+04  0.10100000352E+00 0. -1.
</event>
<event>
 5   0  0.2970915E-06  0.3031222E+04  0.7818609E-02  0.8234871E-01
        2   -1    0    0  501    0  0.00000000000E+00  0.00000000000E+00  0.21002759588E+04  0.21002759588E+04  0.25500000920E-02 0. -1.
       -2   -1    0    0    0  501  0.00000000000E+00  0.00000000000E+00 -0.10937024802E+04  0.10937024802E+04  0.25500000920E-02 0.  1.
    10030    2    1    2    0    0  0.00000000000E+00  0.00000000000E+00  0.10065734786E+04  0.31939784389E+04  0.30312222123E+04 0.  0.
        4    1    3    3  502    0  0.63013912987E+03 -0.13428535939E+04  0.17554863931E+03  0.14937034629E+04  0.12699999809E+01 0. -1.
       -4    1    3    3    0  502 -0.63013912987E+03  0.13428535939E+04  0.83102483928E+03  0.17002749760E+04  0.12699999809E+01 0.  1.
</event>
<event>
 5   0  0.1097402E-06  0.2990959E+04  0.7818609E-02  0.8246317E-01
       -1   -1    0    0    0  501  0.00000000000E+00  0.00000000000E+00  0.12823575341E+04  0.12823575341E+04  0.50400001928E-02 0. -1.
        1   -1    0    0  501    0  0.00000000000E+00  0.00000000000E+00 -0.17440213266E+04  0.17440213266E+04  0.50400001928E-02 0.  1.
    10030    2    1    2    0    0  0.00000000000E+00  0.00000000000E+00 -0.46166379248E+03  0.30263788608E+04  0.29909589685E+04 0.  0.
        4    1    3    3  502    0 -0.14313774300E+04 -0.21576579006E+03  0.14919680557E+03  0.14552173457E+04  0.12699999809E+01 0. -1.
       -4    1    3    3    0  502  0.14313774300E+04  0.21576579006E+03 -0.61086059805E+03  0.15711615151E+04  0.12699999809E+01 0.  1.
</event>
<event>
 5   0  0.2862033E-06  0.2938908E+04  0.7818609E-02  0.8261395E-01
        2   -1    0    0  501    0  0.00000000000E+00  0.00000000000E+00  0.20570642378E+04  0.20570642378E+04  0.25500000920E-02 0. -1.
       -2   -1    0    0    0  501  0.00000000000E+00  0.00000000000E+00 -0.10496971891E+04  0.10496971892E+04  0.25500000920E-02 0.  1.
    10030    2    1    2    0    0  0.00000000000E+00  0.00000000000E+00  0.10073670487E+04  0.31067614270E+04  0.29389076531E+04 0.  0.
        2    1    3    3  502    0  0.42370677107E+02  0.99604305457E+03  0.16448762825E+04  0.19234123390E+04  0.25500000920E-02 0. -1.
       -2    1    3    3    0  502 -0.42370677107E+02 -0.99604305457E+03 -0.63750923386E+03  0.11833490880E+04  0.25500000920E-02 0.  1.
</event>
<event>
 5   0  0.1113245E-06  0.3003659E+04  0.7818609E-02  0.8242687E-01
        1   -1    0    0  501    0  0.00000000000E+00  0.00000000000E+00  0.15648270264E+04  0.15648270265E+04  0.50400001928E-02 0. -1.
       -1   -1    0    0    0  501  0.00000000000E+00  0.00000000000E+00 -0.14413681247E+04  0.14413681247E+04  0.50400001928E-02 0.  1.
    10030    2    1    2    0    0  0.00000000000E+00  0.00000000000E+00  0.12345890176E+03  0.30061951511E+04  0.30036589664E+04 0.  0.
        5    1    3    3  502    0  0.75414985970E+03 -0.46123629704E+03  0.12768339707E+04  0.15529996817E+04  0.46999998093E+01 0. -1.
       -5    1    3    3    0  502 -0.75414985970E+03  0.46123629704E+03 -0.11533750690E+04  0.14531954694E+04  0.46999998093E+01 0.  1.
</event>
<event>
 5   0  0.2985941E-06  0.3006866E+04  0.7818609E-02  0.8241773E-01
       -2   -1    0    0    0  501  0.00000000000E+00  0.00000000000E+00  0.11882679692E+04  0.11882679692E+04  0.25500000920E-02 0. -1.
        2   -1    0    0  501    0  0.00000000000E+00  0.00000000000E+00 -0.19021888787E+04  0.19021888787E+04  0.25500000920E-02 0.  1.
    10030    2    1    2    0    0  0.00000000000E+00  0.00000000000E+00 -0.71392090951E+03  0.30904568479E+04  0.30068655547E+04 0.  0.
        3    1    3    3  502    0  0.11028805572E+04 -0.10168461412E+04 -0.25423951741E+03  0.15214990439E+04  0.10100000352E+00 0.  1.
       -3    1    3    3    0  502 -0.11028805572E+04  0.10168461412E+04 -0.45968139210E+03  0.15689578040E+04  0.10100000352E+00 0. -1.
</event>
<event>
 5   0  0.1054384E-06  0.3009832E+04  0.7818609E-02  0.8240929E-01
        1   -1    0    0  501    0  0.00000000000E+00  0.00000000000E+00  0.18180376032E+04  0.18180376032E+04  0.50400001928E-02 0. -1.
       -1   -1    0    0    0  501  0.00000000000E+00  0.00000000000E+00 -0.12457231006E+04  0.12457231006E+04  0.50400001928E-02 0.  1.
    10030    2    1    2    0    0  0.00000000000E+00  0.00000000000E+00  0.57231450260E+03  0.30637607038E+04  0.30098315170E+04 0.  0.
        2    1    3    3  502    0 -0.40567490441E+03 -0.11892472284E+04  0.11291813699E+04  0.16893583588E+04  0.25500000920E-02 0. -1.
       -2    1    3    3    0  502  0.40567490441E+03  0.11892472284E+04 -0.55686686725E+03  0.13744023451E+04  0.25500000920E-02 0.  1.
</event>
<event>
 5   0  0.2862033E-06  0.2975198E+04  0.7818609E-02  0.8250849E-01
        2   -1    0    0  501    0  0.00000000000E+00  0.00000000000E+00  0.22383278173E+04  0.22383278173E+04  0.25500000920E-02 0. -1.
       -2   -1    0    0    0  501  0.00000000000E+00  0.00000000000E+00 -0.98866229815E+03  0.98866229815E+03  0.25500000920E-02 0.  1.
    10030    2    1    2    0    0  0.00000000000E+00  0.00000000000E+00  0.12496655192E+04  0.32269901155E+04  0.29751976902E+04 0.  0.
        2    1    3    3  502    0  0.11032481929E+04  0.88039720333E+03  0.11343719292E+04  0.18108162481E+04  0.25500000920E-02 0. -1.
       -2    1    3    3    0  502 -0.11032481929E+04 -0.88039720333E+03  0.11529358997E+03  0.14161738674E+04  0.25500000920E-02 0.  1.
</event>
<event>
 5   0  0.3113328E-06  0.3100091E+04  0.7818609E-02  0.8215713E-01
       -2   -1    0    0    0  501  0.00000000000E+00  0.00000000000E+00  0.73335960082E+03  0.73335960083E+03  0.25500000920E-02 0.  1.
        2   -1    0    0  501    0  0.00000000000E+00  0.00000000000E+00 -0.32762115638E+04  0.32762115638E+04  0.25500000920E-02 0. -1.
    10030    2    1    2    0    0  0.00000000000E+00  0.00000000000E+00 -0.25428519630E+04  0.40095711647E+04  0.31000910985E+04 0.  0.
        1    1    3    3  502    0  0.30231909256E+03 -0.14841240471E+04 -0.84516190218E+03  0.17344508242E+04  0.50400001928E-02 0. -1.
       -1    1    3    3    0  502 -0.30231909256E+03  0.14841240471E+04 -0.16976900608E+04  0.22751203404E+04  0.50400001928E-02 0.  1.
</event>
<event>
 5   0  0.1091076E-06  0.3015574E+04  0.7818609E-02  0.8239298E-01
       -1   -1    0    0    0  501  0.00000000000E+00  0.00000000000E+00  0.93475199758E+03  0.93475199759E+03  0.50400001928E-02 0.  1.
        1   -1    0    0  501    0  0.00000000000E+00  0.00000000000E+00 -0.24321115271E+04  0.24321115271E+04  0.50400001928E-02 0. -1.
    10030    2    1    2    0    0  0.00000000000E+00  0.00000000000E+00 -0.14973595295E+04  0.33668635247E+04  0.30155736491E+04 0.  0.
        3    1    3    3  502    0 -0.12097920452E+04  0.14355654494E+03 -0.17405468193E+04  0.21245490144E+04  0.10100000352E+00 0. -1.
       -3    1    3    3    0  502  0.12097920452E+04 -0.14355654494E+03  0.24318728987E+03  0.12423145102E+04  0.10100000352E+00 0.  1.
</event>
<event>
 5   0  0.1097402E-06  0.2911183E+04  0.7818609E-02  0.8269558E-01
        1   -1    0    0  501    0  0.00000000000E+00  0.00000000000E+00  0.14616498291E+04  0.14616498291E+04  0.50400001928E-02 0.  1.
       -1   -1    0    0    0  501  0.00000000000E+00  0.00000000000E+00 -0.14495584311E+04  0.14495584311E+04  0.50400001928E-02 0. -1.
    10030    2    1    2    0    0  0.00000000000E+00  0.00000000000E+00  0.12091398001E+02  0.29112082603E+04  0.29111831500E+04 0.  0.
        4    1    3    3  502    0 -0.18702237429E+03 -0.12638881767E+04  0.70344294492E+03  0.14585006964E+04  0.12699999809E+01 0.  1.
       -4    1    3    3    0  502  0.18702237429E+03  0.12638881767E+04 -0.69135154692E+03  0.14527075639E+04  0.12699999809E+01 0. -1.
</event>
<event>
 5   0  0.2862033E-06  0.2956773E+04  0.7818609E-02  0.8256183E-01
       -2   -1    0    0    0  501  0.00000000000E+00  0.00000000000E+00  0.14206396602E+04  0.14206396602E+04  0.25500000920E-02 0.  1.
        2   -1    0    0  501    0  0.00000000000E+00  0.00000000000E+00 -0.15384805601E+04  0.15384805601E+04  0.25500000920E-02 0. -1.
    10030    2    1    2    0    0  0.00000000000E+00  0.00000000000E+00 -0.11784089988E+03  0.29591202203E+04  0.29567729031E+04 0.  0.
        2    1    3    3  502    0 -0.55520631787E+03 -0.45205205209E+03 -0.13534005739E+04  0.15311101288E+04  0.25500000920E-02 0. -1.
       -2    1    3    3    0  502  0.55520631787E+03  0.45205205209E+03  0.12355596740E+04  0.14280100915E+04  0.25500000920E-02 0.  1.
</event>
<event>
 5   0  0.2970915E-06  0.2997458E+04  0.7818609E-02  0.8244457E-01
        2   -1    0    0  501    0  0.00000000000E+00  0.00000000000E+00  0.17035654012E+04  0.17035654012E+04  0.25500000920E-02 0. -1.
       -2   -1    0    0    0  501  0.00000000000E+00  0.00000000000E+00 -0.13185223565E+04  0.13185223565E+04  0.25500000920E-02 0.  1.
    10030    2    1    2    0    0  0.00000000000E+00  0.00000000000E+00  0.38504304463E+03  0.30220877577E+04  0.29974583015E+04 0.  0.
        4    1    3    3  502    0 -0.73109285097E+03  0.43524952773E+03 -0.10514106644E+04  0.13525549550E+04  0.12699999809E+01 0.  1.
       -4    1    3    3    0  502  0.73109285097E+03 -0.43524952773E+03  0.14364537091E+04  0.16695328027E+04  0.12699999809E+01 0. -1.
</event>
<event>
 5   0  0.2985941E-06  0.3013123E+04  0.7818609E-02  0.8239993E-01
        2   -1    0    0  501    0  0.00000000000E+00  0.00000000000E+00  0.25590933183E+04  0.25590933183E+04  0.25500000920E-02 0.  1.
       -2   -1    0    0    0  501  0.00000000000E+00  0.00000000000E+00 -0.88692665882E+03  0.88692665882E+03  0.25500000920E-02 0. -1.
    10030    2    1    2    0    0  0.00000000000E+00  0.00000000000E+00  0.16721666594E+04  0.34460199771E+04  0.30131233538E+04 0.  0.
        3    1    3    3  502    0 -0.48814438095E+03 -0.47631428105E+03 -0.70025719588E+03  0.97750722839E+03  0.10100000352E+00 0. -1.
       -3    1    3    3    0  502  0.48814438095E+03  0.47631428105E+03  0.23724238553E+04  0.24685127487E+04  0.10100000352E+00 0.  1.
</event>
<event>
 5   0  0.2948711E-06  0.3021611E+04  0.7818609E-02  0.8237586E-01
        2   -1    0    0  501    0  0.00000000000E+00  0.00000000000E+00  0.18793467572E+04  0.18793467572E+04  0.25500000920E-02 0. -1.
       -2   -1    0    0    0  501  0.00000000000E+00  0.00000000000E+00 -0.12145356520E+04  0.12145356520E+04  0.25500000920E-02 0.  1.
    10030    2    1    2    0    0  0.00000000000E+00  0.00000000000E+00  0.66481110523E+03  0.30938824093E+04  0.30216112518E+04 0.  0.
        5    1    3    3  502    0 -0.98045717096E+03 -0.50378409726E+03  0.13902754158E+04  0.17742554784E+04  0.46999998093E+01 0. -1.
       -5    1    3    3    0  502  0.98045717096E+03  0.50378409726E+03 -0.72546431060E+03  0.13196269309E+04  0.46999998093E+01 0.  1.
</event>
<event>
 5   0  0.1097402E-06  0.2984734E+04  0.7818609E-02  0.8248104E-01
       -1   -1    0    0    0  501  0.00000000000E+00  0.00000000000E+00  0.10148043773E+04  0.10148043773E+04  0.50400001928E-02 0.  1.
        1   -1    0    0  501    0  0.00000000000E+00  0.00000000000E+00 -0.21946692190E+04  0.21946692190E+04  0.50400001928E-02 0. -1.
    10030    2    1    2    0    0  0.00000000000E+00  0.00000000000E+00 -0.11798648416E+04  0.32094735963E+04  0.29847344473E+04 0.  0.
        4    1    3    3  502    0  0.63724572732E+03  0.11515984168E+04 -0.13463918588E+04  0.18828259826E+04  0.12699999809E+01 0. -1.
       -4    1    3    3    0  502 -0.63724572732E+03 -0.11515984168E+04  0.16652701714E+03  0.13266476137E+04  0.12699999809E+01 0.  1.
</event>
<event>
 5   0  0.1113245E-06  0.3013397E+04  0.7818609E-02  0.8239916E-01
       -1   -1    0    0    0  501  0.00000000000E+00  0.00000000000E+00  0.12403576569E+04  0.12403576569E+04  0.50400001928E-02 0.  1.
        1   -1    0    0  501    0  0.00000000000E+00  0.00000000000E+00 -0.18302305554E+04  0.18302305554E+04  0.50400001928E-02 0. -1.
    10030    2    1    2    0    0  0.00000000000E+00  0.00000000000E+00 -0.58987289855E+03  0.30705882123E+04  0.30133970753E+04 0.  0.
        5    1    3    3  502    0  0.17443486028E+03 -0.10281979926E+04 -0.14030027493E+04  0.17481582986E+04  0.46999998093E+01 0. -1.
       -5    1    3    3    0  502 -0.17443486028E+03  0.10281979926E+04  0.81312985076E+03  0.13224299137E+04  0.46999998093E+01 0.  1.
</event>
<event>
 5   0  0.1091075E-06  0.2994305E+04  0.7818609E-02  0.8245359E-01
        1   -1    0    0  501    0  0.00000000000E+00  0.00000000000E+00  0.16125640255E+04  0.16125640256E+04  0.50400001928E-02 0. -1.
       -1   -1    0    0    0  501  0.00000000000E+00  0.00000000000E+00 -0.13900006589E+04  0.13900006589E+04  0.50400001928E-02 0.  1.
    10030    2    1    2    0    0  0.00000000000E+00  0.00000000000E+00  0.22256336664E+03  0.30025646845E+04  0.29943046325E+04 0.  0.
        1    1    3    3  502    0  0.12581272126E+04  0.60390786388E+03 -0.43231731429E+03  0.14609883817E+04  0.50400001928E-02 0. -1.
       -1    1    3    3    0  502 -0.12581272126E+04 -0.60390786388E+03  0.65488068092E+03  0.15415763028E+04  0.50400001928E-02 0.  1.
</event>
<event>
 5   0  0.2970915E-06  0.2942303E+04  0.7818609E-02  0.8260401E-01
       -2   -1    0    0    0  501  0.00000000000E+00  0.00000000000E+00  0.96656020835E+03  0.96656020835E+03  0.25500000920E-02 0. -1.
        2   -1    0    0  501    0  0.00000000000E+00  0.00000000000E+00 -0.22391646607E+04  0.22391646607E+04  0.25500000920E-02 0.  1.
    10030    2    1    2    0    0  0.00000000000E+00  0.00000000000E+00 -0.12726044523E+04  0.32057248690E+04  0.29423034928E+04 0.  0.
        4    1    3    3  502    0  0.53068890266E+03 -0.11805128991E+04 -0.13982284796E+04  0.19053309189E+04  0.12699999809E+01 0. -1.
       -4    1    3    3    0  502 -0.53068890266E+03  0.11805128991E+04  0.12562402734E+03  0.13003939501E+04  0.12699999809E+01 0.  1.
</event>
<event>
 5   0  0.2970915E-06  0.2992926E+04  0.7818609E-02  0.8245754E-01
       -2   -1    0    0    0  501  0.00000000000E+00  0.00000000000E+00  0.92767539608E+03  0.92767539609E+03  0.25500000920E-02 0.  1.
        2   -1    0    0  501    0  0.00000000000E+00  0.00000000000E+00 -0.24139923066E+04  0.24139923066E+04  0.25500000920E-02 0. -1.
    10030    2    1    2    0    0  0.00000000000E+00  0.00000000000E+00 -0.14863169105E+04  0.33416677026E+04  0.29929258388E+04 0.  0.
        4    1    3    3  502    0  0.11738667305E+04  0.87549236696E+03 -0.39911441657E+03  0.15178089194E+04  0.12699999809E+01 0.  1.
       -4    1    3    3    0  502 -0.11738667305E+04 -0.87549236696E+03 -0.10872024939E+04  0.18238587832E+04  0.12699999809E+01 0. -1.
</event>
<event>
 5   0  0.9749500E-07  0.3102469E+04  0.7818609E-02  0.8215061E-01
       -3   -1    0    0    0  501  0.00000000000E+00  0.00000000000E+00  0.17538483773E+04  0.17538483802E+04  0.10100000352E+00 0. -1.
        3   -1    0    0  501    0  0.00000000000E+00  0.00000000000E+00 -0.13720275906E+04  0.13720275944E+04  0.10100000352E+00 0.  1.
    10030    2    1    2    0    0  0.00000000000E+00  0.00000000000E+00  0.38182078662E+03  0.31258759745E+04  0.31024689354E+04 0.  0.
        3    1    3    3  502    0 -0.42442291610E+03 -0.12198952923E+04  0.10564897833E+04  0.16686671353E+04  0.10100000352E+00 0. -1.
       -3    1    3    3    0  502  0.42442291610E+03  0.12198952923E+04 -0.67466899666E+03  0.14572088393E+04  0.10100000352E+00 0.  1.
</event>
<event>
 5   0  0.2862033E-06  0.2996787E+04  0.7818609E-02  0.8244649E-01
       -2   -1    0    0    0  501  0.00000000000E+00  0.00000000000E+00  0.16462487756E+04  0.16462487756E+04  0.25500000920E-02 0.  1.
        2   -1    0    0  501    0  0.00000000000E+00  0.00000000000E+00 -0.13638177065E+04  0.13638177065E+04  0.25500000920E-02 0. -1.
    10030    2    1    2    0    0  0.00000000000E+00  0.00000000000E+00  0.28243106910E+03  0.30100664822E+04  0.29967870992E+04 0.  0.
        2    1    3    3  502    0 -0.20941576350E+03  0.38217645908E+03  0.15811892930E+04  0.16401443194E+04  0.25500000920E-02 0.  1.
       -2    1    3    3    0  502  0.20941576350E+03 -0.38217645908E+03 -0.12987582239E+04  0.13699221628E+04  0.25500000920E-02 0. -1.
</event>
<event>
 5   0  0.1054384E-06  0.3149079E+04  0.7818609E-02  0.8202396E-01
       -1   -1    0    0    0  501  0.00000000000E+00  0.00000000000E+00  0.11371972223E+04  0.11371972223E+04  0.50400001928E-02 0. -1.
        1   -1    0    0  501    0  0.00000000000E+00  0.00000000000E+00 -0.21800746723E+04  0.21800746723E+04  0.50400001928E-02 0.  1.
    10030    2    1    2    0    0  0.00000000000E+00  0.00000000000E+00 -0.10428774500E+04  0.33172718947E+04  0.31490791427E+04 0.  0.
        2    1    3    3  502    0 -0.80899490880E+03 -0.10581128240E+03  0.89715162336E+03  0.12126622882E+04  0.25500000920E-02 0. -1.
       -2    1    3    3    0  502  0.80899490880E+03  0.10581128240E+03 -0.19400290734E+04  0.21046096064E+04  0.25500000920E-02 0.  1.
</event>
<event>
 5   0  0.1091076E-06  0.3005194E+04  0.7818609E-02  0.8242249E-01
       -1   -1    0    0    0  501  0.00000000000E+00  0.00000000000E+00  0.90387533000E+03  0.90387533002E+03  0.50400001928E-02 0.  1.
        1   -1    0    0  501    0  0.00000000000E+00  0.00000000000E+00 -0.24979081390E+04  0.24979081390E+04  0.50400001928E-02 0. -1.
    10030    2    1    2    0    0  0.00000000000E+00  0.00000000000E+00 -0.15940328090E+04  0.34017834690E+04  0.30051938663E+04 0.  0.
        3    1    3    3  502    0  0.11250150280E+04 -0.53430415474E+03 -0.17485820366E+04  0.21467833826E+04  0.10100000352E+00 0. -1.
       -3    1    3    3    0  502 -0.11250150280E+04  0.53430415474E+03  0.15454922762E+03  0.12550000864E+04  0.10100000352E+00 0.  1.
</event>
<event>
 5   0  0.2948711E-06  0.2986907E+04  0.7818609E-02  0.8247480E-01
        2   -1    0    0  501    0  0.00000000000E+00  0.00000000000E+00  0.16572164033E+04  0.16572164033E+04  0.25500000920E-02 0. -1.
       -2   -1    0    0    0  501  0.00000000000E+00  0.00000000000E+00 -0.13458731659E+04  0.13458731659E+04  0.25500000920E-02 0.  1.
    10030    2    1    2    0    0  0.00000000000E+00  0.00000000000E+00  0.31134323739E+03  0.30030895691E+04  0.29869068196E+04 0.  0.
        5    1    3    3  502    0  0.13868999197E+04 -0.96816030250E+01 -0.40122088281E+03  0.14438093390E+04  0.46999998093E+01 0.  1.
       -5    1    3    3    0  502 -0.13868999197E+04  0.96816030250E+01  0.71256412021E+03  0.15592802301E+04  0.46999998093E+01 0. -1.
</event>
<event>
 5   0  0.3113328E-06  0.2996522E+04  0.7818609E-02  0.8244725E-01
       -2   -1    0    0    0  501  0.00000000000E+00  0.00000000000E+00  0.18348871277E+04  0.18348871277E+04  0.25500000920E-02 0.  1.
        2   -1    0    0  501    0  0.00000000000E+00  0.00000000000E+00 -0.12233915526E+04  0.12233915526E+04  0.25500000920E-02 0. -1.
    10030    2    1    2    0    0  0.00000000000E+00  0.00000000000E+00  0.61149557512E+03  0.30582786803E+04  0.29965215914E+04 0.  0.
        1    1    3    3  502    0  0.70199543317E+02  0.14613067762E+04 -0.24084340426E+02  0.14631901877E+04  0.50400001928E-02 0. -1.
       -1    1    3    3    0  502 -0.70199543317E+02 -0.14613067762E+04  0.63557991554E+03  0.15950884926E+04  0.50400001928E-02 0.  1.
</event>
<event>
 5   0  0.1097402E-06  0.2992541E+04  0.7818609E-02  0.8245864E-01
        1   -1    0    0  501    0  0.00000000000E+00  0.00000000000E+00  0.17139195429E+04  0.17139195429E+04  0.50400001928E-02 0.  1.
       -1   -1    0    0    0  501  0.00000000000E+00  0.00000000000E+00 -0.13062607367E+04  0.13062607367E+04  0.50400001928E-02 0. -1.
    10030    2    1    2    0    0  0.00000000000E+00  0.00000000000E+00  0.40765880620E+03  0.30201802796E+04  0.29925412644E+04 0.  0.
        4    1    3    3  502    0 -0.86571777278E+03 -0.43642310996E+03 -0.94638607430E+03  0.13548360076E+04  0.12699999809E+01 0. -1.
       -4    1    3    3    0  502  0.86571777278E+03  0.43642310996E+03  0.13540448805E+04  0.16653442720E+04  0.12699999809E+01 0.  1.
</event>
<event>
 5   0  0.1097402E-06  0.2948967E+04  0.7818609E-02  0.8258456E-01
        1   -1    0    0  501    0  0.00000000000E+00  0.00000000000E+00  0.23227730437E+04  0.23227730437E+04  0.50400001928E-02 0.  1.
       -1   -1    0    0    0  501  0.00000000000E+00  0.00000000000E+00 -0.93599412189E+03  0.93599412191E+03  0.50400001928E-02 0. -1.
    10030    2    1    2    0    0  0.00000000000E+00  0.00000000000E+00  0.13867789218E+04  0.32587671656E+04  0.29489672195E+04 0.  0.
        4    1    3    3  502    0 -0.54971013864E+03  0.11126275540E+04  0.15732641412E+04  0.20038171027E+04  0.12699999809E+01 0.  1.
       -4    1    3    3    0  502  0.54971013864E+03 -0.11126275540E+04 -0.18648521934E+03  0.12549500629E+04  0.12699999809E+01 0. -1.
</event>
<event>
 5   0  0.1113245E-06  0.2965088E+04  0.7818609E-02  0.8253771E-01
       -1   -1    0    0    0  501  0.00000000000E+00  0.00000000000E+00  0.25426829774E+04  0.25426829774E+04  0.50400001928E-02 0.  1.
        1   -1    0    0  501    0  0.00000000000E+00  0.00000000000E+00 -0.86441658822E+03  0.86441658823E+03  0.50400001928E-02 0. -1.
    10030    2    1    2    0    0  0.00000000000E+00  0.00000000000E+00  0.16782663892E+04  0.34070995656E+04  0.29650884265E+04 0.  0.
        5    1    3    3  502    0  0.12603970950E+04  0.65497665489E+03  0.13270762298E+04  0.19439003743E+04  0.46999998093E+01 0.  1.
       -5    1    3    3    0  502 -0.12603970950E+04 -0.65497665489E+03  0.35119015935E+03  0.14631991913E+04  0.46999998093E+01 0. -1.
</event>
<event>
 5   0  0.2970915E-06  0.2993632E+04  0.7818609E-02  0.8245552E-01
        2   -1    0    0  501    0  0.00000000000E+00  0.00000000000E+00  0.69068520181E+03  0.69068520181E+03  0.25500000920E-02 0.  1.
       -2   -1    0    0    0  501  0.00000000000E+00  0.00000000000E+00 -0.32438205577E+04  0.32438205577E+04  0.25500000920E-02 0. -1.
    10030    2    1    2    0    0  0.00000000000E+00  0.00000000000E+00 -0.25531353559E+04  0.39345057595E+04  0.29936324801E+04 0.  0.
        4    1    3    3  502    0 -0.23583445497E+03  0.15616862333E+02  0.66600473686E+03  0.70670057235E+03  0.12699999809E+01 0.  1.
       -4    1    3    3    0  502  0.23583445497E+03 -0.15616862333E+02 -0.32191400928E+04  0.32278051872E+04  0.12699999809E+01 0. -1.
</event>
<event>
 5   0  0.1113245E-06  0.3001974E+04  0.7818609E-02  0.8243168E-01
       -1   -1    0    0    0  501  0.00000000000E+00  0.00000000000E+00  0.15394061302E+04  0.15394061302E+04  0.50400001928E-02 0. -1.
        1   -1    0    0  501    0  0.00000000000E+00  0.00000000000E+00 -0.14635262194E+04  0.14635262195E+04  0.50400001928E-02 0.  1.
    10030    2    1    2    0    0  0.00000000000E+00  0.00000000000E+00  0.75879910747E+02  0.30029323497E+04  0.30019735068E+04 0.  0.
        5    1    3    3  502    0 -0.13257727569E+04  0.22209258765E+03 -0.63006119704E+03  0.14845867177E+04  0.46999998093E+01 0.  1.
       -5    1    3    3    0  502  0.13257727569E+04 -0.22209258765E+03  0.70594110779E+03  0.15183456319E+04  0.46999998093E+01 0. -1.
</event>
<event>
 5   0  0.2985941E-06  0.2983161E+04  0.7818609E-02  0.8248556E-01
       -2   -1    0    0    0  501  0.00000000000E+00  0.00000000000E+00  0.94943217137E+03  0.94943217137E+03  0.25500000920E-02 0. -1.
        2   -1    0    0  501    0  0.00000000000E+00  0.00000000000E+00 -0.23433085975E+04  0.23433085975E+04  0.25500000920E-02 0.  1.
    10030    2    1    2    0    0  0.00000000000E+00  0.00000000000E+00 -0.13938764261E+04  0.32927407689E+04  0.29831611220E+04 0.  0.
        3    1    3    3  502    0  0.11912792730E+04  0.65149559298E+03 -0.15434032679E+02  0.13578774000E+04  0.10100000352E+00 0. -1.
       -3    1    3    3    0  502 -0.11912792730E+04 -0.65149559298E+03 -0.13784423935E+04  0.19348633689E+04  0.10100000352E+00 0.  1.
</event>
<event>
 5   0  0.2985941E-06  0.2876864E+04  0.7818609E-02  0.8279794E-01
        2   -1    0    0  501    0  0.00000000000E+00  0.00000000000E+00  0.17532137010E+04  0.17532137010E+04  0.25500000920E-02 0.  1.
       -2   -1    0    0    0  501  0.00000000000E+00  0.00000000000E+00 -0.11801682294E+04  0.11801682294E+04  0.25500000920E-02 0. -1.
    10030    2    1    2    0    0  0.00000000000E+00  0.00000000000E+00  0.57304547155E+03  0.29333819304E+04  0.28768643411E+04 0.  0.
        3    1    3    3  502    0  0.70249163923E+03 -0.11942379143E+04  0.68062385407E+03  0.15436798697E+04  0.10100000352E+00 0.  1.
       -3    1    3    3    0  502 -0.70249163923E+03  0.11942379143E+04 -0.10757838253E+03  0.13897020607E+04  0.10100000352E+00 0. -1.
</event>
<event>
 5   0  0.1113245E-06  0.2971761E+04  0.7818609E-02  0.8251841E-01
        1   -1    0    0  501    0  0.00000000000E+00  0.00000000000E+00  0.18318497170E+04  0.18318497170E+04  0.50400001928E-02 0. -1.
       -1   -1    0    0    0  501  0.00000000000E+00  0.00000000000E+00 -0.12052524345E+04  0.12052524345E+04  0.50400001928E-02 0.  1.
    10030    2    1    2    0    0  0.00000000000E+00  0.00000000000E+00  0.62659728253E+03  0.30371021515E+04  0.29717613169E+04 0.  0.
        5    1    3    3  502    0 -0.10904709326E+04 -0.74392170127E+03  0.10104054871E+04  0.16623741128E+04  0.46999998093E+01 0. -1.
       -5    1    3    3    0  502  0.10904709326E+04  0.74392170127E+03 -0.38380820458E+03  0.13747280387E+04  0.46999998093E+01 0.  1.
</event>
<event>
 5   0  0.2985941E-06  0.2996761E+04  0.7818609E-02  0.8244656E-01
        2   -1    0    0  501    0  0.00000000000E+00  0.00000000000E+00  0.18663092465E+04  0.18663092465E+04  0.25500000920E-02 0. -1.
       -2   -1    0    0    0  501  0.00000000000E+00  0.00000000000E+00 -0.12029859606E+04  0.12029859606E+04  0.25500000920E-02 0.  1.
    10030    2    1    2    0    0  0.00000000000E+00  0.00000000000E+00  0.66332328590E+03  0.30692952071E+04  0.29967607991E+04 0.  0.
        3    1    3    3  502    0 -0.40766054838E+02  0.66152838732E+02  0.18642442201E+04  0.18658629616E+04  0.10100000352E+00 0. -1.
       -3    1    3    3    0  502  0.40766054838E+02 -0.66152838732E+02 -0.12009209342E+04  0.12034322455E+04  0.10100000352E+00 0.  1.
</event>
<event>
 5   0  0.2862033E-06  0.3004358E+04  0.7818609E-02  0.8242488E-01
       -2   -1    0    0    0  501  0.00000000000E+00  0.00000000000E+00  0.26256080809E+04  0.26256080809E+04  0.25500000920E-02 0. -1.
        2   -1    0    0  501    0  0.00000000000E+00  0.00000000000E+00 -0.85943576751E+03  0.85943576751E+03  0.25500000920E-02 0.  1.
    10030    2    1    2    0    0  0.00000000000E+00  0.00000000000E+00  0.17661723134E+04  0.34850438484E+04  0.30043578323E+04 0.  0.
        2    1    3    3  502    0  0.65573748981E+03 -0.11139078605E+03 -0.67931380604E+03  0.95071910144E+03  0.25500000920E-02 0.  1.
       -2    1    3    3    0  502 -0.65573748981E+03  0.11139078605E+03  0.24454861194E+04  0.25343247469E+04  0.25500000920E-02 0. -1.
</event>
<event>
 5   0  0.3113328E-06  0.2981004E+04  0.7818609E-02  0.8249176E-01
        2   -1    0    0  501    0  0.00000000000E+00  0.00000000000E+00  0.20278443461E+04  0.20278443461E+04  0.25500000920E-02 0.  1.
       -2   -1    0    0    0  501  0.00000000000E+00  0.00000000000E+00 -0.10955459735E+04  0.10955459735E+04  0.25500000920E-02 0. -1.
    10030    2    1    2    0    0  0.00000000000E+00  0.00000000000E+00  0.93229837261E+03  0.31233903195E+04  0.29810043329E+04 0.  0.
        1    1    3    3  502    0  0.37981295638E+03 -0.12810339643E+04 -0.22592346029E+03  0.13551189281E+04  0.50400001928E-02 0.  1.
       -1    1    3    3    0  502 -0.37981295638E+03  0.12810339643E+04  0.11582218329E+04  0.17682713914E+04  0.50400001928E-02 0. -1.
</event>
<event>
 5   0  0.1091075E-06  0.2968902E+04  0.7818609E-02  0.8252667E-01
       -1   -1    0    0    0  501  0.00000000000E+00  0.00000000000E+00  0.10723622966E+04  0.10723622966E+04  0.50400001928E-02 0. -1.
        1   -1    0    0  501    0  0.00000000000E+00  0.00000000000E+00 -0.20548982883E+04  0.20548982883E+04  0.50400001928E-02 0.  1.
    10030    2    1    2    0    0  0.00000000000E+00  0.00000000000E+00 -0.98253599170E+03  0.31272605850E+04  0.29689024557E+04 0.  0.
        1    1    3    3  502    0  0.12924772860E+03  0.13597530245E+04  0.12108549335E+03  0.13712384766E+04  0.50400001928E-02 0. -1.
       -1    1    3    3    0  502 -0.12924772860E+03 -0.13597530245E+04 -0.11036214850E+04  0.17560221084E+04  0.50400001928E-02 0.  1.
</event>
<event>
 5   0  0.2970915E-06  0.2984997E+04  0.7818609E-02  0.8248028E-01
        2   -1    0    0  501    0  0.00000000000E+00  0.00000000000E+00  0.19905697856E+04  0.19905697856E+04  0.25500000920E-02 0. -1.
       -2   -1    0    0    0  501  0.00000000000E+00  0.00000000000E+00 -0.11190521252E+04  0.11190521252E+04  0.25500000920E-02 0.  1.
    10030    2    1    2    0    0  0.00000000000E+00  0.00000000000E+00  0.87151766038E+03  0.31096219108E+04  0.29849967162E+04 0.  0.
        4    1    3    3  502    0  0.34271167407E+03  0.17912030829E+03 -0.10659578414E+04  0.11339325857E+04  0.12699999809E+01 0.  1.
       -4    1    3    3    0  502 -0.34271167407E+03 -0.17912030829E+03  0.19374755018E+04  0.19756893251E+04  0.12699999809E+01 0. -1.
</event>
<event>
 5   0  0.2970915E-06  0.2988563E+04  0.7818609E-02  0.8247004E-01
        2   -1    0    0  501    0  0.00000000000E+00  0.00000000000E+00  0.16283162371E+04  0.16283162371E+04  0.25500000920E-02 0.  1.
       -2   -1    0    0    0  501  0.00000000000E+00  0.00000000000E+00 -0.13712802215E+04  0.13712802215E+04  0.25500000920E-02 0. -1.
    10030    2    1    2    0    0  0.00000000000E+00  0.00000000000E+00  0.25703601562E+03  0.29995964585E+04  0.29885634343E+04 0.  0.
        4    1    3    3  502    0 -0.10638101015E+04  0.91824013917E+03  0.63834930712E+03  0.15434857745E+04  0.12699999809E+01 0.  1.
       -4    1    3    3    0  502  0.10638101015E+04 -0.91824013917E+03 -0.38131329150E+03  0.14561106841E+04  0.12699999809E+01 0. -1.
</event>
<event>
 5   0  0.2948711E-06  0.3012158E+04  0.7818609E-02  0.8240268E-01
       -2   -1    0    0    0  501  0.00000000000E+00  0.00000000000E+00  0.18359346920E+04  0.18359346920E+04  0.25500000920E-02 0.  1.
        2   -1    0    0  501    0  0.00000000000E+00  0.00000000000E+00 -0.12354871524E+04  0.12354871524E+04  0.25500000920E-02 0. -1.
    10030    2    1    2    0    0  0.00000000000E+00  0.00000000000E+00  0.60044753959E+03  0.30714218444E+04  0.30121578475E+04 0.  0.
        5    1    3    3  502    0 -0.15441602567E+03  0.44254994858E+03 -0.11592145810E+04  0.12503980569E+04  0.46999998093E+01 0. -1.
       -5    1    3    3    0  502  0.15441602567E+03 -0.44254994858E+03  0.17596621206E+04  0.18210237875E+04  0.46999998093E+01 0.  1.
</event>
<event>
 5   0  0.1097402E-06  0.3018377E+04  0.7818609E-02  0.8238503E-01
        1   -1    0    0  501    0  0.00000000000E+00  0.00000000000E+00  0.13942409735E+04  0.13942409735E+04  0.50400001928E-02 0.  1.
       -1   -1    0    0    0  501  0.00000000000E+00  0.00000000000E+00 -0.16336127246E+04  0.16336127246E+04  0.50400001928E-02 0. -1.
    10030    2    1    2    0    0  0.00000000000E+00  0.00000000000E+00 -0.23937175107E+03  0.30278536981E+04  0.30183769119E+04 0.  0.
        4    1    3    3  502    0  0.93236409768E+03  0.11628444489E+04 -0.35736470614E+03  0.15327169240E+04  0.12699999809E+01 0. -1.
       -4    1    3    3    0  502 -0.93236409768E+03 -0.11628444489E+04  0.11799295507E+03  0.14951367741E+04  0.12699999809E+01 0.  1.
</event>
<event>
 5   0  0.1054384E-06  0.2982916E+04  0.7818609E-02  0.8248626E-01
        1   -1    0    0  501    0  0.00000000000E+00  0.00000000000E+00  0.28650276851E+04  0.28650276851E+04  0.50400001928E-02 0.  1.
       -1   -1    0    0    0  501  0.00000000000E+00  0.00000000000E+00 -0.77641361600E+03  0.77641361602E+03  0.50400001928E-02 0. -1.
    10030    2    1    2    0    0  0.00000000000E+00  0.00000000000E+00  0.20886140691E+04  0.36414413011E+04  0.29829156910E+04 0.  0.
        2    1    3    3  502    0  0.36612584693E+03 -0.94937013667E+02  0.28055066416E+04  0.28308883214E+04  0.25500000920E-02 0.  1.
       -2    1    3    3    0  502 -0.36612584693E+03  0.94937013667E+02 -0.71689257251E+03  0.81055297968E+03  0.25500000920E-02 0. -1.
</event>
<event>
 5   0  0.2985941E-06  0.2891299E+04  0.7818609E-02  0.8275471E-01
        2   -1    0    0  501    0  0.00000000000E+00  0.00000000000E+00  0.20889149056E+04  0.20889149056E+04  0.25500000920E-02 0. -1.
       -2   -1    0    0    0  501  0.00000000000E+00  0.00000000000E+00 -0.10004730461E+04  0.10004730461E+04  0.25500000920E-02 0.  1.
    10030    2    1    2    0    0  0.00000000000E+00  0.00000000000E+00  0.10884418595E+04  0.30893879517E+04  0.28912994024E+04 0.  0.
        3    1    3    3  502    0  0.22492820172E+03  0.12732656933E+03 -0.97558408905E+03  0.10092418324E+04  0.10100000352E+00 0.  1.
       -3    1    3    3    0  502 -0.22492820172E+03 -0.12732656933E+03  0.20640259486E+04  0.20801461193E+04  0.10100000352E+00 0. -1.
</event>
<event>
 5   0  0.2970915E-06  0.3023143E+04  0.7818609E-02  0.8237153E-01
       -2   -1    0    0    0  501  0.00000000000E+00  0.00000000000E+00  0.18799821990E+04  0.18799821990E+04  0.25500000920E-02 0. -1.
        2   -1    0    0  501    0  0.00000000000E+00  0.00000000000E+00 -0.12153564527E+04  0.12153564527E+04  0.25500000920E-02 0.  1.
    10030    2    1    2    0    0  0.00000000000E+00  0.00000000000E+00  0.66462574636E+03  0.30953386517E+04  0.30231430641E+04 0.  0.
        4    1    3    3  502    0 -0.38974754400E+03  0.80537655375E+03  0.15797312002E+04  0.18155128254E+04  0.12699999809E+01 0. -1.
       -4    1    3    3    0  502  0.38974754400E+03 -0.80537655375E+03 -0.91510545380E+03  0.12798258264E+04  0.12699999809E+01 0.  1.
</event>
<event>
 5   0  0.2970915E-06  0.2993633E+04  0.7818609E-02  0.8245551E-01
        2   -1    0    0  501    0  0.00000000000E+00  0.00000000000E+00  0.14116488700E+04  0.14116488700E+04  0.25500000920E-02 0. -1.
       -2   -1    0    0    0  501  0.00000000000E+00  0.00000000000E+00 -0.15871223022E+04  0.15871223022E+04  0.25500000920E-02 0.  1.
    10030    2    1    2    0    0  0.00000000000E+00  0.00000000000E+00 -0.17547343223E+03  0.29987711722E+04  0.29936328462E+04 0.  0.
        4    1    3    3  502    0 -0.86028704338E+03 -0.31640878883E+03  0.10976157317E+04  0.14300245544E+04  0.12699999809E+01 0. -1.
       -4    1    3    3    0  502  0.86028704338E+03  0.31640878883E+03 -0.12730891640E+04  0.15687466178E+04  0.12699999809E+01 0.  1.
</event>
<event>
 5   0  0.1091076E-06  0.3004445E+04  0.7818609E-02  0.8242463E-01
        1   -1    0    0  501    0  0.00000000000E+00  0.00000000000E+00  0.17394593186E+04  0.17394593187E+04  0.50400001928E-02 0. -1.
       -1   -1    0    0    0  501  0.00000000000E+00  0.00000000000E+00 -0.12973416428E+04  0.12973416428E+04  0.50400001928E-02 0.  1.
    10030    2    1    2    0    0  0.00000000000E+00  0.00000000000E+00  0.44211767581E+03  0.30368009615E+04  0.30044453798E+04 0.  0.
        3    1    3    3  502    0  0.23784313917E+03 -0.14029876538E+04 -0.26550796548E+03  0.14475628503E+04  0.10100000352E+00 0. -1.
       -3    1    3    3    0  502 -0.23784313917E+03  0.14029876538E+04  0.70762564130E+03  0.15892381112E+04  0.10100000352E+00 0.  1.
</event>
<event>
 5   0  0.1091075E-06  0.3016132E+04  0.7818609E-02  0.8239139E-01
        1   -1    0    0  501    0  0.00000000000E+00  0.00000000000E+00  0.13948029990E+04  0.13948029990E+04  0.50400001928E-02 0. -1.
       -1   -1    0    0    0  501  0.00000000000E+00  0.00000000000E+00 -0.16305266135E+04  0.16305266135E+04  0.50400001928E-02 0.  1.
    10030    2    1    2    0    0  0.00000000000E+00  0.00000000000E+00 -0.23572361451E+03  0.30253296125E+04  0.30161322322E+04 0.  0.
        1    1    3    3  502    0 -0.10926221551E+04  0.32638290731E+03  0.87201858527E+03  0.14355366206E+04  0.50400001928E-02 0. -1.
       -1    1    3    3    0  502  0.10926221551E+04 -0.32638290731E+03 -0.11077421998E+04  0.15897929919E+04  0.50400001928E-02 0.  1.
</event>
<event>
 5   0  0.1097402E-06  0.2987810E+04  0.7818609E-02  0.8247221E-01
        1   -1    0    0  501    0  0.00000000000E+00  0.00000000000E+00  0.19395265874E+04  0.19395265874E+04  0.50400001928E-02 0.  1.
       -1   -1    0    0    0  501  0.00000000000E+00  0.00000000000E+00 -0.11506681815E+04  0.11506681815E+04  0.50400001928E-02 0. -1.
    10030    2    1    2    0    0  0.00000000000E+00  0.00000000000E+00  0.78885840590E+03  0.30901947690E+04  0.29878095866E+04 0.  0.
        4    1    3    3  502    0 -0.30323606629E+03 -0.78073476260E+03  0.16738525688E+04  0.18717058840E+04  0.12699999809E+01 0.  1.
       -4    1    3    3    0  502  0.30323606629E+03  0.78073476260E+03 -0.88499416289E+03  0.12184888849E+04  0.12699999809E+01 0. -1.
</event>
<event>
 5   0  0.3113328E-06  0.2999736E+04  0.7818609E-02  0.8243806E-01
        2   -1    0    0  501    0  0.00000000000E+00  0.00000000000E+00  0.19638440614E+04  0.19638440614E+04  0.25500000920E-02 0.  1.
       -2   -1    0    0    0  501  0.00000000000E+00  0.00000000000E+00 -0.11455105362E+04  0.11455105362E+04  0.25500000920E-02 0. -1.
    10030    2    1    2    0    0  0.00000000000E+00  0.00000000000E+00  0.81833352515E+03  0.31093545976E+04  0.29997360309E+04 0.  0.
        1    1    3    3  502    0  0.66777061341E+03 -0.31734376119E+03 -0.94350340370E+03  0.11986756558E+04  0.50400001928E-02 0. -1.
       -1    1    3    3    0  502 -0.66777061341E+03  0.31734376119E+03  0.17618369288E+04  0.19106789418E+04  0.50400001928E-02 0.  1.
</event>
<event>
 5   0  0.2970915E-06  0.3003972E+04  0.7818609E-02  0.8242598E-01
       -2   -1    0    0    0  501  0.00000000000E+00  0.00000000000E+00  0.12520147964E+04  0.12520147964E+04  0.25500000920E-02 0. -1.
        2   -1    0    0  501    0  0.00000000000E+00  0.00000000000E+00 -0.18018651908E+04  0.18018651908E+04  0.25500000920E-02 0.  1.
    10030    2    1    2    0    0  0.00000000000E+00  0.00000000000E+00 -0.54985039438E+03  0.30538799873E+04  0.30039719573E+04 0.  0.
        4    1    3    3  502    0 -0.16767551205E+03  0.14313220222E+04  0.15538297942E+03  0.14494631047E+04  0.12699999809E+01 0. -1.
       -4    1    3    3    0  502  0.16767551205E+03 -0.14313220222E+04 -0.70523337380E+03  0.16044168826E+04  0.12699999809E+01 0.  1.
</event>
<event>
 5   0  0.1113245E-06  0.3038306E+04  0.7818609E-02  0.8232876E-01
       -1   -1    0    0    0  501  0.00000000000E+00  0.00000000000E+00  0.14120553729E+04  0.14120553729E+04  0.50400001928E-02 0.  1.
        1   -1    0    0  501    0  0.00000000000E+00  0.00000000000E+00 -0.16343729708E+04  0.16343729708E+04  0.50400001928E-02 0. -1.
    10030    2    1    2    0    0  0.00000000000E+00  0.00000000000E+00 -0.22231759790E+03  0.30464283437E+04  0.30383055375E+04 0.  0.
        5    1    3    3  502    0 -0.12504001645E+04 -0.73896689424E+03 -0.55757983783E+03  0.15557924051E+04  0.46999998093E+01 0. -1.
       -5    1    3    3    0  502  0.12504001645E+04  0.73896689424E+03  0.33526223993E+03  0.14906359386E+04  0.46999998093E+01 0.  1.
</event>
<event>
 5   0  0.3113328E-06  0.2981192E+04  0.7818609E-02  0.8249122E-01
       -2   -1    0    0    0  501  0.00000000000E+00  0.00000000000E+00  0.19346655803E+04  0.19346655803E+04  0.25500000920E-02 0. -1.
        2   -1    0    0  501    0  0.00000000000E+00  0.00000000000E+00 -0.11484548225E+04  0.11484548225E+04  0.25500000920E-02 0.  1.
    10030    2    1    2    0    0  0.00000000000E+00  0.00000000000E+00  0.78621075788E+03  0.30831204028E+04  0.29811917185E+04 0.  0.
        1    1    3    3  502    0  0.80615512372E+03  0.11790345818E+04 -0.47934634496E+02  0.14290928443E+04  0.50400001928E-02 0.  1.
       -1    1    3    3    0  502 -0.80615512372E+03 -0.11790345818E+04  0.83414539237E+03  0.16540275585E+04  0.50400001928E-02 0. -1.
</event>
<event>
 5   0  0.1091076E-06  0.3018947E+04  0.7818609E-02  0.8238341E-01
        1   -1    0    0  501    0  0.00000000000E+00  0.00000000000E+00  0.13591602211E+04  0.13591602211E+04  0.50400001928E-02 0. -1.
       -1   -1    0    0    0  501  0.00000000000E+00  0.00000000000E+00 -0.16764105578E+04  0.16764105578E+04  0.50400001928E-02 0.  1.
    10030    2    1    2    0    0  0.00000000000E+00  0.00000000000E+00 -0.31725033677E+03  0.30355707789E+04  0.30189471969E+04 0.  0.
        3    1    3    3  502    0  0.88831520650E+03  0.84261310698E+03 -0.10463283410E+04  0.16105600770E+04  0.10100000352E+00 0.  1.
       -3    1    3    3    0  502 -0.88831520650E+03 -0.84261310698E+03  0.72907800425E+03  0.14250107019E+04  0.10100000352E+00 0. -1.
</event>
<event>
 5   0  0.9749500E-07  0.3011684E+04  0.7818609E-02  0.8240402E-01
       -3   -1    0    0    0  501  0.00000000000E+00  0.00000000000E+00  0.12162523168E+04  0.12162523210E+04  0.10100000352E+00 0. -1.
        3   -1    0    0  501    0  0.00000000000E+00  0.00000000000E+00 -0.18643831116E+04  0.18643831143E+04  0.10100000352E+00 0.  1.
    10030    2    1    2    0    0  0.00000000000E+00  0.00000000000E+00 -0.64813079478E+03  0.30806354354E+04  0.30116841067E+04 0.  0.
        4    1    3    3  502    0 -0.82786104881E+03 -0.12390425354E+04 -0.54577259750E+03  0.15869624008E+04  0.12699999809E+01 0.  1.
       -4    1    3    3    0  502  0.82786104881E+03  0.12390425354E+04 -0.10235819728E+03  0.14936730345E+04  0.12699999809E+01 0. -1.
</event>
<event>
 5   0  0.1113245E-06  0.3002189E+04  0.7818609E-02  0.8243106E-01
        1   -1    0    0  501    0  0.00000000000E+00  0.00000000000E+00  0.17311970379E+04  0.17311970379E+04  0.50400001928E-02 0.  1.
       -1   -1    0    0    0  501  0.00000000000E+00  0.00000000000E+00 -0.13015762088E+04  0.13015762088E+04  0.50400001928E-02 0. -1.
    10030    2    1    2    0    0  0.00000000000E+00  0.00000000000E+00  0.42962082913E+03  0.30327732467E+04  0.30021891194E+04 0.  0.
        5    1    3    3  502    0 -0.61121750803E+03 -0.15416467559E+03 -0.11613854731E+04  0.13214355438E+04  0.46999998093E+01 0. -1.
       -5    1    3    3    0  502  0.61121750803E+03  0.15416467559E+03  0.15910063023E+04  0.17113377028E+04  0.46999998093E+01 0.  1.
</event>
<event>
 5   0  0.9749500E-07  0.2940543E+04  0.7818609E-02  0.8260916E-01
        4   -1    0    0  501    0  0.00000000000E+00  0.00000000000E+00  0.12470281602E+04  0.12470288069E+04  0.12699999809E+01 0. -1.
       -4   -1    0    0    0  501  0.00000000000E+00  0.00000000000E+00 -0.17334784048E+04  0.17334788700E+04  0.12699999809E+01 0.  1.
    10030    2    1    2    0    0  0.00000000000E+00  0.00000000000E+00 -0.48645024460E+03  0.29805076769E+04  0.29405428362E+04 0.  0.
        4    1    3    3  502    0 -0.64422531139E+03 -0.12351406897E+04 -0.71982596107E+03  0.15680401150E+04  0.12699999809E+01 0.  1.
       -4    1    3    3    0  502  0.64422531139E+03  0.12351406897E+04  0.23337571646E+03  0.14124675618E+04  0.12699999809E+01 0. -1.
</event>
<event>
 5   0  0.2948711E-06  0.2960037E+04  0.7818609E-02  0.8255235E-01
        2   -1    0    0  501    0  0.00000000000E+00  0.00000000000E+00  0.22059814672E+04  0.22059814672E+04  0.25500000920E-02 0.  1.
       -2   -1    0    0    0  501  0.00000000000E+00  0.00000000000E+00 -0.99296154026E+03  0.99296154026E+03  0.25500000920E-02 0. -1.
    10030    2    1    2    0    0  0.00000000000E+00  0.00000000000E+00  0.12130199270E+04  0.31989430075E+04  0.29600369967E+04 0.  0.
        5    1    3    3  502    0 -0.12140910004E+04 -0.29092551789E+02 -0.30767741927E+03  0.12528171527E+04  0.46999998093E+01 0. -1.
       -5    1    3    3    0  502  0.12140910004E+04  0.29092551789E+02  0.15206973463E+04  0.19461258548E+04  0.46999998093E+01 0.  1.
</event>
<event>
 5   0  0.2862033E-06  0.2947214E+04  0.7818609E-02  0.8258967E-01
       -2   -1    0    0    0  501  0.00000000000E+00  0.00000000000E+00  0.97410952170E+03  0.97410952170E+03  0.25500000920E-02 0. -1.
        2   -1    0    0  501    0  0.00000000000E+00  0.00000000000E+00 -0.22292332262E+04  0.22292332262E+04  0.25500000920E-02 0.  1.
    10030    2    1    2    0    0  0.00000000000E+00  0.00000000000E+00 -0.12551237045E+04  0.32033427479E+04  0.29472138109E+04 0.  0.
        2    1    3    3  502    0 -0.12758546268E+04  0.69319766926E+03 -0.35434124679E+03  0.14946189336E+04  0.25500000920E-02 0. -1.
       -2    1    3    3    0  502  0.12758546268E+04 -0.69319766926E+03 -0.90078245770E+03  0.17087238143E+04  0.25500000920E-02 0.  1.
</event>
<event>
 5   0  0.1091075E-06  0.3022804E+04  0.7818609E-02  0.8237249E-01
       -1   -1    0    0    0  501  0.00000000000E+00  0.00000000000E+00  0.13444199609E+04  0.13444199609E+04  0.50400001928E-02 0.  1.
        1   -1    0    0  501    0  0.00000000000E+00  0.00000000000E+00 -0.16991239934E+04  0.16991239934E+04  0.50400001928E-02 0. -1.
    10030    2    1    2    0    0  0.00000000000E+00  0.00000000000E+00 -0.35470403253E+03  0.30435439543E+04  0.30228041371E+04 0.  0.
        1    1    3    3  502    0  0.14215710591E+04 -0.36615332795E+03 -0.53954737338E+03  0.15639833451E+04  0.50400001928E-02 0. -1.
       -1    1    3    3    0  502 -0.14215710591E+04  0.36615332795E+03  0.18484334084E+03  0.14795606092E+04  0.50400001928E-02 0.  1.
</event>
<event>
 5   0  0.2948711E-06  0.3007922E+04  0.7818609E-02  0.8241472E-01
       -2   -1    0    0    0  501  0.00000000000E+00  0.00000000000E+00  0.11715717671E+04  0.11715717671E+04  0.25500000920E-02 0.  1.
        2   -1    0    0  501    0  0.00000000000E+00  0.00000000000E+00 -0.19306527178E+04  0.19306527178E+04  0.25500000920E-02 0. -1.
    10030    2    1    2    0    0  0.00000000000E+00  0.00000000000E+00 -0.75908095075E+03  0.31022244849E+04  0.30079216854E+04 0.  0.
        5    1    3    3  502    0 -0.23235141716E+03 -0.14610400261E+04 -0.10040602621E+03  0.14828110463E+04  0.46999998093E+01 0. -1.
       -5    1    3    3    0  502  0.23235141716E+03  0.14610400261E+04 -0.65867492454E+03  0.16194134386E+04  0.46999998093E+01 0.  1.
</event>
<event>
 5   0  0.1113245E-06  0.2958512E+04  0.7818609E-02  0.8255678E-01
        1   -1    0    0  501    0  0.00000000000E+00  0.00000000000E+00  0.13539330429E+04  0.13539330429E+04  0.50400001928E-02 0.  1.
       -1   -1    0    0    0  501  0.00000000000E+00  0.00000000000E+00 -0.16161792902E+04  0.16161792903E+04  0.50400001928E-02 0. -1.
    10030    2    1    2    0    0  0.00000000000E+00  0.00000000000E+00 -0.26224624731E+03  0.29701123332E+04  0.29585121561E+04 0.  0.
        5    1    3    3  502    0 -0.31318997010E+03  0.14391377484E+04 -0.26939856896E+03  0.14972652054E+04  0.46999998093E+01 0.  1.
       -5    1    3    3    0  502  0.31318997010E+03 -0.14391377484E+04  0.71523216410E+01  0.14728471278E+04  0.46999998093E+01 0. -1.
</event>
<event>
 5   0  0.2985941E-06  0.2959254E+04  0.7818609E-02  0.8255463E-01
       -2   -1    0    0    0  501  0.00000000000E+00  0.00000000000E+00  0.14569241640E+04  0.14569241640E+04  0.25500000920E-02 0. -1.
        2   -1    0    0  501    0  0.00000000000E+00  0.00000000000E+00 -0.15026832410E+04  0.15026832410E+04  0.25500000920E-02 0.  1.
    10030    2    1    2    0    0  0.00000000000E+00  0.00000000000E+00 -0.45759077056E+02  0.29596074050E+04  0.29592536388E+04 0.  0.
        3    1    3    3  502    0 -0.19899079509E+03 -0.14547660912E+04  0.15977251608E+03  0.14769796829E+04  0.10100000352E+00 0.  1.
       -3    1    3    3    0  502  0.19899079509E+03  0.14547660912E+04 -0.20553159314E+03  0.14826277222E+04  0.10100000352E+00 0. -1.
</event>
<event>
 5   0  0.2948711E-06  0.2996296E+04  0.7818609E-02  0.8244789E-01
        2   -1    0    0  501    0  0.00000000000E+00  0.00000000000E+00  0.13892968503E+04  0.13892968503E+04  0.25500000920E-02 0.  1.
       -2   -1    0    0    0  501  0.00000000000E+00  0.00000000000E+00 -0.16155276548E+04  0.16155276548E+04  0.25500000920E-02 0. -1.
    10030    2    1    2    0    0  0.00000000000E+00  0.00000000000E+00 -0.22623080446E+03  0.30048245052E+04  0.29962960351E+04 0.  0.
        5    1    3    3  502    0 -0.10249465191E+04  0.57464557310E+03 -0.10451112224E+04  0.15725814634E+04  0.46999998093E+01 0.  1.
       -5    1    3    3    0  502  0.10249465191E+04 -0.57464557310E+03  0.81888041795E+03  0.14322430418E+04  0.46999998093E+01 0. -1.
</event>
<event>
 5   0  0.1097402E-06  0.2952631E+04  0.7818609E-02  0.8257388E-01
        1   -1    0    0  501    0  0.00000000000E+00  0.00000000000E+00  0.18115293041E+04  0.18115293042E+04  0.50400001928E-02 0.  1.
       -1   -1    0    0    0  501  0.00000000000E+00  0.00000000000E+00 -0.12031311358E+04  0.12031311358E+04  0.50400001928E-02 0. -1.
    10030    2    1    2    0    0  0.00000000000E+00  0.00000000000E+00  0.60839816837E+03  0.30146604399E+04  0.29526309009E+04 0.  0.
        4    1    3    3  502    0  0.20152128883E+03  0.78862104863E+03 -0.95332983703E+03  0.12535443268E+04  0.12699999809E+01 0. -1.
       -4    1    3    3    0  502 -0.20152128883E+03 -0.78862104863E+03  0.15617280054E+04  0.17611161131E+04  0.12699999809E+01 0.  1.
</event>
<event>
 5   0  0.2985941E-06  0.2997348E+04  0.7818609E-02  0.8244488E-01
        2   -1    0    0  501    0  0.00000000000E+00  0.00000000000E+00  0.19809286450E+04  0.19809286450E+04  0.25500000920E-02 0. -1.
       -2   -1    0    0    0  501  0.00000000000E+00  0.00000000000E+00 -0.11338239152E+04  0.11338239152E+04  0.25500000920E-02 0.  1.
    10030    2    1    2    0    0  0.00000000000E+00  0.00000000000E+00  0.84710472988E+03  0.31147525602E+04  0.29973483428E+04 0.  0.
        3    1    3    3  502    0  0.67669031428E+02 -0.12780720488E+04  0.12338226436E+04  0.17777417096E+04  0.10100000352E+00 0. -1.
       -3    1    3    3    0  502 -0.67669031428E+02  0.12780720488E+04 -0.38671791373E+03  0.13370108507E+04  0.10100000352E+00 0.  1.
</event>
<event>
 5   0  0.2862033E-06  0.3010091E+04  0.7818609E-02  0.8240855E-01
       -2   -1    0    0    0  501  0.00000000000E+00  0.00000000000E+00  0.13886841719E+04  0.13886841719E+04  0.25500000920E-02 0. -1.
        2   -1    0    0  501    0  0.00000000000E+00  0.00000000000E+00 -0.16311566062E+04  0.16311566062E+04  0.25500000920E-02 0.  1.
    10030    2    1    2    0    0  0.00000000000E+00  0.00000000000E+00 -0.24247243431E+03  0.30198407781E+04  0.30100906039E+04 0.  0.
        2    1    3    3  502    0  0.75474271738E+02  0.14126951786E+04  0.39400042847E+03  0.14685504318E+04  0.25500000920E-02 0. -1.
       -2    1    3    3    0  502 -0.75474271738E+02 -0.14126951786E+04 -0.63647286279E+03  0.15512903462E+04  0.25500000920E-02 0.  1.
</event>
<event>
 5   0  0.2970915E-06  0.3001711E+04  0.7818609E-02  0.8243242E-01
        2   -1    0    0  501    0  0.00000000000E+00  0.00000000000E+00  0.28171997573E+04  0.28171997573E+04  0.25500000920E-02 0.  1.
       -2   -1    0    0    0  501  0.00000000000E+00  0.00000000000E+00 -0.79957676518E+03  0.79957676519E+03  0.25500000920E-02 0. -1.
    10030    2    1    2    0    0  0.00000000000E+00  0.00000000000E+00  0.20176229922E+04  0.36167765225E+04  0.30017111579E+04 0.  0.
        4    1    3    3  502    0 -0.61151262063E+03  0.55820311724E+03  0.25171231184E+04  0.26498016551E+04  0.12699999809E+01 0.  1.
       -4    1    3    3    0  502  0.61151262063E+03 -0.55820311724E+03 -0.49950012621E+03  0.96697486745E+03  0.12699999809E+01 0. -1.
</event>
<event>
 5   0  0.2948711E-06  0.2998392E+04  0.7818609E-02  0.8244190E-01
        2   -1    0    0  501    0  0.00000000000E+00  0.00000000000E+00  0.27246529866E+04  0.27246529866E+04  0.25500000920E-02 0.  1.
       -2   -1    0    0    0  501  0.00000000000E+00  0.00000000000E+00 -0.82490833161E+03  0.82490833161E+03  0.25500000920E-02 0. -1.
    10030    2    1    2    0    0  0.00000000000E+00  0.00000000000E+00  0.18997446550E+04  0.35495613182E+04  0.29983922021E+04 0.  0.
        5    1    3    3  502    0 -0.12137379405E+04 -0.78438915860E+03  0.47761696171E+03  0.15220270013E+04  0.46999998093E+01 0. -1.
       -5    1    3    3    0  502  0.12137379405E+04  0.78438915860E+03  0.14221276933E+04  0.20275343170E+04  0.46999998093E+01 0.  1.
</event>
<event>
 5   0  0.3113328E-06  0.3007223E+04  0.7818609E-02  0.8241671E-01
       -2   -1    0    0    0  501  0.00000000000E+00  0.00000000000E+00  0.13073512163E+04  0.13073512163E+04  0.25500000920E-02 0.  1.
        2   -1    0    0  501    0  0.00000000000E+00  0.00000000000E+00 -0.17293340105E+04  0.17293340105E+04  0.25500000920E-02 0. -1.
    10030    2    1    2    0    0  0.00000000000E+00  0.00000000000E+00 -0.42198279420E+03  0.30366852268E+04  0.30072225870E+04 0.  0.
        1    1    3    3  502    0 -0.36268856093E+03 -0.11806854958E+04  0.65489767528E+03  0.13980172379E+04  0.50400001928E-02 0.  1.
       -1    1    3    3    0  502  0.36268856093E+03  0.11806854958E+04 -0.10768804695E+04  0.16386679889E+04  0.50400001928E-02 0. -1.
</event>
<event>
 5   0  0.3113328E-06  0.2992771E+04  0.7818609E-02  0.8245798E-01
       -2   -1    0    0    0  501  0.00000000000E+00  0.00000000000E+00  0.14641433612E+04  0.14641433612E+04  0.25500000920E-02 0. -1.
        2   -1    0    0  501    0  0.00000000000E+00  0.00000000000E+00 -0.15293379989E+04  0.15293379989E+04  0.25500000920E-02 0.  1.
    10030    2    1    2    0    0  0.00000000000E+00  0.00000000000E+00 -0.65194637710E+02  0.29934813602E+04  0.29927713432E+04 0.  0.
        1    1    3    3  502    0 -0.47462056818E+03 -0.39904582981E+03 -0.13947823070E+04  0.15264075282E+04  0.50400001928E-02 0.  1.
       -1    1    3    3    0  502  0.47462056818E+03  0.39904582981E+03  0.13295876693E+04  0.14670738320E+04  0.50400001928E-02 0. -1.
</event>
<event>
 5   0  0.1091075E-06  0.2992001E+04  0.7818609E-02  0.8246019E-01
       -1   -1    0    0    0  501  0.00000000000E+00  0.00000000000E+00  0.12577820548E+04  0.12577820548E+04  0.50400001928E-02 0. -1.
        1   -1    0    0  501    0  0.00000000000E+00  0.00000000000E+00 -0.17793361940E+04  0.17793361940E+04  0.50400001928E-02 0.  1.
    10030    2    1    2    0    0  0.00000000000E+00  0.00000000000E+00 -0.52155413918E+03  0.30371182488E+04  0.29920007582E+04 0.  0.
        1    1    3    3  502    0 -0.13760925982E+04  0.47300992875E+03 -0.61335886943E+03  0.15791068153E+04  0.50400001928E-02 0.  1.
       -1    1    3    3    0  502  0.13760925982E+04 -0.47300992875E+03  0.91804730252E+02  0.14580114334E+04  0.50400001928E-02 0. -1.
</event>
<event>
 5   0  0.1054384E-06  0.2978911E+04  0.7818609E-02  0.8249779E-01
        1   -1    0    0  501    0  0.00000000000E+00  0.00000000000E+00  0.13179353739E+04  0.13179353740E+04  0.50400001928E-02 0. -1.
       -1   -1    0    0    0  501  0.00000000000E+00  0.00000000000E+00 -0.16832982897E+04  0.16832982897E+04  0.50400001928E-02 0.  1.
    10030    2    1    2    0    0  0.00000000000E+00  0.00000000000E+00 -0.36536291578E+03  0.30012336637E+04  0.29789114528E+04 0.  0.
        2    1    3    3  502    0  0.11559380291E+04  0.33824346932E+03 -0.10655337354E+04  0.16080931294E+04  0.25500000920E-02 0.  1.
       -2    1    3    3    0  502 -0.11559380291E+04 -0.33824346932E+03  0.70017081958E+03  0.13931405343E+04  0.25500000920E-02 0. -1.
</event>
<event>
 5   0  0.3113328E-06  0.2997473E+04  0.7818609E-02  0.8244453E-01
        2   -1    0    0  501    0  0.00000000000E+00  0.00000000000E+00  0.10514995299E+04  0.10514995299E+04  0.25500000920E-02 0. -1.
       -2   -1    0    0    0  501  0.00000000000E+00  0.00000000000E+00 -0.21361974773E+04  0.21361974773E+04  0.25500000920E-02 0.  1.
    10030    2    1    2    0    0  0.00000000000E+00  0.00000000000E+00 -0.10846979474E+04  0.31876970073E+04  0.29974726976E+04 0.  0.
        1    1    3    3  502    0 -0.22575445347E+01  0.10855952554E+04 -0.16412133105E+04  0.19677660648E+04  0.50400001928E-02 0.  1.
       -1    1    3    3    0  502  0.22575445347E+01 -0.10855952554E+04  0.55651536312E+03  0.12199309425E+04  0.50400001928E-02 0. -1.
</event>
<event>
 5   0  0.1113245E-06  0.3001321E+04  0.7818609E-02  0.8243354E-01
       -1   -1    0    0    0  501  0.00000000000E+00  0.00000000000E+00  0.18690530435E+04  0.18690530435E+04  0.50400001928E-02 0.  1.
        1   -1    0    0  501    0  0.00000000000E+00  0.00000000000E+00 -0.12048789221E+04  0.12048789221E+04  0.50400001928E-02 0. -1.
    10030    2    1    2    0    0  0.00000000000E+00  0.00000000000E+00  0.66417412140E+03  0.30739319655E+04  0.30013214532E+04 0.  0.
        5    1    3    3  502    0  0.43643568565E+03 -0.66363169095E+03  0.16361051437E+04  0.18187207757E+04  0.46999998093E+01 0.  1.
       -5    1    3    3    0  502 -0.43643568565E+03  0.66363169095E+03 -0.97193102228E+03  0.12552111898E+04  0.46999998093E+01 0. -1.
</event>
<event>
 5   0  0.2948711E-06  0.3019518E+04  0.7818609E-02  0.8238179E-01
        2   -1    0    0  501    0  0.00000000000E+00  0.00000000000E+00  0.25025714192E+04  0.25025714192E+04  0.25500000920E-02 0. -1.
       -2   -1    0    0    0  501  0.00000000000E+00  0.00000000000E+00 -0.91081206831E+03  0.91081206831E+03  0.25500000920E-02 0.  1.
    10030    2    1    2    0    0  0.00000000000E+00  0.00000000000E+00  0.15917593508E+04  0.34133834875E+04  0.30195180081E+04 0.  0.
        5    1    3    3  502    0  0.24007056689E+03 -0.30052588656E+02  0.24805055503E+04  0.24922814669E+04  0.46999998093E+01 0. -1.
       -5    1    3    3    0  502 -0.24007056689E+03  0.30052588656E+02 -0.88874619948E+03  0.92110202055E+03  0.46999998093E+01 0.  1.
</event>
<event>
 5   0  0.1091076E-06  0.3006088E+04  0.7818609E-02  0.8241995E-01
       -1   -1    0    0    0  501  0.00000000000E+00  0.00000000000E+00  0.10072134955E+04  0.10072134955E+04  0.50400001928E-02 0. -1.
        1   -1    0    0  501    0  0.00000000000E+00  0.00000000000E+00 -0.22429610213E+04  0.22429610213E+04  0.50400001928E-02 0.  1.
    10030    2    1    2    0    0  0.00000000000E+00  0.00000000000E+00 -0.12357475259E+04  0.32501745168E+04  0.30060875639E+04 0.  0.
        3    1    3    3  502    0 -0.66127593939E+03  0.63351570461E+02 -0.20756237232E+04  0.21793377755E+04  0.10100000352E+00 0.  1.
       -3    1    3    3    0  502  0.66127593939E+03 -0.63351570461E+02  0.83987619729E+03  0.10708367413E+04  0.10100000352E+00 0. -1.
</event>
<event>
 5   0  0.2862033E-06  0.2998717E+04  0.7818609E-02  0.8244097E-01
       -2   -1    0    0    0  501  0.00000000000E+00  0.00000000000E+00  0.12410255966E+04  0.12410255966E+04  0.25500000920E-02 0.  1.
        2   -1    0    0  501    0  0.00000000000E+00  0.00000000000E+00 -0.18114664508E+04  0.18114664508E+04  0.25500000920E-02 0. -1.
    10030    2    1    2    0    0  0.00000000000E+00  0.00000000000E+00 -0.57044085422E+03  0.30524920474E+04  0.29987172143E+04 0.  0.
        2    1    3    3  502    0  0.87003651753E+03  0.51026342093E+03 -0.14145036602E+04  0.17372831967E+04  0.25500000920E-02 0. -1.
       -2    1    3    3    0  502 -0.87003651753E+03 -0.51026342093E+03  0.84406280602E+03  0.13152088507E+04  0.25500000920E-02 0.  1.
</event>
<event>
 5   0  0.1097402E-06  0.2915125E+04  0.7818609E-02  0.8268392E-01
        1   -1    0    0  501    0  0.00000000000E+00  0.00000000000E+00  0.15516482154E+04  0.15516482154E+04  0.50400001928E-02 0. -1.
       -1   -1    0    0    0  501  0.00000000000E+00  0.00000000000E+00 -0.13691816351E+04  0.13691816351E+04  0.50400001928E-02 0.  1.
    10030    2    1    2    0    0  0.00000000000E+00  0.00000000000E+00  0.18246658032E+03  0.29208298505E+04  0.29151248623E+04 0.  0.
        4    1    3    3  502    0 -0.96581215980E+03  0.10916219375E+04  0.83799512002E+02  0.14599505312E+04  0.12699999809E+01 0. -1.
       -4    1    3    3    0  502  0.96581215980E+03 -0.10916219375E+04  0.98667068322E+02  0.14608793193E+04  0.12699999809E+01 0.  1.
</event>
<event>
 5   0  0.1113245E-06  0.3007361E+04  0.7818609E-02  0.8241632E-01
        1   -1    0    0  501    0  0.00000000000E+00  0.00000000000E+00  0.89234841227E+03  0.89234841229E+03  0.50400001928E-02 0.  1.
       -1   -1    0    0    0  501  0.00000000000E+00  0.00000000000E+00 -0.25338257376E+04  0.25338257376E+04  0.50400001928E-02 0. -1.
    10030    2    1    2    0    0  0.00000000000E+00  0.00000000000E+00 -0.16414773254E+04  0.34261741499E+04  0.30073612181E+04 0.  0.
        5    1    3    3  502    0  0.12240630793E+04 -0.84796593526E+03 -0.58269919761E+03  0.15990425555E+04  0.46999998093E+01 0.  1.
       -5    1    3    3    0  502 -0.12240630793E+04  0.84796593526E+03 -0.10587781278E+04  0.18271315944E+04  0.46999998093E+01 0. -1.
</event>
<event>
 5   0  0.1091075E-06  0.3033879E+04  0.7818609E-02  0.8234122E-01
       -1   -1    0    0    0  501  0.00000000000E+00  0.00000000000E+00  0.20694391309E+04  0.20694391309E+04  0.50400001928E-02 0. -1.
        1   -1    0    0  501    0  0.00000000000E+00  0.00000000000E+00 -0.11119461989E+04  0.11119461989E+04  0.50400001928E-02 0.  1.
    10030    2    1    2    0    0  0.00000000000E+00  0.00000000000E+00  0.95749293203E+03  0.31813853298E+04  0.30338786894E+04 0.  0.
        1    1    3    3  502    0  0.96221187298E+03 -0.11896818861E+03 -0.74463826807E+03  0.12224938727E+04  0.50400001928E-02 0.  1.
       -1    1    3    3    0  502 -0.96221187298E+03  0.11896818861E+03  0.17021312001E+04  0.19588914571E+04  0.50400001928E-02 0. -1.
</event>
<event>
 5   0  0.1054384E-06  0.3004218E+04  0.7818609E-02  0.8242527E-01
        1   -1    0    0  501    0  0.00000000000E+00  0.00000000000E+00  0.14858110564E+04  0.14858110564E+04  0.50400001928E-02 0.  1.
       -1   -1    0    0    0  501  0.00000000000E+00  0.00000000000E+00 -0.15185859837E+04  0.15185859837E+04  0.50400001928E-02 0. -1.
    10030    2    1    2    0    0  0.00000000000E+00  0.00000000000E+00 -0.32774927295E+02  0.30043970402E+04  0.30042182642E+04 0.  0.
        2    1    3    3  502    0  0.10732337844E+04  0.90608251398E+03  0.51610602057E+03  0.14963895558E+04  0.25500000920E-02 0.  1.
       -2    1    3    3    0  502 -0.10732337844E+04 -0.90608251398E+03 -0.54888094787E+03  0.15080074844E+04  0.25500000920E-02 0. -1.
</event>
<event>
 5   0  0.2985941E-06  0.2826539E+04  0.7818609E-02  0.8295076E-01
       -2   -1    0    0    0  501  0.00000000000E+00  0.00000000000E+00  0.76338020907E+03  0.76338020907E+03  0.25500000920E-02 0.  1.
        2   -1    0    0  501    0  0.00000000000E+00  0.00000000000E+00 -0.26164288879E+04  0.26164288879E+04  0.25500000920E-02 0. -1.
    10030    2    1    2    0    0  0.00000000000E+00  0.00000000000E+00 -0.18530486788E+04  0.33798090969E+04  0.28265385414E+04 0.  0.
        3    1    3    3  502    0 -0.25630464858E+03 -0.11823126415E+04 -0.52916991359E+02  0.12109316551E+04  0.10100000352E+00 0.  1.
       -3    1    3    3    0  502  0.25630464858E+03  0.11823126415E+04 -0.18001316875E+04  0.21688774418E+04  0.10100000352E+00 0. -1.
</event>
<event>
 5   0  0.3113328E-06  0.2995742E+04  0.7818609E-02  0.8244948E-01
        2   -1    0    0  501    0  0.00000000000E+00  0.00000000000E+00  0.19653214534E+04  0.19653214534E+04  0.25500000920E-02 0.  1.
       -2   -1    0    0    0  501  0.00000000000E+00  0.00000000000E+00 -0.11416037113E+04  0.11416037113E+04  0.25500000920E-02 0. -1.
    10030    2    1    2    0    0  0.00000000000E+00  0.00000000000E+00  0.82371774206E+03  0.31069251647E+04  0.29957424890E+04 0.  0.
        1    1    3    3  502    0  0.14668309907E+04  0.24076369752E+03  0.22046167302E+03  0.15027187570E+04  0.50400001928E-02 0. -1.
       -1    1    3    3    0  502 -0.14668309907E+04 -0.24076369752E+03  0.60325606904E+03  0.16042064076E+04  0.50400001928E-02 0.  1.
</event>
<event>
 5   0  0.1054384E-06  0.2999054E+04  0.7818609E-02  0.8244001E-01
        1   -1    0    0  501    0  0.00000000000E+00  0.00000000000E+00  0.20230268740E+04  0.20230268740E+04  0.50400001928E-02 0. -1.
       -1   -1    0    0    0  501  0.00000000000E+00  0.00000000000E+00 -0.11114933066E+04  0.11114933067E+04  0.50400001928E-02 0.  1.
    10030    2    1    2    0    0  0.00000000000E+00  0.00000000000E+00  0.91153356740E+03  0.31345201807E+04  0.29990537372E+04 0.  0.
        2    1    3    3  502    0  0.11520787303E+04  0.92419587405E+03  0.72661988290E+03  0.16460254763E+04  0.25500000920E-02 0. -1.
       -2    1    3    3    0  502 -0.11520787303E+04 -0.92419587405E+03  0.18491368449E+03  0.14884947044E+04  0.25500000920E-02 0.  1.
</event>
<event>
 5   0  0.1097402E-06  0.2999615E+04  0.7818609E-02  0.8243841E-01
        1   -1    0    0  501    0  0.00000000000E+00  0.00000000000E+00  0.16434528866E+04  0.16434528866E+04  0.50400001928E-02 0.  1.
       -1   -1    0    0    0  501  0.00000000000E+00  0.00000000000E+00 -0.13687174574E+04  0.13687174574E+04  0.50400001928E-02 0. -1.
    10030    2    1    2    0    0  0.00000000000E+00  0.00000000000E+00  0.27473542920E+03  0.30121703441E+04  0.29996150796E+04 0.  0.
        4    1    3    3  502    0 -0.29233026299E+03  0.13328266425E+04  0.76249823082E+03  0.15631023660E+04  0.12699999809E+01 0.  1.
       -4    1    3    3    0  502  0.29233026299E+03 -0.13328266425E+04 -0.48776280163E+03  0.14490679781E+04  0.12699999809E+01 0. -1.
</event>
<event>
 5   0  0.1091076E-06  0.2991274E+04  0.7818609E-02  0.8246227E-01
        1   -1    0    0  501    0  0.00000000000E+00  0.00000000000E+00  0.17776406828E+04  0.17776406828E+04  0.50400001928E-02 0. -1.
       -1   -1    0    0    0  501  0.00000000000E+00  0.00000000000E+00 -0.12583698601E+04  0.12583698601E+04  0.50400001928E-02 0.  1.
    10030    2    1    2    0    0  0.00000000000E+00  0.00000000000E+00  0.51927082276E+03  0.30360105429E+04  0.29912736133E+04 0.  0.
        3    1    3    3  502    0 -0.32833480154E+03 -0.11509785106E+04 -0.65064709021E+03  0.13623130771E+04  0.10100000352E+00 0.  1.
       -3    1    3    3    0  502  0.32833480154E+03  0.11509785106E+04  0.11699179130E+04  0.16736974658E+04  0.10100000352E+00 0. -1.
</event>
<event>
 5   0  0.1097402E-06  0.2982664E+04  0.7818609E-02  0.8248699E-01
       -1   -1    0    0    0  501  0.00000000000E+00  0.00000000000E+00  0.10037426158E+04  0.10037426158E+04  0.50400001928E-02 0. -1.
        1   -1    0    0  501    0  0.00000000000E+00  0.00000000000E+00 -0.22157780713E+04  0.22157780713E+04  0.50400001928E-02 0.  1.
    10030    2    1    2    0    0  0.00000000000E+00  0.00000000000E+00 -0.12120354555E+04  0.32195206871E+04  0.29826638278E+04 0.  0.
        4    1    3    3  502    0  0.13328680191E+03 -0.95889300973E+03 -0.18304849915E+04  0.20707288796E+04  0.12699999809E+01 0.  1.
       -4    1    3    3    0  502 -0.13328680191E+03  0.95889300973E+03  0.61844953599E+03  0.11487918076E+04  0.12699999809E+01 0. -1.
</event>
<event>
 5   0  0.2862033E-06  0.2998501E+04  0.7818609E-02  0.8244159E-01
        2   -1    0    0  501    0  0.00000000000E+00  0.00000000000E+00  0.12287124751E+04  0.12287124751E+04  0.25500000920E-02 0.  1.
       -2   -1    0    0    0  501  0.00000000000E+00  0.00000000000E+00 -0.18293556232E+04  0.18293556232E+04  0.25500000920E-02 0. -1.
    10030    2    1    2    0    0  0.00000000000E+00  0.00000000000E+00 -0.60064314812E+03  0.30580680983E+04  0.29985010093E+04 0.  0.
        2    1    3    3  502    0  0.85460703193E+03  0.12151756891E+04 -0.94452809062E+02  0.14885988269E+04  0.25500000920E-02 0.  1.
       -2    1    3    3    0  502 -0.85460703193E+03 -0.12151756891E+04 -0.50619033906E+03  0.15694692714E+04  0.25500000920E-02 0. -1.
</event>
<event>
 5   0  0.3113328E-06  0.3001317E+04  0.7818609E-02  0.8243355E-01
       -2   -1    0    0    0  501  0.00000000000E+00  0.00000000000E+00  0.10458493165E+04  0.10458493165E+04  0.25500000920E-02 0. -1.
        2   -1    0    0  501    0  0.00000000000E+00  0.00000000000E+00 -0.21532508697E+04  0.21532508697E+04  0.25500000920E-02 0.  1.
    10030    2    1    2    0    0  0.00000000000E+00  0.00000000000E+00 -0.11074015532E+04  0.31991001862E+04  0.30013170111E+04 0.  0.
        1    1    3    3  502    0  0.11829014408E+03 -0.91945520675E+03 -0.18115451403E+04  0.20349659041E+04  0.50400001928E-02 0.  1.
       -1    1    3    3    0  502 -0.11829014408E+03  0.91945520675E+03  0.70414358714E+03  0.11641342821E+04  0.50400001928E-02 0. -1.
</event>
<event>
 5   0  0.1091075E-06  0.3031267E+04  0.7818609E-02  0.8234858E-01
        1   -1    0    0  501    0  0.00000000000E+00  0.00000000000E+00  0.11442921540E+04  0.11442921540E+04  0.50400001928E-02 0.  1.
       -1   -1    0    0    0  501  0.00000000000E+00  0.00000000000E+00 -0.20074813348E+04  0.20074813348E+04  0.50400001928E-02 0. -1.
    10030    2    1    2    0    0  0.00000000000E+00  0.00000000000E+00 -0.86318918072E+03  0.31517734888E+04  0.30312671547E+04 0.  0.
        1    1    3    3  502    0 -0.11359159178E+04 -0.41963047313E+03 -0.13792840992E+04  0.18354343717E+04  0.50400001928E-02 0. -1.
       -1    1    3    3    0  502  0.11359159178E+04  0.41963047313E+03  0.51609491849E+03  0.13163391171E+04  0.50400001928E-02 0.  1.
</event>
<event>
 5   0  0.2862033E-06  0.2989192E+04  0.7818609E-02  0.8246824E-01
        2   -1    0    0  501    0  0.00000000000E+00  0.00000000000E+00  0.17069917989E+04  0.17069917989E+04  0.25500000920E-02 0.  1.
       -2   -1    0    0    0  501  0.00000000000E+00  0.00000000000E+00 -0.13086277191E+04  0.13086277191E+04  0.25500000920E-02 0. -1.
    10030    2    1    2    0    0  0.00000000000E+00  0.00000000000E+00  0.39836407974E+03  0.30156195180E+04  0.29891917197E+04 0.  0.
        2    1    3    3  502    0 -0.55947547805E+03 -0.13334120901E+04 -0.18206937905E+03  0.14574463528E+04  0.25500000920E-02 0.  1.
       -2    1    3    3    0  502  0.55947547805E+03  0.13334120901E+04  0.58043345879E+03  0.15581731652E+04  0.25500000920E-02 0. -1.
</event>
<event>
 5   0  0.1091076E-06  0.3011928E+04  0.7818609E-02  0.8240333E-01
       -1   -1    0    0    0  501  0.00000000000E+00  0.00000000000E+00  0.13003768332E+04  0.13003768332E+04  0.50400001928E-02 0. -1.
        1   -1    0    0  501    0  0.00000000000E+00  0.00000000000E+00 -0.17440537611E+04  0.17440537611E+04  0.50400001928E-02 0.  1.
    10030    2    1    2    0    0  0.00000000000E+00  0.00000000000E+00 -0.44367692797E+03  0.30444305943E+04  0.30119276929E+04 0.  0.
        3    1    3    3  502    0  0.18754920520E+03 -0.43808723363E+03  0.12221547767E+04  0.13117764433E+04  0.10100000352E+00 0. -1.
       -3    1    3    3    0  502 -0.18754920520E+03  0.43808723363E+03 -0.16658317047E+04  0.17326541511E+04  0.10100000352E+00 0.  1.
</event>
<event>
 5   0  0.3113328E-06  0.3016368E+04  0.7818609E-02  0.8239072E-01
       -2   -1    0    0    0  501  0.00000000000E+00  0.00000000000E+00  0.12919817953E+04  0.12919817953E+04  0.25500000920E-02 0. -1.
        2   -1    0    0  501    0  0.00000000000E+00  0.00000000000E+00 -0.17605655989E+04  0.17605655989E+04  0.25500000920E-02 0.  1.
    10030    2    1    2    0    0  0.00000000000E+00  0.00000000000E+00 -0.46858380361E+03  0.30525473942E+04  0.30163678179E+04 0.  0.
        1    1    3    3  502    0  0.13607968614E+04  0.53282527653E+03  0.14293616786E+03  0.14683669914E+04  0.50400001928E-02 0. -1.
       -1    1    3    3    0  502 -0.13607968614E+04 -0.53282527653E+03 -0.61151997146E+03  0.15841804028E+04  0.50400001928E-02 0.  1.
</event>
<event>
 5   0  0.1091076E-06  0.3007374E+04  0.7818609E-02  0.8241628E-01
        1   -1    0    0  501    0  0.00000000000E+00  0.00000000000E+00  0.11593990000E+04  0.11593990000E+04  0.50400001928E-02 0.  1.
       -1   -1    0    0    0  501  0.00000000000E+00  0.00000000000E+00 -0.19502120779E+04  0.19502120779E+04  0.50400001928E-02 0. -1.
    10030    2    1    2    0    0  0.00000000000E+00  0.00000000000E+00 -0.79081307790E+03  0.31096110778E+04  0.30073735603E+04 0.  0.
        3    1    3    3  502    0 -0.40542907758E+03 -0.14479146052E+04 -0.41157399872E+03  0.15589171266E+04  0.10100000352E+00 0.  1.
       -3    1    3    3    0  502  0.40542907758E+03  0.14479146052E+04 -0.37923907918E+03  0.15506939512E+04  0.10100000352E+00 0. -1.
</event>
<event>
 5   0  0.2948711E-06  0.2988229E+04  0.7818609E-02  0.8247100E-01
        2   -1    0    0  501    0  0.00000000000E+00  0.00000000000E+00  0.16046959083E+04  0.16046959083E+04  0.25500000920E-02 0.  1.
       -2   -1    0    0    0  501  0.00000000000E+00  0.00000000000E+00 -0.13911534691E+04  0.13911534691E+04  0.25500000920E-02 0. -1.
    10030    2    1    2    0    0  0.00000000000E+00  0.00000000000E+00  0.21354243911E+03  0.29958493774E+04  0.29882290941E+04 0.  0.
        5    1    3    3  502    0 -0.21997772527E+03 -0.90481651717E+03  0.12781998792E+04  0.15814234571E+04  0.46999998093E+01 0.  1.
       -5    1    3    3    0  502  0.21997772527E+03  0.90481651717E+03 -0.10646574401E+04  0.14144259203E+04  0.46999998093E+01 0. -1.
</event>
<event>
 5   0  0.3113328E-06  0.3012356E+04  0.7818609E-02  0.8240211E-01
       -2   -1    0    0    0  501  0.00000000000E+00  0.00000000000E+00  0.14381447494E+04  0.14381447494E+04  0.25500000920E-02 0. -1.
        2   -1    0    0  501    0  0.00000000000E+00  0.00000000000E+00 -0.15774293767E+04  0.15774293767E+04  0.25500000920E-02 0.  1.
    10030    2    1    2    0    0  0.00000000000E+00  0.00000000000E+00 -0.13928462727E+03  0.30155741260E+04  0.30123557397E+04 0.  0.
        1    1    3    3  502    0  0.13745259207E+04 -0.52316323857E+03  0.25559014858E+03  0.14927650870E+04  0.50400001928E-02 0. -1.
       -1    1    3    3    0  502 -0.13745259207E+04  0.52316323857E+03 -0.39487477586E+03  0.15228090391E+04  0.50400001928E-02 0.  1.
</event>
<event>
 5   0  0.1054384E-06  0.2996103E+04  0.7818609E-02  0.8244845E-01
       -1   -1    0    0    0  501  0.00000000000E+00  0.00000000000E+00  0.18030481255E+04  0.18030481255E+04  0.50400001928E-02 0. -1.
        1   -1    0    0  501    0  0.00000000000E+00  0.00000000000E+00 -0.12446469987E+04  0.12446469988E+04  0.50400001928E-02 0.  1.
    10030    2    1    2    0    0  0.00000000000E+00  0.00000000000E+00  0.55840112677E+03  0.30476951243E+04  0.29961030944E+04 0.  0.
        2    1    3    3  502    0  0.29419327139E+02  0.26073037106E+03  0.17794919167E+04  0.17987321382E+04  0.25500000920E-02 0. -1.
       -2    1    3    3    0  502 -0.29419327139E+02 -0.26073037106E+03 -0.12210907900E+04  0.12489629861E+04  0.25500000920E-02 0.  1.
</event>
<event>
 5   0  0.2862033E-06  0.2997065E+04  0.7818609E-02  0.8244570E-01
       -2   -1    0    0    0  501  0.00000000000E+00  0.00000000000E+00  0.88321305673E+03  0.88321305673E+03  0.25500000920E-02 0. -1.
        2   -1    0    0  501    0  0.00000000000E+00  0.00000000000E+00 -0.25425340923E+04  0.25425340923E+04  0.25500000920E-02 0.  1.
    10030    2    1    2    0    0  0.00000000000E+00  0.00000000000E+00 -0.16593210356E+04  0.34257471490E+04  0.29970647691E+04 0.  0.
        2    1    3    3  502    0 -0.12249590428E+03 -0.51516477427E+03 -0.24320293122E+04  0.24890091536E+04  0.25500000920E-02 0.  1.
       -2    1    3    3    0  502  0.12249590428E+03  0.51516477427E+03  0.77270827667E+03  0.93673799541E+03  0.25500000920E-02 0. -1.
</event>
<event>
 5   0  0.3113328E-06  0.3032727E+04  0.7818609E-02  0.8234447E-01
        2   -1    0    0  501    0  0.00000000000E+00  0.00000000000E+00  0.13604683469E+04  0.13604683469E+04  0.25500000920E-02 0. -1.
       -2   -1    0    0    0  501  0.00000000000E+00  0.00000000000E+00 -0.16901220604E+04  0.16901220604E+04  0.25500000920E-02 0.  1.
    10030    2    1    2    0    0  0.00000000000E+00  0.00000000000E+00 -0.32965371343E+03  0.30505904073E+04  0.30327265393E+04 0.  0.
        1    1    3    3  502    0 -0.74155388910E+03 -0.17900530020E+03 -0.14830470434E+04  0.16677450647E+04  0.50400001928E-02 0.  1.
       -1    1    3    3    0  502  0.74155388910E+03  0.17900530020E+03  0.11533933300E+04  0.13828453426E+04  0.50400001928E-02 0. -1.
</event>
<event>
 5   0  0.1054384E-06  0.3040978E+04  0.7818609E-02  0.8232125E-01
       -1   -1    0    0    0  501  0.00000000000E+00  0.00000000000E+00  0.19023740302E+04  0.19023740302E+04  0.50400001928E-02 0. -1.
        1   -1    0    0  501    0  0.00000000000E+00  0.00000000000E+00 -0.12152641238E+04  0.12152641238E+04  0.50400001928E-02 0.  1.
    10030    2    1    2    0    0  0.00000000000E+00  0.00000000000E+00  0.68710990639E+03  0.31176381540E+04  0.30409780722E+04 0.  0.
        2    1    3    3  502    0  0.11247102165E+04  0.72198100634E+03  0.10868543057E+04  0.17226380718E+04  0.25500000920E-02 0. -1.
       -2    1    3    3    0  502 -0.11247102165E+04 -0.72198100634E+03 -0.39974439928E+03  0.13950000822E+04  0.25500000920E-02 0.  1.
</event>
<event>
 5   0  0.1097402E-06  0.2982574E+04  0.7818609E-02  0.8248725E-01
        1   -1    0    0  501    0  0.00000000000E+00  0.00000000000E+00  0.19869413118E+04  0.19869413118E+04  0.50400001928E-02 0.  1.
       -1   -1    0    0    0  501  0.00000000000E+00  0.00000000000E+00 -0.11192763820E+04  0.11192763820E+04  0.50400001928E-02 0. -1.
    10030    2    1    2    0    0  0.00000000000E+00  0.00000000000E+00  0.86766492980E+03  0.31062176939E+04  0.29825737093E+04 0.  0.
        4    1    3    3  502    0  0.23040958585E+03 -0.92176192111E+02 -0.10976205719E+04  0.11253255353E+04  0.12699999809E+01 0. -1.
       -4    1    3    3    0  502 -0.23040958585E+03  0.92176192111E+02  0.19652855017E+04  0.19808921586E+04  0.12699999809E+01 0.  1.
</event>
<event>
 5   0  0.2948711E-06  0.2990889E+04  0.7818609E-02  0.8246337E-01
       -2   -1    0    0    0  501  0.00000000000E+00  0.00000000000E+00  0.18156148373E+04  0.18156148373E+04  0.25500000920E-02 0.  1.
        2   -1    0    0  501    0  0.00000000000E+00  0.00000000000E+00 -0.12317337935E+04  0.12317337935E+04  0.25500000920E-02 0. -1.
    10030    2    1    2    0    0  0.00000000000E+00  0.00000000000E+00  0.58388104379E+03  0.30473486307E+04  0.29908889321E+04 0.  0.
        5    1    3    3  502    0  0.10063052995E+04  0.50205309762E+03 -0.71237704987E+03  0.13312440873E+04  0.46999998093E+01 0. -1.
       -5    1    3    3    0  502 -0.10063052995E+04 -0.50205309762E+03  0.12962580937E+04  0.17161045435E+04  0.46999998093E+01 0.  1.
</event>
<event>
 5   0  0.1113245E-06  0.3012218E+04  0.7818609E-02  0.8240251E-01
       -1   -1    0    0    0  501  0.00000000000E+00  0.00000000000E+00  0.11140604210E+04  0.11140604210E+04  0.50400001928E-02 0. -1.
        1   -1    0    0  501    0  0.00000000000E+00  0.00000000000E+00 -0.20361229938E+04  0.20361229939E+04  0.50400001928E-02 0.  1.
    10030    2    1    2    0    0  0.00000000000E+00  0.00000000000E+00 -0.92206257282E+03  0.31501834149E+04  0.30122178140E+04 0.  0.
        5    1    3    3  502    0 -0.10666354125E+04  0.78830513140E+03 -0.12073016025E+04  0.17935259498E+04  0.46999998093E+01 0.  1.
       -5    1    3    3    0  502  0.10666354125E+04 -0.78830513140E+03  0.28523902963E+03  0.13566574651E+04  0.46999998093E+01 0. -1.
</event>
<event>
 5   0  0.1091076E-06  0.2994149E+04  0.7818609E-02  0.8245404E-01
       -1   -1    0    0    0  501  0.00000000000E+00  0.00000000000E+00  0.17252787690E+04  0.17252787690E+04  0.50400001928E-02 0.  1.
        1   -1    0    0  501    0  0.00000000000E+00  0.00000000000E+00 -0.12990553459E+04  0.12990553459E+04  0.50400001928E-02 0. -1.
    10030    2    1    2    0    0  0.00000000000E+00  0.00000000000E+00  0.42622342312E+03  0.30243341149E+04  0.29941493670E+04 0.  0.
        3    1    3    3  502    0 -0.21173542429E+02  0.21488552063E+03  0.17094673835E+04  0.17230504494E+04  0.10100000352E+00 0.  1.
       -3    1    3    3    0  502  0.21173542429E+02 -0.21488552063E+03 -0.12832439604E+04  0.13012836654E+04  0.10100000352E+00 0. -1.
</event>
<event>
 5   0  0.2985941E-06  0.3007064E+04  0.7818609E-02  0.8241717E-01
        2   -1    0    0  501    0  0.00000000000E+00  0.00000000000E+00  0.99021438653E+03  0.99021438653E+03  0.25500000920E-02 0.  1.
       -2   -1    0    0    0  501  0.00000000000E+00  0.00000000000E+00 -0.22829481271E+04  0.22829481271E+04  0.25500000920E-02 0. -1.
    10030    2    1    2    0    0  0.00000000000E+00  0.00000000000E+00 -0.12927337405E+04  0.32731625136E+04  0.30070637367E+04 0.  0.
        3    1    3    3  502    0  0.11808214394E+04 -0.10059263993E+03 -0.16535300611E+04  0.20343598069E+04  0.10100000352E+00 0. -1.
       -3    1    3    3    0  502 -0.11808214394E+04  0.10059263993E+03  0.36079632054E+03  0.12388027067E+04  0.10100000352E+00 0.  1.
</event>
<event>
 5   0  0.2948711E-06  0.3002423E+04  0.7818609E-02  0.8243039E-01
        2   -1    0    0  501    0  0.00000000000E+00  0.00000000000E+00  0.16917946949E+04  0.16917946949E+04  0.25500000920E-02 0.  1.
       -2   -1    0    0    0  501  0.00000000000E+00  0.00000000000E+00 -0.13320976545E+04  0.13320976545E+04  0.25500000920E-02 0. -1.
    10030    2    1    2    0    0  0.00000000000E+00  0.00000000000E+00  0.35969704037E+03  0.30238923495E+04  0.30024228517E+04 0.  0.
        5    1    3    3  502    0  0.16437555119E+02  0.14743847079E+02  0.16916237204E+04  0.16917743572E+04  0.46999998093E+01 0.  1.
       -5    1    3    3    0  502 -0.16437555119E+02 -0.14743847079E+02 -0.13319266800E+04  0.13321179922E+04  0.46999998093E+01 0. -1.
</event>
<event>
 5   0  0.1113245E-06  0.3007226E+04  0.7818609E-02  0.8241670E-01
       -1   -1    0    0    0  501  0.00000000000E+00  0.00000000000E+00  0.14938605855E+04  0.14938605855E+04  0.50400001928E-02 0. -1.
        1   -1    0    0  501    0  0.00000000000E+00  0.00000000000E+00 -0.15134290423E+04  0.15134290423E+04  0.50400001928E-02 0.  1.
    10030    2    1    2    0    0  0.00000000000E+00  0.00000000000E+00 -0.19568456758E+02  0.30072896278E+04  0.30072259611E+04 0.  0.
        5    1    3    3  502    0  0.24277092228E+03  0.13496446288E+04 -0.62652377288E+03  0.15076579429E+04  0.46999998093E+01 0.  1.
       -5    1    3    3    0  502 -0.24277092228E+03 -0.13496446288E+04  0.60695531613E+03  0.14996316850E+04  0.46999998093E+01 0. -1.
</event>
<event>
 5   0  0.1054384E-06  0.3000976E+04  0.7818609E-02  0.8243452E-01
        1   -1    0    0  501    0  0.00000000000E+00  0.00000000000E+00  0.15749833620E+04  0.15749833621E+04  0.50400001928E-02 0. -1.
       -1   -1    0    0    0  501  0.00000000000E+00  0.00000000000E+00 -0.14295163623E+04  0.14295163623E+04  0.50400001928E-02 0.  1.
    10030    2    1    2    0    0  0.00000000000E+00  0.00000000000E+00  0.14546699973E+03  0.30044997244E+04  0.30009761655E+04 0.  0.
        2    1    3    3  502    0 -0.23883885754E+02  0.11192588282E+04  0.10729829875E+04  0.15506783213E+04  0.25500000920E-02 0. -1.
       -2    1    3    3    0  502  0.23883885754E+02 -0.11192588282E+04 -0.92751598779E+03  0.14538214031E+04  0.25500000920E-02 0.  1.
</event>
<event>
 5   0  0.2970915E-06  0.2677258E+04  0.7818609E-02  0.8342422E-01
        2   -1    0    0  501    0  0.00000000000E+00  0.00000000000E+00  0.14139235639E+04  0.14139235639E+04  0.25500000920E-02 0. -1.
       -2   -1    0    0    0  501  0.00000000000E+00  0.00000000000E+00 -0.12673436292E+04  0.12673436292E+04  0.25500000920E-02 0.  1.
    10030    2    1    2    0    0  0.00000000000E+00  0.00000000000E+00  0.14657993477E+03  0.26812671931E+04  0.26772575677E+04 0.  0.
        4    1    3    3  502    0 -0.84229081865E+03  0.11345428604E+03 -0.96247347347E+03  0.12840103186E+04  0.12699999809E+01 0.  1.
       -4    1    3    3    0  502  0.84229081865E+03 -0.11345428604E+03  0.11090534082E+04  0.13972568745E+04  0.12699999809E+01 0. -1.
</event>
<event>
 5   0  0.2948711E-06  0.3024713E+04  0.7818609E-02  0.8236709E-01
       -2   -1    0    0    0  501  0.00000000000E+00  0.00000000000E+00  0.15583192958E+04  0.15583192958E+04  0.25500000920E-02 0.  1.
        2   -1    0    0  501    0  0.00000000000E+00  0.00000000000E+00 -0.14677492772E+04  0.14677492772E+04  0.25500000920E-02 0. -1.
    10030    2    1    2    0    0  0.00000000000E+00  0.00000000000E+00  0.90570018584E+02  0.30260685731E+04  0.30247128923E+04 0.  0.
        5    1    3    3  502    0  0.22046381927E+03  0.14617193105E+04 -0.27418912191E+03  0.15034724484E+04  0.46999998093E+01 0. -1.
       -5    1    3    3    0  502 -0.22046381927E+03 -0.14617193105E+04  0.36475914050E+03  0.15225961247E+04  0.46999998093E+01 0.  1.
</event>
<event>
 5   0  0.1091075E-06  0.2991453E+04  0.7818609E-02  0.8246176E-01
        1   -1    0    0  501    0  0.00000000000E+00  0.00000000000E+00  0.12812430886E+04  0.12812430886E+04  0.50400001928E-02 0. -1.
       -1   -1    0    0    0  501  0.00000000000E+00  0.00000000000E+00 -0.17461151157E+04  0.17461151157E+04  0.50400001928E-02 0.  1.
    10030    2    1    2    0    0  0.00000000000E+00  0.00000000000E+00 -0.46487202709E+03  0.30273582044E+04  0.29914531078E+04 0.  0.
        1    1    3    3  502    0 -0.98020786629E+02 -0.10853684332E+04  0.80434330494E+03  0.13544743861E+04  0.50400001928E-02 0. -1.
       -1    1    3    3    0  502  0.98020786629E+02  0.10853684332E+04 -0.12692153320E+04  0.16728838183E+04  0.50400001928E-02 0.  1.
</event>
<event>
 5   0  0.2862033E-06  0.3034662E+04  0.7818609E-02  0.8233902E-01
       -2   -1    0    0    0  501  0.00000000000E+00  0.00000000000E+00  0.13146881948E+04  0.13146881948E+04  0.25500000920E-02 0.  1.
        2   -1    0    0  501    0  0.00000000000E+00  0.00000000000E+00 -0.17512085316E+04  0.17512085316E+04  0.25500000920E-02 0. -1.
    10030    2    1    2    0    0  0.00000000000E+00  0.00000000000E+00 -0.43652033684E+03  0.30658967264E+04  0.30346618811E+04 0.  0.
        2    1    3    3  502    0 -0.11180062016E+04 -0.99743463161E+03 -0.46047659741E+03  0.15674349773E+04  0.25500000920E-02 0. -1.
       -2    1    3    3    0  502  0.11180062016E+04  0.99743463161E+03  0.23956260570E+02  0.14984617492E+04  0.25500000920E-02 0.  1.
</event>
<event>
 5   0  0.1054384E-06  0.2967989E+04  0.7818609E-02  0.8252931E-01
       -1   -1    0    0    0  501  0.00000000000E+00  0.00000000000E+00  0.13062486966E+04  0.13062486967E+04  0.50400001928E-02 0. -1.
        1   -1    0    0  501    0  0.00000000000E+00  0.00000000000E+00 -0.16859262504E+04  0.16859262504E+04  0.50400001928E-02 0.  1.
    10030    2    1    2    0    0  0.00000000000E+00  0.00000000000E+00 -0.37967755372E+03  0.29921749470E+04  0.29679885224E+04 0.  0.
        2    1    3    3  502    0 -0.17641781572E+03 -0.12836944588E+04  0.53941216851E+03  0.14035527054E+04  0.25500000920E-02 0. -1.
       -2    1    3    3    0  502  0.17641781572E+03  0.12836944588E+04 -0.91908972223E+03  0.15886222417E+04  0.25500000920E-02 0.  1.
</event>
<event>
 5   0  0.3113328E-06  0.3016788E+04  0.7818609E-02  0.8238953E-01
       -2   -1    0    0    0  501  0.00000000000E+00  0.00000000000E+00  0.16735102446E+04  0.16735102446E+04  0.25500000920E-02 0. -1.
        2   -1    0    0  501    0  0.00000000000E+00  0.00000000000E+00 -0.13595688594E+04  0.13595688594E+04  0.25500000920E-02 0.  1.
    10030    2    1    2    0    0  0.00000000000E+00  0.00000000000E+00  0.31394138526E+03  0.30330791040E+04  0.30167879703E+04 0.  0.
        1    1    3    3  502    0 -0.87883119469E+02  0.12720662921E+04 -0.65321985743E+03  0.14326801026E+04  0.50400001928E-02 0.  1.
       -1    1    3    3    0  502  0.87883119469E+02 -0.12720662921E+04  0.96716124269E+03  0.16003990014E+04  0.50400001928E-02 0. -1.
</event>
<event>
 5   0  0.1091076E-06  0.3038413E+04  0.7818609E-02  0.8232846E-01
       -1   -1    0    0    0  501  0.00000000000E+00  0.00000000000E+00  0.15022028961E+04  0.15022028961E+04  0.50400001928E-02 0. -1.
        1   -1    0    0  501    0  0.00000000000E+00  0.00000000000E+00 -0.15364024588E+04  0.15364024588E+04  0.50400001928E-02 0.  1.
    10030    2    1    2    0    0  0.00000000000E+00  0.00000000000E+00 -0.34199562712E+02  0.30386053549E+04  0.30384128904E+04 0.  0.
        3    1    3    3  502    0  0.70015188423E+03 -0.11714484702E+04  0.65038840025E+03  0.15117900849E+04  0.10100000352E+00 0. -1.
       -3    1    3    3    0  502 -0.70015188423E+03  0.11714484702E+04 -0.68458796297E+03  0.15268152700E+04  0.10100000352E+00 0.  1.
</event>
<event>
 5   0  0.1091076E-06  0.2980707E+04  0.7818609E-02  0.8249262E-01
       -1   -1    0    0    0  501  0.00000000000E+00  0.00000000000E+00  0.97707899749E+03  0.97707899751E+03  0.50400001928E-02 0. -1.
        1   -1    0    0  501    0  0.00000000000E+00  0.00000000000E+00 -0.22732584848E+04  0.22732584848E+04  0.50400001928E-02 0.  1.
    10030    2    1    2    0    0  0.00000000000E+00  0.00000000000E+00 -0.12961794873E+04  0.32503374823E+04  0.29807067091E+04 0.  0.
        3    1    3    3  502    0  0.27512224273E+03  0.14521552271E+04 -0.85700881742E+03  0.17084821261E+04  0.10100000352E+00 0.  1.
       -3    1    3    3    0  502 -0.27512224273E+03 -0.14521552271E+04 -0.43917066986E+03  0.15418553562E+04  0.10100000352E+00 0. -1.
</event>
<event>
 5   0  0.2970915E-06  0.2995451E+04  0.7818609E-02  0.8245031E-01
       -2   -1    0    0    0  501  0.00000000000E+00  0.00000000000E+00  0.86524972710E+03  0.86524972710E+03  0.25500000920E-02 0.  1.
        2   -1    0    0  501    0  0.00000000000E+00  0.00000000000E+00 -0.25925255814E+04  0.25925255814E+04  0.25500000920E-02 0. -1.
    10030    2    1    2    0    0  0.00000000000E+00  0.00000000000E+00 -0.17272758543E+04  0.34577753085E+04  0.29954512527E+04 0.  0.
        4    1    3    3  502    0  0.13925556079E+04  0.97043573921E+02 -0.23714611562E+03  0.14159337800E+04  0.12699999809E+01 0.  1.
       -4    1    3    3    0  502 -0.13925556079E+04 -0.97043573921E+02 -0.14901297387E+04  0.20418415285E+04  0.12699999809E+01 0. -1.
</event>
<event>
 5   0  0.3113328E-06  0.3031087E+04  0.7818609E-02  0.8234909E-01
        2   -1    0    0  501    0  0.00000000000E+00  0.00000000000E+00  0.13870984277E+04  0.13870984277E+04  0.25500000920E-02 0.  1.
       -2   -1    0    0    0  501  0.00000000000E+00  0.00000000000E+00 -0.16558828364E+04  0.16558828364E+04  0.25500000920E-02 0. -1.
    10030    2    1    2    0    0  0.00000000000E+00  0.00000000000E+00 -0.26878440873E+03  0.30429812642E+04  0.30310872498E+04 0.  0.
        1    1    3    3  502    0 -0.11880568338E+04 -0.63845331065E+03 -0.82831418814E+03  0.15827842760E+04  0.50400001928E-02 0. -1.
       -1    1    3    3    0  502  0.11880568338E+04  0.63845331065E+03  0.55952977941E+03  0.14601969881E+04  0.50400001928E-02 0.  1.
</event>
<event>
 5   0  0.1054384E-06  0.3009339E+04  0.7818609E-02  0.8241069E-01
        1   -1    0    0  501    0  0.00000000000E+00  0.00000000000E+00  0.14690104711E+04  0.14690104711E+04  0.50400001928E-02 0.  1.
       -1   -1    0    0    0  501  0.00000000000E+00  0.00000000000E+00 -0.15411939457E+04  0.15411939457E+04  0.50400001928E-02 0. -1.
    10030    2    1    2    0    0  0.00000000000E+00  0.00000000000E+00 -0.72183474614E+02  0.30102044168E+04  0.30093388272E+04 0.  0.
        2    1    3    3  502    0  0.97263322283E+03  0.11266316785E+04 -0.25687159963E+03  0.15103964195E+04  0.25500000920E-02 0.  1.
       -2    1    3    3    0  502 -0.97263322283E+03 -0.11266316785E+04  0.18468812501E+03  0.14998079973E+04  0.25500000920E-02 0. -1.
</event>
<event>
 5   0  0.1097402E-06  0.3004967E+04  0.7818609E-02  0.8242314E-01
       -1   -1    0    0    0  501  0.00000000000E+00  0.00000000000E+00  0.17843712526E+04  0.17843712526E+04  0.50400001928E-02 0.  1.
        1   -1    0    0  501    0  0.00000000000E+00  0.00000000000E+00 -0.12651270109E+04  0.12651270109E+04  0.50400001928E-02 0. -1.
    10030    2    1    2    0    0  0.00000000000E+00  0.00000000000E+00  0.51924424168E+03  0.30494982635E+04  0.30049667347E+04 0.  0.
        4    1    3    3  502    0  0.49247444223E+03  0.11838015856E+04  0.10545161550E+04  0.16600973479E+04  0.12699999809E+01 0. -1.
       -4    1    3    3    0  502 -0.49247444223E+03 -0.11838015856E+04 -0.53527191335E+03  0.13894009157E+04  0.12699999809E+01 0.  1.
</event>
<event>
 5   0  0.1113245E-06  0.2996152E+04  0.7818609E-02  0.8244831E-01
       -1   -1    0    0    0  501  0.00000000000E+00  0.00000000000E+00  0.12168107303E+04  0.12168107304E+04  0.50400001928E-02 0. -1.
        1   -1    0    0  501    0  0.00000000000E+00  0.00000000000E+00 -0.18443553402E+04  0.18443553402E+04  0.50400001928E-02 0.  1.
    10030    2    1    2    0    0  0.00000000000E+00  0.00000000000E+00 -0.62754460987E+03  0.30611660706E+04  0.29961517776E+04 0.  0.
        5    1    3    3  502    0 -0.18199441506E+03 -0.14280505784E+04  0.10965869678E+03  0.14437789101E+04  0.46999998093E+01 0. -1.
       -5    1    3    3    0  502  0.18199441506E+03  0.14280505784E+04 -0.73720330665E+03  0.16173871605E+04  0.46999998093E+01 0.  1.
</event>
<event>
 5   0  0.2862033E-06  0.3202356E+04  0.7818609E-02  0.8188195E-01
        2   -1    0    0  501    0  0.00000000000E+00  0.00000000000E+00  0.15645357093E+04  0.15645357093E+04  0.25500000920E-02 0.  1.
       -2   -1    0    0    0  501  0.00000000000E+00  0.00000000000E+00 -0.16386787994E+04  0.16386787994E+04  0.25500000920E-02 0. -1.
    10030    2    1    2    0    0  0.00000000000E+00  0.00000000000E+00 -0.74143090121E+02  0.32032145087E+04  0.32023563185E+04 0.  0.
        2    1    3    3  502    0  0.35145894423E+03 -0.11763543432E+04  0.99103587496E+03  0.15778102027E+04  0.25500000920E-02 0.  1.
       -2    1    3    3    0  502 -0.35145894423E+03  0.11763543432E+04 -0.10651789651E+04  0.16254043060E+04  0.25500000920E-02 0. -1.
</event>
<event>
 5   0  0.1097402E-06  0.3003814E+04  0.7818609E-02  0.8242643E-01
        1   -1    0    0  501    0  0.00000000000E+00  0.00000000000E+00  0.18378430931E+04  0.18378430932E+04  0.50400001928E-02 0.  1.
       -1   -1    0    0    0  501  0.00000000000E+00  0.00000000000E+00 -0.12273762518E+04  0.12273762518E+04  0.50400001928E-02 0. -1.
    10030    2    1    2    0    0  0.00000000000E+00  0.00000000000E+00  0.61046684133E+03  0.30652193450E+04  0.30038142200E+04 0.  0.
        4    1    3    3  502    0  0.12922386932E+04 -0.86226460965E+01 -0.47576718576E+03  0.13770661633E+04  0.12699999809E+01 0. -1.
       -4    1    3    3    0  502 -0.12922386932E+04  0.86226460965E+01  0.10862340271E+04  0.16881531817E+04  0.12699999809E+01 0.  1.
</event>
<event>
 5   0  0.2948711E-06  0.3047710E+04  0.7818609E-02  0.8230237E-01
       -2   -1    0    0    0  501  0.00000000000E+00  0.00000000000E+00  0.11014414270E+04  0.11014414270E+04  0.25500000920E-02 0.  1.
        2   -1    0    0  501    0  0.00000000000E+00  0.00000000000E+00 -0.21082681679E+04  0.21082681679E+04  0.25500000920E-02 0. -1.
    10030    2    1    2    0    0  0.00000000000E+00  0.00000000000E+00 -0.10068267408E+04  0.32097095949E+04  0.30477098939E+04 0.  0.
        5    1    3    3  502    0  0.91533545638E+03  0.74690257592E+03  0.51024959876E+03  0.12868874071E+04  0.46999998093E+01 0.  1.
       -5    1    3    3    0  502 -0.91533545638E+03 -0.74690257592E+03 -0.15170763396E+04  0.19228221878E+04  0.46999998093E+01 0. -1.
</event>
<event>
 5   0  0.1113245E-06  0.2914439E+04  0.7818609E-02  0.8268594E-01
       -1   -1    0    0    0  501  0.00000000000E+00  0.00000000000E+00  0.14338601620E+04  0.14338601620E+04  0.50400001928E-02 0.  1.
        1   -1    0    0  501    0  0.00000000000E+00  0.00000000000E+00 -0.14809593691E+04  0.14809593691E+04  0.50400001928E-02 0. -1.
    10030    2    1    2    0    0  0.00000000000E+00  0.00000000000E+00 -0.47099207075E+02  0.29148195310E+04  0.29144389792E+04 0.  0.
        5    1    3    3  502    0 -0.77971234866E+03 -0.76840143980E+03  0.93838388159E+03  0.14418663317E+04  0.46999998093E+01 0.  1.
       -5    1    3    3    0  502  0.77971234866E+03  0.76840143980E+03 -0.98548308867E+03  0.14729531993E+04  0.46999998093E+01 0. -1.
</event>
<event>
 5   0  0.1091075E-06  0.2969403E+04  0.7818609E-02  0.8252522E-01
        1   -1    0    0  501    0  0.00000000000E+00  0.00000000000E+00  0.21959610119E+04  0.21959610119E+04  0.50400001928E-02 0.  1.
       -1   -1    0    0    0  501  0.00000000000E+00  0.00000000000E+00 -0.10038149716E+04  0.10038149716E+04  0.50400001928E-02 0. -1.
    10030    2    1    2    0    0  0.00000000000E+00  0.00000000000E+00  0.11921460403E+04  0.31997759835E+04  0.29694029978E+04 0.  0.
        1    1    3    3  502    0 -0.68407776531E+03  0.40737930937E+03 -0.75431351399E+03  0.10967721587E+04  0.50400001928E-02 0. -1.
       -1    1    3    3    0  502  0.68407776531E+03 -0.40737930937E+03  0.19464595543E+04  0.21030038248E+04  0.50400001928E-02 0.  1.
</event>
<event>
 5   0  0.2862033E-06  0.3038209E+04  0.7818609E-02  0.8232904E-01
       -2   -1    0    0    0  501  0.00000000000E+00  0.00000000000E+00  0.11287460783E+04  0.11287460783E+04  0.25500000920E-02 0.  1.
        2   -1    0    0  501    0  0.00000000000E+00  0.00000000000E+00 -0.20444618288E+04  0.20444618288E+04  0.25500000920E-02 0. -1.
    10030    2    1    2    0    0  0.00000000000E+00  0.00000000000E+00 -0.91571575049E+03  0.31732079071E+04  0.30382088615E+04 0.  0.
        2    1    3    3  502    0  0.65215398838E+03  0.10647991034E+04 -0.13615051497E+04  0.18473760386E+04  0.25500000920E-02 0. -1.
       -2    1    3    3    0  502 -0.65215398838E+03 -0.10647991034E+04  0.44578939920E+03  0.13258318685E+04  0.25500000920E-02 0.  1.
</event>
<event>
 5   0  0.1113245E-06  0.3010750E+04  0.7818609E-02  0.8240668E-01
        1   -1    0    0  501    0  0.00000000000E+00  0.00000000000E+00  0.72561281064E+03  0.72561281066E+03  0.50400001928E-02 0.  1.
       -1   -1    0    0    0  501  0.00000000000E+00  0.00000000000E+00 -0.31230889304E+04  0.31230889304E+04  0.50400001928E-02 0. -1.
    10030    2    1    2    0    0  0.00000000000E+00  0.00000000000E+00 -0.23974761198E+04  0.38487017411E+04  0.30107496320E+04 0.  0.
        5    1    3    3  502    0 -0.24920261182E+02  0.14374408945E+04 -0.62809462290E+03  0.15688793102E+04  0.46999998093E+01 0. -1.
       -5    1    3    3    0  502  0.24920261182E+02 -0.14374408945E+04 -0.17693814969E+04  0.22798224308E+04  0.46999998093E+01 0.  1.
</event>
<event>
 5   0  0.3113328E-06  0.2944537E+04  0.7818609E-02  0.8259748E-01
        2   -1    0    0  501    0  0.00000000000E+00  0.00000000000E+00  0.18642280915E+04  0.18642280915E+04  0.25500000920E-02 0. -1.
       -2   -1    0    0    0  501  0.00000000000E+00  0.00000000000E+00 -0.11627197822E+04  0.11627197822E+04  0.25500000920E-02 0.  1.
    10030    2    1    2    0    0  0.00000000000E+00  0.00000000000E+00  0.70150830931E+03  0.30269478738E+04  0.29445372340E+04 0.  0.
        1    1    3    3  502    0 -0.11922955621E+03  0.14132898351E+04  0.75673904411E+03  0.16075626973E+04  0.50400001928E-02 0. -1.
       -1    1    3    3    0  502  0.11922955621E+03 -0.14132898351E+04 -0.55230734792E+02  0.14193851764E+04  0.50400001928E-02 0.  1.
</event>
<event>
 5   0  0.1091075E-06  0.3043777E+04  0.7818609E-02  0.8231339E-01
       -1   -1    0    0    0  501  0.00000000000E+00  0.00000000000E+00  0.19796139577E+04  0.19796139577E+04  0.50400001928E-02 0. -1.
        1   -1    0    0  501    0  0.00000000000E+00  0.00000000000E+00 -0.11699980823E+04  0.11699980823E+04  0.50400001928E-02 0.  1.
    10030    2    1    2    0    0  0.00000000000E+00  0.00000000000E+00  0.80961587539E+03  0.31496120399E+04  0.30437769525E+04 0.  0.
        1    1    3    3  502    0  0.56613653419E+03 -0.54608570137E+03 -0.94334590420E+03  0.12282596076E+04  0.50400001928E-02 0.  1.
       -1    1    3    3    0  502 -0.56613653419E+03  0.54608570137E+03  0.17529617796E+04  0.19213524324E+04  0.50400001928E-02 0. -1.
</event>
<event>
 5   0  0.1054384E-06  0.3017149E+04  0.7818609E-02  0.8238851E-01
        1   -1    0    0  501    0  0.00000000000E+00  0.00000000000E+00  0.14145703457E+04  0.14145703457E+04  0.50400001928E-02 0. -1.
       -1   -1    0    0    0  501  0.00000000000E+00  0.00000000000E+00 -0.16088257832E+04  0.16088257832E+04  0.50400001928E-02 0.  1.
    10030    2    1    2    0    0  0.00000000000E+00  0.00000000000E+00 -0.19425543748E+03  0.30233961290E+04  0.30171491474E+04 0.  0.
        2    1    3    3  502    0 -0.88182267219E+03 -0.90215434070E+03 -0.92606691297E+03  0.15649580208E+04  0.25500000920E-02 0.  1.
       -2    1    3    3    0  502  0.88182267219E+03  0.90215434070E+03  0.73181147549E+03  0.14584381081E+04  0.25500000920E-02 0. -1.
</event>
<event>
 5   0  0.2970915E-06  0.2999529E+04  0.7818609E-02  0.8243865E-01
       -2   -1    0    0    0  501  0.00000000000E+00  0.00000000000E+00  0.26822026271E+04  0.26822026271E+04  0.25500000920E-02 0. -1.
        2   -1    0    0  501    0  0.00000000000E+00  0.00000000000E+00 -0.83859922490E+03  0.83859922490E+03  0.25500000920E-02 0.  1.
    10030    2    1    2    0    0  0.00000000000E+00  0.00000000000E+00  0.18436034022E+04  0.35208018520E+04  0.29995286590E+04 0.  0.
        4    1    3    3  502    0 -0.57762828303E+03  0.12735429727E+04  0.28565212483E+03  0.14272928522E+04  0.12699999809E+01 0.  1.
       -4    1    3    3    0  502  0.57762828303E+03 -0.12735429727E+04  0.15579512773E+04  0.20935089998E+04  0.12699999809E+01 0. -1.
</event>
<event>
 5   0  0.2862033E-06  0.3077089E+04  0.7818609E-02  0.8222054E-01
       -2   -1    0    0    0  501  0.00000000000E+00  0.00000000000E+00  0.93430042591E+03  0.93430042591E+03  0.25500000920E-02 0.  1.
        2   -1    0    0  501    0  0.00000000000E+00  0.00000000000E+00 -0.25335739806E+04  0.25335739806E+04  0.25500000920E-02 0. -1.
    10030    2    1    2    0    0  0.00000000000E+00  0.00000000000E+00 -0.15992735547E+04  0.34678744065E+04  0.30770890459E+04 0.  0.
        2    1    3    3  502    0  0.20849072945E+02 -0.86469291779E+03  0.63435108873E+03  0.10726275354E+04  0.25500000920E-02 0.  1.
       -2    1    3    3    0  502 -0.20849072945E+02  0.86469291779E+03 -0.22336246434E+04  0.23952468711E+04  0.25500000920E-02 0. -1.
</event>
<event>
 5   0  0.2970915E-06  0.3011227E+04  0.7818609E-02  0.8240532E-01
       -2   -1    0    0    0  501  0.00000000000E+00  0.00000000000E+00  0.10844938736E+04  0.10844938736E+04  0.25500000920E-02 0. -1.
        2   -1    0    0  501    0  0.00000000000E+00  0.00000000000E+00 -0.20902579528E+04  0.20902579528E+04  0.25500000920E-02 0.  1.
    10030    2    1    2    0    0  0.00000000000E+00  0.00000000000E+00 -0.10057640792E+04  0.31747518265E+04  0.30112269553E+04 0.  0.
        4    1    3    3  502    0 -0.12774248933E+04  0.18297163795E+03  0.31485191552E+03  0.13283171006E+04  0.12699999809E+01 0. -1.
       -4    1    3    3    0  502  0.12774248933E+04 -0.18297163795E+03 -0.13206159947E+04  0.18464347258E+04  0.12699999809E+01 0.  1.
</event>
<event>
 5   0  0.1054384E-06  0.3016732E+04  0.7818609E-02  0.8238969E-01
       -1   -1    0    0    0  501  0.00000000000E+00  0.00000000000E+00  0.90973821548E+03  0.90973821549E+03  0.50400001928E-02 0. -1.
        1   -1    0    0  501    0  0.00000000000E+00  0.00000000000E+00 -0.25009041823E+04  0.25009041824E+04  0.50400001928E-02 0.  1.
    10030    2    1    2    0    0  0.00000000000E+00  0.00000000000E+00 -0.15911659669E+04  0.34106423978E+04  0.30167320782E+04 0.  0.
        2    1    3    3  502    0 -0.48598273359E+02  0.50102023596E+03  0.81197606531E+03  0.95534716185E+03  0.25500000920E-02 0. -1.
       -2    1    3    3    0  502  0.48598273359E+02 -0.50102023596E+03 -0.24031420322E+04  0.24552952360E+04  0.25500000920E-02 0.  1.
</event>
<event>
 5   0  0.3113328E-06  0.3039162E+04  0.7818609E-02  0.8232636E-01
       -2   -1    0    0    0  501  0.00000000000E+00  0.00000000000E+00  0.27026081751E+04  0.27026081751E+04  0.25500000920E-02 0. -1.
        2   -1    0    0  501    0  0.00000000000E+00  0.00000000000E+00 -0.85440672706E+03  0.85440672706E+03  0.25500000920E-02 0.  1.
    10030    2    1    2    0    0  0.00000000000E+00  0.00000000000E+00  0.18482014480E+04  0.35570149022E+04  0.30391621249E+04 0.  0.
        1    1    3    3  502    0  0.54895098593E+03 -0.10960977511E+04  0.19750781312E+04  0.23245883698E+04  0.50400001928E-02 0. -1.
       -1    1    3    3    0  502 -0.54895098593E+03  0.10960977511E+04 -0.12687668311E+03  0.12324265324E+04  0.50400001928E-02 0.  1.
</event>
<event>
 5   0  0.1097402E-06  0.3018322E+04  0.7818609E-02  0.8238518E-01
        1   -1    0    0  501    0  0.00000000000E+00  0.00000000000E+00  0.17226596830E+04  0.17226596830E+04  0.50400001928E-02 0. -1.
       -1   -1    0    0    0  501  0.00000000000E+00  0.00000000000E+00 -0.13221223665E+04  0.13221223665E+04  0.50400001928E-02 0.  1.
    10030    2    1    2    0    0  0.00000000000E+00  0.00000000000E+00  0.40053731657E+03  0.30447820495E+04  0.30183219820E+04 0.  0.
        4    1    3    3  502    0 -0.99237905825E+03 -0.88663537252E+03  0.91828565665E+03  0.16168452737E+04  0.12699999809E+01 0. -1.
       -4    1    3    3    0  502  0.99237905825E+03  0.88663537252E+03 -0.51774834008E+03  0.14279367758E+04  0.12699999809E+01 0.  1.
</event>
<event>
 5   0  0.1054384E-06  0.2980591E+04  0.7818609E-02  0.8249295E-01
        1   -1    0    0  501    0  0.00000000000E+00  0.00000000000E+00  0.16050482036E+04  0.16050482036E+04  0.50400001928E-02 0.  1.
       -1   -1    0    0    0  501  0.00000000000E+00  0.00000000000E+00 -0.13837473412E+04  0.13837473412E+04  0.50400001928E-02 0. -1.
    10030    2    1    2    0    0  0.00000000000E+00  0.00000000000E+00  0.22130086242E+03  0.29887955448E+04  0.29805913401E+04 0.  0.
        2    1    3    3  502    0 -0.52267110423E+03 -0.91201631838E+03  0.11699778544E+04  0.15728340752E+04  0.25500000920E-02 0.  1.
       -2    1    3    3    0  502  0.52267110423E+03  0.91201631838E+03 -0.94867699200E+03  0.14159614696E+04  0.25500000920E-02 0. -1.
</event>
<event>
 5   0  0.1091075E-06  0.3060631E+04  0.7818609E-02  0.8226626E-01
        1   -1    0    0  501    0  0.00000000000E+00  0.00000000000E+00  0.17121925914E+04  0.17121925914E+04  0.50400001928E-02 0.  1.
       -1   -1    0    0    0  501  0.00000000000E+00  0.00000000000E+00 -0.13677586501E+04  0.13677586501E+04  0.50400001928E-02 0. -1.
    10030    2    1    2    0    0  0.00000000000E+00  0.00000000000E+00  0.34443394134E+03  0.30799512415E+04  0.30606314561E+04 0.  0.
        1    1    3    3  502    0 -0.23103392593E+02  0.89141976092E+02 -0.13649679426E+04  0.13680707376E+04  0.50400001928E-02 0. -1.
       -1    1    3    3    0  502  0.23103392593E+02 -0.89141976092E+02  0.17094018840E+04  0.17118805039E+04  0.50400001928E-02 0.  1.
</event>
<event>
 5   0  0.3113328E-06  0.2921120E+04  0.7818609E-02  0.8266621E-01
       -2   -1    0    0    0  501  0.00000000000E+00  0.00000000000E+00  0.14127211848E+04  0.14127211848E+04  0.25500000920E-02 0. -1.
        2   -1    0    0  501    0  0.00000000000E+00  0.00000000000E+00 -0.15100186151E+04  0.15100186151E+04  0.25500000920E-02 0.  1.
    10030    2    1    2    0    0  0.00000000000E+00  0.00000000000E+00 -0.97297430345E+02  0.29227397999E+04  0.29211198448E+04 0.  0.
        1    1    3    3  502    0 -0.56005089973E+02 -0.83376696375E+01  0.14116226091E+04  0.14127577561E+04  0.50400001928E-02 0. -1.
       -1    1    3    3    0  502  0.56005089973E+02  0.83376696375E+01 -0.15089200395E+04  0.15099820437E+04  0.50400001928E-02 0.  1.
</event>
<event>
 5   0  0.1091076E-06  0.2957148E+04  0.7818609E-02  0.8256074E-01
       -1   -1    0    0    0  501  0.00000000000E+00  0.00000000000E+00  0.13339303243E+04  0.13339303243E+04  0.50400001928E-02 0. -1.
        1   -1    0    0  501    0  0.00000000000E+00  0.00000000000E+00 -0.16389025059E+04  0.16389025059E+04  0.50400001928E-02 0.  1.
    10030    2    1    2    0    0  0.00000000000E+00  0.00000000000E+00 -0.30497218165E+03  0.29728328302E+04  0.29571484583E+04 0.  0.
        3    1    3    3  502    0  0.83734243570E+02  0.55524604582E+03 -0.15275390181E+04  0.16274781280E+04  0.10100000352E+00 0.  1.
       -3    1    3    3    0  502 -0.83734243570E+02 -0.55524604582E+03  0.12225668365E+04  0.13453547022E+04  0.10100000352E+00 0. -1.
</event>
<event>
 5   0  0.1113245E-06  0.3009548E+04  0.7818609E-02  0.8241010E-01
       -1   -1    0    0    0  501  0.00000000000E+00  0.00000000000E+00  0.14744227430E+04  0.14744227430E+04  0.50400001928E-02 0.  1.
        1   -1    0    0  501    0  0.00000000000E+00  0.00000000000E+00 -0.15357498520E+04  0.15357498520E+04  0.50400001928E-02 0. -1.
    10030    2    1    2    0    0  0.00000000000E+00  0.00000000000E+00 -0.61327109040E+02  0.30101725950E+04  0.30095478128E+04 0.  0.
        5    1    3    3  502    0  0.22738020638E+03  0.14803426769E+04  0.11499023285E+03  0.15021188512E+04  0.46999998093E+01 0.  1.
       -5    1    3    3    0  502 -0.22738020638E+03 -0.14803426769E+04 -0.17631734189E+03  0.15080537439E+04  0.46999998093E+01 0. -1.
</event>
<event>
 5   0  0.1091076E-06  0.2951492E+04  0.7818609E-02  0.8257720E-01
        1   -1    0    0  501    0  0.00000000000E+00  0.00000000000E+00  0.19905109370E+04  0.19905109370E+04  0.50400001928E-02 0.  1.
       -1   -1    0    0    0  501  0.00000000000E+00  0.00000000000E+00 -0.10941039368E+04  0.10941039368E+04  0.50400001928E-02 0. -1.
    10030    2    1    2    0    0  0.00000000000E+00  0.00000000000E+00  0.89640700023E+03  0.30846148738E+04  0.29514917262E+04 0.  0.
        3    1    3    3  502    0  0.39562745838E+03  0.94814647356E+03 -0.65897670838E+03  0.12205544369E+04  0.10100000352E+00 0. -1.
       -3    1    3    3    0  502 -0.39562745838E+03 -0.94814647356E+03  0.15553837086E+04  0.18640604369E+04  0.10100000352E+00 0.  1.
</event>
<event>
 5   0  0.2862033E-06  0.3022121E+04  0.7818609E-02  0.8237442E-01
       -2   -1    0    0    0  501  0.00000000000E+00  0.00000000000E+00  0.11349155844E+04  0.11349155844E+04  0.25500000920E-02 0.  1.
        2   -1    0    0  501    0  0.00000000000E+00  0.00000000000E+00 -0.20118704105E+04  0.20118704105E+04  0.25500000920E-02 0. -1.
    10030    2    1    2    0    0  0.00000000000E+00  0.00000000000E+00 -0.87695482608E+03  0.31467859949E+04  0.30221205024E+04 0.  0.
        2    1    3    3  502    0  0.14985935259E+04  0.19365321919E+03 -0.43394377158E+03  0.15721295500E+04  0.25500000920E-02 0.  1.
       -2    1    3    3    0  502 -0.14985935259E+04 -0.19365321919E+03 -0.44301105450E+03  0.15746564449E+04  0.25500000920E-02 0. -1.
</event>
<event>
 5   0  0.2862033E-06  0.3030316E+04  0.7818609E-02  0.8235127E-01
        2   -1    0    0  501    0  0.00000000000E+00  0.00000000000E+00  0.25551045965E+04  0.25551045965E+04  0.25500000920E-02 0.  1.
       -2   -1    0    0    0  501  0.00000000000E+00  0.00000000000E+00 -0.89847711781E+03  0.89847711782E+03  0.25500000920E-02 0. -1.
    10030    2    1    2    0    0  0.00000000000E+00  0.00000000000E+00  0.16566274787E+04  0.34535817143E+04  0.30303155041E+04 0.  0.
        2    1    3    3  502    0  0.55010650740E+03  0.11852018982E+04  0.17025155262E+04  0.21461313627E+04  0.25500000920E-02 0.  1.
       -2    1    3    3    0  502 -0.55010650740E+03 -0.11852018982E+04 -0.45888047547E+02  0.13074503516E+04  0.25500000920E-02 0. -1.
</event>
<event>
 5   0  0.2970915E-06  0.3034963E+04  0.7818609E-02  0.8233817E-01
        2   -1    0    0  501    0  0.00000000000E+00  0.00000000000E+00  0.15779405394E+04  0.15779405394E+04  0.25500000920E-02 0.  1.
       -2   -1    0    0    0  501  0.00000000000E+00  0.00000000000E+00 -0.14593391118E+04  0.14593391118E+04  0.25500000920E-02 0. -1.
    10030    2    1    2    0    0  0.00000000000E+00  0.00000000000E+00  0.11860142757E+03  0.30372796512E+04  0.30349631598E+04 0.  0.
        4    1    3    3  502    0  0.68857032801E+03 -0.11720747741E+04  0.73424884942E+03  0.15449955852E+04  0.12699999809E+01 0.  1.
       -4    1    3    3    0  502 -0.68857032801E+03  0.11720747741E+04 -0.61564742185E+03  0.14922840660E+04  0.12699999809E+01 0. -1.
</event>
<event>
 5   0  0.1091076E-06  0.3014230E+04  0.7818609E-02  0.8239679E-01
       -1   -1    0    0    0  501  0.00000000000E+00  0.00000000000E+00  0.10827075395E+04  0.10827075395E+04  0.50400001928E-02 0.  1.
        1   -1    0    0  501    0  0.00000000000E+00  0.00000000000E+00 -0.20978851268E+04  0.20978851268E+04  0.50400001928E-02 0. -1.
    10030    2    1    2    0    0  0.00000000000E+00  0.00000000000E+00 -0.10151775873E+04  0.31805926663E+04  0.30142302791E+04 0.  0.
        3    1    3    3  502    0 -0.12043568226E+04 -0.78060960863E+03 -0.99294207081E+03  0.17452107848E+04  0.10100000352E+00 0. -1.
       -3    1    3    3    0  502  0.12043568226E+04  0.78060960863E+03 -0.22235516515E+02  0.14353818815E+04  0.10100000352E+00 0.  1.
</event>
<event>
 5   0  0.1097402E-06  0.3002202E+04  0.7818609E-02  0.8243102E-01
       -1   -1    0    0    0  501  0.00000000000E+00  0.00000000000E+00  0.10808130679E+04  0.10808130679E+04  0.50400001928E-02 0. -1.
        1   -1    0    0  501    0  0.00000000000E+00  0.00000000000E+00 -0.20848235445E+04  0.20848235445E+04  0.50400001928E-02 0.  1.
    10030    2    1    2    0    0  0.00000000000E+00  0.00000000000E+00 -0.10040104766E+04  0.31656366124E+04  0.30022022124E+04 0.  0.
        4    1    3    3  502    0 -0.65337772417E+03  0.11737081303E+03  0.91762437317E+03  0.11325698483E+04  0.12699999809E+01 0. -1.
       -4    1    3    3    0  502  0.65337772417E+03 -0.11737081303E+03 -0.19216348498E+04  0.20330667640E+04  0.12699999809E+01 0.  1.
</event>
<event>
 5   0  0.2948711E-06  0.3001576E+04  0.7818609E-02  0.8243281E-01
        2   -1    0    0  501    0  0.00000000000E+00  0.00000000000E+00  0.20056021123E+04  0.20056021123E+04  0.25500000920E-02 0. -1.
       -2   -1    0    0    0  501  0.00000000000E+00  0.00000000000E+00 -0.11230365118E+04  0.11230365118E+04  0.25500000920E-02 0.  1.
    10030    2    1    2    0    0  0.00000000000E+00  0.00000000000E+00  0.88256560056E+03  0.31286386241E+04  0.30015758529E+04 0.  0.
        5    1    3    3  502    0  0.12784994262E+03 -0.56219817693E+03 -0.10029884527E+04  0.11569011731E+04  0.46999998093E+01 0.  1.
       -5    1    3    3    0  502 -0.12784994262E+03  0.56219817693E+03  0.18855540533E+04  0.19717374510E+04  0.46999998093E+01 0. -1.
</event>
<event>
 5   0  0.1113245E-06  0.3004300E+04  0.7818609E-02  0.8242504E-01
       -1   -1    0    0    0  501  0.00000000000E+00  0.00000000000E+00  0.84021109180E+03  0.84021109182E+03  0.50400001928E-02 0.  1.
        1   -1    0    0  501    0  0.00000000000E+00  0.00000000000E+00 -0.26855801726E+04  0.26855801726E+04  0.50400001928E-02 0. -1.
    10030    2    1    2    0    0  0.00000000000E+00  0.00000000000E+00 -0.18453690808E+04  0.35257912644E+04  0.30042997513E+04 0.  0.
        5    1    3    3  502    0  0.11203721674E+04 -0.97842857252E+03 -0.11685096971E+04  0.18915584229E+04  0.46999998093E+01 0. -1.
       -5    1    3    3    0  502 -0.11203721674E+04  0.97842857252E+03 -0.67685938367E+03  0.16342328415E+04  0.46999998093E+01 0.  1.
</event>
<event>
 5   0  0.1054384E-06  0.3013557E+04  0.7818609E-02  0.8239870E-01
        1   -1    0    0  501    0  0.00000000000E+00  0.00000000000E+00  0.13337280511E+04  0.13337280511E+04  0.50400001928E-02 0.  1.
       -1   -1    0    0    0  501  0.00000000000E+00  0.00000000000E+00 -0.17022821332E+04  0.17022821332E+04  0.50400001928E-02 0. -1.
    10030    2    1    2    0    0  0.00000000000E+00  0.00000000000E+00 -0.36855408209E+03  0.30360101843E+04  0.30135569893E+04 0.  0.
        2    1    3    3  502    0 -0.69007159789E+03  0.12600823578E+04 -0.64194703039E+03  0.15735635826E+04  0.25500000920E-02 0. -1.
       -2    1    3    3    0  502  0.69007159789E+03 -0.12600823578E+04  0.27339294830E+03  0.14624466017E+04  0.25500000920E-02 0.  1.
</event>
<event>
 5   0  0.2985941E-06  0.3044205E+04  0.7818609E-02  0.8231219E-01
        2   -1    0    0  501    0  0.00000000000E+00  0.00000000000E+00  0.27611226588E+04  0.27611226588E+04  0.25500000920E-02 0.  1.
       -2   -1    0    0    0  501  0.00000000000E+00  0.00000000000E+00 -0.83907777202E+03  0.83907777202E+03  0.25500000920E-02 0. -1.
    10030    2    1    2    0    0  0.00000000000E+00  0.00000000000E+00  0.19220448868E+04  0.36002004308E+04  0.30442054128E+04 0.  0.
        3    1    3    3  502    0 -0.11268692351E+03  0.15139037413E+04  0.10916159288E+04  0.18698203728E+04  0.10100000352E+00 0.  1.
       -3    1    3    3    0  502  0.11268692351E+03 -0.15139037413E+04  0.83042895800E+03  0.17303800580E+04  0.10100000352E+00 0. -1.
</event>
<event>
 5   0  0.1091076E-06  0.2985776E+04  0.7818609E-02  0.8247804E-01
        1   -1    0    0  501    0  0.00000000000E+00  0.00000000000E+00  0.19736880107E+04  0.19736880107E+04  0.50400001928E-02 0.  1.
       -1   -1    0    0    0  501  0.00000000000E+00  0.00000000000E+00 -0.11292129385E+04  0.11292129385E+04  0.50400001928E-02 0. -1.
    10030    2    1    2    0    0  0.00000000000E+00  0.00000000000E+00  0.84447507222E+03  0.31029009493E+04  0.29857756368E+04 0.  0.
        3    1    3    3  502    0 -0.10407504308E+04 -0.23862171198E+03 -0.66205720224E+03  0.12563524704E+04  0.10100000352E+00 0. -1.
       -3    1    3    3    0  502  0.10407504308E+04  0.23862171198E+03  0.15065322745E+04  0.18465484789E+04  0.10100000352E+00 0.  1.
</event>
<event>
 5   0  0.1091076E-06  0.2983188E+04  0.7818609E-02  0.8248548E-01
        1   -1    0    0  501    0  0.00000000000E+00  0.00000000000E+00  0.11992604681E+04  0.11992604681E+04  0.50400001928E-02 0. -1.
       -1   -1    0    0    0  501  0.00000000000E+00  0.00000000000E+00 -0.18551877328E+04  0.18551877328E+04  0.50400001928E-02 0.  1.
    10030    2    1    2    0    0  0.00000000000E+00  0.00000000000E+00 -0.65592726464E+03  0.30544482009E+04  0.29831884345E+04 0.  0.
        3    1    3    3  502    0  0.14701469119E+03  0.12458325048E+03 -0.18423888979E+04  0.18524392479E+04  0.10100000352E+00 0.  1.
       -3    1    3    3    0  502 -0.14701469119E+03 -0.12458325048E+03  0.11864616333E+04  0.12020089530E+04  0.10100000352E+00 0. -1.
</event>
<event>
 5   0  0.1091076E-06  0.3009033E+04  0.7818609E-02  0.8241156E-01
       -1   -1    0    0    0  501  0.00000000000E+00  0.00000000000E+00  0.17006600063E+04  0.17006600063E+04  0.50400001928E-02 0. -1.
        1   -1    0    0  501    0  0.00000000000E+00  0.00000000000E+00 -0.13309948344E+04  0.13309948344E+04  0.50400001928E-02 0.  1.
    10030    2    1    2    0    0  0.00000000000E+00  0.00000000000E+00  0.36966517189E+03  0.30316548408E+04  0.30090328570E+04 0.  0.
        3    1    3    3  502    0 -0.10290489653E+04 -0.10929175929E+04  0.28638238424E+03  0.15282099064E+04  0.10100000352E+00 0. -1.
       -3    1    3    3    0  502  0.10290489653E+04  0.10929175929E+04  0.83282787652E+02  0.15034449344E+04  0.10100000352E+00 0.  1.
</event>
<event>
 5   0  0.1054384E-06  0.3002620E+04  0.7818609E-02  0.8242983E-01
       -1   -1    0    0    0  501  0.00000000000E+00  0.00000000000E+00  0.16169023005E+04  0.16169023006E+04  0.50400001928E-02 0. -1.
        1   -1    0    0  501    0  0.00000000000E+00  0.00000000000E+00 -0.13939814850E+04  0.13939814851E+04  0.50400001928E-02 0.  1.
    10030    2    1    2    0    0  0.00000000000E+00  0.00000000000E+00  0.22292081550E+03  0.30108837856E+04  0.30026201026E+04 0.  0.
        2    1    3    3  502    0  0.51050101346E+03  0.11838748857E+03  0.15222101012E+04  0.16098914480E+04  0.25500000920E-02 0. -1.
       -2    1    3    3    0  502 -0.51050101346E+03 -0.11838748857E+03 -0.12992892857E+04  0.14009923376E+04  0.25500000920E-02 0.  1.
</event>
<event>
 5   0  0.1097402E-06  0.2966661E+04  0.7818609E-02  0.8253316E-01
        1   -1    0    0  501    0  0.00000000000E+00  0.00000000000E+00  0.17291261617E+04  0.17291261617E+04  0.50400001928E-02 0. -1.
       -1   -1    0    0    0  501  0.00000000000E+00  0.00000000000E+00 -0.12724743497E+04  0.12724743497E+04  0.50400001928E-02 0.  1.
    10030    2    1    2    0    0  0.00000000000E+00  0.00000000000E+00  0.45665181199E+03  0.30016005114E+04  0.29666605388E+04 0.  0.
        4    1    3    3  502    0 -0.12537665647E+04  0.75834063133E+03 -0.51645635610E+01  0.14652779250E+04  0.12699999809E+01 0.  1.
       -4    1    3    3    0  502  0.12537665647E+04 -0.75834063133E+03  0.46181637556E+03  0.15363225864E+04  0.12699999809E+01 0. -1.
</event>
<event>
 5   0  0.1097402E-06  0.2984856E+04  0.7818609E-02  0.8248069E-01
       -1   -1    0    0    0  501  0.00000000000E+00  0.00000000000E+00  0.17182026147E+04  0.17182026147E+04  0.50400001928E-02 0.  1.
        1   -1    0    0  501    0  0.00000000000E+00  0.00000000000E+00 -0.12963207483E+04  0.12963207483E+04  0.50400001928E-02 0. -1.
    10030    2    1    2    0    0  0.00000000000E+00  0.00000000000E+00  0.42188186637E+03  0.30145233630E+04  0.29848562439E+04 0.  0.
        4    1    3    3  502    0  0.19850866105E+03  0.94200917844E+03 -0.94081187479E+03  0.13460741352E+04  0.12699999809E+01 0. -1.
       -4    1    3    3    0  502 -0.19850866105E+03 -0.94200917844E+03  0.13626937412E+04  0.16684492278E+04  0.12699999809E+01 0.  1.
</event>
<event>
 5   0  0.2985941E-06  0.3016973E+04  0.7818609E-02  0.8238901E-01
        2   -1    0    0  501    0  0.00000000000E+00  0.00000000000E+00  0.17458063825E+04  0.17458063825E+04  0.25500000920E-02 0.  1.
       -2   -1    0    0    0  501  0.00000000000E+00  0.00000000000E+00 -0.13034269812E+04  0.13034269812E+04  0.25500000920E-02 0. -1.
    10030    2    1    2    0    0  0.00000000000E+00  0.00000000000E+00  0.44237940128E+03  0.30492333637E+04  0.30169727496E+04 0.  0.
        3    1    3    3  502    0 -0.11107899432E+04  0.35462211168E+03 -0.74608102709E+03  0.13842861153E+04  0.10100000352E+00 0. -1.
       -3    1    3    3    0  502  0.11107899432E+04 -0.35462211168E+03  0.11884604284E+04  0.16649472484E+04  0.10100000352E+00 0.  1.
</event>
<event>
 5   0  0.2970915E-06  0.3073398E+04  0.7818609E-02  0.8223077E-01
       -2   -1    0    0    0  501  0.00000000000E+00  0.00000000000E+00  0.10141536757E+04  0.10141536757E+04  0.25500000920E-02 0. -1.
        2   -1    0    0  501    0  0.00000000000E+00  0.00000000000E+00 -0.23284868168E+04  0.23284868169E+04  0.25500000920E-02 0.  1.
    10030    2    1    2    0    0  0.00000000000E+00  0.00000000000E+00 -0.13143331411E+04  0.33426404926E+04  0.30733977707E+04 0.  0.
        4    1    3    3  502    0  0.13032263256E+04 -0.40489002801E+03  0.11119874956E+03  0.13691974165E+04  0.12699999809E+01 0. -1.
       -4    1    3    3    0  502 -0.13032263256E+04  0.40489002801E+03 -0.14255318907E+04  0.19734430761E+04  0.12699999809E+01 0.  1.
</event>
<event>
 5   0  0.2970915E-06  0.3010955E+04  0.7818609E-02  0.8240609E-01
       -2   -1    0    0    0  501  0.00000000000E+00  0.00000000000E+00  0.16942953103E+04  0.16942953103E+04  0.25500000920E-02 0.  1.
        2   -1    0    0  501    0  0.00000000000E+00  0.00000000000E+00 -0.13377022940E+04  0.13377022940E+04  0.25500000920E-02 0. -1.
    10030    2    1    2    0    0  0.00000000000E+00  0.00000000000E+00  0.35659301626E+03  0.30319976043E+04  0.30109551463E+04 0.  0.
        4    1    3    3  502    0  0.73119381593E+03 -0.38988544146E+03  0.14439839034E+04  0.16648562040E+04  0.12699999809E+01 0.  1.
       -4    1    3    3    0  502 -0.73119381593E+03  0.38988544146E+03 -0.10873908871E+04  0.13671414002E+04  0.12699999809E+01 0. -1.
</event>
<event>
 5   0  0.1113245E-06  0.2996244E+04  0.7818609E-02  0.8244804E-01
        1   -1    0    0  501    0  0.00000000000E+00  0.00000000000E+00  0.11556686466E+04  0.11556686466E+04  0.50400001928E-02 0.  1.
       -1   -1    0    0    0  501  0.00000000000E+00  0.00000000000E+00 -0.19420531808E+04  0.19420531808E+04  0.50400001928E-02 0. -1.
    10030    2    1    2    0    0  0.00000000000E+00  0.00000000000E+00 -0.78638453423E+03  0.30977218275E+04  0.29962442965E+04 0.  0.
        5    1    3    3  502    0  0.46591076228E+03 -0.24309387007E+03 -0.18436251874E+04  0.19170663498E+04  0.46999998093E+01 0. -1.
       -5    1    3    3    0  502 -0.46591076228E+03  0.24309387007E+03  0.10572406532E+04  0.11806554776E+04  0.46999998093E+01 0.  1.
</event>
<event>
 5   0  0.1091076E-06  0.2859054E+04  0.7818609E-02  0.8285165E-01
       -1   -1    0    0    0  501  0.00000000000E+00  0.00000000000E+00  0.14074207132E+04  0.14074207133E+04  0.50400001928E-02 0.  1.
        1   -1    0    0  501    0  0.00000000000E+00  0.00000000000E+00 -0.14519808460E+04  0.14519808460E+04  0.50400001928E-02 0. -1.
    10030    2    1    2    0    0  0.00000000000E+00  0.00000000000E+00 -0.44560132764E+02  0.28594015593E+04  0.28590543317E+04 0.  0.
        3    1    3    3  502    0  0.38628280905E+03  0.19671098975E+03  0.13401035219E+04  0.14084697660E+04  0.10100000352E+00 0.  1.
       -3    1    3    3    0  502 -0.38628280905E+03 -0.19671098975E+03 -0.13846636547E+04  0.14509317933E+04  0.10100000352E+00 0. -1.
</event>
<event>
 5   0  0.2970915E-06  0.2997698E+04  0.7818609E-02  0.8244389E-01
        2   -1    0    0  501    0  0.00000000000E+00  0.00000000000E+00  0.22647823778E+04  0.22647823778E+04  0.25500000920E-02 0. -1.
       -2   -1    0    0    0  501  0.00000000000E+00  0.00000000000E+00 -0.99194870203E+03  0.99194870203E+03  0.25500000920E-02 0.  1.
    10030    2    1    2    0    0  0.00000000000E+00  0.00000000000E+00  0.12728336758E+04  0.32567310798E+04  0.29976977433E+04 0.  0.
        4    1    3    3  502    0  0.10668457213E+04  0.40432679638E+03  0.16924764833E+04  0.20411071042E+04  0.12699999809E+01 0. -1.
       -4    1    3    3    0  502 -0.10668457213E+04 -0.40432679638E+03 -0.41964280755E+03  0.12156239756E+04  0.12699999809E+01 0.  1.
</event>
<event>
 5   0  0.2948711E-06  0.3003488E+04  0.7818609E-02  0.8242735E-01
        2   -1    0    0  501    0  0.00000000000E+00  0.00000000000E+00  0.21640908799E+04  0.21640908799E+04  0.25500000920E-02 0.  1.
       -2   -1    0    0    0  501  0.00000000000E+00  0.00000000000E+00 -0.10421168902E+04  0.10421168902E+04  0.25500000920E-02 0. -1.
    10030    2    1    2    0    0  0.00000000000E+00  0.00000000000E+00  0.11219739898E+04  0.32062077701E+04  0.30034884104E+04 0.  0.
        5    1    3    3  502    0  0.94157909073E+03  0.59566502398E+03  0.16358356578E+04  0.19792342949E+04  0.46999998093E+01 0.  1.
       -5    1    3    3    0  502 -0.94157909073E+03 -0.59566502398E+03 -0.51386166804E+03  0.12269734752E+04  0.46999998093E+01 0. -1.
</event>
<event>
 5   0  0.1113245E-06  0.2894174E+04  0.7818609E-02  0.8274613E-01
       -1   -1    0    0    0  501  0.00000000000E+00  0.00000000000E+00  0.85949577251E+03  0.85949577252E+03  0.50400001928E-02 0.  1.
        1   -1    0    0  501    0  0.00000000000E+00  0.00000000000E+00 -0.24363826173E+04  0.24363826173E+04  0.50400001928E-02 0. -1.
    10030    2    1    2    0    0  0.00000000000E+00  0.00000000000E+00 -0.15768868448E+04  0.32958783898E+04  0.28941738440E+04 0.  0.
        5    1    3    3  502    0 -0.36385817964E+03 -0.10632566661E+04 -0.18266440664E+04  0.21446580492E+04  0.46999998093E+01 0. -1.
       -5    1    3    3    0  502  0.36385817964E+03  0.10632566661E+04  0.24975722160E+03  0.11512203406E+04  0.46999998093E+01 0.  1.
</event>
<event>
 5   0  0.1091076E-06  0.2995640E+04  0.7818609E-02  0.8244977E-01
        1   -1    0    0  501    0  0.00000000000E+00  0.00000000000E+00  0.22041575625E+04  0.22041575625E+04  0.50400001928E-02 0.  1.
       -1   -1    0    0    0  501  0.00000000000E+00  0.00000000000E+00 -0.10178335026E+04  0.10178335026E+04  0.50400001928E-02 0. -1.
    10030    2    1    2    0    0  0.00000000000E+00  0.00000000000E+00  0.11863240599E+04  0.32219910652E+04  0.29956404405E+04 0.  0.
        3    1    3    3  502    0  0.13453932022E+04 -0.13296496938E+03  0.12866295872E+04  0.18663274784E+04  0.10100000352E+00 0.  1.
       -3    1    3    3    0  502 -0.13453932022E+04  0.13296496938E+03 -0.10030552730E+03  0.13556635868E+04  0.10100000352E+00 0. -1.
</event>
<event>
 5   0  0.2862033E-06  0.3012994E+04  0.7818609E-02  0.8240030E-01
       -2   -1    0    0    0  501  0.00000000000E+00  0.00000000000E+00  0.16233445355E+04  0.16233445355E+04  0.25500000920E-02 0.  1.
        2   -1    0    0  501    0  0.00000000000E+00  0.00000000000E+00 -0.13980604567E+04  0.13980604567E+04  0.25500000920E-02 0. -1.
    10030    2    1    2    0    0  0.00000000000E+00  0.00000000000E+00  0.22528407882E+03  0.30214049923E+04  0.30129943928E+04 0.  0.
        2    1    3    3  502    0 -0.93450103943E+03 -0.11621411332E+04 -0.10165896487E+03  0.14947236371E+04  0.25500000920E-02 0.  1.
       -2    1    3    3    0  502  0.93450103943E+03  0.11621411332E+04  0.32694304369E+03  0.15266813551E+04  0.25500000920E-02 0. -1.
</event>
<event>
 5   0  0.2948711E-06  0.2790356E+04  0.7818609E-02  0.8306269E-01
       -2   -1    0    0    0  501  0.00000000000E+00  0.00000000000E+00  0.24710707696E+04  0.24710707696E+04  0.25500000920E-02 0. -1.
        2   -1    0    0  501    0  0.00000000000E+00  0.00000000000E+00 -0.78772374926E+03  0.78772374926E+03  0.25500000920E-02 0.  1.
    10030    2    1    2    0    0  0.00000000000E+00  0.00000000000E+00  0.16833470204E+04  0.32587945189E+04  0.27903556270E+04 0.  0.
        5    1    3    3  502    0 -0.49249742673E+03 -0.10870284367E+04 -0.23673335819E+01  0.11934036332E+04  0.46999998093E+01 0.  1.
       -5    1    3    3    0  502  0.49249742673E+03  0.10870284367E+04  0.16857143539E+04  0.20653908857E+04  0.46999998093E+01 0. -1.
</event>
<event>
 5   0  0.3113328E-06  0.2996636E+04  0.7818609E-02  0.8244692E-01
        2   -1    0    0  501    0  0.00000000000E+00  0.00000000000E+00  0.15559827662E+04  0.15559827662E+04  0.25500000920E-02 0.  1.
       -2   -1    0    0    0  501  0.00000000000E+00  0.00000000000E+00 -0.14427907261E+04  0.14427907261E+04  0.25500000920E-02 0. -1.
    10030    2    1    2    0    0  0.00000000000E+00  0.00000000000E+00  0.11319204008E+03  0.29987734924E+04  0.29966364512E+04 0.  0.
        1    1    3    3  502    0 -0.50052550701E+03 -0.25301271047E+03 -0.13337890388E+04  0.14469051160E+04  0.50400001928E-02 0. -1.
       -1    1    3    3    0  502  0.50052550701E+03  0.25301271047E+03  0.14469810789E+04  0.15518683763E+04  0.50400001928E-02 0.  1.
</event>
<event>
 5   0  0.2970915E-06  0.2884132E+04  0.7818609E-02  0.8277614E-01
       -2   -1    0    0    0  501  0.00000000000E+00  0.00000000000E+00  0.78007283039E+03  0.78007283039E+03  0.25500000920E-02 0.  1.
        2   -1    0    0  501    0  0.00000000000E+00  0.00000000000E+00 -0.26658455724E+04  0.26658455724E+04  0.25500000920E-02 0. -1.
    10030    2    1    2    0    0  0.00000000000E+00  0.00000000000E+00 -0.18857727420E+04  0.34459184028E+04  0.28841315511E+04 0.  0.
        4    1    3    3  502    0  0.58473513511E+03  0.58441653293E+02  0.63052471124E+03  0.86191277369E+03  0.12699999809E+01 0.  1.
       -4    1    3    3    0  502 -0.58473513511E+03 -0.58441653293E+02 -0.25162974533E+04  0.25840056291E+04  0.12699999809E+01 0. -1.
</event>
<event>
 5   0  0.2948711E-06  0.3002266E+04  0.7818609E-02  0.8243084E-01
       -2   -1    0    0    0  501  0.00000000000E+00  0.00000000000E+00  0.14623687157E+04  0.14623687157E+04  0.25500000920E-02 0. -1.
        2   -1    0    0  501    0  0.00000000000E+00  0.00000000000E+00 -0.15409250461E+04  0.15409250461E+04  0.25500000920E-02 0.  1.
    10030    2    1    2    0    0  0.00000000000E+00  0.00000000000E+00 -0.78556330403E+02  0.30032937617E+04  0.30022661977E+04 0.  0.
        5    1    3    3  502    0 -0.48326888478E+03 -0.50859199400E+03  0.12882645374E+04  0.14669227108E+04  0.46999998093E+01 0. -1.
       -5    1    3    3    0  502  0.48326888478E+03  0.50859199400E+03 -0.13668208678E+04  0.15363710509E+04  0.46999998093E+01 0.  1.
</event>
<event>
 5   0  0.2985941E-06  0.2986861E+04  0.7818609E-02  0.8247493E-01
       -2   -1    0    0    0  501  0.00000000000E+00  0.00000000000E+00  0.82528289257E+03  0.82528289258E+03  0.25500000920E-02 0.  1.
        2   -1    0    0  501    0  0.00000000000E+00  0.00000000000E+00 -0.27025096679E+04  0.27025096679E+04  0.25500000920E-02 0. -1.
    10030    2    1    2    0    0  0.00000000000E+00  0.00000000000E+00 -0.18772267753E+04  0.35277925605E+04  0.29868612261E+04 0.  0.
        3    1    3    3  502    0 -0.15497296982E+03 -0.14853535407E+04 -0.94637850782E+03  0.17680282952E+04  0.10100000352E+00 0.  1.
       -3    1    3    3    0  502  0.15497296982E+03  0.14853535407E+04 -0.93084826751E+03  0.17597642653E+04  0.10100000352E+00 0. -1.
</event>
<event>
 5   0  0.1097402E-06  0.3000486E+04  0.7818609E-02  0.8243592E-01
       -1   -1    0    0    0  501  0.00000000000E+00  0.00000000000E+00  0.14213596138E+04  0.14213596138E+04  0.50400001928E-02 0. -1.
        1   -1    0    0  501    0  0.00000000000E+00  0.00000000000E+00 -0.15835043908E+04  0.15835043908E+04  0.50400001928E-02 0.  1.
    10030    2    1    2    0    0  0.00000000000E+00  0.00000000000E+00 -0.16214477701E+03  0.30048640046E+04  0.30004860869E+04 0.  0.
        4    1    3    3  502    0  0.32687369962E+03 -0.14619996298E+04 -0.71664828555E+00  0.14980959447E+04  0.12699999809E+01 0. -1.
       -4    1    3    3    0  502 -0.32687369962E+03  0.14619996298E+04 -0.16142812872E+03  0.15067680600E+04  0.12699999809E+01 0.  1.
</event>
<event>
 5   0  0.2948711E-06  0.2843804E+04  0.7818609E-02  0.8289796E-01
        2   -1    0    0  501    0  0.00000000000E+00  0.00000000000E+00  0.20958073368E+04  0.20958073368E+04  0.25500000920E-02 0.  1.
       -2   -1    0    0    0  501  0.00000000000E+00  0.00000000000E+00 -0.96469072873E+03  0.96469072873E+03  0.25500000920E-02 0. -1.
    10030    2    1    2    0    0  0.00000000000E+00  0.00000000000E+00  0.11311166080E+04  0.30604980655E+04  0.28438044286E+04 0.  0.
        5    1    3    3  502    0  0.13653019573E+04 -0.38213384118E+03  0.68200730806E+03  0.15732869304E+04  0.46999998093E+01 0. -1.
       -5    1    3    3    0  502 -0.13653019573E+04  0.38213384118E+03  0.44910929997E+03  0.14872111351E+04  0.46999998093E+01 0.  1.
</event>
<event>
 5   0  0.1113245E-06  0.2935783E+04  0.7818609E-02  0.8262310E-01
       -1   -1    0    0    0  501  0.00000000000E+00  0.00000000000E+00  0.14239883031E+04  0.14239883032E+04  0.50400001928E-02 0. -1.
        1   -1    0    0  501    0  0.00000000000E+00  0.00000000000E+00 -0.15131483033E+04  0.15131483034E+04  0.50400001928E-02 0.  1.
    10030    2    1    2    0    0  0.00000000000E+00  0.00000000000E+00 -0.89160000206E+02  0.29371366065E+04  0.29357830198E+04 0.  0.
        5    1    3    3  502    0 -0.31527465655E+03 -0.65773235289E+03 -0.13190093228E+04  0.15072550019E+04  0.46999998093E+01 0.  1.
       -5    1    3    3    0  502  0.31527465655E+03  0.65773235289E+03  0.12298493226E+04  0.14298816046E+04  0.46999998093E+01 0. -1.
</event>
<event>
 5   0  0.1113245E-06  0.2957036E+04  0.7818609E-02  0.8256107E-01
       -1   -1    0    0    0  501  0.00000000000E+00  0.00000000000E+00  0.11084037882E+04  0.11084037882E+04  0.50400001928E-02 0. -1.
        1   -1    0    0  501    0  0.00000000000E+00  0.00000000000E+00 -0.19722192868E+04  0.19722192868E+04  0.50400001928E-02 0.  1.
    10030    2    1    2    0    0  0.00000000000E+00  0.00000000000E+00 -0.86381549864E+03  0.30806230750E+04  0.29570359002E+04 0.  0.
        5    1    3    3  502    0  0.98317262071E+03 -0.49703011656E+03 -0.14591855285E+04  0.18283631574E+04  0.46999998093E+01 0.  1.
       -5    1    3    3    0  502 -0.98317262071E+03  0.49703011656E+03  0.59537002984E+03  0.12522599176E+04  0.46999998093E+01 0. -1.
</event>
<event>
 5   0  0.1113245E-06  0.3045780E+04  0.7818609E-02  0.8230778E-01
       -1   -1    0    0    0  501  0.00000000000E+00  0.00000000000E+00  0.82238722759E+03  0.82238722760E+03  0.50400001928E-02 0. -1.
        1   -1    0    0  501    0  0.00000000000E+00  0.00000000000E+00 -0.28200748034E+04  0.28200748034E+04  0.50400001928E-02 0.  1.
    10030    2    1    2    0    0  0.00000000000E+00  0.00000000000E+00 -0.19976875759E+04  0.36424620310E+04  0.30457797026E+04 0.  0.
        5    1    3    3  502    0  0.12351837651E+04  0.22706181386E+03 -0.20289442789E+04  0.23861837687E+04  0.46999998093E+01 0.  1.
       -5    1    3    3    0  502 -0.12351837651E+04 -0.22706181386E+03  0.31256703053E+02  0.12562782624E+04  0.46999998093E+01 0. -1.
</event>
<event>
 5   0  0.1091075E-06  0.3002130E+04  0.7818609E-02  0.8243123E-01
        1   -1    0    0  501    0  0.00000000000E+00  0.00000000000E+00  0.17749020402E+04  0.17749020402E+04  0.50400001928E-02 0.  1.
       -1   -1    0    0    0  501  0.00000000000E+00  0.00000000000E+00 -0.12694765802E+04  0.12694765802E+04  0.50400001928E-02 0. -1.
    10030    2    1    2    0    0  0.00000000000E+00  0.00000000000E+00  0.50542546005E+03  0.30443786204E+04  0.30021302917E+04 0.  0.
        1    1    3    3  502    0 -0.63212362772E+03 -0.13364071273E+04 -0.11009139590E+02  0.14784064028E+04  0.50400001928E-02 0. -1.
       -1    1    3    3    0  502  0.63212362772E+03  0.13364071273E+04  0.51643459964E+03  0.15659722176E+04  0.50400001928E-02 0.  1.
</event>
<event>
 5   0  0.2985941E-06  0.2943122E+04  0.7818609E-02  0.8260162E-01
       -2   -1    0    0    0  501  0.00000000000E+00  0.00000000000E+00  0.15267618040E+04  0.15267618040E+04  0.25500000920E-02 0.  1.
        2   -1    0    0  501    0  0.00000000000E+00  0.00000000000E+00 -0.14183556812E+04  0.14183556812E+04  0.25500000920E-02 0. -1.
    10030    2    1    2    0    0  0.00000000000E+00  0.00000000000E+00  0.10840612285E+03  0.29451174852E+04  0.29431216615E+04 0.  0.
        3    1    3    3  502    0  0.14610169481E+03  0.13215913618E+04  0.68513981715E+03  0.14957827423E+04  0.10100000352E+00 0.  1.
       -3    1    3    3    0  502 -0.14610169481E+03 -0.13215913618E+04 -0.57673369431E+03  0.14493347430E+04  0.10100000352E+00 0. -1.
</event>
<event>
 5   0  0.9749500E-07  0.3021091E+04  0.7818609E-02  0.8237734E-01
       -4   -1    0    0    0  501  0.00000000000E+00  0.00000000000E+00  0.21740439728E+04  0.21740443438E+04  0.12699999809E+01 0. -1.
        4   -1    0    0  501    0  0.00000000000E+00  0.00000000000E+00 -0.10495399954E+04  0.10495407638E+04  0.12699999809E+01 0.  1.
    10030    2    1    2    0    0  0.00000000000E+00  0.00000000000E+00  0.11245039774E+04  0.32235851075E+04  0.30210911523E+04 0.  0.
        5    1    3    3  502    0  0.90990936151E+03 -0.55576207011E+03 -0.57947628032E+03  0.12135161203E+04  0.46999998093E+01 0.  1.
       -5    1    3    3    0  502 -0.90990936151E+03  0.55576207011E+03  0.17039802577E+04  0.20100689873E+04  0.46999998093E+01 0. -1.
</event>
<event>
 5   0  0.1097402E-06  0.2994602E+04  0.7818609E-02  0.8245274E-01
        1   -1    0    0  501    0  0.00000000000E+00  0.00000000000E+00  0.18936923233E+04  0.18936923233E+04  0.50400001928E-02 0.  1.
       -1   -1    0    0    0  501  0.00000000000E+00  0.00000000000E+00 -0.11838830711E+04  0.11838830711E+04  0.50400001928E-02 0. -1.
    10030    2    1    2    0    0  0.00000000000E+00  0.00000000000E+00  0.70980925225E+03  0.30775753944E+04  0.29946019992E+04 0.  0.
        4    1    3    3  502    0 -0.12387158077E+04 -0.22495170439E+03 -0.47803866878E+03  0.13466783963E+04  0.12699999809E+01 0. -1.
       -4    1    3    3    0  502  0.12387158077E+04  0.22495170439E+03  0.11878479210E+04  0.17308969980E+04  0.12699999809E+01 0.  1.
</event>
<event>
 5   0  0.2862033E-06  0.2989864E+04  0.7818609E-02  0.8246631E-01
        2   -1    0    0  501    0  0.00000000000E+00  0.00000000000E+00  0.12804806558E+04  0.12804806558E+04  0.25500000920E-02 0. -1.
       -2   -1    0    0    0  501  0.00000000000E+00  0.00000000000E+00 -0.17452995559E+04  0.17452995559E+04  0.25500000920E-02 0.  1.
    10030    2    1    2    0    0  0.00000000000E+00  0.00000000000E+00 -0.46481890005E+03  0.30257802117E+04  0.29898644250E+04 0.  0.
        2    1    3    3  502    0 -0.29266545328E+03  0.43194674886E+03 -0.16501632260E+04  0.17306847587E+04  0.25500000920E-02 0.  1.
       -2    1    3    3    0  502  0.29266545328E+03 -0.43194674886E+03  0.11853443260E+04  0.12950954530E+04  0.25500000920E-02 0. -1.
</event>
<event>
 5   0  0.2862033E-06  0.2953174E+04  0.7818609E-02  0.8257230E-01
        2   -1    0    0  501    0  0.00000000000E+00  0.00000000000E+00  0.23718276169E+04  0.23718276169E+04  0.25500000920E-02 0.  1.
       -2   -1    0    0    0  501  0.00000000000E+00  0.00000000000E+00 -0.91925270655E+03  0.91925270655E+03  0.25500000920E-02 0. -1.
    10030    2    1    2    0    0  0.00000000000E+00  0.00000000000E+00  0.14525749103E+04  0.32910803234E+04  0.29531738562E+04 0.  0.
        2    1    3    3  502    0 -0.65260369853E+03 -0.38250725193E+03  0.21394975961E+04  0.22692847659E+04  0.25500000920E-02 0.  1.
       -2    1    3    3    0  502  0.65260369853E+03  0.38250725193E+03 -0.68692268577E+03  0.10217955575E+04  0.25500000920E-02 0. -1.
</event>
<event>
 5   0  0.1091075E-06  0.2988390E+04  0.7818609E-02  0.8247054E-01
        1   -1    0    0  501    0  0.00000000000E+00  0.00000000000E+00  0.15926697676E+04  0.15926697676E+04  0.50400001928E-02 0.  1.
       -1   -1    0    0    0  501  0.00000000000E+00  0.00000000000E+00 -0.14018092095E+04  0.14018092095E+04  0.50400001928E-02 0. -1.
    10030    2    1    2    0    0  0.00000000000E+00  0.00000000000E+00  0.19086055815E+03  0.29944789771E+04  0.29883903011E+04 0.  0.
        1    1    3    3  502    0  0.12710848446E+04 -0.25626302303E+03 -0.64857272410E+03  0.14498186085E+04  0.50400001928E-02 0. -1.
       -1    1    3    3    0  502 -0.12710848446E+04  0.25626302303E+03  0.83943328226E+03  0.15446603686E+04  0.50400001928E-02 0.  1.
</event>
<event>
 5   0  0.2948711E-06  0.3014124E+04  0.7818609E-02  0.8239709E-01
        2   -1    0    0  501    0  0.00000000000E+00  0.00000000000E+00  0.27425682093E+04  0.27425682093E+04  0.25500000920E-02 0.  1.
       -2   -1    0    0    0  501  0.00000000000E+00  0.00000000000E+00 -0.82814209786E+03  0.82814209786E+03  0.25500000920E-02 0. -1.
    10030    2    1    2    0    0  0.00000000000E+00  0.00000000000E+00  0.19144261114E+04  0.35707103071E+04  0.30141242113E+04 0.  0.
        5    1    3    3  502    0 -0.14996796940E+04 -0.14454562932E+03  0.99962115920E+03  0.18080921369E+04  0.46999998093E+01 0. -1.
       -5    1    3    3    0  502  0.14996796940E+04  0.14454562932E+03  0.91480495223E+03  0.17626181703E+04  0.46999998093E+01 0.  1.
</event>
<event>
 5   0  0.1091076E-06  0.2990934E+04  0.7818609E-02  0.8246324E-01
        1   -1    0    0  501    0  0.00000000000E+00  0.00000000000E+00  0.19551670211E+04  0.19551670211E+04  0.50400001928E-02 0.  1.
       -1   -1    0    0    0  501  0.00000000000E+00  0.00000000000E+00 -0.11438519410E+04  0.11438519410E+04  0.50400001928E-02 0. -1.
    10030    2    1    2    0    0  0.00000000000E+00  0.00000000000E+00  0.81131508004E+03  0.30990189621E+04  0.29909340294E+04 0.  0.
        3    1    3    3  502    0  0.40566105956E+03 -0.12167896789E+04  0.12023951217E+04  0.17580933015E+04  0.10100000352E+00 0.  1.
       -3    1    3    3    0  502 -0.40566105956E+03  0.12167896789E+04 -0.39108004167E+03  0.13409256606E+04  0.10100000352E+00 0. -1.
</event>
<event>
 5   0  0.2970915E-06  0.2986230E+04  0.7818609E-02  0.8247674E-01
       -2   -1    0    0    0  501  0.00000000000E+00  0.00000000000E+00  0.11482656399E+04  0.11482656399E+04  0.25500000920E-02 0.  1.
        2   -1    0    0  501    0  0.00000000000E+00  0.00000000000E+00 -0.19415302865E+04  0.19415302865E+04  0.25500000920E-02 0. -1.
    10030    2    1    2    0    0  0.00000000000E+00  0.00000000000E+00 -0.79326464660E+03  0.30897959264E+04  0.29862300761E+04 0.  0.
        4    1    3    3  502    0 -0.11472862464E+04 -0.74446665354E+03 -0.10164871362E+04  0.17040375701E+04  0.12699999809E+01 0. -1.
       -4    1    3    3    0  502  0.11472862464E+04  0.74446665354E+03  0.22322248957E+03  0.13857583563E+04  0.12699999809E+01 0.  1.
</event>
<event>
 5   0  0.9749500E-07  0.2974470E+04  0.7818609E-02  0.8251059E-01
        4   -1    0    0  501    0  0.00000000000E+00  0.00000000000E+00  0.15064774578E+04  0.15064779931E+04  0.12699999809E+01 0.  1.
       -4   -1    0    0    0  501  0.00000000000E+00  0.00000000000E+00 -0.14682376652E+04  0.14682382144E+04  0.12699999809E+01 0. -1.
    10030    2    1    2    0    0  0.00000000000E+00  0.00000000000E+00  0.38239792619E+02  0.29747162075E+04  0.29744704123E+04 0.  0.
        5    1    3    3  502    0 -0.65827262703E+03 -0.12499521484E+04  0.48407039595E+03  0.14933350136E+04  0.46999998093E+01 0.  1.
       -5    1    3    3    0  502  0.65827262703E+03  0.12499521484E+04 -0.44583060333E+03  0.14813811939E+04  0.46999998093E+01 0. -1.
</event>
<event>
 5   0  0.1091075E-06  0.3007832E+04  0.7818609E-02  0.8241498E-01
       -1   -1    0    0    0  501  0.00000000000E+00  0.00000000000E+00  0.89465474441E+03  0.89465474443E+03  0.50400001928E-02 0.  1.
        1   -1    0    0  501    0  0.00000000000E+00  0.00000000000E+00 -0.25280853905E+04  0.25280853905E+04  0.50400001928E-02 0. -1.
    10030    2    1    2    0    0  0.00000000000E+00  0.00000000000E+00 -0.16334306461E+04  0.34227401349E+04  0.30078321688E+04 0.  0.
        1    1    3    3  502    0 -0.96642444838E+03 -0.91596848896E+03 -0.16122902446E+04  0.20910414439E+04  0.50400001928E-02 0. -1.
       -1    1    3    3    0  502  0.96642444838E+03  0.91596848896E+03 -0.21140401524E+02  0.13316986911E+04  0.50400001928E-02 0.  1.
</event>
<event>
 5   0  0.1091075E-06  0.2877925E+04  0.7818609E-02  0.8279476E-01
        1   -1    0    0  501    0  0.00000000000E+00  0.00000000000E+00  0.17907310316E+04  0.17907310316E+04  0.50400001928E-02 0.  1.
       -1   -1    0    0    0  501  0.00000000000E+00  0.00000000000E+00 -0.11562945662E+04  0.11562945663E+04  0.50400001928E-02 0. -1.
    10030    2    1    2    0    0  0.00000000000E+00  0.00000000000E+00  0.63443646533E+03  0.29470255978E+04  0.28779246421E+04 0.  0.
        1    1    3    3  502    0 -0.29682152351E+03  0.97979284767E+03 -0.71825635408E+03  0.12505955507E+04  0.50400001928E-02 0. -1.
       -1    1    3    3    0  502  0.29682152351E+03 -0.97979284767E+03  0.13526928194E+04  0.16964300472E+04  0.50400001928E-02 0.  1.
</event>
<event>
 5   0  0.1091076E-06  0.3017501E+04  0.7818609E-02  0.8238751E-01
        1   -1    0    0  501    0  0.00000000000E+00  0.00000000000E+00  0.21802075360E+04  0.21802075360E+04  0.50400001928E-02 0.  1.
       -1   -1    0    0    0  501  0.00000000000E+00  0.00000000000E+00 -0.10440880518E+04  0.10440880518E+04  0.50400001928E-02 0. -1.
    10030    2    1    2    0    0  0.00000000000E+00  0.00000000000E+00  0.11361194842E+04  0.32242955878E+04  0.30175013762E+04 0.  0.
        3    1    3    3  502    0  0.44696475579E+03 -0.11972179533E+04  0.14250329528E+04  0.19141126528E+04  0.10100000352E+00 0.  1.
       -3    1    3    3    0  502 -0.44696475579E+03  0.11972179533E+04 -0.28891346860E+03  0.13101829350E+04  0.10100000352E+00 0. -1.
</event>
<event>
 5   0  0.2970915E-06  0.2992849E+04  0.7818609E-02  0.8245776E-01
       -2   -1    0    0    0  501  0.00000000000E+00  0.00000000000E+00  0.12695027597E+04  0.12695027597E+04  0.25500000920E-02 0.  1.
        2   -1    0    0  501    0  0.00000000000E+00  0.00000000000E+00 -0.17639076743E+04  0.17639076743E+04  0.25500000920E-02 0. -1.
    10030    2    1    2    0    0  0.00000000000E+00  0.00000000000E+00 -0.49440491456E+03  0.30334104340E+04  0.29928485831E+04 0.  0.
        4    1    3    3  502    0  0.76948488638E+03 -0.11216194135E+04 -0.87947343236E+03  0.16197568430E+04  0.12699999809E+01 0. -1.
       -4    1    3    3    0  502 -0.76948488638E+03  0.11216194135E+04  0.38506851780E+03  0.14136535910E+04  0.12699999809E+01 0.  1.
</event>
<event>
 5   0  0.3113328E-06  0.3065610E+04  0.7818609E-02  0.8225240E-01
        2   -1    0    0  501    0  0.00000000000E+00  0.00000000000E+00  0.18665286961E+04  0.18665286961E+04  0.25500000920E-02 0. -1.
       -2   -1    0    0    0  501  0.00000000000E+00  0.00000000000E+00 -0.12587490029E+04  0.12587490029E+04  0.25500000920E-02 0.  1.
    10030    2    1    2    0    0  0.00000000000E+00  0.00000000000E+00  0.60777969319E+03  0.31252776991E+04  0.30656099786E+04 0.  0.
        1    1    3    3  502    0 -0.19165710960E+03  0.10943126676E+02  0.18542251209E+04  0.18641359925E+04  0.50400001928E-02 0. -1.
       -1    1    3    3    0  502  0.19165710960E+03 -0.10943126676E+02 -0.12464454277E+04  0.12611417065E+04  0.50400001928E-02 0.  1.
</event>
<event>
 5   0  0.1054384E-06  0.2957197E+04  0.7818609E-02  0.8256060E-01
        1   -1    0    0  501    0  0.00000000000E+00  0.00000000000E+00  0.90342747892E+03  0.90342747893E+03  0.50400001928E-02 0. -1.
       -1   -1    0    0    0  501  0.00000000000E+00  0.00000000000E+00 -0.24199549416E+04  0.24199549416E+04  0.50400001928E-02 0.  1.
    10030    2    1    2    0    0  0.00000000000E+00  0.00000000000E+00 -0.15165274627E+04  0.33233824205E+04  0.29571971811E+04 0.  0.
        2    1    3    3  502    0 -0.86514867367E+03 -0.11196118323E+04 -0.27587953744E+03  0.14415694232E+04  0.25500000920E-02 0.  1.
       -2    1    3    3    0  502  0.86514867367E+03  0.11196118323E+04 -0.12406479252E+04  0.18818129974E+04  0.25500000920E-02 0. -1.
</event>
<event>
 5   0  0.1054384E-06  0.2987117E+04  0.7818609E-02  0.8247419E-01
       -1   -1    0    0    0  501  0.00000000000E+00  0.00000000000E+00  0.12259414501E+04  0.12259414501E+04  0.50400001928E-02 0.  1.
        1   -1    0    0  501    0  0.00000000000E+00  0.00000000000E+00 -0.18195956140E+04  0.18195956140E+04  0.50400001928E-02 0. -1.
    10030    2    1    2    0    0  0.00000000000E+00  0.00000000000E+00 -0.59365416394E+03  0.30455370641E+04  0.29871174638E+04 0.  0.
        2    1    3    3  502    0  0.60067990606E+03 -0.13534226418E+04 -0.97690862864E+02  0.14839517181E+04  0.25500000920E-02 0. -1.
       -2    1    3    3    0  502 -0.60067990606E+03  0.13534226418E+04 -0.49596330108E+03  0.15615853460E+04  0.25500000920E-02 0.  1.
</event>
<event>
 5   0  0.9749500E-07  0.2951662E+04  0.7818609E-02  0.8257670E-01
       -3   -1    0    0    0  501  0.00000000000E+00  0.00000000000E+00  0.12028543813E+04  0.12028543855E+04  0.10100000352E+00 0.  1.
        3   -1    0    0  501    0  0.00000000000E+00  0.00000000000E+00 -0.18107566600E+04  0.18107566628E+04  0.10100000352E+00 0. -1.
    10030    2    1    2    0    0  0.00000000000E+00  0.00000000000E+00 -0.60790227871E+03  0.30136110484E+04  0.29516616287E+04 0.  0.
        4    1    3    3  502    0 -0.70593964935E+03  0.46581633563E+03 -0.15387724036E+04  0.17558923002E+04  0.12699999809E+01 0. -1.
       -4    1    3    3    0  502  0.70593964935E+03 -0.46581633563E+03  0.93087012490E+03  0.12577187481E+04  0.12699999809E+01 0.  1.
</event>
<event>
 5   0  0.2970915E-06  0.3006394E+04  0.7818609E-02  0.8241907E-01
       -2   -1    0    0    0  501  0.00000000000E+00  0.00000000000E+00  0.10314666581E+04  0.10314666581E+04  0.25500000920E-02 0. -1.
        2   -1    0    0  501    0  0.00000000000E+00  0.00000000000E+00 -0.21906684616E+04  0.21906684616E+04  0.25500000920E-02 0.  1.
    10030    2    1    2    0    0  0.00000000000E+00  0.00000000000E+00 -0.11592018035E+04  0.32221351197E+04  0.30063941705E+04 0.  0.
        4    1    3    3  502    0  0.14553561814E+04  0.32787161280E+03 -0.38186626660E+03  0.15399301503E+04  0.12699999809E+01 0. -1.
       -4    1    3    3    0  502 -0.14553561814E+04 -0.32787161280E+03 -0.77733553688E+03  0.16822049694E+04  0.12699999809E+01 0.  1.
</event>
<event>
 5   0  0.1091076E-06  0.3043732E+04  0.7818609E-02  0.8231352E-01
        1   -1    0    0  501    0  0.00000000000E+00  0.00000000000E+00  0.16553616296E+04  0.16553616296E+04  0.50400001928E-02 0.  1.
       -1   -1    0    0    0  501  0.00000000000E+00  0.00000000000E+00 -0.13991363899E+04  0.13991363899E+04  0.50400001928E-02 0. -1.
    10030    2    1    2    0    0  0.00000000000E+00  0.00000000000E+00  0.25622523974E+03  0.30544980195E+04  0.30437323762E+04 0.  0.
        3    1    3    3  502    0 -0.35239863648E+03 -0.71168503290E+03 -0.11747073352E+04  0.14179625237E+04  0.10100000352E+00 0. -1.
       -3    1    3    3    0  502  0.35239863648E+03  0.71168503290E+03  0.14309325749E+04  0.16365354958E+04  0.10100000352E+00 0.  1.
</event>
<event>
 5   0  0.2970915E-06  0.3017198E+04  0.7818609E-02  0.8238837E-01
       -2   -1    0    0    0  501  0.00000000000E+00  0.00000000000E+00  0.95928762120E+03  0.95928762120E+03  0.25500000920E-02 0. -1.
        2   -1    0    0  501    0  0.00000000000E+00  0.00000000000E+00 -0.23724595796E+04  0.23724595796E+04  0.25500000920E-02 0.  1.
    10030    2    1    2    0    0  0.00000000000E+00  0.00000000000E+00 -0.14131719584E+04  0.33317472008E+04  0.30171981085E+04 0.  0.
        4    1    3    3  502    0 -0.10966231381E+04  0.43904192959E+03  0.32960578972E+03  0.12263693214E+04  0.12699999809E+01 0. -1.
       -4    1    3    3    0  502  0.10966231381E+04 -0.43904192959E+03 -0.17427777481E+04  0.21053778794E+04  0.12699999809E+01 0.  1.
</event>
<event>
 5   0  0.1091076E-06  0.3011184E+04  0.7818609E-02  0.8240544E-01
        1   -1    0    0  501    0  0.00000000000E+00  0.00000000000E+00  0.14402282923E+04  0.14402282923E+04  0.50400001928E-02 0.  1.
       -1   -1    0    0    0  501  0.00000000000E+00  0.00000000000E+00 -0.15739223235E+04  0.15739223235E+04  0.50400001928E-02 0. -1.
    10030    2    1    2    0    0  0.00000000000E+00  0.00000000000E+00 -0.13369403122E+03  0.30141506158E+04  0.30111841260E+04 0.  0.
        3    1    3    3  502    0 -0.67850439431E+03 -0.59942845620E+03 -0.12709971134E+04  0.15604859371E+04  0.10100000352E+00 0. -1.
       -3    1    3    3    0  502  0.67850439431E+03  0.59942845620E+03  0.11373030822E+04  0.14536646787E+04  0.10100000352E+00 0.  1.
</event>
<event>
 5   0  0.1091076E-06  0.3006875E+04  0.7818609E-02  0.8241770E-01
        1   -1    0    0  501    0  0.00000000000E+00  0.00000000000E+00  0.11820949321E+04  0.11820949322E+04  0.50400001928E-02 0. -1.
       -1   -1    0    0    0  501  0.00000000000E+00  0.00000000000E+00 -0.19121347108E+04  0.19121347108E+04  0.50400001928E-02 0.  1.
    10030    2    1    2    0    0  0.00000000000E+00  0.00000000000E+00 -0.73003977861E+03  0.30942296429E+04  0.30068752892E+04 0.  0.
        3    1    3    3  502    0 -0.39735773206E+03  0.10390382468E+03 -0.18532844342E+04  0.18982498193E+04  0.10100000352E+00 0.  1.
       -3    1    3    3    0  502  0.39735773206E+03 -0.10390382468E+03  0.11232446556E+04  0.11959798236E+04  0.10100000352E+00 0. -1.
</event>
<event>
 5   0  0.2970915E-06  0.3017618E+04  0.7818609E-02  0.8238718E-01
        2   -1    0    0  501    0  0.00000000000E+00  0.00000000000E+00  0.26613313327E+04  0.26613313327E+04  0.25500000920E-02 0. -1.
       -2   -1    0    0    0  501  0.00000000000E+00  0.00000000000E+00 -0.85540050401E+03  0.85540050402E+03  0.25500000920E-02 0.  1.
    10030    2    1    2    0    0  0.00000000000E+00  0.00000000000E+00  0.18059308286E+04  0.35167318367E+04  0.30176177116E+04 0.  0.
        4    1    3    3  502    0  0.62106055467E+03  0.20451315666E+03 -0.68170472310E+03  0.94459768485E+03  0.12699999809E+01 0.  1.
       -4    1    3    3    0  502 -0.62106055467E+03 -0.20451315666E+03  0.24876355517E+04  0.25721341518E+04  0.12699999809E+01 0. -1.
</event>
<event>
 5   0  0.3113328E-06  0.3010266E+04  0.7818609E-02  0.8240805E-01
       -2   -1    0    0    0  501  0.00000000000E+00  0.00000000000E+00  0.10871647419E+04  0.10871647419E+04  0.25500000920E-02 0.  1.
        2   -1    0    0  501    0  0.00000000000E+00  0.00000000000E+00 -0.20837920856E+04  0.20837920856E+04  0.25500000920E-02 0. -1.
    10030    2    1    2    0    0  0.00000000000E+00  0.00000000000E+00 -0.99662734375E+03  0.31709568275E+04  0.30102659582E+04 0.  0.
        1    1    3    3  502    0 -0.42900213073E+01 -0.94600604784E+03 -0.17314801875E+04  0.19730609435E+04  0.50400001928E-02 0. -1.
       -1    1    3    3    0  502  0.42900213073E+01  0.94600604784E+03  0.73485284379E+03  0.11978958840E+04  0.50400001928E-02 0.  1.
</event>
<event>
 5   0  0.2862033E-06  0.3001885E+04  0.7818609E-02  0.8243193E-01
       -2   -1    0    0    0  501  0.00000000000E+00  0.00000000000E+00  0.13076451175E+04  0.13076451175E+04  0.25500000920E-02 0.  1.
        2   -1    0    0  501    0  0.00000000000E+00  0.00000000000E+00 -0.17228131830E+04  0.17228131830E+04  0.25500000920E-02 0. -1.
    10030    2    1    2    0    0  0.00000000000E+00  0.00000000000E+00 -0.41516806548E+03  0.30304583005E+04  0.30018849059E+04 0.  0.
        2    1    3    3  502    0  0.21451421038E+03  0.26417360316E+03  0.12681870500E+04  0.13130508113E+04  0.25500000920E-02 0.  1.
       -2    1    3    3    0  502 -0.21451421038E+03 -0.26417360316E+03 -0.16833551155E+04  0.17174074892E+04  0.25500000920E-02 0. -1.
</event>
<event>
 5   0  0.2970915E-06  0.3033584E+04  0.7818609E-02  0.8234205E-01
        2   -1    0    0  501    0  0.00000000000E+00  0.00000000000E+00  0.79286681203E+03  0.79286681204E+03  0.25500000920E-02 0.  1.
       -2   -1    0    0    0  501  0.00000000000E+00  0.00000000000E+00 -0.29016954968E+04  0.29016954968E+04  0.25500000920E-02 0. -1.
    10030    2    1    2    0    0  0.00000000000E+00  0.00000000000E+00 -0.21088286847E+04  0.36945623088E+04  0.30335840572E+04 0.  0.
        4    1    3    3  502    0  0.49567146135E+03 -0.79176854749E+03 -0.25098115247E+04  0.26780110404E+04  0.12699999809E+01 0. -1.
       -4    1    3    3    0  502 -0.49567146135E+03  0.79176854749E+03  0.40098283995E+03  0.10165512684E+04  0.12699999809E+01 0.  1.
</event>
<event>
 5   0  0.1091075E-06  0.2681094E+04  0.7818609E-02  0.8341165E-01
       -1   -1    0    0    0  501  0.00000000000E+00  0.00000000000E+00  0.17928622055E+04  0.17928622056E+04  0.50400001928E-02 0.  1.
        1   -1    0    0  501    0  0.00000000000E+00  0.00000000000E+00 -0.10023448590E+04  0.10023448590E+04  0.50400001928E-02 0. -1.
    10030    2    1    2    0    0  0.00000000000E+00  0.00000000000E+00  0.79051734652E+03  0.27952070646E+04  0.26810939668E+04 0.  0.
        1    1    3    3  502    0 -0.11763950671E+03 -0.71353945690E+02 -0.99496413665E+03  0.10044322139E+04  0.50400001928E-02 0. -1.
       -1    1    3    3    0  502  0.11763950671E+03  0.71353945690E+02  0.17854814832E+04  0.17907748507E+04  0.50400001928E-02 0.  1.
</event>
<event>
 5   0  0.1091076E-06  0.3033516E+04  0.7818609E-02  0.8234224E-01
       -1   -1    0    0    0  501  0.00000000000E+00  0.00000000000E+00  0.21065443942E+04  0.21065443942E+04  0.50400001928E-02 0.  1.
        1   -1    0    0  501    0  0.00000000000E+00  0.00000000000E+00 -0.10920988674E+04  0.10920988674E+04  0.50400001928E-02 0. -1.
    10030    2    1    2    0    0  0.00000000000E+00  0.00000000000E+00  0.10144455268E+04  0.31986432616E+04  0.30335159449E+04 0.  0.
        3    1    3    3  502    0 -0.77071638743E+03  0.11509952890E+04 -0.14427841966E+03  0.13926988827E+04  0.10100000352E+00 0. -1.
       -3    1    3    3    0  502  0.77071638743E+03 -0.11509952890E+04  0.11587239465E+04  0.18059443789E+04  0.10100000352E+00 0.  1.
</event>
<event>
 5   0  0.2862033E-06  0.3000849E+04  0.7818609E-02  0.8243489E-01
       -2   -1    0    0    0  501  0.00000000000E+00  0.00000000000E+00  0.95993414111E+03  0.95993414111E+03  0.25500000920E-02 0. -1.
        2   -1    0    0  501    0  0.00000000000E+00  0.00000000000E+00 -0.23452373501E+04  0.23452373501E+04  0.25500000920E-02 0.  1.
    10030    2    1    2    0    0  0.00000000000E+00  0.00000000000E+00 -0.13853032090E+04  0.33051714912E+04  0.30008488142E+04 0.  0.
        2    1    3    3  502    0 -0.14558752976E+03 -0.14666022329E+04 -0.38277370503E+03  0.15227059951E+04  0.25500000920E-02 0.  1.
       -2    1    3    3    0  502  0.14558752976E+03  0.14666022329E+04 -0.10025295040E+04  0.17824654961E+04  0.25500000920E-02 0. -1.
</event>
<event>
 5   0  0.1054384E-06  0.3000876E+04  0.7818609E-02  0.8243481E-01
       -1   -1    0    0    0  501  0.00000000000E+00  0.00000000000E+00  0.13241137267E+04  0.13241137267E+04  0.50400001928E-02 0.  1.
        1   -1    0    0  501    0  0.00000000000E+00  0.00000000000E+00 -0.17002419898E+04  0.17002419898E+04  0.50400001928E-02 0. -1.
    10030    2    1    2    0    0  0.00000000000E+00  0.00000000000E+00 -0.37612826311E+03  0.30243557165E+04  0.30008757105E+04 0.  0.
        2    1    3    3  502    0  0.47930756296E+03  0.14140121165E+04 -0.33804977437E+03  0.15308310342E+04  0.25500000920E-02 0. -1.
       -2    1    3    3    0  502 -0.47930756296E+03 -0.14140121165E+04 -0.38078488739E+02  0.14935246823E+04  0.25500000920E-02 0.  1.
</event>
<event>
 5   0  0.1097402E-06  0.2988523E+04  0.7818609E-02  0.8247016E-01
       -1   -1    0    0    0  501  0.00000000000E+00  0.00000000000E+00  0.11077756705E+04  0.11077756705E+04  0.50400001928E-02 0. -1.
        1   -1    0    0  501    0  0.00000000000E+00  0.00000000000E+00 -0.20155863647E+04  0.20155863647E+04  0.50400001928E-02 0.  1.
    10030    2    1    2    0    0  0.00000000000E+00  0.00000000000E+00 -0.90781069418E+03  0.31233620352E+04  0.29885230711E+04 0.  0.
        4    1    3    3  502    0  0.12525152254E+04  0.76366013169E+03 -0.15674449753E+03  0.14753106916E+04  0.12699999809E+01 0.  1.
       -4    1    3    3    0  502 -0.12525152254E+04 -0.76366013169E+03 -0.75106619665E+03  0.16480513436E+04  0.12699999809E+01 0. -1.
</event>
<event>
 5   0  0.1097402E-06  0.3042336E+04  0.7818609E-02  0.8231744E-01
       -1   -1    0    0    0  501  0.00000000000E+00  0.00000000000E+00  0.13298783023E+04  0.13298783023E+04  0.50400001928E-02 0.  1.
        1   -1    0    0  501    0  0.00000000000E+00  0.00000000000E+00 -0.17399731416E+04  0.17399731416E+04  0.50400001928E-02 0. -1.
    10030    2    1    2    0    0  0.00000000000E+00  0.00000000000E+00 -0.41009483929E+03  0.30698514440E+04  0.30423362915E+04 0.  0.
        4    1    3    3  502    0 -0.14252615858E+04 -0.52380801983E+03 -0.11364403503E+03  0.15227153408E+04  0.12699999809E+01 0.  1.
       -4    1    3    3    0  502  0.14252615858E+04  0.52380801983E+03 -0.29645080426E+03  0.15471361032E+04  0.12699999809E+01 0. -1.
</event>
<event>
 5   0  0.2862033E-06  0.3021080E+04  0.7818609E-02  0.8237737E-01
        2   -1    0    0  501    0  0.00000000000E+00  0.00000000000E+00  0.17860947150E+04  0.17860947150E+04  0.25500000920E-02 0. -1.
       -2   -1    0    0    0  501  0.00000000000E+00  0.00000000000E+00 -0.12774974367E+04  0.12774974367E+04  0.25500000920E-02 0.  1.
    10030    2    1    2    0    0  0.00000000000E+00  0.00000000000E+00  0.50859727839E+03  0.30635921517E+04  0.30210802175E+04 0.  0.
        2    1    3    3  502    0 -0.63258437983E+03  0.64625877362E+01  0.16452882270E+04  0.17627189545E+04  0.25500000920E-02 0. -1.
       -2    1    3    3    0  502  0.63258437983E+03 -0.64625877362E+01 -0.11366909486E+04  0.13008731972E+04  0.25500000920E-02 0.  1.
</event>
<event>
 5   0  0.1091075E-06  0.2949342E+04  0.7818609E-02  0.8258346E-01
       -1   -1    0    0    0  501  0.00000000000E+00  0.00000000000E+00  0.10861236793E+04  0.10861236793E+04  0.50400001928E-02 0. -1.
        1   -1    0    0  501    0  0.00000000000E+00  0.00000000000E+00 -0.20022166042E+04  0.20022166042E+04  0.50400001928E-02 0.  1.
    10030    2    1    2    0    0  0.00000000000E+00  0.00000000000E+00 -0.91609292497E+03  0.30883402835E+04  0.29493422079E+04 0.  0.
        1    1    3    3  502    0 -0.13391354371E+04  0.52471605338E+03 -0.79903788866E+03  0.16453182680E+04  0.50400001928E-02 0.  1.
       -1    1    3    3    0  502  0.13391354371E+04 -0.52471605338E+03 -0.11705503631E+03  0.14430220155E+04  0.50400001928E-02 0. -1.
</event>
<event>
 5   0  0.2862033E-06  0.3004633E+04  0.7818609E-02  0.8242409E-01
        2   -1    0    0  501    0  0.00000000000E+00  0.00000000000E+00  0.10415244002E+04  0.10415244002E+04  0.25500000920E-02 0.  1.
       -2   -1    0    0    0  501  0.00000000000E+00  0.00000000000E+00 -0.21669731126E+04  0.21669731126E+04  0.25500000920E-02 0. -1.
    10030    2    1    2    0    0  0.00000000000E+00  0.00000000000E+00 -0.11254487125E+04  0.32084975128E+04  0.30046333363E+04 0.  0.
        2    1    3    3  502    0  0.84961523083E+03  0.76356593906E+03  0.47922382938E+03  0.12387632794E+04  0.25500000920E-02 0.  1.
       -2    1    3    3    0  502 -0.84961523083E+03 -0.76356593906E+03 -0.16046725418E+04  0.19697342334E+04  0.25500000920E-02 0. -1.
</event>
<event>
 5   0  0.2862033E-06  0.3016546E+04  0.7818609E-02  0.8239022E-01
        2   -1    0    0  501    0  0.00000000000E+00  0.00000000000E+00  0.16231696787E+04  0.16231696787E+04  0.25500000920E-02 0. -1.
       -2   -1    0    0    0  501  0.00000000000E+00  0.00000000000E+00 -0.14015096298E+04  0.14015096298E+04  0.25500000920E-02 0.  1.
    10030    2    1    2    0    0  0.00000000000E+00  0.00000000000E+00  0.22166004887E+03  0.30246793086E+04  0.30165463269E+04 0.  0.
        2    1    3    3  502    0  0.54434364417E+03  0.97330515921E+03  0.11290752198E+04  0.15869605502E+04  0.25500000920E-02 0. -1.
       -2    1    3    3    0  502 -0.54434364417E+03 -0.97330515921E+03 -0.90741517089E+03  0.14377187584E+04  0.25500000920E-02 0.  1.
</event>
<event>
 5   0  0.2862033E-06  0.3087682E+04  0.7818609E-02  0.8219127E-01
       -2   -1    0    0    0  501  0.00000000000E+00  0.00000000000E+00  0.13983449164E+04  0.13983449164E+04  0.25500000920E-02 0. -1.
        2   -1    0    0  501    0  0.00000000000E+00  0.00000000000E+00 -0.17044762092E+04  0.17044762092E+04  0.25500000920E-02 0.  1.
    10030    2    1    2    0    0  0.00000000000E+00  0.00000000000E+00 -0.30613129282E+03  0.31028211257E+04  0.30876823945E+04 0.  0.
        2    1    3    3  502    0 -0.14813708141E+03  0.26425205872E+03 -0.16743147582E+04  0.17015004128E+04  0.25500000920E-02 0.  1.
       -2    1    3    3    0  502  0.14813708141E+03 -0.26425205872E+03  0.13681834653E+04  0.14013207128E+04  0.25500000920E-02 0. -1.
</event>
<event>
 5   0  0.3113328E-06  0.2964690E+04  0.7818609E-02  0.8253886E-01
        2   -1    0    0  501    0  0.00000000000E+00  0.00000000000E+00  0.18893484617E+04  0.18893484617E+04  0.25500000920E-02 0. -1.
       -2   -1    0    0    0  501  0.00000000000E+00  0.00000000000E+00 -0.11630182307E+04  0.11630182307E+04  0.25500000920E-02 0.  1.
    10030    2    1    2    0    0  0.00000000000E+00  0.00000000000E+00  0.72633023097E+03  0.30523666924E+04  0.29646900042E+04 0.  0.
        1    1    3    3  502    0 -0.23460103757E+02 -0.11126147584E+04  0.13713510117E+04  0.17660876463E+04  0.50400001928E-02 0. -1.
       -1    1    3    3    0  502  0.23460103757E+02  0.11126147584E+04 -0.64502078070E+03  0.12862790462E+04  0.50400001928E-02 0.  1.
</event>
<event>
 5   0  0.1054384E-06  0.2999208E+04  0.7818609E-02  0.8243957E-01
        1   -1    0    0  501    0  0.00000000000E+00  0.00000000000E+00  0.19502633907E+04  0.19502633907E+04  0.50400001928E-02 0.  1.
       -1   -1    0    0    0  501  0.00000000000E+00  0.00000000000E+00 -0.11530809374E+04  0.11530809374E+04  0.50400001928E-02 0. -1.
    10030    2    1    2    0    0  0.00000000000E+00  0.00000000000E+00  0.79718245330E+03  0.31033443280E+04  0.29992075878E+04 0.  0.
        2    1    3    3  502    0 -0.63920868024E+03  0.30817623357E+03 -0.96835809166E+03  0.12005322659E+04  0.25500000920E-02 0. -1.
       -2    1    3    3    0  502  0.63920868024E+03 -0.30817623357E+03  0.17655405450E+04  0.19028120621E+04  0.25500000920E-02 0.  1.
</event>
<event>
 5   0  0.2970915E-06  0.3025970E+04  0.7818609E-02  0.8236354E-01
        2   -1    0    0  501    0  0.00000000000E+00  0.00000000000E+00  0.15395187346E+04  0.15395187346E+04  0.25500000920E-02 0.  1.
       -2   -1    0    0    0  501  0.00000000000E+00  0.00000000000E+00 -0.14869083706E+04  0.14869083706E+04  0.25500000920E-02 0. -1.
    10030    2    1    2    0    0  0.00000000000E+00  0.00000000000E+00  0.52610363917E+02  0.30264271052E+04  0.30259697905E+04 0.  0.
        4    1    3    3  502    0  0.11728616347E+04 -0.26786320020E+03  0.94392221733E+03  0.15291650903E+04  0.12699999809E+01 0.  1.
       -4    1    3    3    0  502 -0.11728616347E+04  0.26786320020E+03 -0.89131185341E+03  0.14972620149E+04  0.12699999809E+01 0. -1.
</event>
<event>
 5   0  0.2948711E-06  0.2998225E+04  0.7818609E-02  0.8244238E-01
        2   -1    0    0  501    0  0.00000000000E+00  0.00000000000E+00  0.21212976697E+04  0.21212976697E+04  0.25500000920E-02 0. -1.
       -2   -1    0    0    0  501  0.00000000000E+00  0.00000000000E+00 -0.10594167069E+04  0.10594167069E+04  0.25500000920E-02 0.  1.
    10030    2    1    2    0    0  0.00000000000E+00  0.00000000000E+00  0.10618809628E+04  0.31807143767E+04  0.29982249360E+04 0.  0.
        5    1    3    3  502    0 -0.60174782728E+03  0.36774810298E+03 -0.87244386747E+03  0.11218375581E+04  0.46999998093E+01 0.  1.
       -5    1    3    3    0  502  0.60174782728E+03 -0.36774810298E+03  0.19343248303E+04  0.20588768186E+04  0.46999998093E+01 0. -1.
</event>
<event>
 5   0  0.1091076E-06  0.3012666E+04  0.7818609E-02  0.8240123E-01
        1   -1    0    0  501    0  0.00000000000E+00  0.00000000000E+00  0.23446285533E+04  0.23446285533E+04  0.50400001928E-02 0. -1.
       -1   -1    0    0    0  501  0.00000000000E+00  0.00000000000E+00 -0.96776060994E+03  0.96776060996E+03  0.50400001928E-02 0.  1.
    10030    2    1    2    0    0  0.00000000000E+00  0.00000000000E+00  0.13768679434E+04  0.33123891633E+04  0.30126660345E+04 0.  0.
        3    1    3    3  502    0  0.23863724665E+03 -0.23403987509E+03  0.23033402455E+04  0.23274661534E+04  0.10100000352E+00 0. -1.
       -3    1    3    3    0  502 -0.23863724665E+03  0.23403987509E+03 -0.92647230210E+03  0.98492300988E+03  0.10100000352E+00 0.  1.
</event>
<event>
 5   0  0.2948711E-06  0.2996362E+04  0.7818609E-02  0.8244770E-01
        2   -1    0    0  501    0  0.00000000000E+00  0.00000000000E+00  0.34534924513E+04  0.34534924513E+04  0.25500000920E-02 0.  1.
       -2   -1    0    0    0  501  0.00000000000E+00  0.00000000000E+00 -0.64993524555E+03  0.64993524555E+03  0.25500000920E-02 0. -1.
    10030    2    1    2    0    0  0.00000000000E+00  0.00000000000E+00  0.28035572057E+04  0.41034276968E+04  0.29963621038E+04 0.  0.
        5    1    3    3  502    0 -0.11737910160E+04 -0.92714513472E+03  0.15175042717E+04  0.21307803159E+04  0.46999998093E+01 0.  1.
       -5    1    3    3    0  502  0.11737910160E+04  0.92714513472E+03  0.12860529340E+04  0.19726473809E+04  0.46999998093E+01 0. -1.
</event>
<event>
 5   0  0.1113245E-06  0.3024929E+04  0.7818609E-02  0.8236648E-01
        1   -1    0    0  501    0  0.00000000000E+00  0.00000000000E+00  0.10219824457E+04  0.10219824457E+04  0.50400001928E-02 0.  1.
       -1   -1    0    0    0  501  0.00000000000E+00  0.00000000000E+00 -0.22383440422E+04  0.22383440422E+04  0.50400001928E-02 0. -1.
    10030    2    1    2    0    0  0.00000000000E+00  0.00000000000E+00 -0.12163615965E+04  0.32603264879E+04  0.30249286395E+04 0.  0.
        5    1    3    3  502    0 -0.14087410736E+04  0.49075365929E+03 -0.33951250077E+03  0.15299285587E+04  0.46999998093E+01 0.  1.
       -5    1    3    3    0  502  0.14087410736E+04 -0.49075365929E+03 -0.87684909571E+03  0.17303979292E+04  0.46999998093E+01 0. -1.
</event>
<event>
 5   0  0.2948711E-06  0.3011411E+04  0.7818609E-02  0.8240480E-01
       -2   -1    0    0    0  501  0.00000000000E+00  0.00000000000E+00  0.88704059318E+03  0.88704059319E+03  0.25500000920E-02 0. -1.
        2   -1    0    0  501    0  0.00000000000E+00  0.00000000000E+00 -0.25558573066E+04  0.25558573066E+04  0.25500000920E-02 0.  1.
    10030    2    1    2    0    0  0.00000000000E+00  0.00000000000E+00 -0.16688167134E+04  0.34428978997E+04  0.30114110854E+04 0.  0.
        5    1    3    3  502    0  0.71789589646E+03 -0.92430987097E+03 -0.19174572420E+04  0.22464166177E+04  0.46999998093E+01 0.  1.
       -5    1    3    3    0  502 -0.71789589646E+03  0.92430987097E+03  0.24864052859E+03  0.11964812820E+04  0.46999998093E+01 0. -1.
</event>
<event>
 5   0  0.2862033E-06  0.2982517E+04  0.7818609E-02  0.8248741E-01
        2   -1    0    0  501    0  0.00000000000E+00  0.00000000000E+00  0.17027174809E+04  0.17027174809E+04  0.25500000920E-02 0.  1.
       -2   -1    0    0    0  501  0.00000000000E+00  0.00000000000E+00 -0.13060600704E+04  0.13060600704E+04  0.25500000920E-02 0. -1.
    10030    2    1    2    0    0  0.00000000000E+00  0.00000000000E+00  0.39665741052E+03  0.30087775513E+04  0.29825165970E+04 0.  0.
        2    1    3    3  502    0  0.27148382684E+03  0.55281057022E+02  0.16765264069E+04  0.16992646222E+04  0.25500000920E-02 0.  1.
       -2    1    3    3    0  502 -0.27148382684E+03 -0.55281057022E+02 -0.12798689963E+04  0.13095129290E+04  0.25500000920E-02 0. -1.
</event>
<event>
 5   0  0.1091075E-06  0.3048117E+04  0.7818609E-02  0.8230123E-01
        1   -1    0    0  501    0  0.00000000000E+00  0.00000000000E+00  0.24534263263E+04  0.24534263263E+04  0.50400001928E-02 0. -1.
       -1   -1    0    0    0  501  0.00000000000E+00  0.00000000000E+00 -0.94673888373E+03  0.94673888374E+03  0.50400001928E-02 0.  1.
    10030    2    1    2    0    0  0.00000000000E+00  0.00000000000E+00  0.15066874425E+04  0.34001652100E+04  0.30481168622E+04 0.  0.
        1    1    3    3  502    0  0.11018574082E+03 -0.14444656185E+04  0.12814491251E+04  0.19340976399E+04  0.50400001928E-02 0. -1.
       -1    1    3    3    0  502 -0.11018574082E+03  0.14444656185E+04  0.22523831743E+03  0.14660675701E+04  0.50400001928E-02 0.  1.
</event>
<event>
 5   0  0.1091076E-06  0.3034318E+04  0.7818609E-02  0.8233999E-01
        1   -1    0    0  501    0  0.00000000000E+00  0.00000000000E+00  0.14222693918E+04  0.14222693918E+04  0.50400001928E-02 0. -1.
       -1   -1    0    0    0  501  0.00000000000E+00  0.00000000000E+00 -0.16183789793E+04  0.16183789793E+04  0.50400001928E-02 0.  1.
    10030    2    1    2    0    0  0.00000000000E+00  0.00000000000E+00 -0.19610958744E+03  0.30406483711E+04  0.30343176410E+04 0.  0.
        3    1    3    3  502    0 -0.66071683008E+03  0.87583198691E+03 -0.11481640908E+04  0.15880520106E+04  0.10100000352E+00 0.  1.
       -3    1    3    3    0  502  0.66071683008E+03 -0.87583198691E+03  0.95205450338E+03  0.14525963605E+04  0.10100000352E+00 0. -1.
</event>
<event>
 5   0  0.2970915E-06  0.3048924E+04  0.7818609E-02  0.8229897E-01
        2   -1    0    0  501    0  0.00000000000E+00  0.00000000000E+00  0.22038811080E+04  0.22038811080E+04  0.25500000920E-02 0. -1.
       -2   -1    0    0    0  501  0.00000000000E+00  0.00000000000E+00 -0.10544964274E+04  0.10544964274E+04  0.25500000920E-02 0.  1.
    10030    2    1    2    0    0  0.00000000000E+00  0.00000000000E+00  0.11493846806E+04  0.32583775354E+04  0.30489242397E+04 0.  0.
        4    1    3    3  502    0  0.12627841538E+04 -0.64564657564E+03  0.11721122021E+04  0.18399271581E+04  0.12699999809E+01 0. -1.
       -4    1    3    3    0  502 -0.12627841538E+04  0.64564657564E+03 -0.22727521493E+02  0.14184503773E+04  0.12699999809E+01 0.  1.
</event>
<event>
 5   0  0.2970915E-06  0.3009645E+04  0.7818609E-02  0.8240982E-01
        2   -1    0    0  501    0  0.00000000000E+00  0.00000000000E+00  0.15932812528E+04  0.15932812528E+04  0.25500000920E-02 0. -1.
       -2   -1    0    0    0  501  0.00000000000E+00  0.00000000000E+00 -0.14212751373E+04  0.14212751373E+04  0.25500000920E-02 0.  1.
    10030    2    1    2    0    0  0.00000000000E+00  0.00000000000E+00  0.17200611549E+03  0.30145563900E+04  0.30096451826E+04 0.  0.
        4    1    3    3  502    0 -0.44360917681E+03  0.92056113047E+03  0.11924628589E+04  0.15704111498E+04  0.12699999809E+01 0. -1.
       -4    1    3    3    0  502  0.44360917681E+03 -0.92056113047E+03 -0.10204567434E+04  0.14441452402E+04  0.12699999809E+01 0.  1.
</event>
<event>
 5   0  0.3113328E-06  0.2927350E+04  0.7818609E-02  0.8264786E-01
        2   -1    0    0  501    0  0.00000000000E+00  0.00000000000E+00  0.26445717397E+04  0.26445717397E+04  0.25500000920E-02 0. -1.
       -2   -1    0    0    0  501  0.00000000000E+00  0.00000000000E+00 -0.81009133909E+03  0.81009133909E+03  0.25500000920E-02 0.  1.
    10030    2    1    2    0    0  0.00000000000E+00  0.00000000000E+00  0.18344804006E+04  0.34546630788E+04  0.29273501068E+04 0.  0.
        1    1    3    3  502    0 -0.33788481769E+01 -0.14185613461E+04  0.13427710234E+04  0.19532950956E+04  0.50400001928E-02 0.  1.
       -1    1    3    3    0  502  0.33788481769E+01  0.14185613461E+04  0.49170937723E+03  0.15013679832E+04  0.50400001928E-02 0. -1.
</event>
<event>
 5   0  0.2948711E-06  0.2987093E+04  0.7818609E-02  0.8247426E-01
       -2   -1    0    0    0  501  0.00000000000E+00  0.00000000000E+00  0.21767131726E+04  0.21767131726E+04  0.25500000920E-02 0. -1.
        2   -1    0    0  501    0  0.00000000000E+00  0.00000000000E+00 -0.10247934543E+04  0.10247934543E+04  0.25500000920E-02 0.  1.
    10030    2    1    2    0    0  0.00000000000E+00  0.00000000000E+00  0.11519197184E+04  0.32015066269E+04  0.29870931764E+04 0.  0.
        5    1    3    3  502    0  0.98440600441E+03 -0.62236318268E+03  0.15780988930E+04  0.19613284576E+04  0.46999998093E+01 0.  1.
       -5    1    3    3    0  502 -0.98440600441E+03  0.62236318268E+03 -0.42617917461E+03  0.12401781693E+04  0.46999998093E+01 0. -1.
</event>
<event>
 5   0  0.1091076E-06  0.2962518E+04  0.7818609E-02  0.8254516E-01
       -1   -1    0    0    0  501  0.00000000000E+00  0.00000000000E+00  0.14910512281E+04  0.14910512281E+04  0.50400001928E-02 0. -1.
        1   -1    0    0  501    0  0.00000000000E+00  0.00000000000E+00 -0.14715314229E+04  0.14715314229E+04  0.50400001928E-02 0.  1.
    10030    2    1    2    0    0  0.00000000000E+00  0.00000000000E+00  0.19519805169E+02  0.29625826510E+04  0.29625183445E+04 0.  0.
        3    1    3    3  502    0  0.13896494777E+04  0.23285116990E+03  0.46669802851E+03  0.14843019903E+04  0.10100000352E+00 0. -1.
       -3    1    3    3    0  502 -0.13896494777E+04 -0.23285116990E+03 -0.44717822334E+03  0.14782806607E+04  0.10100000352E+00 0.  1.
</event>
<event>
 5   0  0.1091075E-06  0.2979515E+04  0.7818609E-02  0.8249605E-01
       -1   -1    0    0    0  501  0.00000000000E+00  0.00000000000E+00  0.12334412590E+04  0.12334412590E+04  0.50400001928E-02 0.  1.
        1   -1    0    0  501    0  0.00000000000E+00  0.00000000000E+00 -0.17993375265E+04  0.17993375265E+04  0.50400001928E-02 0. -1.
    10030    2    1    2    0    0  0.00000000000E+00  0.00000000000E+00 -0.56589626750E+03  0.30327787856E+04  0.29795148224E+04 0.  0.
        1    1    3    3  502    0 -0.11647382532E+04  0.76673801498E+03  0.25070936513E+03  0.14168124674E+04  0.50400001928E-02 0.  1.
       -1    1    3    3    0  502  0.11647382532E+04 -0.76673801498E+03 -0.81660563263E+03  0.16159663181E+04  0.50400001928E-02 0. -1.
</event>
<event>
 5   0  0.2862033E-06  0.2988981E+04  0.7818609E-02  0.8246884E-01
       -2   -1    0    0    0  501  0.00000000000E+00  0.00000000000E+00  0.13069066486E+04  0.13069066486E+04  0.25500000920E-02 0. -1.
        2   -1    0    0  501    0  0.00000000000E+00  0.00000000000E+00 -0.17089989554E+04  0.17089989554E+04  0.25500000920E-02 0.  1.
    10030    2    1    2    0    0  0.00000000000E+00  0.00000000000E+00 -0.40209230677E+03  0.30159056040E+04  0.29889811624E+04 0.  0.
        2    1    3    3  502    0 -0.24739723844E+03 -0.14568947215E+04  0.24020231978E+02  0.14779460730E+04  0.25500000920E-02 0. -1.
       -2    1    3    3    0  502  0.24739723844E+03  0.14568947215E+04 -0.42611253875E+03  0.15379595310E+04  0.25500000920E-02 0.  1.
</event>
<event>
 5   0  0.1113245E-06  0.3004925E+04  0.7818609E-02  0.8242326E-01
       -1   -1    0    0    0  501  0.00000000000E+00  0.00000000000E+00  0.99793362356E+03  0.99793362357E+03  0.50400001928E-02 0.  1.
        1   -1    0    0  501    0  0.00000000000E+00  0.00000000000E+00 -0.22620675164E+04  0.22620675164E+04  0.50400001928E-02 0. -1.
    10030    2    1    2    0    0  0.00000000000E+00  0.00000000000E+00 -0.12641338928E+04  0.32600011400E+04  0.30049247800E+04 0.  0.
        5    1    3    3  502    0  0.14368839006E+04  0.40791390327E+03 -0.80814649210E+03  0.16982791110E+04  0.46999998093E+01 0.  1.
       -5    1    3    3    0  502 -0.14368839006E+04 -0.40791390327E+03 -0.45598740073E+03  0.15617220290E+04  0.46999998093E+01 0. -1.
</event>
<event>
 5   0  0.1091076E-06  0.3069489E+04  0.7818609E-02  0.8224162E-01
        1   -1    0    0  501    0  0.00000000000E+00  0.00000000000E+00  0.91486402141E+03  0.91486402143E+03  0.50400001928E-02 0. -1.
       -1   -1    0    0    0  501  0.00000000000E+00  0.00000000000E+00 -0.25746347571E+04  0.25746347571E+04  0.50400001928E-02 0.  1.
    10030    2    1    2    0    0  0.00000000000E+00  0.00000000000E+00 -0.16597707356E+04  0.34894987785E+04  0.30694890178E+04 0.  0.
        3    1    3    3  502    0  0.59977333346E+03 -0.13244160874E+04 -0.27105938151E+03  0.14789453075E+04  0.10100000352E+00 0. -1.
       -3    1    3    3    0  502 -0.59977333346E+03  0.13244160874E+04 -0.13887113541E+04  0.20105534709E+04  0.10100000352E+00 0.  1.
</event>
<event>
 5   0  0.1054384E-06  0.2977154E+04  0.7818609E-02  0.8250285E-01
        1   -1    0    0  501    0  0.00000000000E+00  0.00000000000E+00  0.15967655484E+04  0.15967655484E+04  0.50400001928E-02 0. -1.
       -1   -1    0    0    0  501  0.00000000000E+00  0.00000000000E+00 -0.13877190732E+04  0.13877190732E+04  0.50400001928E-02 0.  1.
    10030    2    1    2    0    0  0.00000000000E+00  0.00000000000E+00  0.20904647520E+03  0.29844846217E+04  0.29771543507E+04 0.  0.
        2    1    3    3  502    0 -0.13187990797E+04 -0.29974169744E+03 -0.51892918423E+03  0.14485729515E+04  0.25500000920E-02 0.  1.
       -2    1    3    3    0  502  0.13187990797E+04  0.29974169744E+03  0.72797565943E+03  0.15359116701E+04  0.25500000920E-02 0. -1.
</event>
<event>
 5   0  0.2862033E-06  0.3009249E+04  0.7818609E-02  0.8241095E-01
        2   -1    0    0  501    0  0.00000000000E+00  0.00000000000E+00  0.25401234583E+04  0.25401234583E+04  0.25500000920E-02 0. -1.
       -2   -1    0    0    0  501  0.00000000000E+00  0.00000000000E+00 -0.89125370390E+03  0.89125370391E+03  0.25500000920E-02 0.  1.
    10030    2    1    2    0    0  0.00000000000E+00  0.00000000000E+00  0.16488697544E+04  0.34313771622E+04  0.30092487039E+04 0.  0.
        2    1    3    3  502    0 -0.17471749434E+03  0.26569097173E+03  0.25013697640E+04  0.25215012575E+04  0.25500000920E-02 0. -1.
       -2    1    3    3    0  502  0.17471749434E+03 -0.26569097173E+03 -0.85250000969E+03  0.90987590462E+03  0.25500000920E-02 0.  1.
</event>
<event>
 5   0  0.2985941E-06  0.3019120E+04  0.7818609E-02  0.8238292E-01
        2   -1    0    0  501    0  0.00000000000E+00  0.00000000000E+00  0.28009057854E+04  0.28009057854E+04  0.25500000920E-02 0.  1.
       -2   -1    0    0    0  501  0.00000000000E+00  0.00000000000E+00 -0.81358376730E+03  0.81358376731E+03  0.25500000920E-02 0. -1.
    10030    2    1    2    0    0  0.00000000000E+00  0.00000000000E+00  0.19873220181E+04  0.36144895527E+04  0.30191200578E+04 0.  0.
        3    1    3    3  502    0  0.29916614237E+03 -0.82643703008E+03 -0.47566587634E+03  0.99937809739E+03  0.10100000352E+00 0. -1.
       -3    1    3    3    0  502 -0.29916614237E+03  0.82643703008E+03  0.24629878945E+04  0.26151114554E+04  0.10100000352E+00 0.  1.
</event>
<event>
 5   0  0.1113245E-06  0.3019271E+04  0.7818609E-02  0.8238249E-01
        1   -1    0    0  501    0  0.00000000000E+00  0.00000000000E+00  0.18998417783E+04  0.18998417783E+04  0.50400001928E-02 0. -1.
       -1   -1    0    0    0  501  0.00000000000E+00  0.00000000000E+00 -0.11995736032E+04  0.11995736032E+04  0.50400001928E-02 0.  1.
    10030    2    1    2    0    0  0.00000000000E+00  0.00000000000E+00  0.70026817514E+03  0.30994153815E+04  0.30192714667E+04 0.  0.
        5    1    3    3  502    0 -0.88198626964E+03 -0.55427785442E+03  0.14717735327E+04  0.18031259360E+04  0.46999998093E+01 0. -1.
       -5    1    3    3    0  502  0.88198626964E+03  0.55427785442E+03 -0.77150535752E+03  0.12962894455E+04  0.46999998093E+01 0.  1.
</event>
<event>
 5   0  0.1091075E-06  0.2994612E+04  0.7818609E-02  0.8245271E-01
       -1   -1    0    0    0  501  0.00000000000E+00  0.00000000000E+00  0.11529726465E+04  0.11529726465E+04  0.50400001928E-02 0.  1.
        1   -1    0    0  501    0  0.00000000000E+00  0.00000000000E+00 -0.19444742781E+04  0.19444742781E+04  0.50400001928E-02 0. -1.
    10030    2    1    2    0    0  0.00000000000E+00  0.00000000000E+00 -0.79150163162E+03  0.30974469246E+04  0.29946122650E+04 0.  0.
        1    1    3    3  502    0  0.38569365906E+03 -0.83039781158E+03 -0.16211732018E+04  0.18618600040E+04  0.50400001928E-02 0. -1.
       -1    1    3    3    0  502 -0.38569365906E+03  0.83039781158E+03  0.82967157016E+03  0.12355869206E+04  0.50400001928E-02 0.  1.
</event>
<event>
 5   0  0.1113245E-06  0.3007969E+04  0.7818609E-02  0.8241459E-01
       -1   -1    0    0    0  501  0.00000000000E+00  0.00000000000E+00  0.16188818269E+04  0.16188818270E+04  0.50400001928E-02 0. -1.
        1   -1    0    0  501    0  0.00000000000E+00  0.00000000000E+00 -0.13972419771E+04  0.13972419771E+04  0.50400001928E-02 0.  1.
    10030    2    1    2    0    0  0.00000000000E+00  0.00000000000E+00  0.22163984984E+03  0.30161238041E+04  0.30079691784E+04 0.  0.
        5    1    3    3  502    0  0.13567372006E+04  0.58934023811E+03 -0.16174379508E+03  0.14880325578E+04  0.46999998093E+01 0.  1.
       -5    1    3    3    0  502 -0.13567372006E+04 -0.58934023811E+03  0.38338364492E+03  0.15280912463E+04  0.46999998093E+01 0. -1.
</event>
<event>
 5   0  0.2948711E-06  0.2628446E+04  0.7818609E-02  0.8358602E-01
       -2   -1    0    0    0  501  0.00000000000E+00  0.00000000000E+00  0.72728330198E+03  0.72728330198E+03  0.25500000920E-02 0.  1.
        2   -1    0    0  501    0  0.00000000000E+00  0.00000000000E+00 -0.23748414641E+04  0.23748414641E+04  0.25500000920E-02 0. -1.
    10030    2    1    2    0    0  0.00000000000E+00  0.00000000000E+00 -0.16475581621E+04  0.31021247661E+04  0.26284463409E+04 0.  0.
        5    1    3    3  502    0 -0.41156149977E+03 -0.70896174521E+03  0.38854133084E+03  0.90719131391E+03  0.46999998093E+01 0. -1.
       -5    1    3    3    0  502  0.41156149977E+03  0.70896174521E+03 -0.20360994930E+04  0.21949334522E+04  0.46999998093E+01 0.  1.
</event>
<event>
 5   0  0.2862033E-06  0.2989284E+04  0.7818609E-02  0.8246797E-01
        2   -1    0    0  501    0  0.00000000000E+00  0.00000000000E+00  0.19237757003E+04  0.19237757003E+04  0.25500000920E-02 0. -1.
       -2   -1    0    0    0  501  0.00000000000E+00  0.00000000000E+00 -0.11612347423E+04  0.11612347423E+04  0.25500000920E-02 0.  1.
    10030    2    1    2    0    0  0.00000000000E+00  0.00000000000E+00  0.76254095803E+03  0.30850104426E+04  0.29892843154E+04 0.  0.
        2    1    3    3  502    0  0.16909505098E+03 -0.13447503560E+04 -0.26899295075E+03  0.13817756199E+04  0.25500000920E-02 0.  1.
       -2    1    3    3    0  502 -0.16909505098E+03  0.13447503560E+04  0.10315339088E+04  0.17032348227E+04  0.25500000920E-02 0. -1.
</event>
<event>
 5   0  0.2862033E-06  0.3000561E+04  0.7818609E-02  0.8243571E-01
        2   -1    0    0  501    0  0.00000000000E+00  0.00000000000E+00  0.17373514148E+04  0.17373514148E+04  0.25500000920E-02 0.  1.
       -2   -1    0    0    0  501  0.00000000000E+00  0.00000000000E+00 -0.12955591095E+04  0.12955591095E+04  0.25500000920E-02 0. -1.
    10030    2    1    2    0    0  0.00000000000E+00  0.00000000000E+00  0.44179230528E+03  0.30329105243E+04  0.30005609154E+04 0.  0.
        2    1    3    3  502    0 -0.72576460913E+03  0.12678065308E+04  0.56630211296E+03  0.15667692079E+04  0.25500000920E-02 0.  1.
       -2    1    3    3    0  502  0.72576460913E+03 -0.12678065308E+04 -0.12450980768E+03  0.14661413164E+04  0.25500000920E-02 0. -1.
</event>
<event>
 5   0  0.2948711E-06  0.3005557E+04  0.7818609E-02  0.8242146E-01
       -2   -1    0    0    0  501  0.00000000000E+00  0.00000000000E+00  0.99084536154E+03  0.99084536154E+03  0.25500000920E-02 0.  1.
        2   -1    0    0  501    0  0.00000000000E+00  0.00000000000E+00 -0.22792084960E+04  0.22792084961E+04  0.25500000920E-02 0. -1.
    10030    2    1    2    0    0  0.00000000000E+00  0.00000000000E+00 -0.12883631345E+04  0.32700538576E+04  0.30055569642E+04 0.  0.
        5    1    3    3  502    0 -0.13644610551E+04  0.46562677358E+03 -0.18289050712E+03  0.14532836236E+04  0.46999998093E+01 0. -1.
       -5    1    3    3    0  502  0.13644610551E+04 -0.46562677358E+03 -0.11054726274E+04  0.18167702340E+04  0.46999998093E+01 0.  1.
</event>
<event>
 5   0  0.3113328E-06  0.3009642E+04  0.7818609E-02  0.8240983E-01
       -2   -1    0    0    0  501  0.00000000000E+00  0.00000000000E+00  0.10868396624E+04  0.10868396624E+04  0.25500000920E-02 0. -1.
        2   -1    0    0  501    0  0.00000000000E+00  0.00000000000E+00 -0.20835509744E+04  0.20835509744E+04  0.25500000920E-02 0.  1.
    10030    2    1    2    0    0  0.00000000000E+00  0.00000000000E+00 -0.99671131196E+03  0.31703906368E+04  0.30096417313E+04 0.  0.
        1    1    3    3  502    0 -0.13765783086E+04 -0.35740972997E+03 -0.10163259158E+04  0.17480354464E+04  0.50400001928E-02 0.  1.
       -1    1    3    3    0  502  0.13765783086E+04  0.35740972997E+03  0.19614603821E+02  0.14223551904E+04  0.50400001928E-02 0. -1.
</event>
<event>
 5   0  0.2862033E-06  0.2961358E+04  0.7818609E-02  0.8254852E-01
       -2   -1    0    0    0  501  0.00000000000E+00  0.00000000000E+00  0.11605333535E+04  0.11605333535E+04  0.25500000920E-02 0.  1.
        2   -1    0    0  501    0  0.00000000000E+00  0.00000000000E+00 -0.18891399608E+04  0.18891399608E+04  0.25500000920E-02 0. -1.
    10030    2    1    2    0    0  0.00000000000E+00  0.00000000000E+00 -0.72860660729E+03  0.30496733143E+04  0.29613577521E+04 0.  0.
        2    1    3    3  502    0 -0.13143974331E+04 -0.67699843195E+03 -0.28164474976E+03  0.15050884539E+04  0.25500000920E-02 0. -1.
       -2    1    3    3    0  502  0.13143974331E+04  0.67699843195E+03 -0.44696185752E+03  0.15445848604E+04  0.25500000920E-02 0.  1.
</event>
<event>
 5   0  0.3113328E-06  0.2979430E+04  0.7818609E-02  0.8249629E-01
       -2   -1    0    0    0  501  0.00000000000E+00  0.00000000000E+00  0.12157532153E+04  0.12157532153E+04  0.25500000920E-02 0. -1.
        2   -1    0    0  501    0  0.00000000000E+00  0.00000000000E+00 -0.18254124020E+04  0.18254124020E+04  0.25500000920E-02 0.  1.
    10030    2    1    2    0    0  0.00000000000E+00  0.00000000000E+00 -0.60965918669E+03  0.30411656174E+04  0.29794301449E+04 0.  0.
        1    1    3    3  502    0 -0.69100622669E+03 -0.13164646780E+04 -0.39993831466E+03  0.15396491513E+04  0.50400001928E-02 0.  1.
       -1    1    3    3    0  502  0.69100622669E+03  0.13164646780E+04 -0.20972087203E+03  0.15015164660E+04  0.50400001928E-02 0. -1.
</event>
<event>
 5   0  0.1097402E-06  0.3045082E+04  0.7818609E-02  0.8230973E-01
        1   -1    0    0  501    0  0.00000000000E+00  0.00000000000E+00  0.15512131847E+04  0.15512131847E+04  0.50400001928E-02 0. -1.
       -1   -1    0    0    0  501  0.00000000000E+00  0.00000000000E+00 -0.14943990641E+04  0.14943990641E+04  0.50400001928E-02 0.  1.
    10030    2    1    2    0    0  0.00000000000E+00  0.00000000000E+00  0.56814120645E+02  0.30456122488E+04  0.30450822855E+04 0.  0.
        4    1    3    3  502    0 -0.62198072328E+02 -0.13556972861E+04 -0.66189143084E+03  0.15099290085E+04  0.12699999809E+01 0.  1.
       -4    1    3    3    0  502  0.62198072328E+02  0.13556972861E+04  0.71870555149E+03  0.15356832402E+04  0.12699999809E+01 0. -1.
</event>
<event>
 5   0  0.1097402E-06  0.3004643E+04  0.7818609E-02  0.8242406E-01
        1   -1    0    0  501    0  0.00000000000E+00  0.00000000000E+00  0.17075772762E+04  0.17075772762E+04  0.50400001928E-02 0.  1.
       -1   -1    0    0    0  501  0.00000000000E+00  0.00000000000E+00 -0.13217378146E+04  0.13217378146E+04  0.50400001928E-02 0. -1.
    10030    2    1    2    0    0  0.00000000000E+00  0.00000000000E+00  0.38583946158E+03  0.30293150908E+04  0.30046427124E+04 0.  0.
        4    1    3    3  502    0 -0.75202790882E+03 -0.10747802705E+04 -0.54539758600E+03  0.14206191415E+04  0.12699999809E+01 0. -1.
       -4    1    3    3    0  502  0.75202790882E+03  0.10747802705E+04  0.93123704758E+03  0.16086959493E+04  0.12699999809E+01 0.  1.
</event>
<event>
 5   0  0.1097402E-06  0.3006015E+04  0.7818609E-02  0.8242015E-01
        1   -1    0    0  501    0  0.00000000000E+00  0.00000000000E+00  0.28954954533E+04  0.28954954533E+04  0.50400001928E-02 0.  1.
       -1   -1    0    0    0  501  0.00000000000E+00  0.00000000000E+00 -0.78018827903E+03  0.78018827905E+03  0.50400001928E-02 0. -1.
    10030    2    1    2    0    0  0.00000000000E+00  0.00000000000E+00  0.21153071743E+04  0.36756837323E+04  0.30060150463E+04 0.  0.
        4    1    3    3  502    0  0.13943534398E+04  0.52368691187E+03  0.13039163022E+04  0.19795627883E+04  0.12699999809E+01 0.  1.
       -4    1    3    3    0  502 -0.13943534398E+04 -0.52368691187E+03  0.81139087209E+03  0.16961209441E+04  0.12699999809E+01 0. -1.
</event>
<event>
 5   0  0.2970915E-06  0.3016296E+04  0.7818609E-02  0.8239093E-01
       -2   -1    0    0    0  501  0.00000000000E+00  0.00000000000E+00  0.11153219226E+04  0.11153219226E+04  0.25500000920E-02 0. -1.
        2   -1    0    0  501    0  0.00000000000E+00  0.00000000000E+00 -0.20393303077E+04  0.20393303077E+04  0.25500000920E-02 0.  1.
    10030    2    1    2    0    0  0.00000000000E+00  0.00000000000E+00 -0.92400838505E+03  0.31546522303E+04  0.30162956086E+04 0.  0.
        4    1    3    3  502    0  0.52273079473E+03 -0.64178676311E+02  0.10160216872E+04  0.11444072999E+04  0.12699999809E+01 0. -1.
       -4    1    3    3    0  502 -0.52273079473E+03  0.64178676311E+02 -0.19400300723E+04  0.20102449304E+04  0.12699999809E+01 0.  1.
</event>
<event>
 5   0  0.1113245E-06  0.3017891E+04  0.7818609E-02  0.8238640E-01
        1   -1    0    0  501    0  0.00000000000E+00  0.00000000000E+00  0.14343114198E+04  0.14343114198E+04  0.50400001928E-02 0. -1.
       -1   -1    0    0    0  501  0.00000000000E+00  0.00000000000E+00 -0.15874632354E+04  0.15874632354E+04  0.50400001928E-02 0.  1.
    10030    2    1    2    0    0  0.00000000000E+00  0.00000000000E+00 -0.15315181559E+03  0.30217746552E+04  0.30178910829E+04 0.  0.
        5    1    3    3  502    0 -0.94104364335E+03  0.11351139113E+04 -0.39768756503E+03  0.15271621459E+04  0.46999998093E+01 0.  1.
       -5    1    3    3    0  502  0.94104364335E+03 -0.11351139113E+04  0.24453574945E+03  0.14946125094E+04  0.46999998093E+01 0. -1.
</event>
<event>
 5   0  0.1054384E-06  0.3006080E+04  0.7818609E-02  0.8241997E-01
        1   -1    0    0  501    0  0.00000000000E+00  0.00000000000E+00  0.16211550533E+04  0.16211550533E+04  0.50400001928E-02 0. -1.
       -1   -1    0    0    0  501  0.00000000000E+00  0.00000000000E+00 -0.13935302429E+04  0.13935302429E+04  0.50400001928E-02 0.  1.
    10030    2    1    2    0    0  0.00000000000E+00  0.00000000000E+00  0.22762481043E+03  0.30146852962E+04  0.30060795699E+04 0.  0.
        2    1    3    3  502    0 -0.11530562354E+04  0.72850114795E+03  0.74718673631E+03  0.15551657865E+04  0.25500000920E-02 0. -1.
       -2    1    3    3    0  502  0.11530562354E+04 -0.72850114795E+03 -0.51956192588E+03  0.14595195097E+04  0.25500000920E-02 0.  1.
</event>
<event>
 5   0  0.1097402E-06  0.2696259E+04  0.7818609E-02  0.8336220E-01
       -1   -1    0    0    0  501  0.00000000000E+00  0.00000000000E+00  0.31563836998E+04  0.31563836998E+04  0.50400001928E-02 0. -1.
        1   -1    0    0  501    0  0.00000000000E+00  0.00000000000E+00 -0.57580255755E+03  0.57580255757E+03  0.50400001928E-02 0.  1.
    10030    2    1    2    0    0  0.00000000000E+00  0.00000000000E+00  0.25805811423E+04  0.37321862574E+04  0.26962594883E+04 0.  0.
        4    1    3    3  502    0  0.12303342627E+04 -0.42453518086E+02  0.20508846758E+04  0.23919979651E+04  0.12699999809E+01 0.  1.
       -4    1    3    3    0  502 -0.12303342627E+04  0.42453518086E+02  0.52969646650E+03  0.13401882922E+04  0.12699999809E+01 0. -1.
</event>
<event>
 5   0  0.1097402E-06  0.2996091E+04  0.7818609E-02  0.8244848E-01
        1   -1    0    0  501    0  0.00000000000E+00  0.00000000000E+00  0.26999071062E+04  0.26999071062E+04  0.50400001928E-02 0. -1.
       -1   -1    0    0    0  501  0.00000000000E+00  0.00000000000E+00 -0.83119145793E+03  0.83119145795E+03  0.50400001928E-02 0.  1.
    10030    2    1    2    0    0  0.00000000000E+00  0.00000000000E+00  0.18687156483E+04  0.35310985642E+04  0.29960906021E+04 0.  0.
        4    1    3    3  502    0 -0.27715791082E+03  0.12155916047E+04 -0.44392667241E+02  0.12475783657E+04  0.12699999809E+01 0.  1.
       -4    1    3    3    0  502  0.27715791082E+03 -0.12155916047E+04  0.19131083155E+04  0.22835201984E+04  0.12699999809E+01 0. -1.
</event>
<event>
 5   0  0.2985941E-06  0.2998945E+04  0.7818609E-02  0.8244032E-01
       -2   -1    0    0    0  501  0.00000000000E+00  0.00000000000E+00  0.14414518246E+04  0.14414518246E+04  0.25500000920E-02 0. -1.
        2   -1    0    0  501    0  0.00000000000E+00  0.00000000000E+00 -0.15598282081E+04  0.15598282081E+04  0.25500000920E-02 0.  1.
    10030    2    1    2    0    0  0.00000000000E+00  0.00000000000E+00 -0.11837638351E+03  0.30012800328E+04  0.29989446255E+04 0.  0.
        3    1    3    3  502    0 -0.32622828166E+03  0.12654312818E+04 -0.79506753575E+03  0.15296645441E+04  0.10100000352E+00 0.  1.
       -3    1    3    3    0  502  0.32622828166E+03 -0.12654312818E+04  0.67669115224E+03  0.14716154887E+04  0.10100000352E+00 0. -1.
</event>
<event>
 5   0  0.1054384E-06  0.3019549E+04  0.7818609E-02  0.8238171E-01
       -1   -1    0    0    0  501  0.00000000000E+00  0.00000000000E+00  0.16527482056E+04  0.16527482056E+04  0.50400001928E-02 0. -1.
        1   -1    0    0  501    0  0.00000000000E+00  0.00000000000E+00 -0.13791688201E+04  0.13791688201E+04  0.50400001928E-02 0.  1.
    10030    2    1    2    0    0  0.00000000000E+00  0.00000000000E+00  0.27357938552E+03  0.30319170257E+04  0.30195488356E+04 0.  0.
        2    1    3    3  502    0 -0.14184648398E+04 -0.25228993495E+03 -0.31641935134E+03  0.14750640389E+04  0.25500000920E-02 0.  1.
       -2    1    3    3    0  502  0.14184648398E+04  0.25228993495E+03  0.58999873686E+03  0.15568529868E+04  0.25500000920E-02 0. -1.
</event>
<event>
 5   0  0.2985941E-06  0.3016526E+04  0.7818609E-02  0.8239028E-01
        2   -1    0    0  501    0  0.00000000000E+00  0.00000000000E+00  0.26858813082E+04  0.26858813082E+04  0.25500000920E-02 0. -1.
       -2   -1    0    0    0  501  0.00000000000E+00  0.00000000000E+00 -0.84696854178E+03  0.84696854179E+03  0.25500000920E-02 0.  1.
    10030    2    1    2    0    0  0.00000000000E+00  0.00000000000E+00  0.18389127665E+04  0.35328498500E+04  0.30165257997E+04 0.  0.
        3    1    3    3  502    0 -0.38477814668E+03  0.13699713972E+03 -0.78096671450E+03  0.88132369639E+03  0.10100000352E+00 0.  1.
       -3    1    3    3    0  502  0.38477814668E+03 -0.13699713972E+03  0.26198794810E+04  0.26515261536E+04  0.10100000352E+00 0. -1.
</event>
<event>
 5   0  0.1113245E-06  0.2864667E+04  0.7818609E-02  0.8283468E-01
       -1   -1    0    0    0  501  0.00000000000E+00  0.00000000000E+00  0.12651451395E+04  0.12651451395E+04  0.50400001928E-02 0. -1.
        1   -1    0    0  501    0  0.00000000000E+00  0.00000000000E+00 -0.16216156122E+04  0.16216156122E+04  0.50400001928E-02 0.  1.
    10030    2    1    2    0    0  0.00000000000E+00  0.00000000000E+00 -0.35647047273E+03  0.28867607517E+04  0.28646668986E+04 0.  0.
        5    1    3    3  502    0  0.11826626877E+04  0.48635735541E+03  0.47197171591E+03  0.13630898359E+04  0.46999998093E+01 0. -1.
       -5    1    3    3    0  502 -0.11826626877E+04 -0.48635735541E+03 -0.82844218864E+03  0.15236709159E+04  0.46999998093E+01 0.  1.
</event>
<event>
 5   0  0.2985941E-06  0.2802194E+04  0.7818609E-02  0.8302587E-01
       -2   -1    0    0    0  501  0.00000000000E+00  0.00000000000E+00  0.14261610585E+04  0.14261610585E+04  0.25500000920E-02 0.  1.
        2   -1    0    0  501    0  0.00000000000E+00  0.00000000000E+00 -0.13764739133E+04  0.13764739133E+04  0.25500000920E-02 0. -1.
    10030    2    1    2    0    0  0.00000000000E+00  0.00000000000E+00  0.49687145269E+02  0.28026349718E+04  0.28021944923E+04 0.  0.
        3    1    3    3  502    0 -0.11450460839E+04  0.23756665269E+03 -0.74696745666E+03  0.13876342603E+04  0.10100000352E+00 0. -1.
       -3    1    3    3    0  502  0.11450460839E+04 -0.23756665269E+03  0.79665460193E+03  0.14150007116E+04  0.10100000352E+00 0.  1.
</event>
<event>
 5   0  0.1091076E-06  0.3005686E+04  0.7818609E-02  0.8242109E-01
        1   -1    0    0  501    0  0.00000000000E+00  0.00000000000E+00  0.19558637145E+04  0.19558637145E+04  0.50400001928E-02 0. -1.
       -1   -1    0    0    0  501  0.00000000000E+00  0.00000000000E+00 -0.11547515827E+04  0.11547515827E+04  0.50400001928E-02 0.  1.
    10030    2    1    2    0    0  0.00000000000E+00  0.00000000000E+00  0.80111213178E+03  0.31106152972E+04  0.30056857586E+04 0.  0.
        3    1    3    3  502    0 -0.73117000275E+03  0.77671100044E+03  0.14961186128E+04  0.18374603302E+04  0.10100000352E+00 0. -1.
       -3    1    3    3    0  502  0.73117000275E+03 -0.77671100044E+03 -0.69500648105E+03  0.12731549670E+04  0.10100000352E+00 0.  1.
</event>
<event>
 5   0  0.1113245E-06  0.3014098E+04  0.7818609E-02  0.8239716E-01
        1   -1    0    0  501    0  0.00000000000E+00  0.00000000000E+00  0.18639710678E+04  0.18639710678E+04  0.50400001928E-02 0.  1.
       -1   -1    0    0    0  501  0.00000000000E+00  0.00000000000E+00 -0.12184724055E+04  0.12184724055E+04  0.50400001928E-02 0. -1.
    10030    2    1    2    0    0  0.00000000000E+00  0.00000000000E+00  0.64549866235E+03  0.30824434733E+04  0.30140984130E+04 0.  0.
        5    1    3    3  502    0  0.94145169273E+02  0.13903173411E+04  0.90963442007E+03  0.16641221380E+04  0.46999998093E+01 0.  1.
       -5    1    3    3    0  502 -0.94145169273E+02 -0.13903173411E+04 -0.26413575772E+03  0.14183213354E+04  0.46999998093E+01 0. -1.
</event>
<event>
 5   0  0.2948711E-06  0.2977155E+04  0.7818609E-02  0.8250285E-01
       -2   -1    0    0    0  501  0.00000000000E+00  0.00000000000E+00  0.10377987474E+04  0.10377987474E+04  0.25500000920E-02 0.  1.
        2   -1    0    0  501    0  0.00000000000E+00  0.00000000000E+00 -0.21351562333E+04  0.21351562333E+04  0.25500000920E-02 0. -1.
    10030    2    1    2    0    0  0.00000000000E+00  0.00000000000E+00 -0.10973574859E+04  0.31729549808E+04  0.29771546581E+04 0.  0.
        5    1    3    3  502    0  0.65241152232E+03  0.10930442152E+04  0.27372787189E+03  0.13020504939E+04  0.46999998093E+01 0.  1.
       -5    1    3    3    0  502 -0.65241152232E+03 -0.10930442152E+04 -0.13710853578E+04  0.18709044869E+04  0.46999998093E+01 0. -1.
</event>
<event>
 5   0  0.1091076E-06  0.2988044E+04  0.7818609E-02  0.8247153E-01
        1   -1    0    0  501    0  0.00000000000E+00  0.00000000000E+00  0.20467721878E+04  0.20467721878E+04  0.50400001928E-02 0. -1.
       -1   -1    0    0    0  501  0.00000000000E+00  0.00000000000E+00 -0.10905469371E+04  0.10905469371E+04  0.50400001928E-02 0.  1.
    10030    2    1    2    0    0  0.00000000000E+00  0.00000000000E+00  0.95622525066E+03  0.31373191249E+04  0.29880436010E+04 0.  0.
        3    1    3    3  502    0  0.48232824249E+03 -0.22958653216E+03 -0.98685129055E+03  0.11221523912E+04  0.10100000352E+00 0.  1.
       -3    1    3    3    0  502 -0.48232824249E+03  0.22958653216E+03  0.19430765412E+04  0.20151667337E+04  0.10100000352E+00 0. -1.
</event>
<event>
 5   0  0.1054384E-06  0.2930176E+04  0.7818609E-02  0.8263955E-01
       -1   -1    0    0    0  501  0.00000000000E+00  0.00000000000E+00  0.14489893121E+04  0.14489893121E+04  0.50400001928E-02 0.  1.
        1   -1    0    0  501    0  0.00000000000E+00  0.00000000000E+00 -0.14813656932E+04  0.14813656932E+04  0.50400001928E-02 0. -1.
    10030    2    1    2    0    0  0.00000000000E+00  0.00000000000E+00 -0.32376381111E+02  0.29303550053E+04  0.29301761427E+04 0.  0.
        2    1    3    3  502    0  0.32961606634E+03  0.29885310939E+03 -0.14121684962E+04  0.14806011596E+04  0.25500000920E-02 0. -1.
       -2    1    3    3    0  502 -0.32961606634E+03 -0.29885310939E+03  0.13797921151E+04  0.14497538457E+04  0.25500000920E-02 0.  1.
</event>
<event>
 5   0  0.2862033E-06  0.3259683E+04  0.7818609E-02  0.8173231E-01
        2   -1    0    0  501    0  0.00000000000E+00  0.00000000000E+00  0.26181340202E+04  0.26181340202E+04  0.25500000920E-02 0. -1.
       -2   -1    0    0    0  501  0.00000000000E+00  0.00000000000E+00 -0.10146092693E+04  0.10146092693E+04  0.25500000920E-02 0.  1.
    10030    2    1    2    0    0  0.00000000000E+00  0.00000000000E+00  0.16035247509E+04  0.36327432896E+04  0.32596828345E+04 0.  0.
        2    1    3    3  502    0 -0.34854090069E+03  0.54371808137E+03 -0.86591823399E+03  0.10802427965E+04  0.25500000920E-02 0.  1.
       -2    1    3    3    0  502  0.34854090069E+03 -0.54371808137E+03  0.24694429849E+04  0.25525004931E+04  0.25500000920E-02 0. -1.
</event>
<event>
 5   0  0.2862033E-06  0.3017617E+04  0.7818609E-02  0.8238718E-01
        2   -1    0    0  501    0  0.00000000000E+00  0.00000000000E+00  0.15918541853E+04  0.15918541853E+04  0.25500000920E-02 0. -1.
       -2   -1    0    0    0  501  0.00000000000E+00  0.00000000000E+00 -0.14300948632E+04  0.14300948632E+04  0.25500000920E-02 0.  1.
    10030    2    1    2    0    0  0.00000000000E+00  0.00000000000E+00  0.16175932213E+03  0.30219490485E+04  0.30176166048E+04 0.  0.
        2    1    3    3  502    0  0.13870388330E+04 -0.47261441225E+03  0.44092523952E+03  0.15302470956E+04  0.25500000920E-02 0. -1.
       -2    1    3    3    0  502 -0.13870388330E+04  0.47261441225E+03 -0.27916591739E+03  0.14917019529E+04  0.25500000920E-02 0.  1.
</event>
<event>
 5   0  0.2970915E-06  0.3015729E+04  0.7818609E-02  0.8239253E-01
       -2   -1    0    0    0  501  0.00000000000E+00  0.00000000000E+00  0.16343422384E+04  0.16343422384E+04  0.25500000920E-02 0.  1.
        2   -1    0    0  501    0  0.00000000000E+00  0.00000000000E+00 -0.13911749603E+04  0.13911749603E+04  0.25500000920E-02 0. -1.
    10030    2    1    2    0    0  0.00000000000E+00  0.00000000000E+00  0.24316727815E+03  0.30255171987E+04  0.30157294299E+04 0.  0.
        4    1    3    3  502    0  0.67423790515E+03  0.59173214233E+03  0.13375034927E+04  0.16104846746E+04  0.12699999809E+01 0.  1.
       -4    1    3    3    0  502 -0.67423790515E+03 -0.59173214233E+03 -0.10943362146E+04  0.14150325242E+04  0.12699999809E+01 0. -1.
</event>
<event>
 5   0  0.3113328E-06  0.2962381E+04  0.7818609E-02  0.8254555E-01
        2   -1    0    0  501    0  0.00000000000E+00  0.00000000000E+00  0.16915739840E+04  0.16915739840E+04  0.25500000920E-02 0. -1.
       -2   -1    0    0    0  501  0.00000000000E+00  0.00000000000E+00 -0.12969728497E+04  0.12969728497E+04  0.25500000920E-02 0.  1.
    10030    2    1    2    0    0  0.00000000000E+00  0.00000000000E+00  0.39460113434E+03  0.29885468337E+04  0.29623811574E+04 0.  0.
        1    1    3    3  502    0  0.80516674046E+03 -0.10908619270E+04 -0.40433284105E+03  0.14148350682E+04  0.50400001928E-02 0. -1.
       -1    1    3    3    0  502 -0.80516674046E+03  0.10908619270E+04  0.79893397539E+03  0.15737117655E+04  0.50400001928E-02 0.  1.
</event>
<event>
 5   0  0.1054384E-06  0.2995026E+04  0.7818609E-02  0.8245153E-01
       -1   -1    0    0    0  501  0.00000000000E+00  0.00000000000E+00  0.11536317667E+04  0.11536317667E+04  0.50400001928E-02 0.  1.
        1   -1    0    0  501    0  0.00000000000E+00  0.00000000000E+00 -0.19439002873E+04  0.19439002873E+04  0.50400001928E-02 0. -1.
    10030    2    1    2    0    0  0.00000000000E+00  0.00000000000E+00 -0.79026852066E+03  0.30975320540E+04  0.29950259583E+04 0.  0.
        2    1    3    3  502    0 -0.93681032999E+03 -0.11236287036E+04 -0.72607034723E+03  0.16331972346E+04  0.25500000920E-02 0. -1.
       -2    1    3    3    0  502  0.93681032999E+03  0.11236287036E+04 -0.64198173433E+02  0.14643348194E+04  0.25500000920E-02 0.  1.
</event>
<event>
 5   0  0.2862033E-06  0.2994881E+04  0.7818609E-02  0.8245194E-01
       -2   -1    0    0    0  501  0.00000000000E+00  0.00000000000E+00  0.16733053570E+04  0.16733053570E+04  0.25500000920E-02 0. -1.
        2   -1    0    0  501    0  0.00000000000E+00  0.00000000000E+00 -0.13400590559E+04  0.13400590559E+04  0.25500000920E-02 0.  1.
    10030    2    1    2    0    0  0.00000000000E+00  0.00000000000E+00  0.33324630117E+03  0.30133644129E+04  0.29948809638E+04 0.  0.
        2    1    3    3  502    0  0.12144897736E+03 -0.23853093769E+03 -0.13157928898E+04  0.13427426377E+04  0.25500000920E-02 0.  1.
       -2    1    3    3    0  502 -0.12144897736E+03  0.23853093769E+03  0.16490391910E+04  0.16706217752E+04  0.25500000920E-02 0. -1.
</event>
<event>
 5   0  0.2985941E-06  0.2986836E+04  0.7818609E-02  0.8247500E-01
        2   -1    0    0  501    0  0.00000000000E+00  0.00000000000E+00  0.14157661000E+04  0.14157661000E+04  0.25500000920E-02 0.  1.
       -2   -1    0    0    0  501  0.00000000000E+00  0.00000000000E+00 -0.15753288612E+04  0.15753288612E+04  0.25500000920E-02 0. -1.
    10030    2    1    2    0    0  0.00000000000E+00  0.00000000000E+00 -0.15956276126E+03  0.29910949612E+04  0.29868359165E+04 0.  0.
        3    1    3    3  502    0 -0.59856086100E+03  0.10949759831E+04  0.74178450439E+03  0.14517202792E+04  0.10100000352E+00 0.  1.
       -3    1    3    3    0  502  0.59856086100E+03 -0.10949759831E+04 -0.90134726565E+03  0.15393746820E+04  0.10100000352E+00 0. -1.
</event>
<event>
 5   0  0.1091076E-06  0.3019895E+04  0.7818609E-02  0.8238072E-01
       -1   -1    0    0    0  501  0.00000000000E+00  0.00000000000E+00  0.18638369749E+04  0.18638369749E+04  0.50400001928E-02 0.  1.
        1   -1    0    0  501    0  0.00000000000E+00  0.00000000000E+00 -0.12232516965E+04  0.12232516965E+04  0.50400001928E-02 0. -1.
    10030    2    1    2    0    0  0.00000000000E+00  0.00000000000E+00  0.64058527840E+03  0.30870886715E+04  0.30198951913E+04 0.  0.
        3    1    3    3  502    0 -0.71114989015E+03  0.39797674258E+03  0.16197259701E+04  0.18131828044E+04  0.10100000352E+00 0.  1.
       -3    1    3    3    0  502  0.71114989015E+03 -0.39797674258E+03 -0.97914069166E+03  0.12739058671E+04  0.10100000352E+00 0. -1.
</event>
<event>
 5   0  0.2948711E-06  0.2996991E+04  0.7818609E-02  0.8244591E-01
       -2   -1    0    0    0  501  0.00000000000E+00  0.00000000000E+00  0.99423392301E+03  0.99423392301E+03  0.25500000920E-02 0. -1.
        2   -1    0    0  501    0  0.00000000000E+00  0.00000000000E+00 -0.22585120991E+04  0.22585120991E+04  0.25500000920E-02 0.  1.
    10030    2    1    2    0    0  0.00000000000E+00  0.00000000000E+00 -0.12642781761E+04  0.32527460221E+04  0.29969913877E+04 0.  0.
        5    1    3    3  502    0 -0.15759982500E+03 -0.14424273298E+04 -0.10382828390E+04  0.17842330706E+04  0.46999998093E+01 0. -1.
       -5    1    3    3    0  502  0.15759982500E+03  0.14424273298E+04 -0.22599533712E+03  0.14685129515E+04  0.46999998093E+01 0.  1.
</event>
<event>
 5   0  0.1097402E-06  0.3004302E+04  0.7818609E-02  0.8242503E-01
        1   -1    0    0  501    0  0.00000000000E+00  0.00000000000E+00  0.20458788676E+04  0.20458788676E+04  0.50400001928E-02 0.  1.
       -1   -1    0    0    0  501  0.00000000000E+00  0.00000000000E+00 -0.11029283049E+04  0.11029283049E+04  0.50400001928E-02 0. -1.
    10030    2    1    2    0    0  0.00000000000E+00  0.00000000000E+00  0.94295056266E+03  0.31488071725E+04  0.30043020564E+04 0.  0.
        4    1    3    3  502    0 -0.11880923832E+04  0.79027990791E+01  0.14348320850E+04  0.18628930968E+04  0.12699999809E+01 0.  1.
       -4    1    3    3    0  502  0.11880923832E+04 -0.79027990791E+01 -0.49188152231E+03  0.12859140757E+04  0.12699999809E+01 0. -1.
</event>
<event>
 5   0  0.3113328E-06  0.3010581E+04  0.7818609E-02  0.8240716E-01
        2   -1    0    0  501    0  0.00000000000E+00  0.00000000000E+00  0.19774049737E+04  0.19774049737E+04  0.25500000920E-02 0.  1.
       -2   -1    0    0    0  501  0.00000000000E+00  0.00000000000E+00 -0.11458953966E+04  0.11458953966E+04  0.25500000920E-02 0. -1.
    10030    2    1    2    0    0  0.00000000000E+00  0.00000000000E+00  0.83150957710E+03  0.31233003703E+04  0.30105808453E+04 0.  0.
        1    1    3    3  502    0  0.63459426582E+03 -0.10783032038E+04  0.12840202320E+04  0.17928066370E+04  0.50400001928E-02 0.  1.
       -1    1    3    3    0  502 -0.63459426582E+03  0.10783032038E+04 -0.45251065489E+03  0.13304937333E+04  0.50400001928E-02 0. -1.
</event>
<event>
 5   0  0.2862033E-06  0.3016630E+04  0.7818609E-02  0.8238998E-01
       -2   -1    0    0    0  501  0.00000000000E+00  0.00000000000E+00  0.12680299800E+04  0.12680299800E+04  0.25500000920E-02 0. -1.
        2   -1    0    0  501    0  0.00000000000E+00  0.00000000000E+00 -0.17941332773E+04  0.17941332773E+04  0.25500000920E-02 0.  1.
    10030    2    1    2    0    0  0.00000000000E+00  0.00000000000E+00 -0.52610329726E+03  0.30621632573E+04  0.30166304273E+04 0.  0.
        2    1    3    3  502    0  0.10684574554E+04  0.50633643279E+03  0.68758632551E+03  0.13677546827E+04  0.25500000920E-02 0. -1.
       -2    1    3    3    0  502 -0.10684574554E+04 -0.50633643279E+03 -0.12136896228E+04  0.16944085746E+04  0.25500000920E-02 0.  1.
</event>
<event>
 5   0  0.1113245E-06  0.3015713E+04  0.7818609E-02  0.8239258E-01
        1   -1    0    0  501    0  0.00000000000E+00  0.00000000000E+00  0.21255501921E+04  0.21255501922E+04  0.50400001928E-02 0.  1.
       -1   -1    0    0    0  501  0.00000000000E+00  0.00000000000E+00 -0.10696673213E+04  0.10696673213E+04  0.50400001928E-02 0. -1.
    10030    2    1    2    0    0  0.00000000000E+00  0.00000000000E+00  0.10558828708E+04  0.31952175135E+04  0.30157132360E+04 0.  0.
        5    1    3    3  502    0 -0.77015373681E+03  0.26519499487E+03 -0.81650278633E+03  0.11533273836E+04  0.46999998093E+01 0. -1.
       -5    1    3    3    0  502  0.77015373681E+03 -0.26519499487E+03  0.18723856571E+04  0.20418901299E+04  0.46999998093E+01 0.  1.
</event>
<event>
 5   0  0.2862033E-06  0.2989590E+04  0.7818609E-02  0.8246710E-01
        2   -1    0    0  501    0  0.00000000000E+00  0.00000000000E+00  0.27035915977E+04  0.27035915977E+04  0.25500000920E-02 0.  1.
       -2   -1    0    0    0  501  0.00000000000E+00  0.00000000000E+00 -0.82646078014E+03  0.82646078014E+03  0.25500000920E-02 0. -1.
    10030    2    1    2    0    0  0.00000000000E+00  0.00000000000E+00  0.18771308176E+04  0.35300523779E+04  0.29895902201E+04 0.  0.
        2    1    3    3  502    0  0.13975692007E+04 -0.51343837214E+03  0.78194470733E+03  0.16817420011E+04  0.25500000920E-02 0. -1.
       -2    1    3    3    0  502 -0.13975692007E+04  0.51343837214E+03  0.10951861103E+04  0.18483103768E+04  0.25500000920E-02 0.  1.
</event>
<event>
 5   0  0.2948711E-06  0.3025573E+04  0.7818609E-02  0.8236466E-01
        2   -1    0    0  501    0  0.00000000000E+00  0.00000000000E+00  0.14303154198E+04  0.14303154198E+04  0.25500000920E-02 0.  1.
       -2   -1    0    0    0  501  0.00000000000E+00  0.00000000000E+00 -0.16000132953E+04  0.16000132954E+04  0.25500000920E-02 0. -1.
    10030    2    1    2    0    0  0.00000000000E+00  0.00000000000E+00 -0.16969787555E+03  0.30303287151E+04  0.30255734585E+04 0.  0.
        5    1    3    3  502    0 -0.96057533783E+03 -0.13944079839E+01  0.10856600342E+04  0.14496160608E+04  0.46999998093E+01 0.  1.
       -5    1    3    3    0  502  0.96057533783E+03  0.13944079839E+01 -0.12553579097E+04  0.15807126543E+04  0.46999998093E+01 0. -1.
</event>
<event>
 5   0  0.1097402E-06  0.3005644E+04  0.7818609E-02  0.8242121E-01
        1   -1    0    0  501    0  0.00000000000E+00  0.00000000000E+00  0.15535285405E+04  0.15535285405E+04  0.50400001928E-02 0.  1.
       -1   -1    0    0    0  501  0.00000000000E+00  0.00000000000E+00 -0.14537707603E+04  0.14537707603E+04  0.50400001928E-02 0. -1.
    10030    2    1    2    0    0  0.00000000000E+00  0.00000000000E+00  0.99757780246E+02  0.30072993008E+04  0.30056442687E+04 0.  0.
        4    1    3    3  502    0  0.33873815372E+03 -0.12472158861E+04 -0.71747349570E+03  0.14781951269E+04  0.12699999809E+01 0. -1.
       -4    1    3    3    0  502 -0.33873815372E+03  0.12472158861E+04  0.81723127594E+03  0.15291041739E+04  0.12699999809E+01 0.  1.
</event>
<event>
 5   0  0.2985941E-06  0.3074899E+04  0.7818609E-02  0.8222661E-01
        2   -1    0    0  501    0  0.00000000000E+00  0.00000000000E+00  0.21756057295E+04  0.21756057295E+04  0.25500000920E-02 0.  1.
       -2   -1    0    0    0  501  0.00000000000E+00  0.00000000000E+00 -0.10864792044E+04  0.10864792044E+04  0.25500000920E-02 0. -1.
    10030    2    1    2    0    0  0.00000000000E+00  0.00000000000E+00  0.10891265251E+04  0.32620849339E+04  0.30748986208E+04 0.  0.
        3    1    3    3  502    0 -0.16684064157E+03 -0.49479041318E+03 -0.98952926397E+03  0.11188483039E+04  0.10100000352E+00 0. -1.
       -3    1    3    3    0  502  0.16684064157E+03  0.49479041318E+03  0.20786557890E+04  0.21432366300E+04  0.10100000352E+00 0.  1.
</event>
<event>
 5   0  0.9749500E-07  0.2992475E+04  0.7818609E-02  0.8245883E-01
       -3   -1    0    0    0  501  0.00000000000E+00  0.00000000000E+00  0.21020672778E+04  0.21020672802E+04  0.10100000352E+00 0.  1.
        3   -1    0    0  501    0  0.00000000000E+00  0.00000000000E+00 -0.10650118328E+04  0.10650118376E+04  0.10100000352E+00 0. -1.
    10030    2    1    2    0    0  0.00000000000E+00  0.00000000000E+00  0.10370554449E+04  0.31670791178E+04  0.29924749193E+04 0.  0.
        4    1    3    3  502    0  0.15812834758E+03  0.74564068267E+03 -0.84412956767E+03  0.11373394137E+04  0.12699999809E+01 0.  1.
       -4    1    3    3    0  502 -0.15812834758E+03 -0.74564068267E+03  0.18811850126E+04  0.20297397041E+04  0.12699999809E+01 0. -1.
</event>
<event>
 5   0  0.1091076E-06  0.3009292E+04  0.7818609E-02  0.8241082E-01
       -1   -1    0    0    0  501  0.00000000000E+00  0.00000000000E+00  0.12957423509E+04  0.12957423509E+04  0.50400001928E-02 0.  1.
        1   -1    0    0  501    0  0.00000000000E+00  0.00000000000E+00 -0.17472296475E+04  0.17472296475E+04  0.50400001928E-02 0. -1.
    10030    2    1    2    0    0  0.00000000000E+00  0.00000000000E+00 -0.45148729666E+03  0.30429719984E+04  0.30092919107E+04 0.  0.
        3    1    3    3  502    0  0.16079002526E+03  0.10622086410E+04 -0.12910136056E+04  0.16795406423E+04  0.10100000352E+00 0. -1.
       -3    1    3    3    0  502 -0.16079002526E+03 -0.10622086410E+04  0.83952630891E+03  0.13634313561E+04  0.10100000352E+00 0.  1.
</event>
<event>
 5   0  0.1091076E-06  0.3003506E+04  0.7818609E-02  0.8242730E-01
       -1   -1    0    0    0  501  0.00000000000E+00  0.00000000000E+00  0.80260768725E+03  0.80260768727E+03  0.50400001928E-02 0.  1.
        1   -1    0    0  501    0  0.00000000000E+00  0.00000000000E+00 -0.28099188789E+04  0.28099188789E+04  0.50400001928E-02 0. -1.
    10030    2    1    2    0    0  0.00000000000E+00  0.00000000000E+00 -0.20073111916E+04  0.36125265662E+04  0.30035062795E+04 0.  0.
        3    1    3    3  502    0 -0.98015086922E+03  0.14850168521E+03 -0.23604492096E+04  0.25601697128E+04  0.10100000352E+00 0. -1.
       -3    1    3    3    0  502  0.98015086922E+03 -0.14850168521E+03  0.35313801796E+03  0.10523568534E+04  0.10100000352E+00 0.  1.
</event>
<event>
 5   0  0.1091075E-06  0.2977944E+04  0.7818609E-02  0.8250057E-01
       -1   -1    0    0    0  501  0.00000000000E+00  0.00000000000E+00  0.11944214772E+04  0.11944214772E+04  0.50400001928E-02 0.  1.
        1   -1    0    0  501    0  0.00000000000E+00  0.00000000000E+00 -0.18561606045E+04  0.18561606045E+04  0.50400001928E-02 0. -1.
    10030    2    1    2    0    0  0.00000000000E+00  0.00000000000E+00 -0.66173912723E+03  0.30505820817E+04  0.29779443186E+04 0.  0.
        1    1    3    3  502    0 -0.44907951247E+03  0.29886119136E+03  0.10908032479E+04  0.12168985766E+04  0.50400001928E-02 0.  1.
       -1    1    3    3    0  502  0.44907951247E+03 -0.29886119136E+03 -0.17525423751E+04  0.18336835051E+04  0.50400001928E-02 0. -1.
</event>
<event>
 5   0  0.2985941E-06  0.3000708E+04  0.7818609E-02  0.8243529E-01
       -2   -1    0    0    0  501  0.00000000000E+00  0.00000000000E+00  0.94588802946E+03  0.94588802946E+03  0.25500000920E-02 0. -1.
        2   -1    0    0  501    0  0.00000000000E+00  0.00000000000E+00 -0.23798396039E+04  0.23798396039E+04  0.25500000920E-02 0.  1.
    10030    2    1    2    0    0  0.00000000000E+00  0.00000000000E+00 -0.14339515744E+04  0.33257276333E+04  0.30007077787E+04 0.  0.
        3    1    3    3  502    0 -0.75597173457E+03  0.58888252648E+03 -0.19964842655E+04  0.22145485603E+04  0.10100000352E+00 0.  1.
       -3    1    3    3    0  502  0.75597173457E+03 -0.58888252648E+03  0.56253269111E+03  0.11111790730E+04  0.10100000352E+00 0. -1.
</event>
<event>
 5   0  0.9749500E-07  0.2993969E+04  0.7818609E-02  0.8245455E-01
       -3   -1    0    0    0  501  0.00000000000E+00  0.00000000000E+00  0.92322448231E+03  0.92322448783E+03  0.10100000352E+00 0.  1.
        3   -1    0    0  501    0  0.00000000000E+00  0.00000000000E+00 -0.24273216473E+04  0.24273216494E+04  0.10100000352E+00 0. -1.
    10030    2    1    2    0    0  0.00000000000E+00  0.00000000000E+00 -0.15040971650E+04  0.33505461373E+04  0.29939691274E+04 0.  0.
        5    1    3    3  502    0 -0.93244917623E+03  0.14227468934E+03  0.54882193697E+03  0.10912979254E+04  0.46999998093E+01 0.  1.
       -5    1    3    3    0  502  0.93244917623E+03 -0.14227468934E+03 -0.20529191020E+04  0.22592482119E+04  0.46999998093E+01 0. -1.
</event>
<event>
 5   0  0.2985941E-06  0.3001528E+04  0.7818609E-02  0.8243295E-01
        2   -1    0    0  501    0  0.00000000000E+00  0.00000000000E+00  0.22083233349E+04  0.22083233349E+04  0.25500000920E-02 0. -1.
       -2   -1    0    0    0  501  0.00000000000E+00  0.00000000000E+00 -0.10199105301E+04  0.10199105301E+04  0.25500000920E-02 0.  1.
    10030    2    1    2    0    0  0.00000000000E+00  0.00000000000E+00  0.11884128048E+04  0.32282338650E+04  0.30015277598E+04 0.  0.
        3    1    3    3  502    0  0.13147956278E+04 -0.43344379719E+03 -0.28980676920E+02  0.13847024800E+04  0.10100000352E+00 0.  1.
       -3    1    3    3    0  502 -0.13147956278E+04  0.43344379719E+03  0.12173934817E+04  0.18435313851E+04  0.10100000352E+00 0. -1.
</event>
<event>
 5   0  0.2948711E-06  0.2968970E+04  0.7818609E-02  0.8252648E-01
       -2   -1    0    0    0  501  0.00000000000E+00  0.00000000000E+00  0.90085512321E+03  0.90085512321E+03  0.25500000920E-02 0.  1.
        2   -1    0    0  501    0  0.00000000000E+00  0.00000000000E+00 -0.24462267669E+04  0.24462267669E+04  0.25500000920E-02 0. -1.
    10030    2    1    2    0    0  0.00000000000E+00  0.00000000000E+00 -0.15453716437E+04  0.33470818901E+04  0.29689701349E+04 0.  0.
        5    1    3    3  502    0 -0.41537083570E+03  0.16831657092E+03 -0.23681256548E+04  0.24101669250E+04  0.46999998093E+01 0. -1.
       -5    1    3    3    0  502  0.41537083570E+03 -0.16831657092E+03  0.82275401110E+03  0.93691496518E+03  0.46999998093E+01 0.  1.
</event>
<event>
 5   0  0.1054384E-06  0.3005159E+04  0.7818609E-02  0.8242259E-01
        1   -1    0    0  501    0  0.00000000000E+00  0.00000000000E+00  0.18920918113E+04  0.18920918113E+04  0.50400001928E-02 0.  1.
       -1   -1    0    0    0  501  0.00000000000E+00  0.00000000000E+00 -0.11932534089E+04  0.11932534089E+04  0.50400001928E-02 0. -1.
    10030    2    1    2    0    0  0.00000000000E+00  0.00000000000E+00  0.69883840240E+03  0.30853452202E+04  0.30051589002E+04 0.  0.
        2    1    3    3  502    0 -0.29677311799E+03 -0.11829153442E+04  0.12505532296E+04  0.17467817194E+04  0.25500000920E-02 0.  1.
       -2    1    3    3    0  502  0.29677311799E+03  0.11829153442E+04 -0.55171482722E+03  0.13385635008E+04  0.25500000920E-02 0. -1.
</event>
<event>
 5   0  0.1097402E-06  0.2948400E+04  0.7818609E-02  0.8258621E-01
        1   -1    0    0  501    0  0.00000000000E+00  0.00000000000E+00  0.15766553274E+04  0.15766553274E+04  0.50400001928E-02 0. -1.
       -1   -1    0    0    0  501  0.00000000000E+00  0.00000000000E+00 -0.13784028023E+04  0.13784028024E+04  0.50400001928E-02 0.  1.
    10030    2    1    2    0    0  0.00000000000E+00  0.00000000000E+00  0.19825252501E+03  0.29550581297E+04  0.29484003267E+04 0.  0.
        4    1    3    3  502    0 -0.11912733739E+04 -0.41850994076E+03 -0.66350041168E+03  0.14263650413E+04  0.12699999809E+01 0.  1.
       -4    1    3    3    0  502  0.11912733739E+04  0.41850994076E+03  0.86175293669E+03  0.15286930884E+04  0.12699999809E+01 0. -1.
</event>
<event>
 5   0  0.2862033E-06  0.2855217E+04  0.7818609E-02  0.8286328E-01
       -2   -1    0    0    0  501  0.00000000000E+00  0.00000000000E+00  0.24571087432E+04  0.24571087432E+04  0.25500000920E-02 0. -1.
        2   -1    0    0  501    0  0.00000000000E+00  0.00000000000E+00 -0.82945671686E+03  0.82945671686E+03  0.25500000920E-02 0.  1.
    10030    2    1    2    0    0  0.00000000000E+00  0.00000000000E+00  0.16276520263E+04  0.32865654600E+04  0.28552165249E+04 0.  0.
        2    1    3    3  502    0  0.61577876976E+03 -0.12126826032E+04  0.13132949896E+04  0.18906417744E+04  0.25500000920E-02 0. -1.
       -2    1    3    3    0  502 -0.61577876976E+03  0.12126826032E+04  0.31435703672E+03  0.13959236856E+04  0.25500000920E-02 0.  1.
</event>
<event>
 5   0  0.2985941E-06  0.3009549E+04  0.7818609E-02  0.8241009E-01
        2   -1    0    0  501    0  0.00000000000E+00  0.00000000000E+00  0.14660878168E+04  0.14660878168E+04  0.25500000920E-02 0.  1.
       -2   -1    0    0    0  501  0.00000000000E+00  0.00000000000E+00 -0.15444821942E+04  0.15444821942E+04  0.25500000920E-02 0. -1.
    10030    2    1    2    0    0  0.00000000000E+00  0.00000000000E+00 -0.78394377371E+02  0.30105700110E+04  0.30095491544E+04 0.  0.
        3    1    3    3  502    0 -0.13271787541E+04  0.44352466242E+03 -0.59276446637E+03  0.15196997382E+04  0.10100000352E+00 0. -1.
       -3    1    3    3    0  502  0.13271787541E+04 -0.44352466242E+03  0.51437008900E+03  0.14908702728E+04  0.10100000352E+00 0.  1.
</event>
<event>
 5   0  0.1091075E-06  0.3108890E+04  0.7818609E-02  0.8213302E-01
        1   -1    0    0  501    0  0.00000000000E+00  0.00000000000E+00  0.14969148825E+04  0.14969148825E+04  0.50400001928E-02 0.  1.
       -1   -1    0    0    0  501  0.00000000000E+00  0.00000000000E+00 -0.16141863590E+04  0.16141863590E+04  0.50400001928E-02 0. -1.
    10030    2    1    2    0    0  0.00000000000E+00  0.00000000000E+00 -0.11727147648E+03  0.31111012415E+04  0.31088902096E+04 0.  0.
        1    1    3    3  502    0  0.11201766533E+04 -0.49948260795E+03  0.89704134479E+03  0.15195268292E+04  0.50400001928E-02 0.  1.
       -1    1    3    3    0  502 -0.11201766533E+04  0.49948260795E+03 -0.10143128213E+04  0.15915744123E+04  0.50400001928E-02 0. -1.
</event>
<event>
 5   0  0.2948711E-06  0.2763900E+04  0.7818609E-02  0.8314564E-01
       -2   -1    0    0    0  501  0.00000000000E+00  0.00000000000E+00  0.72594481394E+03  0.72594481395E+03  0.25500000920E-02 0. -1.
        2   -1    0    0  501    0  0.00000000000E+00  0.00000000000E+00 -0.26307584259E+04  0.26307584259E+04  0.25500000920E-02 0.  1.
    10030    2    1    2    0    0  0.00000000000E+00  0.00000000000E+00 -0.19048136120E+04  0.33567032399E+04  0.27638997348E+04 0.  0.
        5    1    3    3  502    0 -0.88459240813E+03 -0.86714675004E+03 -0.20837880692E+03  0.12561413264E+04  0.46999998093E+01 0. -1.
       -5    1    3    3    0  502  0.88459240813E+03  0.86714675004E+03 -0.16964348050E+04  0.21005619135E+04  0.46999998093E+01 0.  1.
</event>
<event>
 5   0  0.1097402E-06  0.3002076E+04  0.7818609E-02  0.8243138E-01
        1   -1    0    0  501    0  0.00000000000E+00  0.00000000000E+00  0.13084754920E+04  0.13084754920E+04  0.50400001928E-02 0. -1.
       -1   -1    0    0    0  501  0.00000000000E+00  0.00000000000E+00 -0.17219395033E+04  0.17219395034E+04  0.50400001928E-02 0.  1.
    10030    2    1    2    0    0  0.00000000000E+00  0.00000000000E+00 -0.41346401132E+03  0.30304149954E+04  0.30020763741E+04 0.  0.
        4    1    3    3  502    0  0.93337929057E+02  0.13941769308E+04 -0.76024446247E+03  0.15907276760E+04  0.12699999809E+01 0. -1.
       -4    1    3    3    0  502 -0.93337929057E+02 -0.13941769308E+04  0.34678045115E+03  0.14396873194E+04  0.12699999809E+01 0.  1.
</event>
<event>
 5   0  0.1113245E-06  0.2996109E+04  0.7818609E-02  0.8244843E-01
       -1   -1    0    0    0  501  0.00000000000E+00  0.00000000000E+00  0.12426685502E+04  0.12426685502E+04  0.50400001928E-02 0. -1.
        1   -1    0    0  501    0  0.00000000000E+00  0.00000000000E+00 -0.18059254752E+04  0.18059254752E+04  0.50400001928E-02 0.  1.
    10030    2    1    2    0    0  0.00000000000E+00  0.00000000000E+00 -0.56325692497E+03  0.30485940254E+04  0.29961086710E+04 0.  0.
        5    1    3    3  502    0  0.87714428253E+03 -0.97601564701E+03  0.45363366534E+03  0.13884502972E+04  0.46999998093E+01 0.  1.
       -5    1    3    3    0  502 -0.87714428253E+03  0.97601564701E+03 -0.10168905903E+04  0.16601437282E+04  0.46999998093E+01 0. -1.
</event>
<event>
 5   0  0.2862033E-06  0.3086306E+04  0.7818609E-02  0.8219506E-01
       -2   -1    0    0    0  501  0.00000000000E+00  0.00000000000E+00  0.19440286373E+04  0.19440286373E+04  0.25500000920E-02 0.  1.
        2   -1    0    0  501    0  0.00000000000E+00  0.00000000000E+00 -0.12249415171E+04  0.12249415171E+04  0.25500000920E-02 0. -1.
    10030    2    1    2    0    0  0.00000000000E+00  0.00000000000E+00  0.71908712021E+03  0.31689701545E+04  0.30863061341E+04 0.  0.
        2    1    3    3  502    0  0.15407259279E+04 -0.79951929466E+02  0.32560228962E+03  0.15767832911E+04  0.25500000920E-02 0.  1.
       -2    1    3    3    0  502 -0.15407259279E+04  0.79951929466E+02  0.39348483059E+03  0.15921868634E+04  0.25500000920E-02 0. -1.
</event>
<event>
 5   0  0.1091075E-06  0.2999245E+04  0.7818609E-02  0.8243947E-01
        1   -1    0    0  501    0  0.00000000000E+00  0.00000000000E+00  0.22332886374E+04  0.22332886374E+04  0.50400001928E-02 0.  1.
       -1   -1    0    0    0  501  0.00000000000E+00  0.00000000000E+00 -0.10069756047E+04  0.10069756047E+04  0.50400001928E-02 0. -1.
    10030    2    1    2    0    0  0.00000000000E+00  0.00000000000E+00  0.12263130326E+04  0.32402642421E+04  0.29992446891E+04 0.  0.
        1    1    3    3  502    0 -0.12863335143E+04  0.75692883698E+03  0.45558681563E+03  0.15604981644E+04  0.50400001928E-02 0.  1.
       -1    1    3    3    0  502  0.12863335143E+04 -0.75692883698E+03  0.77072621701E+03  0.16797660778E+04  0.50400001928E-02 0. -1.
</event>
<event>
 5   0  0.1054384E-06  0.2942541E+04  0.7818609E-02  0.8260332E-01
        1   -1    0    0  501    0  0.00000000000E+00  0.00000000000E+00  0.11836407427E+04  0.11836407428E+04  0.50400001928E-02 0. -1.
       -1   -1    0    0    0  501  0.00000000000E+00  0.00000000000E+00 -0.18287955286E+04  0.18287955286E+04  0.50400001928E-02 0.  1.
    10030    2    1    2    0    0  0.00000000000E+00  0.00000000000E+00 -0.64515478581E+03  0.30124362713E+04  0.29425410092E+04 0.  0.
        2    1    3    3  502    0 -0.44604678870E+03 -0.46041149966E+02 -0.17571329189E+04  0.18134479921E+04  0.25500000920E-02 0.  1.
       -2    1    3    3    0  502  0.44604678870E+03  0.46041149966E+02  0.11119781331E+04  0.11989882792E+04  0.25500000920E-02 0. -1.
</event>
<event>
 5   0  0.2948711E-06  0.3025313E+04  0.7818609E-02  0.8236539E-01
        2   -1    0    0  501    0  0.00000000000E+00  0.00000000000E+00  0.14439313505E+04  0.14439313505E+04  0.25500000920E-02 0.  1.
       -2   -1    0    0    0  501  0.00000000000E+00  0.00000000000E+00 -0.15846525816E+04  0.15846525816E+04  0.25500000920E-02 0. -1.
    10030    2    1    2    0    0  0.00000000000E+00  0.00000000000E+00 -0.14072123110E+03  0.30285839322E+04  0.30253129043E+04 0.  0.
        5    1    3    3  502    0 -0.74547818569E+03  0.12380610124E+04  0.37686019999E+03  0.14935121346E+04  0.46999998093E+01 0. -1.
       -5    1    3    3    0  502  0.74547818569E+03 -0.12380610124E+04 -0.51758143109E+03  0.15350717976E+04  0.46999998093E+01 0.  1.
</event>
<event>
 5   0  0.2970915E-06  0.2988848E+04  0.7818609E-02  0.8246923E-01
       -2   -1    0    0    0  501  0.00000000000E+00  0.00000000000E+00  0.11767758480E+04  0.11767758480E+04  0.25500000920E-02 0.  1.
        2   -1    0    0  501    0  0.00000000000E+00  0.00000000000E+00 -0.18978148449E+04  0.18978148449E+04  0.25500000920E-02 0. -1.
    10030    2    1    2    0    0  0.00000000000E+00  0.00000000000E+00 -0.72103899695E+03  0.30745906929E+04  0.29888477201E+04 0.  0.
        4    1    3    3  502    0  0.11618899804E+04  0.49880595040E+03 -0.11799293226E+04  0.17294596040E+04  0.12699999809E+01 0. -1.
       -4    1    3    3    0  502 -0.11618899804E+04 -0.49880595040E+03  0.45889032564E+03  0.13451310890E+04  0.12699999809E+01 0.  1.
</event>
<event>
 5   0  0.1054384E-06  0.3024379E+04  0.7818609E-02  0.8236803E-01
       -1   -1    0    0    0  501  0.00000000000E+00  0.00000000000E+00  0.98381856201E+03  0.98381856203E+03  0.50400001928E-02 0. -1.
        1   -1    0    0  501    0  0.00000000000E+00  0.00000000000E+00 -0.23243276642E+04  0.23243276642E+04  0.50400001928E-02 0.  1.
    10030    2    1    2    0    0  0.00000000000E+00  0.00000000000E+00 -0.13405091022E+04  0.33081462262E+04  0.30243787463E+04 0.  0.
        2    1    3    3  502    0  0.83680307964E+03  0.10916357038E+04  0.17038464608E+02  0.13755719586E+04  0.25500000920E-02 0. -1.
       -2    1    3    3    0  502 -0.83680307964E+03 -0.10916357038E+04 -0.13575475668E+04  0.19325742677E+04  0.25500000920E-02 0.  1.
</event>
<event>
 5   0  0.1091076E-06  0.3007638E+04  0.7818609E-02  0.8241553E-01
       -1   -1    0    0    0  501  0.00000000000E+00  0.00000000000E+00  0.19931829940E+04  0.19931829940E+04  0.50400001928E-02 0.  1.
        1   -1    0    0  501    0  0.00000000000E+00  0.00000000000E+00 -0.11346029574E+04  0.11346029574E+04  0.50400001928E-02 0. -1.
    10030    2    1    2    0    0  0.00000000000E+00  0.00000000000E+00  0.85858003658E+03  0.31277859515E+04  0.30076378238E+04 0.  0.
        3    1    3    3  502    0  0.27938265779E+03  0.14754071252E+04  0.34486538471E+03  0.15407183384E+04  0.10100000352E+00 0. -1.
       -3    1    3    3    0  502 -0.27938265779E+03 -0.14754071252E+04  0.51371465187E+03  0.15870676130E+04  0.10100000352E+00 0.  1.
</event>
<event>
 5   0  0.1054384E-06  0.3028506E+04  0.7818609E-02  0.8235637E-01
        1   -1    0    0  501    0  0.00000000000E+00  0.00000000000E+00  0.20086790466E+04  0.20086790466E+04  0.50400001928E-02 0. -1.
       -1   -1    0    0    0  501  0.00000000000E+00  0.00000000000E+00 -0.11415275510E+04  0.11415275510E+04  0.50400001928E-02 0.  1.
    10030    2    1    2    0    0  0.00000000000E+00  0.00000000000E+00  0.86715149559E+03  0.31502065976E+04  0.30285062145E+04 0.  0.
        2    1    3    3  502    0  0.91737018303E+03  0.94423304562E+03  0.12118526515E+04  0.17893381308E+04  0.25500000920E-02 0. -1.
       -2    1    3    3    0  502 -0.91737018303E+03 -0.94423304562E+03 -0.34470115594E+03  0.13608684669E+04  0.25500000920E-02 0.  1.
</event>
<event>
 5   0  0.2985941E-06  0.2935745E+04  0.7818609E-02  0.8262321E-01
       -2   -1    0    0    0  501  0.00000000000E+00  0.00000000000E+00  0.12821736356E+04  0.12821736356E+04  0.25500000920E-02 0.  1.
        2   -1    0    0  501    0  0.00000000000E+00  0.00000000000E+00 -0.16804659898E+04  0.16804659898E+04  0.25500000920E-02 0. -1.
    10030    2    1    2    0    0  0.00000000000E+00  0.00000000000E+00 -0.39829235425E+03  0.29626396254E+04  0.29357446672E+04 0.  0.
        3    1    3    3  502    0 -0.25941753133E+03  0.12030958091E+04  0.60812740458E+03  0.13727912922E+04  0.10100000352E+00 0.  1.
       -3    1    3    3    0  502  0.25941753133E+03 -0.12030958091E+04 -0.10064197588E+04  0.15898483332E+04  0.10100000352E+00 0. -1.
</event>
<event>
 5   0  0.9749500E-07  0.3060482E+04  0.7818609E-02  0.8226668E-01
        3   -1    0    0  501    0  0.00000000000E+00  0.00000000000E+00  0.26219842759E+04  0.26219842778E+04  0.10100000352E+00 0. -1.
       -3   -1    0    0    0  501  0.00000000000E+00  0.00000000000E+00 -0.89307837594E+03  0.89307838165E+03  0.10100000352E+00 0.  1.
    10030    2    1    2    0    0  0.00000000000E+00  0.00000000000E+00  0.17289058999E+04  0.35150626595E+04  0.30604819701E+04 0.  0.
        1    1    3    3  502    0  0.91446495738E+03 -0.12247021410E+04  0.94959925625E+03  0.17994110814E+04  0.50400001928E-02 0. -1.
       -1    1    3    3    0  502 -0.91446495738E+03  0.12247021410E+04  0.77930664368E+03  0.17156515781E+04  0.50400001928E-02 0.  1.
</event>
<event>
 5   0  0.1097402E-06  0.2990779E+04  0.7818609E-02  0.8246369E-01
        1   -1    0    0  501    0  0.00000000000E+00  0.00000000000E+00  0.15236286425E+04  0.15236286425E+04  0.50400001928E-02 0. -1.
       -1   -1    0    0    0  501  0.00000000000E+00  0.00000000000E+00 -0.14676735938E+04  0.14676735938E+04  0.50400001928E-02 0.  1.
    10030    2    1    2    0    0  0.00000000000E+00  0.00000000000E+00  0.55955048756E+02  0.29913022363E+04  0.29907788453E+04 0.  0.
        4    1    3    3  502    0  0.55767835961E+03  0.35762226648E+02 -0.13593138128E+04  0.14697005628E+04  0.12699999809E+01 0.  1.
       -4    1    3    3    0  502 -0.55767835961E+03 -0.35762226648E+02  0.14152688616E+04  0.15216016736E+04  0.12699999809E+01 0. -1.
</event>
<event>
 5   0  0.1091076E-06  0.3001727E+04  0.7818609E-02  0.8243238E-01
        1   -1    0    0  501    0  0.00000000000E+00  0.00000000000E+00  0.15860416127E+04  0.15860416127E+04  0.50400001928E-02 0.  1.
       -1   -1    0    0    0  501  0.00000000000E+00  0.00000000000E+00 -0.14202599920E+04  0.14202599920E+04  0.50400001928E-02 0. -1.
    10030    2    1    2    0    0  0.00000000000E+00  0.00000000000E+00  0.16578162074E+03  0.30063016047E+04  0.30017271349E+04 0.  0.
        3    1    3    3  502    0 -0.11065406445E+04 -0.27375885845E+03  0.10607061500E+04  0.15570721426E+04  0.10100000352E+00 0.  1.
       -3    1    3    3    0  502  0.11065406445E+04  0.27375885845E+03 -0.89492452928E+03  0.14492294621E+04  0.10100000352E+00 0. -1.
</event>
<event>
 5   0  0.3113328E-06  0.3007974E+04  0.7818609E-02  0.8241457E-01
        2   -1    0    0  501    0  0.00000000000E+00  0.00000000000E+00  0.16010313752E+04  0.16010313752E+04  0.25500000920E-02 0. -1.
       -2   -1    0    0    0  501  0.00000000000E+00  0.00000000000E+00 -0.14128250023E+04  0.14128250023E+04  0.25500000920E-02 0.  1.
    10030    2    1    2    0    0  0.00000000000E+00  0.00000000000E+00  0.18820637287E+03  0.30138563775E+04  0.30079741730E+04 0.  0.
        1    1    3    3  502    0  0.70317226924E+03 -0.10938860589E+04  0.85118599229E+03  0.15542057597E+04  0.50400001928E-02 0. -1.
       -1    1    3    3    0  502 -0.70317226924E+03  0.10938860589E+04 -0.66297961943E+03  0.14596506178E+04  0.50400001928E-02 0.  1.
</event>
<event>
 5   0  0.1091075E-06  0.3000047E+04  0.7818609E-02  0.8243717E-01
        1   -1    0    0  501    0  0.00000000000E+00  0.00000000000E+00  0.12590501763E+04  0.12590501763E+04  0.50400001928E-02 0. -1.
       -1   -1    0    0    0  501  0.00000000000E+00  0.00000000000E+00 -0.17871177851E+04  0.17871177851E+04  0.50400001928E-02 0.  1.
    10030    2    1    2    0    0  0.00000000000E+00  0.00000000000E+00 -0.52806760873E+03  0.30461679614E+04  0.30000473079E+04 0.  0.
        1    1    3    3  502    0  0.71718902366E+03 -0.11505722367E+04 -0.91569023298E+03  0.16360517016E+04  0.50400001928E-02 0.  1.
       -1    1    3    3    0  502 -0.71718902366E+03  0.11505722367E+04  0.38762262425E+03  0.14101162598E+04  0.50400001928E-02 0. -1.
</event>
<event>
 5   0  0.2985941E-06  0.2955394E+04  0.7818609E-02  0.8256584E-01
        2   -1    0    0  501    0  0.00000000000E+00  0.00000000000E+00  0.23531169057E+04  0.23531169057E+04  0.25500000920E-02 0.  1.
       -2   -1    0    0    0  501  0.00000000000E+00  0.00000000000E+00 -0.92795557648E+03  0.92795557648E+03  0.25500000920E-02 0. -1.
    10030    2    1    2    0    0  0.00000000000E+00  0.00000000000E+00  0.14251613293E+04  0.32810724822E+04  0.29553936826E+04 0.  0.
        3    1    3    3  502    0  0.91855194011E+02  0.14734975289E+04  0.78240497811E+03  0.16708650168E+04  0.10100000352E+00 0.  1.
       -3    1    3    3    0  502 -0.91855194011E+02 -0.14734975289E+04  0.64275635114E+03  0.16102074654E+04  0.10100000352E+00 0. -1.
</event>
<event>
 5   0  0.2985941E-06  0.3032026E+04  0.7818609E-02  0.8234644E-01
        2   -1    0    0  501    0  0.00000000000E+00  0.00000000000E+00  0.23830707935E+04  0.23830707935E+04  0.25500000920E-02 0.  1.
       -2   -1    0    0    0  501  0.00000000000E+00  0.00000000000E+00 -0.96442625715E+03  0.96442625715E+03  0.25500000920E-02 0. -1.
    10030    2    1    2    0    0  0.00000000000E+00  0.00000000000E+00  0.14186445364E+04  0.33474970507E+04  0.30320264154E+04 0.  0.
        3    1    3    3  502    0  0.93689298239E+03 -0.71856154176E+03 -0.34050712001E+03  0.12288385812E+04  0.10100000352E+00 0. -1.
       -3    1    3    3    0  502 -0.93689298239E+03  0.71856154176E+03  0.17591516564E+04  0.21186584694E+04  0.10100000352E+00 0.  1.
</event>
<event>
 5   0  0.2970915E-06  0.3034952E+04  0.7818609E-02  0.8233820E-01
       -2   -1    0    0    0  501  0.00000000000E+00  0.00000000000E+00  0.87483050397E+03  0.87483050397E+03  0.25500000920E-02 0.  1.
        2   -1    0    0  501    0  0.00000000000E+00  0.00000000000E+00 -0.26322057403E+04  0.26322057403E+04  0.25500000920E-02 0. -1.
    10030    2    1    2    0    0  0.00000000000E+00  0.00000000000E+00 -0.17573752364E+04  0.35070362443E+04  0.30349523056E+04 0.  0.
        4    1    3    3  502    0 -0.10456416338E+04  0.10996566221E+04 -0.86596876700E+03  0.17471447081E+04  0.12699999809E+01 0.  1.
       -4    1    3    3    0  502  0.10456416338E+04 -0.10996566221E+04 -0.89140646935E+03  0.17598915362E+04  0.12699999809E+01 0. -1.
</event>
<event>
 5   0  0.1091076E-06  0.3013046E+04  0.7818609E-02  0.8240015E-01
        1   -1    0    0  501    0  0.00000000000E+00  0.00000000000E+00  0.14843183859E+04  0.14843183859E+04  0.50400001928E-02 0. -1.
       -1   -1    0    0    0  501  0.00000000000E+00  0.00000000000E+00 -0.15290601896E+04  0.15290601896E+04  0.50400001928E-02 0.  1.
    10030    2    1    2    0    0  0.00000000000E+00  0.00000000000E+00 -0.44741803733E+02  0.30133785755E+04  0.30130464002E+04 0.  0.
        3    1    3    3  502    0  0.52390683530E+03  0.13813693739E+04  0.27253856941E+03  0.15023105542E+04  0.10100000352E+00 0. -1.
       -3    1    3    3    0  502 -0.52390683530E+03 -0.13813693739E+04 -0.31728037314E+03  0.15110680212E+04  0.10100000352E+00 0.  1.
</event>
<event>
 5   0  0.2970915E-06  0.2998839E+04  0.7818609E-02  0.8244063E-01
        2   -1    0    0  501    0  0.00000000000E+00  0.00000000000E+00  0.15569324285E+04  0.15569324285E+04  0.25500000920E-02 0. -1.
       -2   -1    0    0    0  501  0.00000000000E+00  0.00000000000E+00 -0.14440307399E+04  0.14440307399E+04  0.25500000920E-02 0.  1.
    10030    2    1    2    0    0  0.00000000000E+00  0.00000000000E+00  0.11290168852E+03  0.30009631684E+04  0.29988386330E+04 0.  0.
        4    1    3    3  502    0 -0.10266120524E+04 -0.68785739935E+02  0.11479081395E+04  0.15415441913E+04  0.12699999809E+01 0. -1.
       -4    1    3    3    0  502  0.10266120524E+04  0.68785739935E+02 -0.10350064510E+04  0.14594189771E+04  0.12699999809E+01 0.  1.
</event>
<event>
 5   0  0.1113245E-06  0.3002257E+04  0.7818609E-02  0.8243087E-01
       -1   -1    0    0    0  501  0.00000000000E+00  0.00000000000E+00  0.76690858447E+03  0.76690858449E+03  0.50400001928E-02 0. -1.
        1   -1    0    0  501    0  0.00000000000E+00  0.00000000000E+00 -0.29382738272E+04  0.29382738272E+04  0.50400001928E-02 0.  1.
    10030    2    1    2    0    0  0.00000000000E+00  0.00000000000E+00 -0.21713652427E+04  0.37051824116E+04  0.30022574317E+04 0.  0.
        5    1    3    3  502    0  0.87310654390E+03  0.67224405863E+03  0.17236860277E+03  0.11153296089E+04  0.46999998093E+01 0. -1.
       -5    1    3    3    0  502 -0.87310654390E+03 -0.67224405863E+03 -0.23437338455E+04  0.25898528027E+04  0.46999998093E+01 0.  1.
</event>
<event>
 5   0  0.3113328E-06  0.2975385E+04  0.7818609E-02  0.8250795E-01
       -2   -1    0    0    0  501  0.00000000000E+00  0.00000000000E+00  0.10796943493E+04  0.10796943493E+04  0.25500000920E-02 0.  1.
        2   -1    0    0  501    0  0.00000000000E+00  0.00000000000E+00 -0.20498663610E+04  0.20498663610E+04  0.25500000920E-02 0. -1.
    10030    2    1    2    0    0  0.00000000000E+00  0.00000000000E+00 -0.97017201171E+03  0.31295607103E+04  0.29753851024E+04 0.  0.
        1    1    3    3  502    0  0.67618658979E+03  0.12543742153E+04 -0.35692764753E+02  0.14254672742E+04  0.50400001928E-02 0.  1.
       -1    1    3    3    0  502 -0.67618658979E+03 -0.12543742153E+04 -0.93447924696E+03  0.17040934362E+04  0.50400001928E-02 0. -1.
</event>
<event>
 5   0  0.1054384E-06  0.3004153E+04  0.7818609E-02  0.8242546E-01
       -1   -1    0    0    0  501  0.00000000000E+00  0.00000000000E+00  0.23924304908E+04  0.23924304908E+04  0.50400001928E-02 0. -1.
        1   -1    0    0  501    0  0.00000000000E+00  0.00000000000E+00 -0.94307164744E+03  0.94307164746E+03  0.50400001928E-02 0.  1.
    10030    2    1    2    0    0  0.00000000000E+00  0.00000000000E+00  0.14493588434E+04  0.33355021383E+04  0.30041527021E+04 0.  0.
        2    1    3    3  502    0  0.46411887820E+03 -0.10067919844E+04 -0.40061476646E+03  0.11787826874E+04  0.25500000920E-02 0.  1.
       -2    1    3    3    0  502 -0.46411887820E+03  0.10067919844E+04  0.18499736098E+04  0.21567194509E+04  0.25500000920E-02 0. -1.
</event>
<event>
 5   0  0.2948711E-06  0.2978978E+04  0.7818609E-02  0.8249759E-01
       -2   -1    0    0    0  501  0.00000000000E+00  0.00000000000E+00  0.11831270755E+04  0.11831270755E+04  0.25500000920E-02 0.  1.
        2   -1    0    0  501    0  0.00000000000E+00  0.00000000000E+00 -0.18751809601E+04  0.18751809601E+04  0.25500000920E-02 0. -1.
    10030    2    1    2    0    0  0.00000000000E+00  0.00000000000E+00 -0.69205388458E+03  0.30583080356E+04  0.29789779223E+04 0.  0.
        5    1    3    3  502    0 -0.12667682422E+03 -0.35159977614E+03  0.11342032673E+04  0.11941978739E+04  0.46999998093E+01 0.  1.
       -5    1    3    3    0  502  0.12667682422E+03  0.35159977614E+03 -0.18262571519E+04  0.18641101618E+04  0.46999998093E+01 0. -1.
</event>
<event>
 5   0  0.1091076E-06  0.3051104E+04  0.7818609E-02  0.8229287E-01
        1   -1    0    0  501    0  0.00000000000E+00  0.00000000000E+00  0.18819573647E+04  0.18819573647E+04  0.50400001928E-02 0. -1.
       -1   -1    0    0    0  501  0.00000000000E+00  0.00000000000E+00 -0.12366425708E+04  0.12366425709E+04  0.50400001928E-02 0.  1.
    10030    2    1    2    0    0  0.00000000000E+00  0.00000000000E+00  0.64531479384E+03  0.31185999355E+04  0.30511037961E+04 0.  0.
        3    1    3    3  502    0 -0.65576808072E+03  0.17164368136E+03  0.17195713082E+04  0.18483557079E+04  0.10100000352E+00 0. -1.
       -3    1    3    3    0  502  0.65576808072E+03 -0.17164368136E+03 -0.10742565143E+04  0.12702442276E+04  0.10100000352E+00 0.  1.
</event>
<event>
 5   0  0.1091076E-06  0.3045175E+04  0.7818609E-02  0.8230947E-01
        1   -1    0    0  501    0  0.00000000000E+00  0.00000000000E+00  0.16381504219E+04  0.16381504219E+04  0.50400001928E-02 0.  1.
       -1   -1    0    0    0  501  0.00000000000E+00  0.00000000000E+00 -0.14151772435E+04  0.14151772435E+04  0.50400001928E-02 0. -1.
    10030    2    1    2    0    0  0.00000000000E+00  0.00000000000E+00  0.22297317843E+03  0.30533276654E+04  0.30451753306E+04 0.  0.
        3    1    3    3  502    0  0.10692023204E+04  0.27569092186E+03  0.11626605571E+04  0.16034271632E+04  0.10100000352E+00 0.  1.
       -3    1    3    3    0  502 -0.10692023204E+04 -0.27569092186E+03 -0.93968737871E+03  0.14499005022E+04  0.10100000352E+00 0. -1.
</event>
<event>
 5   0  0.1091076E-06  0.2997364E+04  0.7818609E-02  0.8244484E-01
        1   -1    0    0  501    0  0.00000000000E+00  0.00000000000E+00  0.17038548926E+04  0.17038548927E+04  0.50400001928E-02 0. -1.
       -1   -1    0    0    0  501  0.00000000000E+00  0.00000000000E+00 -0.13182153912E+04  0.13182153912E+04  0.50400001928E-02 0.  1.
    10030    2    1    2    0    0  0.00000000000E+00  0.00000000000E+00  0.38563950144E+03  0.30220702839E+04  0.29973640045E+04 0.  0.
        3    1    3    3  502    0 -0.10294802599E+04  0.83454898232E+03 -0.51276725936E+03  0.14209967917E+04  0.10100000352E+00 0. -1.
       -3    1    3    3    0  502  0.10294802599E+04 -0.83454898232E+03  0.89840676079E+03  0.16010734922E+04  0.10100000352E+00 0.  1.
</event>
<event>
 5   0  0.1054384E-06  0.3004325E+04  0.7818609E-02  0.8242497E-01
       -1   -1    0    0    0  501  0.00000000000E+00  0.00000000000E+00  0.13344042965E+04  0.13344042965E+04  0.50400001928E-02 0.  1.
        1   -1    0    0  501    0  0.00000000000E+00  0.00000000000E+00 -0.16910114100E+04  0.16910114100E+04  0.50400001928E-02 0. -1.
    10030    2    1    2    0    0  0.00000000000E+00  0.00000000000E+00 -0.35660711349E+03  0.30254157065E+04  0.30043254757E+04 0.  0.
        2    1    3    3  502    0 -0.12065792313E+04 -0.70707494289E+02  0.71995592905E+03  0.14068296027E+04  0.25500000920E-02 0.  1.
       -2    1    3    3    0  502  0.12065792313E+04  0.70707494289E+02 -0.10765630425E+04  0.16185861039E+04  0.25500000920E-02 0. -1.
</event>
<event>
 5   0  0.1113245E-06  0.2943457E+04  0.7818609E-02  0.8260064E-01
        1   -1    0    0  501    0  0.00000000000E+00  0.00000000000E+00  0.25958417236E+04  0.25958417236E+04  0.50400001928E-02 0. -1.
       -1   -1    0    0    0  501  0.00000000000E+00  0.00000000000E+00 -0.83440565479E+03  0.83440565480E+03  0.50400001928E-02 0.  1.
    10030    2    1    2    0    0  0.00000000000E+00  0.00000000000E+00  0.17614360688E+04  0.34302473784E+04  0.29434571600E+04 0.  0.
        5    1    3    3  502    0 -0.89637586350E+03  0.11013764402E+04  0.13312294078E+04  0.19464618100E+04  0.46999998093E+01 0.  1.
       -5    1    3    3    0  502  0.89637586350E+03 -0.11013764402E+04  0.43020666101E+03  0.14837855684E+04  0.46999998093E+01 0. -1.
</event>
<event>
 5   0  0.2948711E-06  0.3008231E+04  0.7818609E-02  0.8241384E-01
       -2   -1    0    0    0  501  0.00000000000E+00  0.00000000000E+00  0.94745817271E+03  0.94745817271E+03  0.25500000920E-02 0.  1.
        2   -1    0    0  501    0  0.00000000000E+00  0.00000000000E+00 -0.23878245028E+04  0.23878245028E+04  0.25500000920E-02 0. -1.
    10030    2    1    2    0    0  0.00000000000E+00  0.00000000000E+00 -0.14403663301E+04  0.33352826755E+04  0.30082312678E+04 0.  0.
        5    1    3    3  502    0 -0.53565824043E+02  0.13332183100E+04  0.49559523104E+02  0.13352223020E+04  0.46999998093E+01 0.  1.
       -5    1    3    3    0  502  0.53565824043E+02 -0.13332183100E+04 -0.14899258532E+04  0.20000603735E+04  0.46999998093E+01 0. -1.
</event>
<event>
 5   0  0.9749500E-07  0.2946618E+04  0.7818609E-02  0.8259141E-01
       -3   -1    0    0    0  501  0.00000000000E+00  0.00000000000E+00  0.21158470542E+04  0.21158470566E+04  0.10100000352E+00 0.  1.
        3   -1    0    0  501    0  0.00000000000E+00  0.00000000000E+00 -0.10258964871E+04  0.10258964921E+04  0.10100000352E+00 0. -1.
    10030    2    1    2    0    0  0.00000000000E+00  0.00000000000E+00  0.10899505671E+04  0.31417435487E+04  0.29466184495E+04 0.  0.
        4    1    3    3  502    0  0.10263906554E+04  0.66136833882E+03 -0.33409230438E+03  0.12659009194E+04  0.12699999809E+01 0. -1.
       -4    1    3    3    0  502 -0.10263906554E+04 -0.66136833882E+03  0.14240428715E+04  0.18758426292E+04  0.12699999809E+01 0.  1.
</event>
<event>
 5   0  0.3113328E-06  0.2985315E+04  0.7818609E-02  0.8247937E-01
       -2   -1    0    0    0  501  0.00000000000E+00  0.00000000000E+00  0.13527247007E+04  0.13527247007E+04  0.25500000920E-02 0.  1.
        2   -1    0    0  501    0  0.00000000000E+00  0.00000000000E+00 -0.16470651459E+04  0.16470651459E+04  0.25500000920E-02 0. -1.
    10030    2    1    2    0    0  0.00000000000E+00  0.00000000000E+00 -0.29434044522E+03  0.29997898465E+04  0.29853145271E+04 0.  0.
        1    1    3    3  502    0  0.68198114712E+03 -0.10871975031E+04  0.61871249381E+03  0.14247462391E+04  0.50400001928E-02 0.  1.
       -1    1    3    3    0  502 -0.68198114712E+03  0.10871975031E+04 -0.91305293904E+03  0.15750436074E+04  0.50400001928E-02 0. -1.
</event>
<event>
 5   0  0.1091075E-06  0.2814335E+04  0.7818609E-02  0.8298832E-01
       -1   -1    0    0    0  501  0.00000000000E+00  0.00000000000E+00  0.12878951289E+04  0.12878951289E+04  0.50400001928E-02 0.  1.
        1   -1    0    0  501    0  0.00000000000E+00  0.00000000000E+00 -0.15374858756E+04  0.15374858756E+04  0.50400001928E-02 0. -1.
    10030    2    1    2    0    0  0.00000000000E+00  0.00000000000E+00 -0.24959074669E+03  0.28253810046E+04  0.28143351400E+04 0.  0.
        1    1    3    3  502    0 -0.28180901477E+03  0.82390957185E+03  0.98492868133E+03  0.13146588191E+04  0.50400001928E-02 0.  1.
       -1    1    3    3    0  502  0.28180901477E+03 -0.82390957185E+03 -0.12345194280E+04  0.15107221854E+04  0.50400001928E-02 0. -1.
</event>
<event>
 5   0  0.2970915E-06  0.2968693E+04  0.7818609E-02  0.8252728E-01
       -2   -1    0    0    0  501  0.00000000000E+00  0.00000000000E+00  0.10430549225E+04  0.10430549225E+04  0.25500000920E-02 0.  1.
        2   -1    0    0  501    0  0.00000000000E+00  0.00000000000E+00 -0.21123373718E+04  0.21123373718E+04  0.25500000920E-02 0. -1.
    10030    2    1    2    0    0  0.00000000000E+00  0.00000000000E+00 -0.10692824493E+04  0.31553922943E+04  0.29686925699E+04 0.  0.
        4    1    3    3  502    0  0.74310369885E+03  0.94381208463E+03  0.39214599650E+03  0.12636314549E+04  0.12699999809E+01 0.  1.
       -4    1    3    3    0  502 -0.74310369885E+03 -0.94381208463E+03 -0.14614284458E+04  0.18917608394E+04  0.12699999809E+01 0. -1.
</event>
<event>
 5   0  0.2985941E-06  0.3017476E+04  0.7818609E-02  0.8238758E-01
       -2   -1    0    0    0  501  0.00000000000E+00  0.00000000000E+00  0.14210921150E+04  0.14210921150E+04  0.25500000920E-02 0. -1.
        2   -1    0    0  501    0  0.00000000000E+00  0.00000000000E+00 -0.16017892687E+04  0.16017892687E+04  0.25500000920E-02 0.  1.
    10030    2    1    2    0    0  0.00000000000E+00  0.00000000000E+00 -0.18069715376E+03  0.30228813837E+04  0.30174758323E+04 0.  0.
        3    1    3    3  502    0 -0.37553098181E+03 -0.14296806600E+04 -0.39301524892E+03  0.15295330346E+04  0.10100000352E+00 0.  1.
       -3    1    3    3    0  502  0.37553098181E+03  0.14296806600E+04  0.21231809515E+03  0.14933483491E+04  0.10100000352E+00 0. -1.
</event>
<event>
 5   0  0.1091076E-06  0.3018978E+04  0.7818609E-02  0.8238332E-01
        1   -1    0    0  501    0  0.00000000000E+00  0.00000000000E+00  0.12237097044E+04  0.12237097045E+04  0.50400001928E-02 0.  1.
       -1   -1    0    0    0  501  0.00000000000E+00  0.00000000000E+00 -0.18620080926E+04  0.18620080927E+04  0.50400001928E-02 0. -1.
    10030    2    1    2    0    0  0.00000000000E+00  0.00000000000E+00 -0.63829838820E+03  0.30857177971E+04  0.30189782197E+04 0.  0.
        3    1    3    3  502    0  0.63968021256E+03 -0.13012848640E+03 -0.17102784992E+04  0.18306219578E+04  0.10100000352E+00 0. -1.
       -3    1    3    3    0  502 -0.63968021256E+03  0.13012848640E+03  0.10719801110E+04  0.12550958393E+04  0.10100000352E+00 0.  1.
</event>
<event>
 5   0  0.1113245E-06  0.2996684E+04  0.7818609E-02  0.8244678E-01
        1   -1    0    0  501    0  0.00000000000E+00  0.00000000000E+00  0.19539622970E+04  0.19539622970E+04  0.50400001928E-02 0.  1.
       -1   -1    0    0    0  501  0.00000000000E+00  0.00000000000E+00 -0.11489622117E+04  0.11489622117E+04  0.50400001928E-02 0. -1.
    10030    2    1    2    0    0  0.00000000000E+00  0.00000000000E+00  0.80500008533E+03  0.31029245087E+04  0.29966840623E+04 0.  0.
        5    1    3    3  502    0 -0.14473822405E+04 -0.36547668429E+03  0.53557966236E+03  0.15859874595E+04  0.46999998093E+01 0.  1.
       -5    1    3    3    0  502  0.14473822405E+04  0.36547668429E+03  0.26942042297E+03  0.15169370492E+04  0.46999998093E+01 0. -1.
</event>
<event>
 5   0  0.1097402E-06  0.3016387E+04  0.7818609E-02  0.8239067E-01
       -1   -1    0    0    0  501  0.00000000000E+00  0.00000000000E+00  0.16855299999E+04  0.16855299999E+04  0.50400001928E-02 0. -1.
        1   -1    0    0  501    0  0.00000000000E+00  0.00000000000E+00 -0.13495152112E+04  0.13495152112E+04  0.50400001928E-02 0.  1.
    10030    2    1    2    0    0  0.00000000000E+00  0.00000000000E+00  0.33601478870E+03  0.30350452110E+04  0.30163874908E+04 0.  0.
        4    1    3    3  502    0  0.99921672784E+03 -0.96335030383E+03  0.76171554529E+03  0.15832530000E+04  0.12699999809E+01 0. -1.
       -4    1    3    3    0  502 -0.99921672784E+03  0.96335030383E+03 -0.42570075659E+03  0.14517922111E+04  0.12699999809E+01 0.  1.
</event>
<event>
 5   0  0.2948711E-06  0.2987361E+04  0.7818609E-02  0.8247349E-01
       -2   -1    0    0    0  501  0.00000000000E+00  0.00000000000E+00  0.13975341015E+04  0.13975341015E+04  0.25500000920E-02 0. -1.
        2   -1    0    0  501    0  0.00000000000E+00  0.00000000000E+00 -0.15964419233E+04  0.15964419233E+04  0.25500000920E-02 0.  1.
    10030    2    1    2    0    0  0.00000000000E+00  0.00000000000E+00 -0.19890782182E+03  0.29939760248E+04  0.29873613969E+04 0.  0.
        5    1    3    3  502    0 -0.11581194483E+04 -0.73475415608E+03 -0.69233423148E+03  0.15363766155E+04  0.46999998093E+01 0.  1.
       -5    1    3    3    0  502  0.11581194483E+04  0.73475415608E+03  0.49342640966E+03  0.14575994094E+04  0.46999998093E+01 0. -1.
</event>
<event>
 5   0  0.2862033E-06  0.3014796E+04  0.7818609E-02  0.8239518E-01
       -2   -1    0    0    0  501  0.00000000000E+00  0.00000000000E+00  0.86127235648E+03  0.86127235648E+03  0.25500000920E-02 0. -1.
        2   -1    0    0  501    0  0.00000000000E+00  0.00000000000E+00 -0.26382467711E+04  0.26382467711E+04  0.25500000920E-02 0.  1.
    10030    2    1    2    0    0  0.00000000000E+00  0.00000000000E+00 -0.17769744146E+04  0.34995191276E+04  0.30147961878E+04 0.  0.
        2    1    3    3  502    0 -0.98664720801E+03  0.75655530582E+03  0.10083655962E+03  0.12474039665E+04  0.25500000920E-02 0. -1.
       -2    1    3    3    0  502  0.98664720801E+03 -0.75655530582E+03 -0.18778109742E+04  0.22521151611E+04  0.25500000920E-02 0.  1.
</event>
<event>
 5   0  0.2985941E-06  0.3018217E+04  0.7818609E-02  0.8238548E-01
        2   -1    0    0  501    0  0.00000000000E+00  0.00000000000E+00  0.14758701767E+04  0.14758701767E+04  0.25500000920E-02 0.  1.
       -2   -1    0    0    0  501  0.00000000000E+00  0.00000000000E+00 -0.15430954817E+04  0.15430954817E+04  0.25500000920E-02 0. -1.
    10030    2    1    2    0    0  0.00000000000E+00  0.00000000000E+00 -0.67225304907E+02  0.30189656584E+04  0.30182170904E+04 0.  0.
        3    1    3    3  502    0 -0.87553687347E+03  0.70407636348E+03 -0.10413942977E+04  0.15319237696E+04  0.10100000352E+00 0. -1.
       -3    1    3    3    0  502  0.87553687347E+03 -0.70407636348E+03  0.97416899276E+03  0.14870418888E+04  0.10100000352E+00 0.  1.
</event>
<event>
 5   0  0.2862033E-06  0.2998949E+04  0.7818609E-02  0.8244031E-01
        2   -1    0    0  501    0  0.00000000000E+00  0.00000000000E+00  0.13579030057E+04  0.13579030057E+04  0.25500000920E-02 0. -1.
       -2   -1    0    0    0  501  0.00000000000E+00  0.00000000000E+00 -0.16558058681E+04  0.16558058681E+04  0.25500000920E-02 0.  1.
    10030    2    1    2    0    0  0.00000000000E+00  0.00000000000E+00 -0.29790286239E+03  0.30137088739E+04  0.29989489927E+04 0.  0.
        2    1    3    3  502    0 -0.68070702259E+03 -0.11087874984E+04  0.60013797966E+03  0.14328075104E+04  0.25500000920E-02 0. -1.
       -2    1    3    3    0  502  0.68070702259E+03  0.11087874984E+04 -0.89804084205E+03  0.15809013635E+04  0.25500000920E-02 0.  1.
</event>
<event>
 5   0  0.2985941E-06  0.3000894E+04  0.7818609E-02  0.8243476E-01
       -2   -1    0    0    0  501  0.00000000000E+00  0.00000000000E+00  0.16333063737E+04  0.16333063737E+04  0.25500000920E-02 0.  1.
        2   -1    0    0  501    0  0.00000000000E+00  0.00000000000E+00 -0.13783953586E+04  0.13783953586E+04  0.25500000920E-02 0. -1.
    10030    2    1    2    0    0  0.00000000000E+00  0.00000000000E+00  0.25491101516E+03  0.30117017323E+04  0.30008944831E+04 0.  0.
        3    1    3    3  502    0  0.80936319812E+03 -0.19273550259E+03 -0.11256910402E+04  0.13997843008E+04  0.10100000352E+00 0. -1.
       -3    1    3    3    0  502 -0.80936319812E+03  0.19273550259E+03  0.13806020554E+04  0.16119174315E+04  0.10100000352E+00 0.  1.
</event>
<event>
 5   0  0.2948711E-06  0.2649103E+04  0.7818609E-02  0.8351711E-01
       -2   -1    0    0    0  501  0.00000000000E+00  0.00000000000E+00  0.15726837742E+04  0.15726837742E+04  0.25500000920E-02 0. -1.
        2   -1    0    0  501    0  0.00000000000E+00  0.00000000000E+00 -0.11155688032E+04  0.11155688032E+04  0.25500000920E-02 0.  1.
    10030    2    1    2    0    0  0.00000000000E+00  0.00000000000E+00  0.45711497102E+03  0.26882525773E+04  0.26491032111E+04 0.  0.
        5    1    3    3  502    0  0.51707717780E+03  0.80376142676E+03 -0.70206321383E+03  0.11858819862E+04  0.46999998093E+01 0.  1.
       -5    1    3    3    0  502 -0.51707717780E+03 -0.80376142676E+03  0.11591781848E+04  0.15023705912E+04  0.46999998093E+01 0. -1.
</event>
<event>
 5   0  0.2970915E-06  0.3009050E+04  0.7818609E-02  0.8241151E-01
        2   -1    0    0  501    0  0.00000000000E+00  0.00000000000E+00  0.26060303539E+04  0.26060303539E+04  0.25500000920E-02 0.  1.
       -2   -1    0    0    0  501  0.00000000000E+00  0.00000000000E+00 -0.86859932199E+03  0.86859932200E+03  0.25500000920E-02 0. -1.
    10030    2    1    2    0    0  0.00000000000E+00  0.00000000000E+00  0.17374310319E+04  0.34746296758E+04  0.30090504804E+04 0.  0.
        4    1    3    3  502    0  0.10393055031E+04  0.27880656657E+03  0.20829394710E+04  0.23444674199E+04  0.12699999809E+01 0.  1.
       -4    1    3    3    0  502 -0.10393055031E+04 -0.27880656657E+03 -0.34550843916E+03  0.11301622559E+04  0.12699999809E+01 0. -1.
</event>
<event>
 5   0  0.2970915E-06  0.2880589E+04  0.7818609E-02  0.8278676E-01
        2   -1    0    0  501    0  0.00000000000E+00  0.00000000000E+00  0.20929859935E+04  0.20929859935E+04  0.25500000920E-02 0. -1.
       -2   -1    0    0    0  501  0.00000000000E+00  0.00000000000E+00 -0.99114268051E+03  0.99114268051E+03  0.25500000920E-02 0.  1.
    10030    2    1    2    0    0  0.00000000000E+00  0.00000000000E+00  0.11018433130E+04  0.30841286740E+04  0.28805886537E+04 0.  0.
        4    1    3    3  502    0  0.21508399895E+03  0.45572695379E+03 -0.89367411982E+03  0.10259645356E+04  0.12699999809E+01 0.  1.
       -4    1    3    3    0  502 -0.21508399895E+03 -0.45572695379E+03  0.19955174328E+04  0.20581641384E+04  0.12699999809E+01 0. -1.
</event>
<event>
 5   0  0.1091075E-06  0.2995578E+04  0.7818609E-02  0.8244995E-01
       -1   -1    0    0    0  501  0.00000000000E+00  0.00000000000E+00  0.12165368903E+04  0.12165368903E+04  0.50400001928E-02 0.  1.
        1   -1    0    0  501    0  0.00000000000E+00  0.00000000000E+00 -0.18440637518E+04  0.18440637518E+04  0.50400001928E-02 0. -1.
    10030    2    1    2    0    0  0.00000000000E+00  0.00000000000E+00 -0.62752686151E+03  0.30606006420E+04  0.29955777954E+04 0.  0.
        1    1    3    3  502    0  0.10819712890E+04  0.98441878115E+03 -0.64266617864E+03  0.15977365315E+04  0.50400001928E-02 0. -1.
       -1    1    3    3    0  502 -0.10819712890E+04 -0.98441878115E+03  0.15139317128E+02  0.14628641105E+04  0.50400001928E-02 0.  1.
</event>
<event>
 5   0  0.2862033E-06  0.3002829E+04  0.7818609E-02  0.8242924E-01
       -2   -1    0    0    0  501  0.00000000000E+00  0.00000000000E+00  0.14416809854E+04  0.14416809854E+04  0.25500000920E-02 0.  1.
        2   -1    0    0  501    0  0.00000000000E+00  0.00000000000E+00 -0.15636225712E+04  0.15636225712E+04  0.25500000920E-02 0. -1.
    10030    2    1    2    0    0  0.00000000000E+00  0.00000000000E+00 -0.12194158579E+03  0.30053035566E+04  0.30028286193E+04 0.  0.
        2    1    3    3  502    0  0.10949171056E+04 -0.10230662222E+04  0.32577985706E+02  0.14988559932E+04  0.25500000920E-02 0. -1.
       -2    1    3    3    0  502 -0.10949171056E+04  0.10230662222E+04 -0.15451957149E+03  0.15064475634E+04  0.25500000920E-02 0.  1.
</event>
<event>
 5   0  0.1113245E-06  0.3012472E+04  0.7818609E-02  0.8240178E-01
        1   -1    0    0  501    0  0.00000000000E+00  0.00000000000E+00  0.19118328969E+04  0.19118328969E+04  0.50400001928E-02 0.  1.
       -1   -1    0    0    0  501  0.00000000000E+00  0.00000000000E+00 -0.11866866334E+04  0.11866866334E+04  0.50400001928E-02 0. -1.
    10030    2    1    2    0    0  0.00000000000E+00  0.00000000000E+00  0.72514626355E+03  0.30985195303E+04  0.30124717718E+04 0.  0.
        5    1    3    3  502    0 -0.58370655927E+03 -0.11519750013E+04 -0.43478923499E+03  0.13626531179E+04  0.46999998093E+01 0. -1.
       -5    1    3    3    0  502  0.58370655927E+03  0.11519750013E+04  0.11599354985E+04  0.17358664124E+04  0.46999998093E+01 0.  1.
</event>
<event>
 5   0  0.1091075E-06  0.2999252E+04  0.7818609E-02  0.8243945E-01
        1   -1    0    0  501    0  0.00000000000E+00  0.00000000000E+00  0.19313488729E+04  0.19313488729E+04  0.50400001928E-02 0.  1.
       -1   -1    0    0    0  501  0.00000000000E+00  0.00000000000E+00 -0.11644076704E+04  0.11644076704E+04  0.50400001928E-02 0. -1.
    10030    2    1    2    0    0  0.00000000000E+00  0.00000000000E+00  0.76694120245E+03  0.30957565433E+04  0.29992515345E+04 0.  0.
        1    1    3    3  502    0 -0.12101166034E+04 -0.85645434052E+03  0.15041530211E+03  0.14901412665E+04  0.50400001928E-02 0. -1.
       -1    1    3    3    0  502  0.12101166034E+04  0.85645434052E+03  0.61652590033E+03  0.16056152768E+04  0.50400001928E-02 0.  1.
</event>
<event>
 5   0  0.1113245E-06  0.2997773E+04  0.7818609E-02  0.8244367E-01
       -1   -1    0    0    0  501  0.00000000000E+00  0.00000000000E+00  0.81564465278E+03  0.81564465280E+03  0.50400001928E-02 0. -1.
        1   -1    0    0  501    0  0.00000000000E+00  0.00000000000E+00 -0.27544608558E+04  0.27544608558E+04  0.50400001928E-02 0.  1.
    10030    2    1    2    0    0  0.00000000000E+00  0.00000000000E+00 -0.19388162030E+04  0.35701055086E+04  0.29977733526E+04 0.  0.
        5    1    3    3  502    0  0.56911318674E+03 -0.86822140826E+03 -0.22570009087E+04  0.24843054211E+04  0.46999998093E+01 0.  1.
       -5    1    3    3    0  502 -0.56911318674E+03  0.86822140826E+03  0.31818470574E+03  0.10858000875E+04  0.46999998093E+01 0. -1.
</event>
<event>
 5   0  0.3113328E-06  0.3010868E+04  0.7818609E-02  0.8240634E-01
        2   -1    0    0  501    0  0.00000000000E+00  0.00000000000E+00  0.17099339341E+04  0.17099339341E+04  0.25500000920E-02 0. -1.
       -2   -1    0    0    0  501  0.00000000000E+00  0.00000000000E+00 -0.13253914264E+04  0.13253914264E+04  0.25500000920E-02 0.  1.
    10030    2    1    2    0    0  0.00000000000E+00  0.00000000000E+00  0.38454250766E+03  0.30353253605E+04  0.30108681645E+04 0.  0.
        1    1    3    3  502    0  0.39216293905E+03  0.48673117807E+03 -0.11883908871E+04  0.13427478956E+04  0.50400001928E-02 0.  1.
       -1    1    3    3    0  502 -0.39216293905E+03 -0.48673117807E+03  0.15729333948E+04  0.16925774649E+04  0.50400001928E-02 0. -1.
</event>
<event>
 5   0  0.2985941E-06  0.3001803E+04  0.7818609E-02  0.8243216E-01
       -2   -1    0    0    0  501  0.00000000000E+00  0.00000000000E+00  0.10732718852E+04  0.10732718852E+04  0.25500000920E-02 0. -1.
        2   -1    0    0  501    0  0.00000000000E+00  0.00000000000E+00 -0.20989136956E+04  0.20989136956E+04  0.25500000920E-02 0.  1.
    10030    2    1    2    0    0  0.00000000000E+00  0.00000000000E+00 -0.10256418104E+04  0.31721855808E+04  0.30018028309E+04 0.  0.
        3    1    3    3  502    0 -0.82375439886E+02  0.12622079542E+03 -0.20908959513E+04  0.20963213713E+04  0.10100000352E+00 0.  1.
       -3    1    3    3    0  502  0.82375439886E+02 -0.12622079542E+03  0.10652541409E+04  0.10758642095E+04  0.10100000352E+00 0. -1.
</event>
<event>
 5   0  0.2948711E-06  0.3003975E+04  0.7818609E-02  0.8242597E-01
       -2   -1    0    0    0  501  0.00000000000E+00  0.00000000000E+00  0.79987749133E+03  0.79987749134E+03  0.25500000920E-02 0. -1.
        2   -1    0    0  501    0  0.00000000000E+00  0.00000000000E+00 -0.28203902336E+04  0.28203902336E+04  0.25500000920E-02 0.  1.
    10030    2    1    2    0    0  0.00000000000E+00  0.00000000000E+00 -0.20205127423E+04  0.36202677250E+04  0.30039751428E+04 0.  0.
        5    1    3    3  502    0  0.64108934833E+03 -0.59181280752E+03 -0.24836620294E+04  0.26324583791E+04  0.46999998093E+01 0.  1.
       -5    1    3    3    0  502 -0.64108934833E+03  0.59181280752E+03  0.46314928706E+03  0.98780934587E+03  0.46999998093E+01 0. -1.
</event>
<event>
 5   0  0.1113245E-06  0.2635239E+04  0.7818609E-02  0.8356329E-01
        1   -1    0    0  501    0  0.00000000000E+00  0.00000000000E+00  0.15024929556E+04  0.15024929556E+04  0.50400001928E-02 0. -1.
       -1   -1    0    0    0  501  0.00000000000E+00  0.00000000000E+00 -0.11554933789E+04  0.11554933789E+04  0.50400001928E-02 0.  1.
    10030    2    1    2    0    0  0.00000000000E+00  0.00000000000E+00  0.34699957672E+03  0.26579863345E+04  0.26352386321E+04 0.  0.
        5    1    3    3  502    0  0.10674688540E+04 -0.46975457701E+03 -0.44493192044E+03  0.12482570331E+04  0.46999998093E+01 0.  1.
       -5    1    3    3    0  502 -0.10674688540E+04  0.46975457701E+03  0.79193149716E+03  0.14097293014E+04  0.46999998093E+01 0. -1.
</event>
<event>
 5   0  0.2985941E-06  0.3001812E+04  0.7818609E-02  0.8243214E-01
       -2   -1    0    0    0  501  0.00000000000E+00  0.00000000000E+00  0.10412730122E+04  0.10412730122E+04  0.25500000920E-02 0.  1.
        2   -1    0    0  501    0  0.00000000000E+00  0.00000000000E+00 -0.21634280749E+04  0.21634280749E+04  0.25500000920E-02 0. -1.
    10030    2    1    2    0    0  0.00000000000E+00  0.00000000000E+00 -0.11221550627E+04  0.32047010872E+04  0.30018122982E+04 0.  0.
        3    1    3    3  502    0  0.96847191075E+03  0.11153185803E+04 -0.27691860898E+03  0.15028497275E+04  0.10100000352E+00 0.  1.
       -3    1    3    3    0  502 -0.96847191075E+03 -0.11153185803E+04 -0.84523645369E+03  0.17018513596E+04  0.10100000352E+00 0. -1.
</event>
<event>
 5   0  0.2970915E-06  0.2875633E+04  0.7818609E-02  0.8280164E-01
        2   -1    0    0  501    0  0.00000000000E+00  0.00000000000E+00  0.18133829115E+04  0.18133829115E+04  0.25500000920E-02 0.  1.
       -2   -1    0    0    0  501  0.00000000000E+00  0.00000000000E+00 -0.11400329929E+04  0.11400329929E+04  0.25500000920E-02 0. -1.
    10030    2    1    2    0    0  0.00000000000E+00  0.00000000000E+00  0.67334991853E+03  0.29534159044E+04  0.28756330419E+04 0.  0.
        4    1    3    3  502    0 -0.92213150801E+03 -0.85424453042E+02  0.14662844883E+04  0.17342478683E+04  0.12699999809E+01 0.  1.
       -4    1    3    3    0  502  0.92213150801E+03  0.85424453042E+02 -0.79293456979E+03  0.12191680360E+04  0.12699999809E+01 0. -1.
</event>
<event>
 5   0  0.2948711E-06  0.2998715E+04  0.7818609E-02  0.8244098E-01
        2   -1    0    0  501    0  0.00000000000E+00  0.00000000000E+00  0.13744695005E+04  0.13744695005E+04  0.25500000920E-02 0.  1.
       -2   -1    0    0    0  501  0.00000000000E+00  0.00000000000E+00 -0.16355932989E+04  0.16355932989E+04  0.25500000920E-02 0. -1.
    10030    2    1    2    0    0  0.00000000000E+00  0.00000000000E+00 -0.26112379842E+03  0.30100627995E+04  0.29987151280E+04 0.  0.
        5    1    3    3  502    0 -0.13600910785E+02  0.51410650622E+03  0.12831570356E+04  0.13823908827E+04  0.46999998093E+01 0.  1.
       -5    1    3    3    0  502  0.13600910785E+02 -0.51410650622E+03 -0.15442808340E+04  0.16276719168E+04  0.46999998093E+01 0. -1.
</event>
<event>
 5   0  0.1113245E-06  0.2992014E+04  0.7818609E-02  0.8246015E-01
        1   -1    0    0  501    0  0.00000000000E+00  0.00000000000E+00  0.17306689589E+04  0.17306689589E+04  0.50400001928E-02 0.  1.
       -1   -1    0    0    0  501  0.00000000000E+00  0.00000000000E+00 -0.12931627766E+04  0.12931627766E+04  0.50400001928E-02 0. -1.
    10030    2    1    2    0    0  0.00000000000E+00  0.00000000000E+00  0.43750618231E+03  0.30238317355E+04  0.29920138210E+04 0.  0.
        5    1    3    3  502    0 -0.17317230280E+02 -0.32373306663E+03 -0.12572268439E+04  0.12983622037E+04  0.46999998093E+01 0. -1.
       -5    1    3    3    0  502  0.17317230280E+02  0.32373306663E+03  0.16947330262E+04  0.17254695318E+04  0.46999998093E+01 0.  1.
</event>
<event>
 5   0  0.2985941E-06  0.3008462E+04  0.7818609E-02  0.8241319E-01
        2   -1    0    0  501    0  0.00000000000E+00  0.00000000000E+00  0.18360983706E+04  0.18360983706E+04  0.25500000920E-02 0. -1.
       -2   -1    0    0    0  501  0.00000000000E+00  0.00000000000E+00 -0.12323470336E+04  0.12323470336E+04  0.25500000920E-02 0.  1.
    10030    2    1    2    0    0  0.00000000000E+00  0.00000000000E+00  0.60375133699E+03  0.30684454043E+04  0.30084616538E+04 0.  0.
        3    1    3    3  502    0  0.17118662683E+03  0.12222424093E+04 -0.57522920746E+03  0.13616423979E+04  0.10100000352E+00 0.  1.
       -3    1    3    3    0  502 -0.17118662683E+03 -0.12222424093E+04  0.11789805444E+04  0.17068030064E+04  0.10100000352E+00 0. -1.
</event>
<event>
 5   0  0.3113328E-06  0.2991683E+04  0.7818609E-02  0.8246110E-01
       -2   -1    0    0    0  501  0.00000000000E+00  0.00000000000E+00  0.11042895341E+04  0.11042895341E+04  0.25500000920E-02 0.  1.
        2   -1    0    0  501    0  0.00000000000E+00  0.00000000000E+00 -0.20262272226E+04  0.20262272226E+04  0.25500000920E-02 0. -1.
    10030    2    1    2    0    0  0.00000000000E+00  0.00000000000E+00 -0.92193768853E+03  0.31305167567E+04  0.29916828145E+04 0.  0.
        1    1    3    3  502    0 -0.39032274814E+03 -0.12325615767E+03  0.10445472611E+04  0.11218836431E+04  0.50400001928E-02 0.  1.
       -1    1    3    3    0  502  0.39032274814E+03  0.12325615767E+03 -0.19664849496E+04  0.20086331136E+04  0.50400001928E-02 0. -1.
</event>
<event>
 5   0  0.2970915E-06  0.3017063E+04  0.7818609E-02  0.8238875E-01
       -2   -1    0    0    0  501  0.00000000000E+00  0.00000000000E+00  0.12666375476E+04  0.12666375476E+04  0.25500000920E-02 0.  1.
        2   -1    0    0  501    0  0.00000000000E+00  0.00000000000E+00 -0.17966203634E+04  0.17966203634E+04  0.25500000920E-02 0. -1.
    10030    2    1    2    0    0  0.00000000000E+00  0.00000000000E+00 -0.52998281581E+03  0.30632579110E+04  0.30170626849E+04 0.  0.
        4    1    3    3  502    0 -0.80532436719E+03 -0.10983140873E+04  0.39365070322E+03  0.14176754424E+04  0.12699999809E+01 0.  1.
       -4    1    3    3    0  502  0.80532436719E+03  0.10983140873E+04 -0.92363351903E+03  0.16455824687E+04  0.12699999809E+01 0. -1.
</event>
<event>
 5   0  0.3113328E-06  0.2996093E+04  0.7818609E-02  0.8244847E-01
        2   -1    0    0  501    0  0.00000000000E+00  0.00000000000E+00  0.21186656671E+04  0.21186656671E+04  0.25500000920E-02 0.  1.
       -2   -1    0    0    0  501  0.00000000000E+00  0.00000000000E+00 -0.10592248583E+04  0.10592248583E+04  0.25500000920E-02 0. -1.
    10030    2    1    2    0    0  0.00000000000E+00  0.00000000000E+00  0.10594408088E+04  0.31778905255E+04  0.29960930166E+04 0.  0.
        1    1    3    3  502    0 -0.50983310256E+03 -0.12755105064E+04 -0.10428351287E+03  0.13775819015E+04  0.50400001928E-02 0. -1.
       -1    1    3    3    0  502  0.50983310256E+03  0.12755105064E+04  0.11637243217E+04  0.18003086239E+04  0.50400001928E-02 0.  1.
</event>
<event>
 5   0  0.2985941E-06  0.2772014E+04  0.7818609E-02  0.8312010E-01
        2   -1    0    0  501    0  0.00000000000E+00  0.00000000000E+00  0.18064043421E+04  0.18064043421E+04  0.25500000920E-02 0. -1.
       -2   -1    0    0    0  501  0.00000000000E+00  0.00000000000E+00 -0.10634472853E+04  0.10634472853E+04  0.25500000920E-02 0.  1.
    10030    2    1    2    0    0  0.00000000000E+00  0.00000000000E+00  0.74295705673E+03  0.28698516274E+04  0.27720142812E+04 0.  0.
        3    1    3    3  502    0  0.18511391219E+03 -0.79006397183E+03 -0.79181108737E+03  0.11337693982E+04  0.10100000352E+00 0.  1.
       -3    1    3    3    0  502 -0.18511391219E+03  0.79006397183E+03  0.15347681441E+04  0.17360822292E+04  0.10100000352E+00 0. -1.
</event>
<event>
 5   0  0.2862033E-06  0.2987701E+04  0.7818609E-02  0.8247252E-01
        2   -1    0    0  501    0  0.00000000000E+00  0.00000000000E+00  0.25236107587E+04  0.25236107587E+04  0.25500000920E-02 0.  1.
       -2   -1    0    0    0  501  0.00000000000E+00  0.00000000000E+00 -0.88428416801E+03  0.88428416801E+03  0.25500000920E-02 0. -1.
    10030    2    1    2    0    0  0.00000000000E+00  0.00000000000E+00  0.16393265907E+04  0.34078949267E+04  0.29877008151E+04 0.  0.
        2    1    3    3  502    0  0.12840953290E+04  0.49261233696E+03  0.15453999894E+03  0.13839979551E+04  0.25500000920E-02 0. -1.
       -2    1    3    3    0  502 -0.12840953290E+04 -0.49261233696E+03  0.14847865918E+04  0.20238969716E+04  0.25500000920E-02 0.  1.
</event>
<event>
 5   0  0.3113328E-06  0.2993099E+04  0.7818609E-02  0.8245704E-01
       -2   -1    0    0    0  501  0.00000000000E+00  0.00000000000E+00  0.12183457539E+04  0.12183457539E+04  0.25500000920E-02 0. -1.
        2   -1    0    0  501    0  0.00000000000E+00  0.00000000000E+00 -0.18382798318E+04  0.18382798318E+04  0.25500000920E-02 0.  1.
    10030    2    1    2    0    0  0.00000000000E+00  0.00000000000E+00 -0.61993407795E+03  0.30566255857E+04  0.29930990144E+04 0.  0.
        1    1    3    3  502    0 -0.14415132886E+04  0.39860473724E+03 -0.25579274930E+03  0.15173253535E+04  0.50400001928E-02 0.  1.
       -1    1    3    3    0  502  0.14415132886E+04 -0.39860473724E+03 -0.36414132866E+03  0.15393002322E+04  0.50400001928E-02 0. -1.
</event>
<event>
 5   0  0.2862033E-06  0.2726432E+04  0.7818609E-02  0.8326479E-01
       -2   -1    0    0    0  501  0.00000000000E+00  0.00000000000E+00  0.95863384198E+03  0.95863384198E+03  0.25500000920E-02 0.  1.
        2   -1    0    0  501    0  0.00000000000E+00  0.00000000000E+00 -0.19385483051E+04  0.19385483051E+04  0.25500000920E-02 0. -1.
    10030    2    1    2    0    0  0.00000000000E+00  0.00000000000E+00 -0.97991446308E+03  0.28971821470E+04  0.27264321078E+04 0.  0.
        2    1    3    3  502    0 -0.12451680568E+04 -0.25661614622E+02 -0.10789789385E+04  0.16478159964E+04  0.25500000920E-02 0. -1.
       -2    1    3    3    0  502  0.12451680568E+04  0.25661614622E+02  0.99064475448E+02  0.12493661507E+04  0.25500000920E-02 0.  1.
</event>
<event>
 5   0  0.1091075E-06  0.3069324E+04  0.7818609E-02  0.8224207E-01
        1   -1    0    0  501    0  0.00000000000E+00  0.00000000000E+00  0.14994473237E+04  0.14994473237E+04  0.50400001928E-02 0.  1.
       -1   -1    0    0    0  501  0.00000000000E+00  0.00000000000E+00 -0.15707038927E+04  0.15707038927E+04  0.50400001928E-02 0. -1.
    10030    2    1    2    0    0  0.00000000000E+00  0.00000000000E+00 -0.71256569078E+02  0.30701512164E+04  0.30693241916E+04 0.  0.
        1    1    3    3  502    0  0.79424437035E+03  0.13760065146E+03  0.12706446058E+04  0.15047577125E+04  0.50400001928E-02 0.  1.
       -1    1    3    3    0  502 -0.79424437035E+03 -0.13760065146E+03 -0.13419011748E+04  0.15653935039E+04  0.50400001928E-02 0. -1.
</event>
<event>
 5   0  0.1054384E-06  0.3017919E+04  0.7818609E-02  0.8238632E-01
        1   -1    0    0  501    0  0.00000000000E+00  0.00000000000E+00  0.19455675007E+04  0.19455675007E+04  0.50400001928E-02 0.  1.
       -1   -1    0    0    0  501  0.00000000000E+00  0.00000000000E+00 -0.11703315386E+04  0.11703315386E+04  0.50400001928E-02 0. -1.
    10030    2    1    2    0    0  0.00000000000E+00  0.00000000000E+00  0.77523596213E+03  0.31158990393E+04  0.30179191550E+04 0.  0.
        2    1    3    3  502    0  0.11546283961E+04 -0.95906487798E+03  0.54752305123E+03  0.15977339155E+04  0.25500000920E-02 0.  1.
       -2    1    3    3    0  502 -0.11546283961E+04  0.95906487798E+03  0.22771291091E+03  0.15181651238E+04  0.25500000920E-02 0. -1.
</event>
<event>
 5   0  0.1097402E-06  0.2948801E+04  0.7818609E-02  0.8258504E-01
        1   -1    0    0  501    0  0.00000000000E+00  0.00000000000E+00  0.18934454051E+04  0.18934454051E+04  0.50400001928E-02 0. -1.
       -1   -1    0    0    0  501  0.00000000000E+00  0.00000000000E+00 -0.11480955475E+04  0.11480955475E+04  0.50400001928E-02 0.  1.
    10030    2    1    2    0    0  0.00000000000E+00  0.00000000000E+00  0.74534985762E+03  0.30415409526E+04  0.29488005962E+04 0.  0.
        4    1    3    3  502    0 -0.78175853452E+03  0.14781115562E+03  0.16530283458E+04  0.18345296043E+04  0.12699999809E+01 0. -1.
       -4    1    3    3    0  502  0.78175853452E+03 -0.14781115562E+03 -0.90767848821E+03  0.12070113483E+04  0.12699999809E+01 0.  1.
</event>
<event>
 5   0  0.9749500E-07  0.2983700E+04  0.7818609E-02  0.8248401E-01
       -3   -1    0    0    0  501  0.00000000000E+00  0.00000000000E+00  0.20286999355E+04  0.20286999380E+04  0.10100000352E+00 0. -1.
        3   -1    0    0  501    0  0.00000000000E+00  0.00000000000E+00 -0.10970650355E+04  0.10970650401E+04  0.10100000352E+00 0.  1.
    10030    2    1    2    0    0  0.00000000000E+00  0.00000000000E+00  0.93163490007E+03  0.31257649782E+04  0.29836995679E+04 0.  0.
        2    1    3    3  502    0  0.71747276196E+03 -0.34159572929E+03  0.17885356088E+04  0.19571189107E+04  0.25500000920E-02 0. -1.
       -2    1    3    3    0  502 -0.71747276196E+03  0.34159572929E+03 -0.85690070875E+03  0.11686460675E+04  0.25500000920E-02 0.  1.
</event>
<event>
 5   0  0.2985941E-06  0.3019859E+04  0.7818609E-02  0.8238083E-01
        2   -1    0    0  501    0  0.00000000000E+00  0.00000000000E+00  0.18595842278E+04  0.18595842278E+04  0.25500000920E-02 0.  1.
       -2   -1    0    0    0  501  0.00000000000E+00  0.00000000000E+00 -0.12260194911E+04  0.12260194911E+04  0.25500000920E-02 0. -1.
    10030    2    1    2    0    0  0.00000000000E+00  0.00000000000E+00  0.63356473671E+03  0.30856037189E+04  0.30198586117E+04 0.  0.
        3    1    3    3  502    0 -0.24281729810E+03 -0.13478930751E+04 -0.33275421356E+03  0.14094329920E+04  0.10100000352E+00 0. -1.
       -3    1    3    3    0  502  0.24281729810E+03  0.13478930751E+04  0.96631895026E+03  0.16761707269E+04  0.10100000352E+00 0.  1.
</event>
<event>
 5   0  0.2985941E-06  0.2997852E+04  0.7818609E-02  0.8244344E-01
        2   -1    0    0  501    0  0.00000000000E+00  0.00000000000E+00  0.23752693574E+04  0.23752693574E+04  0.25500000920E-02 0. -1.
       -2   -1    0    0    0  501  0.00000000000E+00  0.00000000000E+00 -0.94590520632E+03  0.94590520632E+03  0.25500000920E-02 0.  1.
    10030    2    1    2    0    0  0.00000000000E+00  0.00000000000E+00  0.14293641511E+04  0.33211745637E+04  0.29978523323E+04 0.  0.
        3    1    3    3  502    0  0.32086294327E+03 -0.13688872280E+04  0.13905298381E+03  0.14128485460E+04  0.10100000352E+00 0.  1.
       -3    1    3    3    0  502 -0.32086294327E+03  0.13688872280E+04  0.12903111672E+04  0.19083260177E+04  0.10100000352E+00 0. -1.
</event>
<event>
 5   0  0.1091076E-06  0.3004037E+04  0.7818609E-02  0.8242579E-01
        1   -1    0    0  501    0  0.00000000000E+00  0.00000000000E+00  0.19550642811E+04  0.19550642811E+04  0.50400001928E-02 0. -1.
       -1   -1    0    0    0  501  0.00000000000E+00  0.00000000000E+00 -0.11539565159E+04  0.11539565159E+04  0.50400001928E-02 0.  1.
    10030    2    1    2    0    0  0.00000000000E+00  0.00000000000E+00  0.80110776519E+03  0.31090207970E+04  0.30040367282E+04 0.  0.
        3    1    3    3  502    0 -0.13093103627E+04  0.63038334665E+03  0.79380998140E+03  0.16558415040E+04  0.10100000352E+00 0. -1.
       -3    1    3    3    0  502  0.13093103627E+04 -0.63038334665E+03  0.72977837938E+01  0.14531792930E+04  0.10100000352E+00 0.  1.
</event>
<event>
 5   0  0.1097402E-06  0.3003094E+04  0.7818609E-02  0.8242848E-01
        1   -1    0    0  501    0  0.00000000000E+00  0.00000000000E+00  0.10494425653E+04  0.10494425653E+04  0.50400001928E-02 0.  1.
       -1   -1    0    0    0  501  0.00000000000E+00  0.00000000000E+00 -0.21484196734E+04  0.21484196734E+04  0.50400001928E-02 0. -1.
    10030    2    1    2    0    0  0.00000000000E+00  0.00000000000E+00 -0.10989771080E+04  0.31978622387E+04  0.30030937737E+04 0.  0.
        4    1    3    3  502    0 -0.12616680374E+04  0.66350676942E+03 -0.47090954405E+02  0.14262771962E+04  0.12699999809E+01 0.  1.
       -4    1    3    3    0  502  0.12616680374E+04 -0.66350676942E+03 -0.10518861536E+04  0.17715850425E+04  0.12699999809E+01 0. -1.
</event>
<event>
 5   0  0.1113245E-06  0.2997265E+04  0.7818609E-02  0.8244512E-01
       -1   -1    0    0    0  501  0.00000000000E+00  0.00000000000E+00  0.10016910313E+04  0.10016910314E+04  0.50400001928E-02 0. -1.
        1   -1    0    0  501    0  0.00000000000E+00  0.00000000000E+00 -0.22421074803E+04  0.22421074803E+04  0.50400001928E-02 0.  1.
    10030    2    1    2    0    0  0.00000000000E+00  0.00000000000E+00 -0.12404164490E+04  0.32437985117E+04  0.29972647226E+04 0.  0.
        5    1    3    3  502    0  0.14016375659E+03 -0.14528331163E+04 -0.25239039821E+03  0.14812470913E+04  0.46999998093E+01 0. -1.
       -5    1    3    3    0  502 -0.14016375659E+03  0.14528331163E+04 -0.98802605077E+03  0.17625514204E+04  0.46999998093E+01 0.  1.
</event>
<event>
 5   0  0.2970915E-06  0.2988660E+04  0.7818609E-02  0.8246977E-01
        2   -1    0    0  501    0  0.00000000000E+00  0.00000000000E+00  0.18220157368E+04  0.18220157368E+04  0.25500000920E-02 0. -1.
       -2   -1    0    0    0  501  0.00000000000E+00  0.00000000000E+00 -0.12255775628E+04  0.12255775628E+04  0.25500000920E-02 0.  1.
    10030    2    1    2    0    0  0.00000000000E+00  0.00000000000E+00  0.59643817399E+03  0.30475932996E+04  0.29886596367E+04 0.  0.
        4    1    3    3  502    0 -0.93944898133E+03  0.11570342397E+04  0.18779065194E+03  0.15021849294E+04  0.12699999809E+01 0. -1.
       -4    1    3    3    0  502  0.93944898133E+03 -0.11570342397E+04  0.40864752205E+03  0.15454083702E+04  0.12699999809E+01 0.  1.
</event>
<event>
 5   0  0.2970915E-06  0.3005185E+04  0.7818609E-02  0.8242252E-01
        2   -1    0    0  501    0  0.00000000000E+00  0.00000000000E+00  0.14002091026E+04  0.14002091026E+04  0.25500000920E-02 0.  1.
       -2   -1    0    0    0  501  0.00000000000E+00  0.00000000000E+00 -0.16124618978E+04  0.16124618978E+04  0.25500000920E-02 0. -1.
    10030    2    1    2    0    0  0.00000000000E+00  0.00000000000E+00 -0.21225279525E+03  0.30126710004E+04  0.30051847377E+04 0.  0.
        4    1    3    3  502    0 -0.10215527114E+04  0.87569907252E+03 -0.77664489129E+03  0.15535757812E+04  0.12699999809E+01 0. -1.
       -4    1    3    3    0  502  0.10215527114E+04 -0.87569907252E+03  0.56439209604E+03  0.14590952192E+04  0.12699999809E+01 0.  1.
</event>
<event>
 5   0  0.2985941E-06  0.2993191E+04  0.7818609E-02  0.8245678E-01
       -2   -1    0    0    0  501  0.00000000000E+00  0.00000000000E+00  0.10364792430E+04  0.10364792430E+04  0.25500000920E-02 0.  1.
        2   -1    0    0  501    0  0.00000000000E+00  0.00000000000E+00 -0.21609679588E+04  0.21609679588E+04  0.25500000920E-02 0. -1.
    10030    2    1    2    0    0  0.00000000000E+00  0.00000000000E+00 -0.11244887158E+04  0.31974472018E+04  0.29931912295E+04 0.  0.
        3    1    3    3  502    0  0.74767548669E+02  0.27103493464E+03  0.10080136181E+04  0.10464901273E+04  0.10100000352E+00 0.  1.
       -3    1    3    3    0  502 -0.74767548669E+02 -0.27103493464E+03 -0.21325023339E+04  0.21509570745E+04  0.10100000352E+00 0. -1.
</event>
<event>
 5   0  0.1091075E-06  0.3000524E+04  0.7818609E-02  0.8243581E-01
       -1   -1    0    0    0  501  0.00000000000E+00  0.00000000000E+00  0.16207475619E+04  0.16207475619E+04  0.50400001928E-02 0.  1.
        1   -1    0    0  501    0  0.00000000000E+00  0.00000000000E+00 -0.13887331045E+04  0.13887331045E+04  0.50400001928E-02 0. -1.
    10030    2    1    2    0    0  0.00000000000E+00  0.00000000000E+00  0.23201445742E+03  0.30094806664E+04  0.30005238165E+04 0.  0.
        1    1    3    3  502    0 -0.80907807324E+03 -0.39807910516E+03 -0.10866181136E+04  0.14120245137E+04  0.50400001928E-02 0. -1.
       -1    1    3    3    0  502  0.80907807324E+03  0.39807910516E+03  0.13186325710E+04  0.15974561527E+04  0.50400001928E-02 0.  1.
</event>
<event>
 5   0  0.2970915E-06  0.2991910E+04  0.7818609E-02  0.8246045E-01
       -2   -1    0    0    0  501  0.00000000000E+00  0.00000000000E+00  0.81018061894E+03  0.81018061895E+03  0.25500000920E-02 0.  1.
        2   -1    0    0  501    0  0.00000000000E+00  0.00000000000E+00 -0.27622003900E+04  0.27622003900E+04  0.25500000920E-02 0. -1.
    10030    2    1    2    0    0  0.00000000000E+00  0.00000000000E+00 -0.19520197711E+04  0.35723810090E+04  0.29919099062E+04 0.  0.
        4    1    3    3  502    0  0.12310249949E+04  0.83781372175E+03 -0.80494795643E+03  0.16927188768E+04  0.12699999809E+01 0.  1.
       -4    1    3    3    0  502 -0.12310249949E+04 -0.83781372175E+03 -0.11470718146E+04  0.18796621322E+04  0.12699999809E+01 0. -1.
</event>
<event>
 5   0  0.1097402E-06  0.2990060E+04  0.7818609E-02  0.8246575E-01
        1   -1    0    0  501    0  0.00000000000E+00  0.00000000000E+00  0.24341912768E+04  0.24341912768E+04  0.50400001928E-02 0.  1.
       -1   -1    0    0    0  501  0.00000000000E+00  0.00000000000E+00 -0.91821653965E+03  0.91821653966E+03  0.50400001928E-02 0. -1.
    10030    2    1    2    0    0  0.00000000000E+00  0.00000000000E+00  0.15159747372E+04  0.33524078165E+04  0.29900599934E+04 0.  0.
        4    1    3    3  502    0 -0.85470486488E+03 -0.57795825799E+03  0.19710220325E+04  0.22247439447E+04  0.12699999809E+01 0.  1.
       -4    1    3    3    0  502  0.85470486488E+03  0.57795825799E+03 -0.45504729526E+03  0.11276638718E+04  0.12699999809E+01 0. -1.
</event>
<event>
 5   0  0.3113328E-06  0.3010422E+04  0.7818609E-02  0.8240761E-01
        2   -1    0    0  501    0  0.00000000000E+00  0.00000000000E+00  0.17737089825E+04  0.17737089825E+04  0.25500000920E-02 0.  1.
       -2   -1    0    0    0  501  0.00000000000E+00  0.00000000000E+00 -0.12773575741E+04  0.12773575741E+04  0.25500000920E-02 0. -1.
    10030    2    1    2    0    0  0.00000000000E+00  0.00000000000E+00  0.49635140843E+03  0.30510665566E+04  0.30104222980E+04 0.  0.
        1    1    3    3  502    0  0.11800532397E+04 -0.69263890829E+03 -0.38749745416E+03  0.14221211561E+04  0.50400001928E-02 0. -1.
       -1    1    3    3    0  502 -0.11800532397E+04  0.69263890829E+03  0.88384886259E+03  0.16289454005E+04  0.50400001928E-02 0.  1.
</event>
<event>
 5   0  0.2948711E-06  0.2994380E+04  0.7818609E-02  0.8245337E-01
        2   -1    0    0  501    0  0.00000000000E+00  0.00000000000E+00  0.82014686777E+03  0.82014686777E+03  0.25500000920E-02 0. -1.
       -2   -1    0    0    0  501  0.00000000000E+00  0.00000000000E+00 -0.27331427412E+04  0.27331427413E+04  0.25500000920E-02 0.  1.
    10030    2    1    2    0    0  0.00000000000E+00  0.00000000000E+00 -0.19129958735E+04  0.35532896090E+04  0.29943803756E+04 0.  0.
        5    1    3    3  502    0  0.14203201765E+04  0.15107340585E+02 -0.39484788119E+03  0.14742674706E+04  0.46999998093E+01 0.  1.
       -5    1    3    3    0  502 -0.14203201765E+04 -0.15107340585E+02 -0.15181479923E+04  0.20790221384E+04  0.46999998093E+01 0. -1.
</event>
<event>
 5   0  0.1091075E-06  0.2985283E+04  0.7818609E-02  0.8247946E-01
        1   -1    0    0  501    0  0.00000000000E+00  0.00000000000E+00  0.28723910275E+04  0.28723910275E+04  0.50400001928E-02 0.  1.
       -1   -1    0    0    0  501  0.00000000000E+00  0.00000000000E+00 -0.77565284262E+03  0.77565284264E+03  0.50400001928E-02 0. -1.
    10030    2    1    2    0    0  0.00000000000E+00  0.00000000000E+00  0.20967381849E+04  0.36480438701E+04  0.29852827442E+04 0.  0.
        1    1    3    3  502    0  0.30243513552E+03  0.11932353145E+04  0.20800091244E+04  0.24169641049E+04  0.50400001928E-02 0.  1.
       -1    1    3    3    0  502 -0.30243513552E+03 -0.11932353145E+04  0.16729060522E+02  0.12310797652E+04  0.50400001928E-02 0. -1.
</event>
<event>
 5   0  0.1091075E-06  0.3023172E+04  0.7818609E-02  0.8237145E-01
       -1   -1    0    0    0  501  0.00000000000E+00  0.00000000000E+00  0.15122635729E+04  0.15122635729E+04  0.50400001928E-02 0. -1.
        1   -1    0    0  501    0  0.00000000000E+00  0.00000000000E+00 -0.15109091267E+04  0.15109091267E+04  0.50400001928E-02 0.  1.
    10030    2    1    2    0    0  0.00000000000E+00  0.00000000000E+00  0.13544462340E+01  0.30231726996E+04  0.30231723962E+04 0.  0.
        1    1    3    3  502    0 -0.16266646865E+01  0.43158491557E+03 -0.14479859779E+04  0.15109373176E+04  0.50400001928E-02 0.  1.
       -1    1    3    3    0  502  0.16266646865E+01 -0.43158491557E+03  0.14493404242E+04  0.15122353820E+04  0.50400001928E-02 0. -1.
</event>
<event>
 5   0  0.1097402E-06  0.2997491E+04  0.7818609E-02  0.8244448E-01
       -1   -1    0    0    0  501  0.00000000000E+00  0.00000000000E+00  0.15143786128E+04  0.15143786129E+04  0.50400001928E-02 0.  1.
        1   -1    0    0  501    0  0.00000000000E+00  0.00000000000E+00 -0.14832734848E+04  0.14832734849E+04  0.50400001928E-02 0. -1.
    10030    2    1    2    0    0  0.00000000000E+00  0.00000000000E+00  0.31105127994E+02  0.29976520977E+04  0.29974907122E+04 0.  0.
        4    1    3    3  502    0  0.45457906940E+02  0.51882790049E+03 -0.13898654845E+04  0.14842427327E+04  0.12699999809E+01 0. -1.
       -4    1    3    3    0  502 -0.45457906940E+02 -0.51882790049E+03  0.14209706125E+04  0.15134093650E+04  0.12699999809E+01 0.  1.
</event>
<event>
 5   0  0.2970915E-06  0.3008510E+04  0.7818609E-02  0.8241305E-01
       -2   -1    0    0    0  501  0.00000000000E+00  0.00000000000E+00  0.16402936639E+04  0.16402936639E+04  0.25500000920E-02 0. -1.
        2   -1    0    0  501    0  0.00000000000E+00  0.00000000000E+00 -0.13794988834E+04  0.13794988834E+04  0.25500000920E-02 0.  1.
    10030    2    1    2    0    0  0.00000000000E+00  0.00000000000E+00  0.26079478051E+03  0.30197925473E+04  0.30085101149E+04 0.  0.
        4    1    3    3  502    0 -0.71962287468E+02  0.21272085985E+03 -0.13625786494E+04  0.13809601456E+04  0.12699999809E+01 0.  1.
       -4    1    3    3    0  502  0.71962287468E+02 -0.21272085985E+03  0.16233734299E+04  0.16388324017E+04  0.12699999809E+01 0. -1.
</event>
<event>
 5   0  0.1091075E-06  0.3009176E+04  0.7818609E-02  0.8241115E-01
        1   -1    0    0  501    0  0.00000000000E+00  0.00000000000E+00  0.17957140490E+04  0.17957140490E+04  0.50400001928E-02 0. -1.
       -1   -1    0    0    0  501  0.00000000000E+00  0.00000000000E+00 -0.12606600515E+04  0.12606600516E+04  0.50400001928E-02 0.  1.
    10030    2    1    2    0    0  0.00000000000E+00  0.00000000000E+00  0.53505399743E+03  0.30563741005E+04  0.30091759441E+04 0.  0.
        1    1    3    3  502    0 -0.87150483634E+03 -0.11251497103E+04  0.76334598312E+03  0.16149859567E+04  0.50400001928E-02 0. -1.
       -1    1    3    3    0  502  0.87150483634E+03  0.11251497103E+04 -0.22829198569E+03  0.14413881438E+04  0.50400001928E-02 0.  1.
</event>
<event>
 5   0  0.3113328E-06  0.2889548E+04  0.7818609E-02  0.8275994E-01
        2   -1    0    0  501    0  0.00000000000E+00  0.00000000000E+00  0.16554371344E+04  0.16554371344E+04  0.25500000920E-02 0. -1.
       -2   -1    0    0    0  501  0.00000000000E+00  0.00000000000E+00 -0.12609191567E+04  0.12609191567E+04  0.25500000920E-02 0.  1.
    10030    2    1    2    0    0  0.00000000000E+00  0.00000000000E+00  0.39451797767E+03  0.29163562911E+04  0.28895483352E+04 0.  0.
        1    1    3    3  502    0  0.20624920062E+03 -0.39314356371E+03  0.15848859991E+04  0.16458931389E+04  0.50400001928E-02 0. -1.
       -1    1    3    3    0  502 -0.20624920062E+03  0.39314356371E+03 -0.11903680215E+04  0.12704631522E+04  0.50400001928E-02 0.  1.
</event>
<event>
 5   0  0.9749500E-07  0.3005418E+04  0.7818609E-02  0.8242185E-01
        3   -1    0    0  501    0  0.00000000000E+00  0.00000000000E+00  0.21467428003E+04  0.21467428027E+04  0.10100000352E+00 0.  1.
       -3   -1    0    0    0  501  0.00000000000E+00  0.00000000000E+00 -0.10518886196E+04  0.10518886245E+04  0.10100000352E+00 0. -1.
    10030    2    1    2    0    0  0.00000000000E+00  0.00000000000E+00  0.10948541807E+04  0.31986314272E+04  0.30054179959E+04 0.  0.
        2    1    3    3  502    0  0.39994073098E+03 -0.12484262334E+04  0.13292363224E+04  0.18669198830E+04  0.25500000920E-02 0. -1.
       -2    1    3    3    0  502 -0.39994073098E+03  0.12484262334E+04 -0.23438214171E+03  0.13317115442E+04  0.25500000920E-02 0.  1.
</event>
<event>
 5   0  0.2985941E-06  0.2997175E+04  0.7818609E-02  0.8244538E-01
        2   -1    0    0  501    0  0.00000000000E+00  0.00000000000E+00  0.15786636892E+04  0.15786636892E+04  0.25500000920E-02 0.  1.
       -2   -1    0    0    0  501  0.00000000000E+00  0.00000000000E+00 -0.14225731011E+04  0.14225731011E+04  0.25500000920E-02 0. -1.
    10030    2    1    2    0    0  0.00000000000E+00  0.00000000000E+00  0.15609058812E+03  0.30012367903E+04  0.29971750032E+04 0.  0.
        3    1    3    3  502    0  0.59381420782E+03  0.13487019271E+04 -0.19463291841E+03  0.14864367409E+04  0.10100000352E+00 0. -1.
       -3    1    3    3    0  502 -0.59381420782E+03 -0.13487019271E+04  0.35072350653E+03  0.15148000494E+04  0.10100000352E+00 0.  1.
</event>
<event>
 5   0  0.1091075E-06  0.2990296E+04  0.7818609E-02  0.8246507E-01
       -1   -1    0    0    0  501  0.00000000000E+00  0.00000000000E+00  0.14148526134E+04  0.14148526134E+04  0.50400001928E-02 0. -1.
        1   -1    0    0  501    0  0.00000000000E+00  0.00000000000E+00 -0.15799999035E+04  0.15799999035E+04  0.50400001928E-02 0.  1.
    10030    2    1    2    0    0  0.00000000000E+00  0.00000000000E+00 -0.16514729012E+03  0.29948525169E+04  0.29902956326E+04 0.  0.
        1    1    3    3  502    0  0.10532875885E+04 -0.11208304732E+03 -0.11394018706E+04  0.15557036917E+04  0.50400001928E-02 0.  1.
       -1    1    3    3    0  502 -0.10532875885E+04  0.11208304732E+03  0.97425458050E+03  0.14391488252E+04  0.50400001928E-02 0. -1.
</event>
<event>
 5   0  0.9749500E-07  0.2973891E+04  0.7818609E-02  0.8251226E-01
        3   -1    0    0  501    0  0.00000000000E+00  0.00000000000E+00  0.15877135997E+04  0.15877136029E+04  0.10100000352E+00 0. -1.
       -3   -1    0    0    0  501  0.00000000000E+00  0.00000000000E+00 -0.13925731623E+04  0.13925731660E+04  0.10100000352E+00 0.  1.
    10030    2    1    2    0    0  0.00000000000E+00  0.00000000000E+00  0.19514043736E+03  0.29802867688E+04  0.29738912949E+04 0.  0.
        2    1    3    3  502    0 -0.18340639218E+03  0.11464965409E+04 -0.83335974351E+03  0.14291888206E+04  0.25500000920E-02 0.  1.
       -2    1    3    3    0  502  0.18340639218E+03 -0.11464965409E+04  0.10285001809E+04  0.15510979482E+04  0.25500000920E-02 0. -1.
</event>
<event>
 5   0  0.2948711E-06  0.3004195E+04  0.7818609E-02  0.8242534E-01
        2   -1    0    0  501    0  0.00000000000E+00  0.00000000000E+00  0.11462819630E+04  0.11462819630E+04  0.25500000920E-02 0.  1.
       -2   -1    0    0    0  501  0.00000000000E+00  0.00000000000E+00 -0.19683609383E+04  0.19683609383E+04  0.25500000920E-02 0. -1.
    10030    2    1    2    0    0  0.00000000000E+00  0.00000000000E+00 -0.82207897530E+03  0.31146429014E+04  0.30041948275E+04 0.  0.
        5    1    3    3  502    0  0.33439544709E+03  0.10255431524E+04 -0.14948009771E+04  0.18433695027E+04  0.46999998093E+01 0. -1.
       -5    1    3    3    0  502 -0.33439544709E+03 -0.10255431524E+04  0.67272200178E+03  0.12712733987E+04  0.46999998093E+01 0.  1.
</event>
<event>
 5   0  0.1091075E-06  0.2935924E+04  0.7818609E-02  0.8262268E-01
        1   -1    0    0  501    0  0.00000000000E+00  0.00000000000E+00  0.17225437571E+04  0.17225437571E+04  0.50400001928E-02 0.  1.
       -1   -1    0    0    0  501  0.00000000000E+00  0.00000000000E+00 -0.12510062069E+04  0.12510062069E+04  0.50400001928E-02 0. -1.
    10030    2    1    2    0    0  0.00000000000E+00  0.00000000000E+00  0.47153755022E+03  0.29735499641E+04  0.29359243395E+04 0.  0.
        1    1    3    3  502    0  0.11121195045E+04 -0.36310942023E+03 -0.66230498005E+03  0.13443608630E+04  0.50400001928E-02 0. -1.
       -1    1    3    3    0  502 -0.11121195045E+04  0.36310942023E+03  0.11338425303E+04  0.16291891010E+04  0.50400001928E-02 0.  1.
</event>
<event>
 5   0  0.1113245E-06  0.3043354E+04  0.7818609E-02  0.8231458E-01
       -1   -1    0    0    0  501  0.00000000000E+00  0.00000000000E+00  0.11943569701E+04  0.11943569701E+04  0.50400001928E-02 0.  1.
        1   -1    0    0  501    0  0.00000000000E+00  0.00000000000E+00 -0.19387014552E+04  0.19387014552E+04  0.50400001928E-02 0. -1.
    10030    2    1    2    0    0  0.00000000000E+00  0.00000000000E+00 -0.74434448509E+03  0.31330584253E+04  0.30433544624E+04 0.  0.
        5    1    3    3  502    0  0.85788376691E+03 -0.19198771503E+03  0.90647414196E+03  0.12627514800E+04  0.46999998093E+01 0.  1.
       -5    1    3    3    0  502 -0.85788376691E+03  0.19198771503E+03 -0.16508186270E+04  0.18703069453E+04  0.46999998093E+01 0. -1.
</event>
<event>
 5   0  0.1091076E-06  0.2983111E+04  0.7818609E-02  0.8248570E-01
        1   -1    0    0  501    0  0.00000000000E+00  0.00000000000E+00  0.14760988528E+04  0.14760988528E+04  0.50400001928E-02 0.  1.
       -1   -1    0    0    0  501  0.00000000000E+00  0.00000000000E+00 -0.15071735168E+04  0.15071735168E+04  0.50400001928E-02 0. -1.
    10030    2    1    2    0    0  0.00000000000E+00  0.00000000000E+00 -0.31074664034E+02  0.29832723696E+04  0.29831105237E+04 0.  0.
        3    1    3    3  502    0 -0.25348553150E+03  0.19124282378E+03  0.14419052309E+04  0.14764550238E+04  0.10100000352E+00 0.  1.
       -3    1    3    3    0  502  0.25348553150E+03 -0.19124282378E+03 -0.14729798949E+04  0.15068173457E+04  0.10100000352E+00 0. -1.
</event>
<event>
 5   0  0.2970915E-06  0.3011442E+04  0.7818609E-02  0.8240471E-01
       -2   -1    0    0    0  501  0.00000000000E+00  0.00000000000E+00  0.18182361686E+04  0.18182361686E+04  0.25500000920E-02 0.  1.
        2   -1    0    0  501    0  0.00000000000E+00  0.00000000000E+00 -0.12469201002E+04  0.12469201002E+04  0.25500000920E-02 0. -1.
    10030    2    1    2    0    0  0.00000000000E+00  0.00000000000E+00  0.57131606843E+03  0.30651562688E+04  0.30114416651E+04 0.  0.
        4    1    3    3  502    0  0.12691368680E+04 -0.75283235539E+03 -0.19232383501E+02  0.14757494512E+04  0.12699999809E+01 0.  1.
       -4    1    3    3    0  502 -0.12691368680E+04  0.75283235539E+03  0.59054845193E+03  0.15894068177E+04  0.12699999809E+01 0. -1.
</event>
<event>
 5   0  0.1054384E-06  0.2995459E+04  0.7818609E-02  0.8245029E-01
       -1   -1    0    0    0  501  0.00000000000E+00  0.00000000000E+00  0.16370954564E+04  0.16370954565E+04  0.50400001928E-02 0. -1.
        1   -1    0    0  501    0  0.00000000000E+00  0.00000000000E+00 -0.13702277366E+04  0.13702277366E+04  0.50400001928E-02 0.  1.
    10030    2    1    2    0    0  0.00000000000E+00  0.00000000000E+00  0.26686771981E+03  0.30073231931E+04  0.29954589645E+04 0.  0.
        2    1    3    3  502    0 -0.35839150710E+03  0.11069534367E+04  0.10802509265E+04  0.15876814692E+04  0.25500000920E-02 0. -1.
       -2    1    3    3    0  502  0.35839150710E+03 -0.11069534367E+04 -0.81338320674E+03  0.14196417239E+04  0.25500000920E-02 0.  1.
</event>
<event>
 5   0  0.3113328E-06  0.3004600E+04  0.7818609E-02  0.8242419E-01
       -2   -1    0    0    0  501  0.00000000000E+00  0.00000000000E+00  0.22469412876E+04  0.22469412876E+04  0.25500000920E-02 0. -1.
        2   -1    0    0  501    0  0.00000000000E+00  0.00000000000E+00 -0.10044342632E+04  0.10044342632E+04  0.25500000920E-02 0.  1.
    10030    2    1    2    0    0  0.00000000000E+00  0.00000000000E+00  0.12425070244E+04  0.32513755508E+04  0.30045996849E+04 0.  0.
        1    1    3    3  502    0 -0.28015648754E+03 -0.14692333987E+04  0.46909788475E+03  0.15675417898E+04  0.50400001928E-02 0.  1.
       -1    1    3    3    0  502  0.28015648754E+03  0.14692333987E+04  0.77340913965E+03  0.16838337610E+04  0.50400001928E-02 0. -1.
</event>
<event>
 5   0  0.2970915E-06  0.3009216E+04  0.7818609E-02  0.8241104E-01
       -2   -1    0    0    0  501  0.00000000000E+00  0.00000000000E+00  0.16506645885E+04  0.16506645885E+04  0.25500000920E-02 0. -1.
        2   -1    0    0  501    0  0.00000000000E+00  0.00000000000E+00 -0.13714752977E+04  0.13714752977E+04  0.25500000920E-02 0.  1.
    10030    2    1    2    0    0  0.00000000000E+00  0.00000000000E+00  0.27918929077E+03  0.30221398863E+04  0.30092163153E+04 0.  0.
        4    1    3    3  502    0  0.41961391992E+03 -0.10932231462E+04 -0.80925464322E+03  0.14234139874E+04  0.12699999809E+01 0.  1.
       -4    1    3    3    0  502 -0.41961391992E+03  0.10932231462E+04  0.10884439340E+04  0.15987258988E+04  0.12699999809E+01 0. -1.
</event>
<event>
 5   0  0.2970915E-06  0.2876763E+04  0.7818609E-02  0.8279825E-01
       -2   -1    0    0    0  501  0.00000000000E+00  0.00000000000E+00  0.86026267744E+03  0.86026267744E+03  0.25500000920E-02 0.  1.
        2   -1    0    0  501    0  0.00000000000E+00  0.00000000000E+00 -0.24050118222E+04  0.24050118222E+04  0.25500000920E-02 0. -1.
    10030    2    1    2    0    0  0.00000000000E+00  0.00000000000E+00 -0.15447491448E+04  0.32652744997E+04  0.28767633962E+04 0.  0.
        4    1    3    3  502    0  0.18815124173E+03 -0.70245310008E+03 -0.21809816912E+04  0.22990267501E+04  0.12699999809E+01 0. -1.
       -4    1    3    3    0  502 -0.18815124173E+03  0.70245310008E+03  0.63623254638E+03  0.96624774957E+03  0.12699999809E+01 0.  1.
</event>
<event>
 5   0  0.2862033E-06  0.2991602E+04  0.7818609E-02  0.8246133E-01
       -2   -1    0    0    0  501  0.00000000000E+00  0.00000000000E+00  0.11619106866E+04  0.11619106866E+04  0.25500000920E-02 0.  1.
        2   -1    0    0  501    0  0.00000000000E+00  0.00000000000E+00 -0.19256390754E+04  0.19256390754E+04  0.25500000920E-02 0. -1.
    10030    2    1    2    0    0  0.00000000000E+00  0.00000000000E+00 -0.76372838884E+03  0.30875497620E+04  0.29916019924E+04 0.  0.
        2    1    3    3  502    0  0.13151196858E+04 -0.70984055450E+03 -0.44719706194E+03  0.15599354515E+04  0.25500000920E-02 0. -1.
       -2    1    3    3    0  502 -0.13151196858E+04  0.70984055450E+03 -0.31653132690E+03  0.15276143105E+04  0.25500000920E-02 0.  1.
</event>
<event>
 5   0  0.2985941E-06  0.2994392E+04  0.7818609E-02  0.8245334E-01
       -2   -1    0    0    0  501  0.00000000000E+00  0.00000000000E+00  0.10906517641E+04  0.10906517641E+04  0.25500000920E-02 0. -1.
        2   -1    0    0  501    0  0.00000000000E+00  0.00000000000E+00 -0.20552815111E+04  0.20552815111E+04  0.25500000920E-02 0.  1.
    10030    2    1    2    0    0  0.00000000000E+00  0.00000000000E+00 -0.96462974693E+03  0.31459332752E+04  0.29943923630E+04 0.  0.
        3    1    3    3  502    0 -0.10779159178E+04 -0.27545102713E+03 -0.15349280680E+04  0.18957268205E+04  0.10100000352E+00 0.  1.
       -3    1    3    3    0  502  0.10779159178E+04  0.27545102713E+03  0.57029832104E+03  0.12502064547E+04  0.10100000352E+00 0. -1.
</event>
<event>
 5   0  0.1091076E-06  0.3009434E+04  0.7818609E-02  0.8241042E-01
       -1   -1    0    0    0  501  0.00000000000E+00  0.00000000000E+00  0.12959613370E+04  0.12959613370E+04  0.50400001928E-02 0. -1.
        1   -1    0    0  501    0  0.00000000000E+00  0.00000000000E+00 -0.17470993913E+04  0.17470993913E+04  0.50400001928E-02 0.  1.
    10030    2    1    2    0    0  0.00000000000E+00  0.00000000000E+00 -0.45113805428E+03  0.30430607283E+04  0.30094340086E+04 0.  0.
        3    1    3    3  502    0  0.35345804159E+03  0.10092020622E+04 -0.12960538878E+04  0.16802312579E+04  0.10100000352E+00 0.  1.
       -3    1    3    3    0  502 -0.35345804159E+03 -0.10092020622E+04  0.84491583354E+03  0.13628294704E+04  0.10100000352E+00 0. -1.
</event>
<event>
 5   0  0.1097402E-06  0.2994900E+04  0.7818609E-02  0.8245189E-01
        1   -1    0    0  501    0  0.00000000000E+00  0.00000000000E+00  0.18188427369E+04  0.18188427369E+04  0.50400001928E-02 0.  1.
       -1   -1    0    0    0  501  0.00000000000E+00  0.00000000000E+00 -0.12328478933E+04  0.12328478933E+04  0.50400001928E-02 0. -1.
    10030    2    1    2    0    0  0.00000000000E+00  0.00000000000E+00  0.58599484355E+03  0.30516906302E+04  0.29948999559E+04 0.  0.
        4    1    3    3  502    0  0.35968041330E+03  0.15614950347E+02 -0.11880921178E+04  0.12414420324E+04  0.12699999809E+01 0. -1.
       -4    1    3    3    0  502 -0.35968041330E+03 -0.15614950347E+02  0.17740869614E+04  0.18102485978E+04  0.12699999809E+01 0.  1.
</event>
<event>
 5   0  0.2985941E-06  0.2982522E+04  0.7818609E-02  0.8248739E-01
        2   -1    0    0  501    0  0.00000000000E+00  0.00000000000E+00  0.20870701170E+04  0.20870701170E+04  0.25500000920E-02 0. -1.
       -2   -1    0    0    0  501  0.00000000000E+00  0.00000000000E+00 -0.10655413778E+04  0.10655413778E+04  0.25500000920E-02 0.  1.
    10030    2    1    2    0    0  0.00000000000E+00  0.00000000000E+00  0.10215287393E+04  0.31526114948E+04  0.29825221327E+04 0.  0.
        3    1    3    3  502    0  0.67789610365E+03 -0.38722564215E+03 -0.83227482254E+03  0.11411258545E+04  0.10100000352E+00 0.  1.
       -3    1    3    3    0  502 -0.67789610365E+03  0.38722564215E+03  0.18538035618E+04  0.20114856403E+04  0.10100000352E+00 0. -1.
</event>
<event>
 5   0  0.2862033E-06  0.3005355E+04  0.7818609E-02  0.8242203E-01
        2   -1    0    0  501    0  0.00000000000E+00  0.00000000000E+00  0.20623363699E+04  0.20623363699E+04  0.25500000920E-02 0.  1.
       -2   -1    0    0    0  501  0.00000000000E+00  0.00000000000E+00 -0.10948938406E+04  0.10948938406E+04  0.25500000920E-02 0. -1.
    10030    2    1    2    0    0  0.00000000000E+00  0.00000000000E+00  0.96744252933E+03  0.31572302105E+04  0.30053548134E+04 0.  0.
        2    1    3    3  502    0 -0.32560232052E+03  0.12426066902E+04 -0.33539364814E+03  0.13276208634E+04  0.25500000920E-02 0. -1.
       -2    1    3    3    0  502  0.32560232052E+03 -0.12426066902E+04  0.13028361775E+04  0.18296093471E+04  0.25500000920E-02 0.  1.
</event>
<event>
 5   0  0.1091075E-06  0.3004022E+04  0.7818609E-02  0.8242583E-01
        1   -1    0    0  501    0  0.00000000000E+00  0.00000000000E+00  0.16214699413E+04  0.16214699413E+04  0.50400001928E-02 0. -1.
       -1   -1    0    0    0  501  0.00000000000E+00  0.00000000000E+00 -0.13913532662E+04  0.13913532662E+04  0.50400001928E-02 0.  1.
    10030    2    1    2    0    0  0.00000000000E+00  0.00000000000E+00  0.23011667519E+03  0.30128232075E+04  0.30040223028E+04 0.  0.
        1    1    3    3  502    0 -0.14983548548E+04  0.10378358784E+03  0.10090335127E+03  0.15053304589E+04  0.50400001928E-02 0. -1.
       -1    1    3    3    0  502  0.14983548548E+04 -0.10378358784E+03  0.12921332391E+03  0.15074927486E+04  0.50400001928E-02 0.  1.
</event>
<event>
 5   0  0.3113328E-06  0.3014064E+04  0.7818609E-02  0.8239726E-01
        2   -1    0    0  501    0  0.00000000000E+00  0.00000000000E+00  0.17081701483E+04  0.17081701483E+04  0.25500000920E-02 0.  1.
       -2   -1    0    0    0  501  0.00000000000E+00  0.00000000000E+00 -0.13295775855E+04  0.13295775855E+04  0.25500000920E-02 0. -1.
    10030    2    1    2    0    0  0.00000000000E+00  0.00000000000E+00  0.37859256286E+03  0.30377477338E+04  0.30140635305E+04 0.  0.
        1    1    3    3  502    0  0.74386438659E+03  0.12804701955E+04  0.47114819675E+03  0.15540008914E+04  0.50400001928E-02 0.  1.
       -1    1    3    3    0  502 -0.74386438659E+03 -0.12804701955E+04 -0.92555633888E+02  0.14837468424E+04  0.50400001928E-02 0. -1.
</event>
<event>
 5   0  0.1054384E-06  0.2978167E+04  0.7818609E-02  0.8249993E-01
       -1   -1    0    0    0  501  0.00000000000E+00  0.00000000000E+00  0.17396548431E+04  0.17396548431E+04  0.50400001928E-02 0. -1.
        1   -1    0    0  501    0  0.00000000000E+00  0.00000000000E+00 -0.12746033714E+04  0.12746033714E+04  0.50400001928E-02 0.  1.
    10030    2    1    2    0    0  0.00000000000E+00  0.00000000000E+00  0.46505147166E+03  0.30142582145E+04  0.29781671733E+04 0.  0.
        2    1    3    3  502    0 -0.99486678211E+03 -0.29647480324E+03 -0.84798497325E+03  0.13404237158E+04  0.25500000920E-02 0.  1.
       -2    1    3    3    0  502  0.99486678211E+03  0.29647480324E+03  0.13130364449E+04  0.16738344986E+04  0.25500000920E-02 0. -1.
</event>
<event>
 5   0  0.2948711E-06  0.3001129E+04  0.7818609E-02  0.8243409E-01
        2   -1    0    0  501    0  0.00000000000E+00  0.00000000000E+00  0.23899348961E+04  0.23899348961E+04  0.25500000920E-02 0.  1.
       -2   -1    0    0    0  501  0.00000000000E+00  0.00000000000E+00 -0.94215701945E+03  0.94215701946E+03  0.25500000920E-02 0. -1.
    10030    2    1    2    0    0  0.00000000000E+00  0.00000000000E+00  0.14477778766E+04  0.33320919155E+04  0.30011290798E+04 0.  0.
        5    1    3    3  502    0 -0.14984592002E+04 -0.54949420735E+02  0.78740269538E+03  0.16936423791E+04  0.46999998093E+01 0.  1.
       -5    1    3    3    0  502  0.14984592002E+04  0.54949420735E+02  0.66037518124E+03  0.16384495365E+04  0.46999998093E+01 0. -1.
</event>
<event>
 5   0  0.1054384E-06  0.3057861E+04  0.7818609E-02  0.8227399E-01
        1   -1    0    0  501    0  0.00000000000E+00  0.00000000000E+00  0.92774168789E+03  0.92774168791E+03  0.50400001928E-02 0.  1.
       -1   -1    0    0    0  501  0.00000000000E+00  0.00000000000E+00 -0.25196972082E+04  0.25196972082E+04  0.50400001928E-02 0. -1.
    10030    2    1    2    0    0  0.00000000000E+00  0.00000000000E+00 -0.15919555203E+04  0.34474388961E+04  0.30578607823E+04 0.  0.
        2    1    3    3  502    0 -0.13190362343E+04 -0.62109643933E+03 -0.27686963508E+03  0.14840061217E+04  0.25500000920E-02 0.  1.
       -2    1    3    3    0  502  0.13190362343E+04  0.62109643933E+03 -0.13150858852E+04  0.19634327745E+04  0.25500000920E-02 0. -1.
</event>
<event>
 5   0  0.1091076E-06  0.2973632E+04  0.7818609E-02  0.8251301E-01
        1   -1    0    0  501    0  0.00000000000E+00  0.00000000000E+00  0.17422944713E+04  0.17422944714E+04  0.50400001928E-02 0.  1.
       -1   -1    0    0    0  501  0.00000000000E+00  0.00000000000E+00 -0.12687994786E+04  0.12687994786E+04  0.50400001928E-02 0. -1.
    10030    2    1    2    0    0  0.00000000000E+00  0.00000000000E+00  0.47349499273E+03  0.30110939500E+04  0.29736323356E+04 0.  0.
        3    1    3    3  502    0 -0.92471897972E+02  0.98348174322E+03 -0.88848297918E+03  0.13286043074E+04  0.10100000352E+00 0. -1.
       -3    1    3    3    0  502  0.92471897972E+02 -0.98348174322E+03  0.13619779719E+04  0.16824896426E+04  0.10100000352E+00 0.  1.
</event>
<event>
 5   0  0.1113245E-06  0.2957630E+04  0.7818609E-02  0.8255934E-01
        1   -1    0    0  501    0  0.00000000000E+00  0.00000000000E+00  0.15926179611E+04  0.15926179611E+04  0.50400001928E-02 0.  1.
       -1   -1    0    0    0  501  0.00000000000E+00  0.00000000000E+00 -0.13731442195E+04  0.13731442195E+04  0.50400001928E-02 0. -1.
    10030    2    1    2    0    0  0.00000000000E+00  0.00000000000E+00  0.21947374155E+03  0.29657621806E+04  0.29576302319E+04 0.  0.
        5    1    3    3  502    0 -0.93295098834E+03  0.11468674920E+04  0.75445383839E+02  0.14803434354E+04  0.46999998093E+01 0.  1.
       -5    1    3    3    0  502  0.93295098834E+03 -0.11468674920E+04  0.14402835771E+03  0.14854187452E+04  0.46999998093E+01 0. -1.
</event>
<event>
 5   0  0.3113328E-06  0.2996075E+04  0.7818609E-02  0.8244853E-01
        2   -1    0    0  501    0  0.00000000000E+00  0.00000000000E+00  0.11533444888E+04  0.11533444888E+04  0.25500000920E-02 0.  1.
       -2   -1    0    0    0  501  0.00000000000E+00  0.00000000000E+00 -0.19457464494E+04  0.19457464494E+04  0.25500000920E-02 0. -1.
    10030    2    1    2    0    0  0.00000000000E+00  0.00000000000E+00 -0.79240196055E+03  0.30990909382E+04  0.29960747280E+04 0.  0.
        1    1    3    3  502    0 -0.78699119878E+03  0.12725647552E+04 -0.32061490883E+03  0.15302189787E+04  0.50400001928E-02 0. -1.
       -1    1    3    3    0  502  0.78699119878E+03 -0.12725647552E+04 -0.47178705172E+03  0.15688719595E+04  0.50400001928E-02 0.  1.
</event>
<event>
 5   0  0.1091076E-06  0.3048834E+04  0.7818609E-02  0.8229922E-01
        1   -1    0    0  501    0  0.00000000000E+00  0.00000000000E+00  0.17864589575E+04  0.17864589575E+04  0.50400001928E-02 0. -1.
       -1   -1    0    0    0  501  0.00000000000E+00  0.00000000000E+00 -0.13008120688E+04  0.13008120688E+04  0.50400001928E-02 0.  1.
    10030    2    1    2    0    0  0.00000000000E+00  0.00000000000E+00  0.48564688869E+03  0.30872710263E+04  0.30488341197E+04 0.  0.
        3    1    3    3  502    0  0.97754667724E+03  0.41652985699E+03 -0.86400414910E+03  0.13695246649E+04  0.10100000352E+00 0.  1.
       -3    1    3    3    0  502 -0.97754667724E+03 -0.41652985699E+03  0.13496510378E+04  0.17177463614E+04  0.10100000352E+00 0. -1.
</event>
<event>
 5   0  0.2862033E-06  0.3001922E+04  0.7818609E-02  0.8243182E-01
       -2   -1    0    0    0  501  0.00000000000E+00  0.00000000000E+00  0.10949693687E+04  0.10949693687E+04  0.25500000920E-02 0. -1.
        2   -1    0    0  501    0  0.00000000000E+00  0.00000000000E+00 -0.20574862466E+04  0.20574862466E+04  0.25500000920E-02 0.  1.
    10030    2    1    2    0    0  0.00000000000E+00  0.00000000000E+00 -0.96251687797E+03  0.31524556153E+04  0.30019223284E+04 0.  0.
        2    1    3    3  502    0  0.18822805623E+03 -0.13792699033E+04  0.10819902278E+03  0.13962529483E+04  0.25500000920E-02 0. -1.
       -2    1    3    3    0  502 -0.18822805623E+03  0.13792699033E+04 -0.10707159008E+04  0.17562026669E+04  0.25500000920E-02 0.  1.
</event>
<event>
 5   0  0.1097402E-06  0.2944598E+04  0.7818609E-02  0.8259731E-01
       -1   -1    0    0    0  501  0.00000000000E+00  0.00000000000E+00  0.12357140561E+04  0.12357140561E+04  0.50400001928E-02 0.  1.
        1   -1    0    0  501    0  0.00000000000E+00  0.00000000000E+00 -0.17541796910E+04  0.17541796910E+04  0.50400001928E-02 0. -1.
    10030    2    1    2    0    0  0.00000000000E+00  0.00000000000E+00 -0.51846563496E+03  0.29898937471E+04  0.29445981057E+04 0.  0.
        4    1    3    3  502    0 -0.10218815845E+04  0.92187081815E+03  0.27185705272E+03  0.14028526822E+04  0.12699999809E+01 0.  1.
       -4    1    3    3    0  502  0.10218815845E+04 -0.92187081815E+03 -0.79032268768E+03  0.15870410649E+04  0.12699999809E+01 0. -1.
</event>
<event>
 5   0  0.1113245E-06  0.2897338E+04  0.7818609E-02  0.8273670E-01
       -1   -1    0    0    0  501  0.00000000000E+00  0.00000000000E+00  0.10248590937E+04  0.10248590938E+04  0.50400001928E-02 0. -1.
        1   -1    0    0  501    0  0.00000000000E+00  0.00000000000E+00 -0.20477375407E+04  0.20477375407E+04  0.50400001928E-02 0.  1.
    10030    2    1    2    0    0  0.00000000000E+00  0.00000000000E+00 -0.10228784469E+04  0.30725966344E+04  0.28973383925E+04 0.  0.
        5    1    3    3  502    0 -0.19802270586E+03 -0.84647730144E+03  0.71748612966E+03  0.11271846566E+04  0.46999998093E+01 0. -1.
       -5    1    3    3    0  502  0.19802270586E+03  0.84647730144E+03 -0.17403645766E+04  0.19454119778E+04  0.46999998093E+01 0.  1.
</event>
<event>
 5   0  0.2948711E-06  0.2968603E+04  0.7818609E-02  0.8252754E-01
        2   -1    0    0  501    0  0.00000000000E+00  0.00000000000E+00  0.22898418153E+04  0.22898418153E+04  0.25500000920E-02 0.  1.
       -2   -1    0    0    0  501  0.00000000000E+00  0.00000000000E+00 -0.96214102757E+03  0.96214102758E+03  0.25500000920E-02 0. -1.
    10030    2    1    2    0    0  0.00000000000E+00  0.00000000000E+00  0.13277007877E+04  0.32519828428E+04  0.29686028748E+04 0.  0.
        5    1    3    3  502    0  0.10542752982E+03 -0.71797950024E+03  0.20822558721E+04  0.22050898244E+04  0.46999998093E+01 0.  1.
       -5    1    3    3    0  502 -0.10542752982E+03  0.71797950024E+03 -0.75455508436E+03  0.10468930185E+04  0.46999998093E+01 0. -1.
</event>
<event>
 5   0  0.1113245E-06  0.2998849E+04  0.7818609E-02  0.8244060E-01
       -1   -1    0    0    0  501  0.00000000000E+00  0.00000000000E+00  0.13726622654E+04  0.13726622654E+04  0.50400001928E-02 0. -1.
        1   -1    0    0  501    0  0.00000000000E+00  0.00000000000E+00 -0.16378931338E+04  0.16378931339E+04  0.50400001928E-02 0.  1.
    10030    2    1    2    0    0  0.00000000000E+00  0.00000000000E+00 -0.26523086850E+03  0.30105553992E+04  0.29988491790E+04 0.  0.
        5    1    3    3  502    0  0.26513848977E+03 -0.14892899137E+03 -0.16066022140E+04  0.16351363941E+04  0.46999998093E+01 0.  1.
       -5    1    3    3    0  502 -0.26513848977E+03  0.14892899137E+03  0.13413713455E+04  0.13754190052E+04  0.46999998093E+01 0. -1.
</event>
<event>
 5   0  0.1054384E-06  0.3019819E+04  0.7818609E-02  0.8238094E-01
        1   -1    0    0  501    0  0.00000000000E+00  0.00000000000E+00  0.14698693943E+04  0.14698693943E+04  0.50400001928E-02 0. -1.
       -1   -1    0    0    0  501  0.00000000000E+00  0.00000000000E+00 -0.15510404882E+04  0.15510404882E+04  0.50400001928E-02 0.  1.
    10030    2    1    2    0    0  0.00000000000E+00  0.00000000000E+00 -0.81171093959E+02  0.30209098825E+04  0.30198191621E+04 0.  0.
        2    1    3    3  502    0  0.49866286747E+03  0.12528170235E+04  0.63908003985E+03  0.14921924967E+04  0.25500000920E-02 0. -1.
       -2    1    3    3    0  502 -0.49866286747E+03 -0.12528170235E+04 -0.72025113381E+03  0.15287173858E+04  0.25500000920E-02 0.  1.
</event>
<event>
 5   0  0.3113328E-06  0.3004022E+04  0.7818609E-02  0.8242583E-01
        2   -1    0    0  501    0  0.00000000000E+00  0.00000000000E+00  0.15535817598E+04  0.15535817598E+04  0.25500000920E-02 0.  1.
       -2   -1    0    0    0  501  0.00000000000E+00  0.00000000000E+00 -0.14521516664E+04  0.14521516664E+04  0.25500000920E-02 0. -1.
    10030    2    1    2    0    0  0.00000000000E+00  0.00000000000E+00  0.10143009335E+03  0.30057334262E+04  0.30040215322E+04 0.  0.
        1    1    3    3  502    0 -0.56316793504E+03 -0.11514470894E+04  0.83413494033E+03  0.15293036394E+04  0.50400001928E-02 0.  1.
       -1    1    3    3    0  502  0.56316793504E+03  0.11514470894E+04 -0.73270484697E+03  0.14764297869E+04  0.50400001928E-02 0. -1.
</event>
<event>
 5   0  0.1097402E-06  0.2820561E+04  0.7818609E-02  0.8296913E-01
        1   -1    0    0  501    0  0.00000000000E+00  0.00000000000E+00  0.21831266255E+04  0.21831266255E+04  0.50400001928E-02 0.  1.
       -1   -1    0    0    0  501  0.00000000000E+00  0.00000000000E+00 -0.91102889519E+03  0.91102889521E+03  0.50400001928E-02 0. -1.
    10030    2    1    2    0    0  0.00000000000E+00  0.00000000000E+00  0.12720977303E+04  0.30941555207E+04  0.28205612475E+04 0.  0.
        4    1    3    3  502    0  0.76529550715E+03 -0.11838099799E+04  0.68267514546E+03  0.15662471864E+04  0.12699999809E+01 0. -1.
       -4    1    3    3    0  502 -0.76529550715E+03  0.11838099799E+04  0.58942258484E+03  0.15279083343E+04  0.12699999809E+01 0.  1.
</event>
<event>
 5   0  0.3113328E-06  0.2999874E+04  0.7818609E-02  0.8243767E-01
       -2   -1    0    0    0  501  0.00000000000E+00  0.00000000000E+00  0.14803884387E+04  0.14803884387E+04  0.25500000920E-02 0.  1.
        2   -1    0    0  501    0  0.00000000000E+00  0.00000000000E+00 -0.15197437954E+04  0.15197437954E+04  0.25500000920E-02 0. -1.
    10030    2    1    2    0    0  0.00000000000E+00  0.00000000000E+00 -0.39355356660E+02  0.30001322341E+04  0.29998740937E+04 0.  0.
        1    1    3    3  502    0 -0.10739810851E+04 -0.41861440471E+03 -0.97951948238E+03  0.15126572009E+04  0.50400001928E-02 0. -1.
       -1    1    3    3    0  502  0.10739810851E+04  0.41861440471E+03  0.94016412572E+03  0.14874750332E+04  0.50400001928E-02 0.  1.
</event>
<event>
 5   0  0.3113328E-06  0.2975170E+04  0.7818609E-02  0.8250857E-01
        2   -1    0    0  501    0  0.00000000000E+00  0.00000000000E+00  0.22418488418E+04  0.22418488418E+04  0.25500000920E-02 0.  1.
       -2   -1    0    0    0  501  0.00000000000E+00  0.00000000000E+00 -0.98709090005E+03  0.98709090005E+03  0.25500000920E-02 0. -1.
    10030    2    1    2    0    0  0.00000000000E+00  0.00000000000E+00  0.12547579417E+04  0.32289397419E+04  0.29751696362E+04 0.  0.
        1    1    3    3  502    0  0.67323654929E+02 -0.53331836102E+03 -0.87799648823E+03  0.10294847168E+04  0.50400001928E-02 0. -1.
       -1    1    3    3    0  502 -0.67323654929E+02  0.53331836102E+03  0.21327544300E+04  0.21994550251E+04  0.50400001928E-02 0.  1.
</event>
<event>
 5   0  0.1097402E-06  0.2979979E+04  0.7818609E-02  0.8249471E-01
        1   -1    0    0  501    0  0.00000000000E+00  0.00000000000E+00  0.13600970585E+04  0.13600970585E+04  0.50400001928E-02 0. -1.
       -1   -1    0    0    0  501  0.00000000000E+00  0.00000000000E+00 -0.16322873111E+04  0.16322873111E+04  0.50400001928E-02 0.  1.
    10030    2    1    2    0    0  0.00000000000E+00  0.00000000000E+00 -0.27219025262E+03  0.29923843696E+04  0.29799793090E+04 0.  0.
        4    1    3    3  502    0  0.72284260026E+03 -0.74980202674E+02 -0.14422573959E+04  0.16150020014E+04  0.12699999809E+01 0.  1.
       -4    1    3    3    0  502 -0.72284260026E+03  0.74980202674E+02  0.11700671433E+04  0.13773823682E+04  0.12699999809E+01 0. -1.
</event>
<event>
 5   0  0.1091076E-06  0.2985095E+04  0.7818609E-02  0.8248000E-01
        1   -1    0    0  501    0  0.00000000000E+00  0.00000000000E+00  0.23171100693E+04  0.23171100693E+04  0.50400001928E-02 0.  1.
       -1   -1    0    0    0  501  0.00000000000E+00  0.00000000000E+00 -0.96141201916E+03  0.96141201918E+03  0.50400001928E-02 0. -1.
    10030    2    1    2    0    0  0.00000000000E+00  0.00000000000E+00  0.13556980501E+04  0.32785220885E+04  0.29850946185E+04 0.  0.
        3    1    3    3  502    0  0.98534033519E+03  0.10971547876E+04  0.93082311009E+03  0.17438680789E+04  0.10100000352E+00 0.  1.
       -3    1    3    3    0  502 -0.98534033519E+03 -0.10971547876E+04  0.42487494002E+03  0.15346540095E+04  0.10100000352E+00 0. -1.
</event>
<event>
 5   0  0.2970915E-06  0.2958008E+04  0.7818609E-02  0.8255825E-01
        2   -1    0    0  501    0  0.00000000000E+00  0.00000000000E+00  0.16539263087E+04  0.16539263087E+04  0.25500000920E-02 0.  1.
       -2   -1    0    0    0  501  0.00000000000E+00  0.00000000000E+00 -0.13225815380E+04  0.13225815380E+04  0.25500000920E-02 0. -1.
    10030    2    1    2    0    0  0.00000000000E+00  0.00000000000E+00  0.33134477073E+03  0.29765078467E+04  0.29580077086E+04 0.  0.
        4    1    3    3  502    0 -0.43863988623E+03  0.52742337448E+03 -0.11528165505E+04  0.13414797716E+04  0.12699999809E+01 0. -1.
       -4    1    3    3    0  502  0.43863988623E+03 -0.52742337448E+03  0.14841613212E+04  0.16350280750E+04  0.12699999809E+01 0.  1.
</event>
<event>
 5   0  0.1097402E-06  0.2964314E+04  0.7818609E-02  0.8253995E-01
        1   -1    0    0  501    0  0.00000000000E+00  0.00000000000E+00  0.19825806650E+04  0.19825806650E+04  0.50400001928E-02 0. -1.
       -1   -1    0    0    0  501  0.00000000000E+00  0.00000000000E+00 -0.11080457533E+04  0.11080457533E+04  0.50400001928E-02 0.  1.
    10030    2    1    2    0    0  0.00000000000E+00  0.00000000000E+00  0.87453491178E+03  0.30906264183E+04  0.29643144816E+04 0.  0.
        4    1    3    3  502    0 -0.65754645175E+03 -0.13267999007E+04  0.50339858426E+03  0.15640259142E+04  0.12699999809E+01 0. -1.
       -4    1    3    3    0  502  0.65754645175E+03  0.13267999007E+04  0.37113632751E+03  0.15266005041E+04  0.12699999809E+01 0.  1.
</event>
<event>
 5   0  0.1091075E-06  0.2997708E+04  0.7818609E-02  0.8244386E-01
       -1   -1    0    0    0  501  0.00000000000E+00  0.00000000000E+00  0.11640011954E+04  0.11640011954E+04  0.50400001928E-02 0. -1.
        1   -1    0    0  501    0  0.00000000000E+00  0.00000000000E+00 -0.19300353753E+04  0.19300353753E+04  0.50400001928E-02 0.  1.
    10030    2    1    2    0    0  0.00000000000E+00  0.00000000000E+00 -0.76603417994E+03  0.30940365707E+04  0.29977081139E+04 0.  0.
        1    1    3    3  502    0 -0.12056036532E+04 -0.73348592262E+03 -0.90430273408E+03  0.16760803090E+04  0.50400001928E-02 0.  1.
       -1    1    3    3    0  502  0.12056036532E+04  0.73348592262E+03  0.13826855415E+03  0.14179562618E+04  0.50400001928E-02 0. -1.
</event>
<event>
 5   0  0.1113245E-06  0.2998918E+04  0.7818609E-02  0.8244040E-01
        1   -1    0    0  501    0  0.00000000000E+00  0.00000000000E+00  0.97035232542E+03  0.97035232543E+03  0.50400001928E-02 0.  1.
       -1   -1    0    0    0  501  0.00000000000E+00  0.00000000000E+00 -0.23170736034E+04  0.23170736034E+04  0.50400001928E-02 0. -1.
    10030    2    1    2    0    0  0.00000000000E+00  0.00000000000E+00 -0.13467212780E+04  0.32874259288E+04  0.29989183112E+04 0.  0.
        5    1    3    3  502    0  0.31511606176E+03 -0.46073789438E+03  0.85220632809E+03  0.10187518124E+04  0.46999998093E+01 0.  1.
       -5    1    3    3    0  502 -0.31511606176E+03  0.46073789438E+03 -0.21989276061E+04  0.22686741164E+04  0.46999998093E+01 0. -1.
</event>
<event>
 5   0  0.2970915E-06  0.2991177E+04  0.7818609E-02  0.8246255E-01
       -2   -1    0    0    0  501  0.00000000000E+00  0.00000000000E+00  0.11540198814E+04  0.11540198814E+04  0.25500000920E-02 0.  1.
        2   -1    0    0  501    0  0.00000000000E+00  0.00000000000E+00 -0.19382545960E+04  0.19382545960E+04  0.25500000920E-02 0. -1.
    10030    2    1    2    0    0  0.00000000000E+00  0.00000000000E+00 -0.78423471460E+03  0.30922744774E+04  0.29911765839E+04 0.  0.
        4    1    3    3  502    0  0.40788899318E+03 -0.73231411167E+03  0.88834378890E+03  0.12213982516E+04  0.12699999809E+01 0.  1.
       -4    1    3    3    0  502 -0.40788899318E+03  0.73231411167E+03 -0.16725785035E+04  0.18708762258E+04  0.12699999809E+01 0. -1.
</event>
<event>
 5   0  0.2862033E-06  0.2939345E+04  0.7818609E-02  0.8261267E-01
       -2   -1    0    0    0  501  0.00000000000E+00  0.00000000000E+00  0.90502602202E+03  0.90502602203E+03  0.25500000920E-02 0.  1.
        2   -1    0    0  501    0  0.00000000000E+00  0.00000000000E+00 -0.23866021792E+04  0.23866021792E+04  0.25500000920E-02 0. -1.
    10030    2    1    2    0    0  0.00000000000E+00  0.00000000000E+00 -0.14815761571E+04  0.32916282012E+04  0.29393448769E+04 0.  0.
        2    1    3    3  502    0 -0.14421118736E+04  0.26062739914E+03 -0.61647060343E+03  0.15898582648E+04  0.25500000920E-02 0. -1.
       -2    1    3    3    0  502  0.14421118736E+04 -0.26062739914E+03 -0.86510555370E+03  0.17017699364E+04  0.25500000920E-02 0.  1.
</event>
<event>
 5   0  0.1113245E-06  0.3068512E+04  0.7818609E-02  0.8224433E-01
       -1   -1    0    0    0  501  0.00000000000E+00  0.00000000000E+00  0.94063178575E+03  0.94063178577E+03  0.50400001928E-02 0. -1.
        1   -1    0    0  501    0  0.00000000000E+00  0.00000000000E+00 -0.25025113376E+04  0.25025113376E+04  0.50400001928E-02 0.  1.
    10030    2    1    2    0    0  0.00000000000E+00  0.00000000000E+00 -0.15618795519E+04  0.34431431234E+04  0.30685121531E+04 0.  0.
        5    1    3    3  502    0  0.58584457734E+03  0.13659900890E+04 -0.12078895166E+04  0.19152446231E+04  0.46999998093E+01 0.  1.
       -5    1    3    3    0  502 -0.58584457734E+03 -0.13659900890E+04 -0.35399003527E+03  0.15278985003E+04  0.46999998093E+01 0. -1.
</event>
<event>
 5   0  0.1091075E-06  0.2983784E+04  0.7818609E-02  0.8248377E-01
        1   -1    0    0  501    0  0.00000000000E+00  0.00000000000E+00  0.16623579313E+04  0.16623579313E+04  0.50400001928E-02 0.  1.
       -1   -1    0    0    0  501  0.00000000000E+00  0.00000000000E+00 -0.13389063525E+04  0.13389063525E+04  0.50400001928E-02 0. -1.
    10030    2    1    2    0    0  0.00000000000E+00  0.00000000000E+00  0.32345157877E+03  0.30012642838E+04  0.29837839026E+04 0.  0.
        1    1    3    3  502    0 -0.70241000423E+03 -0.63257951443E+03 -0.99924794094E+03  0.13755119424E+04  0.50400001928E-02 0. -1.
       -1    1    3    3    0  502  0.70241000423E+03  0.63257951443E+03  0.13226995197E+04  0.16257523414E+04  0.50400001928E-02 0.  1.
</event>
<event>
 5   0  0.2985941E-06  0.2991684E+04  0.7818609E-02  0.8246110E-01
       -2   -1    0    0    0  501  0.00000000000E+00  0.00000000000E+00  0.89386065125E+03  0.89386065125E+03  0.25500000920E-02 0. -1.
        2   -1    0    0  501    0  0.00000000000E+00  0.00000000000E+00 -0.25032347047E+04  0.25032347047E+04  0.25500000920E-02 0.  1.
    10030    2    1    2    0    0  0.00000000000E+00  0.00000000000E+00 -0.16093740535E+04  0.33970953560E+04  0.29916838091E+04 0.  0.
        3    1    3    3  502    0 -0.66170829810E+03 -0.45361044609E+03  0.62890531504E+03  0.10193832518E+04  0.10100000352E+00 0. -1.
       -3    1    3    3    0  502  0.66170829810E+03  0.45361044609E+03 -0.22382793685E+04  0.23777121042E+04  0.10100000352E+00 0.  1.
</event>
<event>
 5   0  0.2970915E-06  0.3010096E+04  0.7818609E-02  0.8240854E-01
       -2   -1    0    0    0  501  0.00000000000E+00  0.00000000000E+00  0.93702724226E+03  0.93702724226E+03  0.25500000920E-02 0. -1.
        2   -1    0    0  501    0  0.00000000000E+00  0.00000000000E+00 -0.24173994166E+04  0.24173994167E+04  0.25500000920E-02 0.  1.
    10030    2    1    2    0    0  0.00000000000E+00  0.00000000000E+00 -0.14803721744E+04  0.33544266589E+04  0.30100957519E+04 0.  0.
        4    1    3    3  502    0 -0.52580102840E+03  0.98246725069E+03  0.38720134326E+03  0.11796758509E+04  0.12699999809E+01 0. -1.
       -4    1    3    3    0  502  0.52580102840E+03 -0.98246725069E+03 -0.18675735176E+04  0.21747508080E+04  0.12699999809E+01 0.  1.
</event>
<event>
 5   0  0.2970915E-06  0.2980152E+04  0.7818609E-02  0.8249421E-01
       -2   -1    0    0    0  501  0.00000000000E+00  0.00000000000E+00  0.92264416027E+03  0.92264416027E+03  0.25500000920E-02 0.  1.
        2   -1    0    0  501    0  0.00000000000E+00  0.00000000000E+00 -0.24064816822E+04  0.24064816822E+04  0.25500000920E-02 0. -1.
    10030    2    1    2    0    0  0.00000000000E+00  0.00000000000E+00 -0.14838375219E+04  0.33291258424E+04  0.29801518558E+04 0.  0.
        4    1    3    3  502    0  0.11706469934E+04  0.24206573015E+03 -0.17356441083E+04  0.21074800793E+04  0.12699999809E+01 0. -1.
       -4    1    3    3    0  502 -0.11706469934E+04 -0.24206573015E+03  0.25180658641E+03  0.12216457632E+04  0.12699999809E+01 0.  1.
</event>
<event>
 5   0  0.1091076E-06  0.2999935E+04  0.7818609E-02  0.8243750E-01
        1   -1    0    0  501    0  0.00000000000E+00  0.00000000000E+00  0.23439570318E+04  0.23439570318E+04  0.50400001928E-02 0. -1.
       -1   -1    0    0    0  501  0.00000000000E+00  0.00000000000E+00 -0.95987339962E+03  0.95987339964E+03  0.50400001928E-02 0.  1.
    10030    2    1    2    0    0  0.00000000000E+00  0.00000000000E+00  0.13840836322E+04  0.33038304315E+04  0.29999346691E+04 0.  0.
        3    1    3    3  502    0 -0.15947187830E+03  0.14885219353E+04  0.58888829888E+03  0.16087008021E+04  0.10100000352E+00 0.  1.
       -3    1    3    3    0  502  0.15947187830E+03 -0.14885219353E+04  0.79519533332E+03  0.16951296294E+04  0.10100000352E+00 0. -1.
</event>
<event>
 5   0  0.1091076E-06  0.2976406E+04  0.7818609E-02  0.8250500E-01
       -1   -1    0    0    0  501  0.00000000000E+00  0.00000000000E+00  0.14526106272E+04  0.14526106272E+04  0.50400001928E-02 0. -1.
        1   -1    0    0  501    0  0.00000000000E+00  0.00000000000E+00 -0.15246677505E+04  0.15246677505E+04  0.50400001928E-02 0.  1.
    10030    2    1    2    0    0  0.00000000000E+00  0.00000000000E+00 -0.72057123276E+02  0.29772783776E+04  0.29764062742E+04 0.  0.
        3    1    3    3  502    0  0.14040021119E+04 -0.26264278726E+02 -0.52895771527E+03  0.15005692311E+04  0.10100000352E+00 0.  1.
       -3    1    3    3    0  502 -0.14040021119E+04  0.26264278726E+02  0.45690059200E+03  0.14767091466E+04  0.10100000352E+00 0. -1.
</event>
<event>
 5   0  0.1091076E-06  0.3003942E+04  0.7818609E-02  0.8242606E-01
        1   -1    0    0  501    0  0.00000000000E+00  0.00000000000E+00  0.93385216135E+03  0.93385216136E+03  0.50400001928E-02 0. -1.
       -1   -1    0    0    0  501  0.00000000000E+00  0.00000000000E+00 -0.24157107923E+04  0.24157107923E+04  0.50400001928E-02 0.  1.
    10030    2    1    2    0    0  0.00000000000E+00  0.00000000000E+00 -0.14818586310E+04  0.33495629537E+04  0.30039419067E+04 0.  0.
        3    1    3    3  502    0  0.12529595840E+04  0.21515769717E+03  0.15091753474E+03  0.12802252405E+04  0.10100000352E+00 0. -1.
       -3    1    3    3    0  502 -0.12529595840E+04 -0.21515769717E+03 -0.16327761657E+04  0.20693377132E+04  0.10100000352E+00 0.  1.
</event>
<event>
 5   0  0.1054384E-06  0.2931587E+04  0.7818609E-02  0.8263541E-01
        1   -1    0    0  501    0  0.00000000000E+00  0.00000000000E+00  0.10350979675E+04  0.10350979675E+04  0.50400001928E-02 0. -1.
       -1   -1    0    0    0  501  0.00000000000E+00  0.00000000000E+00 -0.20756981821E+04  0.20756981821E+04  0.50400001928E-02 0.  1.
    10030    2    1    2    0    0  0.00000000000E+00  0.00000000000E+00 -0.10406002146E+04  0.31107961496E+04  0.29315872625E+04 0.  0.
        2    1    3    3  502    0  0.64929536779E+03  0.11434202568E+04 -0.12076280674E+04  0.17853178729E+04  0.25500000920E-02 0.  1.
       -2    1    3    3    0  502 -0.64929536779E+03 -0.11434202568E+04  0.16702785279E+03  0.13254782767E+04  0.25500000920E-02 0. -1.
</event>
<event>
 5   0  0.2985941E-06  0.3143605E+04  0.7818609E-02  0.8203872E-01
        2   -1    0    0  501    0  0.00000000000E+00  0.00000000000E+00  0.15917253503E+04  0.15917253503E+04  0.25500000920E-02 0.  1.
       -2   -1    0    0    0  501  0.00000000000E+00  0.00000000000E+00 -0.15521292238E+04  0.15521292238E+04  0.25500000920E-02 0. -1.
    10030    2    1    2    0    0  0.00000000000E+00  0.00000000000E+00  0.39596126480E+02  0.31438545741E+04  0.31436052121E+04 0.  0.
        3    1    3    3  502    0  0.11022692072E+04  0.50635637587E+03  0.10194618863E+04  0.15845178233E+04  0.10100000352E+00 0.  1.
       -3    1    3    3    0  502 -0.11022692072E+04 -0.50635637587E+03 -0.97986575984E+03  0.15593367507E+04  0.10100000352E+00 0. -1.
</event>
<event>
 5   0  0.2985941E-06  0.3007201E+04  0.7818609E-02  0.8241677E-01
        2   -1    0    0  501    0  0.00000000000E+00  0.00000000000E+00  0.22087298162E+04  0.22087298162E+04  0.25500000920E-02 0.  1.
       -2   -1    0    0    0  501  0.00000000000E+00  0.00000000000E+00 -0.10235815512E+04  0.10235815512E+04  0.25500000920E-02 0. -1.
    10030    2    1    2    0    0  0.00000000000E+00  0.00000000000E+00  0.11851482649E+04  0.32323113674E+04  0.30072014176E+04 0.  0.
        3    1    3    3  502    0  0.84528685151E+03 -0.12432354001E+04  0.62041603555E+03  0.16263641009E+04  0.10100000352E+00 0. -1.
       -3    1    3    3    0  502 -0.84528685151E+03  0.12432354001E+04  0.56473222939E+03  0.16059472664E+04  0.10100000352E+00 0.  1.
</event>
<event>
 5   0  0.1091076E-06  0.2995136E+04  0.7818609E-02  0.8245121E-01
        1   -1    0    0  501    0  0.00000000000E+00  0.00000000000E+00  0.14360012399E+04  0.14360012399E+04  0.50400001928E-02 0. -1.
       -1   -1    0    0    0  501  0.00000000000E+00  0.00000000000E+00 -0.15617742503E+04  0.15617742503E+04  0.50400001928E-02 0.  1.
    10030    2    1    2    0    0  0.00000000000E+00  0.00000000000E+00 -0.12577301042E+03  0.29977754902E+04  0.29951358967E+04 0.  0.
        3    1    3    3  502    0 -0.14205246471E+04  0.29163299600E+03  0.31130079690E+03  0.14831885496E+04  0.10100000352E+00 0. -1.
       -3    1    3    3    0  502  0.14205246471E+04 -0.29163299600E+03 -0.43707380732E+03  0.15145869406E+04  0.10100000352E+00 0.  1.
</event>
<event>
 5   0  0.2862033E-06  0.3006299E+04  0.7818609E-02  0.8241934E-01
       -2   -1    0    0    0  501  0.00000000000E+00  0.00000000000E+00  0.16911890977E+04  0.16911890977E+04  0.25500000920E-02 0.  1.
        2   -1    0    0  501    0  0.00000000000E+00  0.00000000000E+00 -0.13360174872E+04  0.13360174872E+04  0.25500000920E-02 0. -1.
    10030    2    1    2    0    0  0.00000000000E+00  0.00000000000E+00  0.35517161050E+03  0.30272065849E+04  0.30062988599E+04 0.  0.
        2    1    3    3  502    0 -0.54514182307E+03 -0.12210057072E+04  0.86896387057E+03  0.15947202741E+04  0.25500000920E-02 0.  1.
       -2    1    3    3    0  502  0.54514182307E+03  0.12210057072E+04 -0.51379226007E+03  0.14324863108E+04  0.25500000920E-02 0. -1.
</event>
<event>
 5   0  0.3113328E-06  0.3004931E+04  0.7818609E-02  0.8242324E-01
       -2   -1    0    0    0  501  0.00000000000E+00  0.00000000000E+00  0.13199150590E+04  0.13199150590E+04  0.25500000920E-02 0. -1.
        2   -1    0    0  501    0  0.00000000000E+00  0.00000000000E+00 -0.17102631496E+04  0.17102631496E+04  0.25500000920E-02 0.  1.
    10030    2    1    2    0    0  0.00000000000E+00  0.00000000000E+00 -0.39034809060E+03  0.30301782085E+04  0.30049306720E+04 0.  0.
        1    1    3    3  502    0 -0.82671447744E+03  0.63115000733E+03  0.89818440442E+03  0.13742424762E+04  0.50400001928E-02 0. -1.
       -1    1    3    3    0  502  0.82671447744E+03 -0.63115000733E+03 -0.12885324950E+04  0.16559357324E+04  0.50400001928E-02 0.  1.
</event>
<event>
 5   0  0.2970915E-06  0.2996587E+04  0.7818609E-02  0.8244706E-01
       -2   -1    0    0    0  501  0.00000000000E+00  0.00000000000E+00  0.13197284398E+04  0.13197284398E+04  0.25500000920E-02 0.  1.
        2   -1    0    0  501    0  0.00000000000E+00  0.00000000000E+00 -0.17010190476E+04  0.17010190476E+04  0.25500000920E-02 0. -1.
    10030    2    1    2    0    0  0.00000000000E+00  0.00000000000E+00 -0.38129060787E+03  0.30207474874E+04  0.29965868676E+04 0.  0.
        4    1    3    3  502    0 -0.23154532739E+03 -0.86790716368E+03  0.10181919266E+04  0.13577895623E+04  0.12699999809E+01 0.  1.
       -4    1    3    3    0  502  0.23154532739E+03  0.86790716368E+03 -0.13994825344E+04  0.16629579250E+04  0.12699999809E+01 0. -1.
</event>
<event>
 5   0  0.1113245E-06  0.3041646E+04  0.7818609E-02  0.8231938E-01
       -1   -1    0    0    0  501  0.00000000000E+00  0.00000000000E+00  0.20135573186E+04  0.20135573186E+04  0.50400001928E-02 0.  1.
        1   -1    0    0  501    0  0.00000000000E+00  0.00000000000E+00 -0.11486651770E+04  0.11486651770E+04  0.50400001928E-02 0. -1.
    10030    2    1    2    0    0  0.00000000000E+00  0.00000000000E+00  0.86489214165E+03  0.31622224956E+04  0.30416463790E+04 0.  0.
        5    1    3    3  502    0 -0.29146630545E+03 -0.14177228451E+04  0.91784900500E+03  0.17138726787E+04  0.46999998093E+01 0.  1.
       -5    1    3    3    0  502  0.29146630545E+03  0.14177228451E+04 -0.52956863344E+02  0.14483498169E+04  0.46999998093E+01 0. -1.
</event>
<event>
 5   0  0.3113328E-06  0.2999732E+04  0.7818609E-02  0.8243807E-01
       -2   -1    0    0    0  501  0.00000000000E+00  0.00000000000E+00  0.12340650901E+04  0.12340650901E+04  0.25500000920E-02 0. -1.
        2   -1    0    0  501    0  0.00000000000E+00  0.00000000000E+00 -0.18229166925E+04  0.18229166925E+04  0.25500000920E-02 0.  1.
    10030    2    1    2    0    0  0.00000000000E+00  0.00000000000E+00 -0.58885160232E+03  0.30569817826E+04  0.29997318896E+04 0.  0.
        1    1    3    3  502    0 -0.76348094860E+03 -0.39256858655E+03  0.95891808708E+03  0.12870653254E+04  0.50400001928E-02 0. -1.
       -1    1    3    3    0  502  0.76348094860E+03  0.39256858655E+03 -0.15477696894E+04  0.17699164572E+04  0.50400001928E-02 0.  1.
</event>
<event>
 5   0  0.2985941E-06  0.2975969E+04  0.7818609E-02  0.8250627E-01
        2   -1    0    0  501    0  0.00000000000E+00  0.00000000000E+00  0.14373182749E+04  0.14373182749E+04  0.25500000920E-02 0. -1.
       -2   -1    0    0    0  501  0.00000000000E+00  0.00000000000E+00 -0.15404366151E+04  0.15404366151E+04  0.25500000920E-02 0.  1.
    10030    2    1    2    0    0  0.00000000000E+00  0.00000000000E+00 -0.10311834019E+03  0.29777548899E+04  0.29759688830E+04 0.  0.
        3    1    3    3  502    0 -0.97311146996E+02  0.56456090766E+03  0.13225454503E+04  0.14412928072E+04  0.10100000352E+00 0. -1.
       -3    1    3    3    0  502  0.97311146996E+02 -0.56456090766E+03 -0.14256637905E+04  0.15364620827E+04  0.10100000352E+00 0.  1.
</event>
<event>
 5   0  0.1097402E-06  0.2912527E+04  0.7818609E-02  0.8269160E-01
       -1   -1    0    0    0  501  0.00000000000E+00  0.00000000000E+00  0.10084264333E+04  0.10084264333E+04  0.50400001928E-02 0. -1.
        1   -1    0    0  501    0  0.00000000000E+00  0.00000000000E+00 -0.21029827870E+04  0.21029827870E+04  0.50400001928E-02 0.  1.
    10030    2    1    2    0    0  0.00000000000E+00  0.00000000000E+00 -0.10945563538E+04  0.31114092203E+04  0.29125270341E+04 0.  0.
        4    1    3    3  502    0 -0.99558854885E+03 -0.16056451194E+03  0.57504380916E+03  0.11608852297E+04  0.12699999809E+01 0. -1.
       -4    1    3    3    0  502  0.99558854885E+03  0.16056451194E+03 -0.16696001629E+04  0.19505239906E+04  0.12699999809E+01 0.  1.
</event>
<event>
 5   0  0.2948711E-06  0.3000072E+04  0.7818609E-02  0.8243710E-01
       -2   -1    0    0    0  501  0.00000000000E+00  0.00000000000E+00  0.14765372029E+04  0.14765372029E+04  0.25500000920E-02 0.  1.
        2   -1    0    0  501    0  0.00000000000E+00  0.00000000000E+00 -0.15239086219E+04  0.15239086219E+04  0.25500000920E-02 0. -1.
    10030    2    1    2    0    0  0.00000000000E+00  0.00000000000E+00 -0.47371418920E+02  0.30004458248E+04  0.30000718485E+04 0.  0.
        5    1    3    3  502    0 -0.25932195755E+03 -0.64148396395E+03  0.13073957202E+04  0.14792076301E+04  0.46999998093E+01 0.  1.
       -5    1    3    3    0  502  0.25932195755E+03  0.64148396395E+03 -0.13547671392E+04  0.15212381947E+04  0.46999998093E+01 0. -1.
</event>
<event>
 5   0  0.2862033E-06  0.3010945E+04  0.7818609E-02  0.8240612E-01
       -2   -1    0    0    0  501  0.00000000000E+00  0.00000000000E+00  0.11386361646E+04  0.11386361646E+04  0.25500000920E-02 0. -1.
        2   -1    0    0  501    0  0.00000000000E+00  0.00000000000E+00 -0.19904936880E+04  0.19904936880E+04  0.25500000920E-02 0.  1.
    10030    2    1    2    0    0  0.00000000000E+00  0.00000000000E+00 -0.85185752341E+03  0.31291298527E+04  0.30109454320E+04 0.  0.
        2    1    3    3  502    0 -0.41845612756E+03  0.97231497897E+03  0.68657837578E+03  0.12617019518E+04  0.25500000920E-02 0. -1.
       -2    1    3    3    0  502  0.41845612756E+03 -0.97231497897E+03 -0.15384358992E+04  0.18674279009E+04  0.25500000920E-02 0.  1.
</event>
<event>
 5   0  0.2862033E-06  0.2965813E+04  0.7818609E-02  0.8253561E-01
       -2   -1    0    0    0  501  0.00000000000E+00  0.00000000000E+00  0.11161664003E+04  0.11161664003E+04  0.25500000920E-02 0.  1.
        2   -1    0    0  501    0  0.00000000000E+00  0.00000000000E+00 -0.19701461900E+04  0.19701461900E+04  0.25500000920E-02 0. -1.
    10030    2    1    2    0    0  0.00000000000E+00  0.00000000000E+00 -0.85397978970E+03  0.30863125904E+04  0.29658125235E+04 0.  0.
        2    1    3    3  502    0  0.14366180447E+04 -0.21539979037E+03 -0.11698963500E+03  0.14573795150E+04  0.25500000920E-02 0. -1.
       -2    1    3    3    0  502 -0.14366180447E+04  0.21539979037E+03 -0.73699015470E+03  0.16289330754E+04  0.25500000920E-02 0.  1.
</event>
<event>
 5   0  0.1091076E-06  0.3012499E+04  0.7818609E-02  0.8240171E-01
        1   -1    0    0  501    0  0.00000000000E+00  0.00000000000E+00  0.13373857380E+04  0.13373857380E+04  0.50400001928E-02 0. -1.
       -1   -1    0    0    0  501  0.00000000000E+00  0.00000000000E+00 -0.16964345821E+04  0.16964345821E+04  0.50400001928E-02 0.  1.
    10030    2    1    2    0    0  0.00000000000E+00  0.00000000000E+00 -0.35904884406E+03  0.30338203201E+04  0.30124989066E+04 0.  0.
        3    1    3    3  502    0  0.12323989388E+04  0.58538700780E+03  0.46319495819E+03  0.14408451245E+04  0.10100000352E+00 0.  1.
       -3    1    3    3    0  502 -0.12323989388E+04 -0.58538700780E+03 -0.82224380225E+03  0.15929751956E+04  0.10100000352E+00 0. -1.
</event>
<event>
 5   0  0.1054384E-06  0.3021870E+04  0.7818609E-02  0.8237513E-01
       -1   -1    0    0    0  501  0.00000000000E+00  0.00000000000E+00  0.93847845713E+03  0.93847845715E+03  0.50400001928E-02 0. -1.
        1   -1    0    0  501    0  0.00000000000E+00  0.00000000000E+00 -0.24325801443E+04  0.24325801443E+04  0.50400001928E-02 0.  1.
    10030    2    1    2    0    0  0.00000000000E+00  0.00000000000E+00 -0.14941016872E+04  0.33710586014E+04  0.30218696601E+04 0.  0.
        2    1    3    3  502    0 -0.96633553512E+02  0.15078014826E+04 -0.75930702872E+03  0.16909614184E+04  0.25500000920E-02 0. -1.
       -2    1    3    3    0  502  0.96633553512E+02 -0.15078014826E+04 -0.73479465844E+03  0.16800971831E+04  0.25500000920E-02 0.  1.
</event>
<event>
 5   0  0.3113328E-06  0.2992530E+04  0.7818609E-02  0.8245867E-01
       -2   -1    0    0    0  501  0.00000000000E+00  0.00000000000E+00  0.97406840508E+03  0.97406840508E+03  0.25500000920E-02 0.  1.
        2   -1    0    0  501    0  0.00000000000E+00  0.00000000000E+00 -0.22984108605E+04  0.22984108605E+04  0.25500000920E-02 0. -1.
    10030    2    1    2    0    0  0.00000000000E+00  0.00000000000E+00 -0.13243424554E+04  0.32724792656E+04  0.29925303013E+04 0.  0.
        1    1    3    3  502    0  0.14732122253E+04  0.80258308814E+02 -0.38984948130E+03  0.15260335104E+04  0.50400001928E-02 0. -1.
       -1    1    3    3    0  502 -0.14732122253E+04 -0.80258308814E+02 -0.93449297411E+03  0.17464457551E+04  0.50400001928E-02 0.  1.
</event>
<event>
 5   0  0.1054384E-06  0.2981591E+04  0.7818609E-02  0.8249007E-01
        1   -1    0    0  501    0  0.00000000000E+00  0.00000000000E+00  0.18843824107E+04  0.18843824107E+04  0.50400001928E-02 0. -1.
       -1   -1    0    0    0  501  0.00000000000E+00  0.00000000000E+00 -0.11794164544E+04  0.11794164544E+04  0.50400001928E-02 0.  1.
    10030    2    1    2    0    0  0.00000000000E+00  0.00000000000E+00  0.70496595628E+03  0.30637988651E+04  0.29815912674E+04 0.  0.
        2    1    3    3  502    0 -0.34721839199E+03 -0.89315918798E+03  0.15259760339E+04  0.18019147601E+04  0.25500000920E-02 0. -1.
       -2    1    3    3    0  502  0.34721839199E+03  0.89315918798E+03 -0.82101007759E+03  0.12618841049E+04  0.25500000920E-02 0.  1.
</event>
<event>
 5   0  0.1113245E-06  0.3013150E+04  0.7818609E-02  0.8239986E-01
       -1   -1    0    0    0  501  0.00000000000E+00  0.00000000000E+00  0.94988309620E+03  0.94988309621E+03  0.50400001928E-02 0.  1.
        1   -1    0    0  501    0  0.00000000000E+00  0.00000000000E+00 -0.23895241559E+04  0.23895241559E+04  0.50400001928E-02 0. -1.
    10030    2    1    2    0    0  0.00000000000E+00  0.00000000000E+00 -0.14396410597E+04  0.33394072521E+04  0.30131502476E+04 0.  0.
        5    1    3    3  502    0  0.12149860039E+04 -0.58143490024E+03 -0.14677963103E+04  0.19921610456E+04  0.46999998093E+01 0. -1.
       -5    1    3    3    0  502 -0.12149860039E+04  0.58143490024E+03  0.28155250607E+02  0.13472462065E+04  0.46999998093E+01 0.  1.
</event>
<event>
 5   0  0.2948711E-06  0.3006390E+04  0.7818609E-02  0.8241908E-01
       -2   -1    0    0    0  501  0.00000000000E+00  0.00000000000E+00  0.11557534026E+04  0.11557534026E+04  0.25500000920E-02 0.  1.
        2   -1    0    0  501    0  0.00000000000E+00  0.00000000000E+00 -0.19550846283E+04  0.19550846283E+04  0.25500000920E-02 0. -1.
    10030    2    1    2    0    0  0.00000000000E+00  0.00000000000E+00 -0.79933122572E+03  0.31108380309E+04  0.30063903350E+04 0.  0.
        5    1    3    3  502    0 -0.54052483013E+03  0.12031237233E+04  0.34642551106E+03  0.13637105669E+04  0.46999998093E+01 0.  1.
       -5    1    3    3    0  502  0.54052483013E+03 -0.12031237233E+04 -0.11457567368E+04  0.17471274640E+04  0.46999998093E+01 0. -1.
</event>
<event>
 5   0  0.1054384E-06  0.3013300E+04  0.7818609E-02  0.8239943E-01
       -1   -1    0    0    0  501  0.00000000000E+00  0.00000000000E+00  0.11753806585E+04  0.11753806585E+04  0.50400001928E-02 0. -1.
        1   -1    0    0  501    0  0.00000000000E+00  0.00000000000E+00 -0.19312849418E+04  0.19312849418E+04  0.50400001928E-02 0.  1.
    10030    2    1    2    0    0  0.00000000000E+00  0.00000000000E+00 -0.75590428324E+03  0.31066656003E+04  0.30133004939E+04 0.  0.
        2    1    3    3  502    0  0.14300139596E+04  0.44591459639E+03 -0.54487998268E+03  0.15939491671E+04  0.25500000920E-02 0.  1.
       -2    1    3    3    0  502 -0.14300139596E+04 -0.44591459639E+03 -0.21102430056E+03  0.15127164332E+04  0.25500000920E-02 0. -1.
</event>
<event>
 5   0  0.1091076E-06  0.2875607E+04  0.7818609E-02  0.8280172E-01
       -1   -1    0    0    0  501  0.00000000000E+00  0.00000000000E+00  0.14170348034E+04  0.14170348034E+04  0.50400001928E-02 0. -1.
        1   -1    0    0  501    0  0.00000000000E+00  0.00000000000E+00 -0.14588763023E+04  0.14588763023E+04  0.50400001928E-02 0.  1.
    10030    2    1    2    0    0  0.00000000000E+00  0.00000000000E+00 -0.41841498908E+02  0.28759111058E+04  0.28756067146E+04 0.  0.
        3    1    3    3  502    0  0.49038386811E+03 -0.30651558229E+03  0.12955963289E+04  0.14188016062E+04  0.10100000352E+00 0. -1.
       -3    1    3    3    0  502 -0.49038386811E+03  0.30651558229E+03 -0.13374378278E+04  0.14571094995E+04  0.10100000352E+00 0.  1.
</event>
<event>
 5   0  0.1113245E-06  0.2988403E+04  0.7818609E-02  0.8247050E-01
       -1   -1    0    0    0  501  0.00000000000E+00  0.00000000000E+00  0.97997058843E+03  0.97997058844E+03  0.50400001928E-02 0. -1.
        1   -1    0    0  501    0  0.00000000000E+00  0.00000000000E+00 -0.22782699196E+04  0.22782699196E+04  0.50400001928E-02 0.  1.
    10030    2    1    2    0    0  0.00000000000E+00  0.00000000000E+00 -0.12982993312E+04  0.32582405081E+04  0.29884025925E+04 0.  0.
        5    1    3    3  502    0 -0.78089685321E+02 -0.29006140252E+03  0.94670181229E+03  0.99322707755E+03  0.46999998093E+01 0. -1.
       -5    1    3    3    0  502  0.78089685321E+02  0.29006140252E+03 -0.22450011435E+04  0.22650134305E+04  0.46999998093E+01 0.  1.
</event>
<event>
 5   0  0.2862033E-06  0.3027813E+04  0.7818609E-02  0.8235833E-01
        2   -1    0    0  501    0  0.00000000000E+00  0.00000000000E+00  0.17859412847E+04  0.17859412847E+04  0.25500000920E-02 0. -1.
       -2   -1    0    0    0  501  0.00000000000E+00  0.00000000000E+00 -0.12833083489E+04  0.12833083489E+04  0.25500000920E-02 0.  1.
    10030    2    1    2    0    0  0.00000000000E+00  0.00000000000E+00  0.50263293584E+03  0.30692496337E+04  0.30278133109E+04 0.  0.
        2    1    3    3  502    0 -0.90865435362E+01  0.21431103470E+03 -0.12678259094E+04  0.12858438168E+04  0.25500000920E-02 0.  1.
       -2    1    3    3    0  502  0.90865435362E+01 -0.21431103470E+03  0.17704588452E+04  0.17834058168E+04  0.25500000920E-02 0. -1.
</event>
<event>
 5   0  0.3113328E-06  0.2975010E+04  0.7818609E-02  0.8250903E-01
        2   -1    0    0  501    0  0.00000000000E+00  0.00000000000E+00  0.23642016120E+04  0.23642016120E+04  0.25500000920E-02 0.  1.
       -2   -1    0    0    0  501  0.00000000000E+00  0.00000000000E+00 -0.93590618749E+03  0.93590618750E+03  0.25500000920E-02 0. -1.
    10030    2    1    2    0    0  0.00000000000E+00  0.00000000000E+00  0.14282954245E+04  0.33001077994E+04  0.29750098602E+04 0.  0.
        1    1    3    3  502    0 -0.41402464870E+03  0.12141945580E+04 -0.12112042820E+03  0.12885476291E+04  0.50400001928E-02 0. -1.
       -1    1    3    3    0  502  0.41402464870E+03 -0.12141945580E+04  0.15494158527E+04  0.20115601703E+04  0.50400001928E-02 0.  1.
</event>
<event>
 5   0  0.1091076E-06  0.2997900E+04  0.7818609E-02  0.8244331E-01
       -1   -1    0    0    0  501  0.00000000000E+00  0.00000000000E+00  0.17213077352E+04  0.17213077352E+04  0.50400001928E-02 0. -1.
        1   -1    0    0  501    0  0.00000000000E+00  0.00000000000E+00 -0.13053162856E+04  0.13053162856E+04  0.50400001928E-02 0.  1.
    10030    2    1    2    0    0  0.00000000000E+00  0.00000000000E+00  0.41599144955E+03  0.30266240208E+04  0.29978999445E+04 0.  0.
        3    1    3    3  502    0  0.59214027899E+03 -0.15123788469E+03  0.15898128512E+04  0.17032345464E+04  0.10100000352E+00 0. -1.
       -3    1    3    3    0  502 -0.59214027899E+03  0.15123788469E+03 -0.11738214017E+04  0.13233894744E+04  0.10100000352E+00 0.  1.
</event>
<event>
 5   0  0.3113328E-06  0.2980344E+04  0.7818609E-02  0.8249366E-01
       -2   -1    0    0    0  501  0.00000000000E+00  0.00000000000E+00  0.11126924765E+04  0.11126924765E+04  0.25500000920E-02 0. -1.
        2   -1    0    0  501    0  0.00000000000E+00  0.00000000000E+00 -0.19957105206E+04  0.19957105206E+04  0.25500000920E-02 0.  1.
    10030    2    1    2    0    0  0.00000000000E+00  0.00000000000E+00 -0.88301804414E+03  0.31084029972E+04  0.29803436591E+04 0.  0.
        1    1    3    3  502    0  0.12315174521E+03 -0.79352354985E+03  0.86772370070E+03  0.11822818603E+04  0.50400001928E-02 0. -1.
       -1    1    3    3    0  502 -0.12315174521E+03  0.79352354985E+03 -0.17507417448E+04  0.19261211368E+04  0.50400001928E-02 0.  1.
</event>
<event>
 5   0  0.3113328E-06  0.2999822E+04  0.7818609E-02  0.8243782E-01
        2   -1    0    0  501    0  0.00000000000E+00  0.00000000000E+00  0.21143010573E+04  0.21143010573E+04  0.25500000920E-02 0. -1.
       -2   -1    0    0    0  501  0.00000000000E+00  0.00000000000E+00 -0.10640551621E+04  0.10640551621E+04  0.25500000920E-02 0.  1.
    10030    2    1    2    0    0  0.00000000000E+00  0.00000000000E+00  0.10502458952E+04  0.31783562194E+04  0.29998219642E+04 0.  0.
        1    1    3    3  502    0  0.10241032112E+04 -0.10848527200E+04  0.68939951215E+03  0.16434611339E+04  0.50400001928E-02 0.  1.
       -1    1    3    3    0  502 -0.10241032112E+04  0.10848527200E+04  0.36084638300E+03  0.15348950855E+04  0.50400001928E-02 0. -1.
</event>
<event>
 5   0  0.2948711E-06  0.2996018E+04  0.7818609E-02  0.8244869E-01
       -2   -1    0    0    0  501  0.00000000000E+00  0.00000000000E+00  0.16040632045E+04  0.16040632045E+04  0.25500000920E-02 0. -1.
        2   -1    0    0  501    0  0.00000000000E+00  0.00000000000E+00 -0.13989670803E+04  0.13989670803E+04  0.25500000920E-02 0.  1.
    10030    2    1    2    0    0  0.00000000000E+00  0.00000000000E+00  0.20509612426E+03  0.30030302848E+04  0.29960184364E+04 0.  0.
        5    1    3    3  502    0 -0.31020174411E+03  0.31394113286E+03 -0.13323138003E+04  0.14035192586E+04  0.46999998093E+01 0.  1.
       -5    1    3    3    0  502  0.31020174411E+03 -0.31394113286E+03  0.15374099245E+04  0.15995110262E+04  0.46999998093E+01 0. -1.
</event>
<event>
 5   0  0.2985941E-06  0.3044026E+04  0.7818609E-02  0.8231269E-01
       -2   -1    0    0    0  501  0.00000000000E+00  0.00000000000E+00  0.12464770603E+04  0.12464770603E+04  0.25500000920E-02 0.  1.
        2   -1    0    0  501    0  0.00000000000E+00  0.00000000000E+00 -0.18584570939E+04  0.18584570939E+04  0.25500000920E-02 0. -1.
    10030    2    1    2    0    0  0.00000000000E+00  0.00000000000E+00 -0.61198003364E+03  0.31049341542E+04  0.30440263698E+04 0.  0.
        3    1    3    3  502    0 -0.44705165849E+03 -0.89752647996E+03 -0.14739404265E+04  0.17826691669E+04  0.10100000352E+00 0. -1.
       -3    1    3    3    0  502  0.44705165849E+03  0.89752647996E+03  0.86196039283E+03  0.13222649873E+04  0.10100000352E+00 0.  1.
</event>
<event>
 5   0  0.1091075E-06  0.3018332E+04  0.7818609E-02  0.8238515E-01
       -1   -1    0    0    0  501  0.00000000000E+00  0.00000000000E+00  0.11034608311E+04  0.11034608312E+04  0.50400001928E-02 0. -1.
        1   -1    0    0  501    0  0.00000000000E+00  0.00000000000E+00 -0.20640354011E+04  0.20640354011E+04  0.50400001928E-02 0.  1.
    10030    2    1    2    0    0  0.00000000000E+00  0.00000000000E+00 -0.96057456999E+03  0.31674962323E+04  0.30183321350E+04 0.  0.
        1    1    3    3  502    0 -0.49362489976E+03 -0.23458037443E+03 -0.19565367953E+04  0.20314353854E+04  0.50400001928E-02 0.  1.
       -1    1    3    3    0  502  0.49362489976E+03  0.23458037443E+03  0.99596222527E+03  0.11360608469E+04  0.50400001928E-02 0. -1.
</event>
<event>
 5   0  0.1091075E-06  0.3008201E+04  0.7818609E-02  0.8241393E-01
       -1   -1    0    0    0  501  0.00000000000E+00  0.00000000000E+00  0.12547618930E+04  0.12547618930E+04  0.50400001928E-02 0.  1.
        1   -1    0    0  501    0  0.00000000000E+00  0.00000000000E+00 -0.18029861391E+04  0.18029861391E+04  0.50400001928E-02 0. -1.
    10030    2    1    2    0    0  0.00000000000E+00  0.00000000000E+00 -0.54822424618E+03  0.30577480321E+04  0.30082009913E+04 0.  0.
        1    1    3    3  502    0  0.27335780927E+03  0.12705744831E+04 -0.10437048004E+04  0.16668544386E+04  0.50400001928E-02 0.  1.
       -1    1    3    3    0  502 -0.27335780927E+03 -0.12705744831E+04  0.49548055425E+03  0.13908935935E+04  0.50400001928E-02 0. -1.
</event>
<event>
 5   0  0.1091075E-06  0.3067570E+04  0.7818609E-02  0.8224695E-01
        1   -1    0    0  501    0  0.00000000000E+00  0.00000000000E+00  0.19554789589E+04  0.19554789589E+04  0.50400001928E-02 0. -1.
       -1   -1    0    0    0  501  0.00000000000E+00  0.00000000000E+00 -0.12030279547E+04  0.12030279548E+04  0.50400001928E-02 0.  1.
    10030    2    1    2    0    0  0.00000000000E+00  0.00000000000E+00  0.75245100410E+03  0.31585069136E+04  0.30675696259E+04 0.  0.
        1    1    3    3  502    0  0.39313837542E+03  0.13252081663E+04  0.10605802410E+04  0.17422872651E+04  0.50400001928E-02 0. -1.
       -1    1    3    3    0  502 -0.39313837542E+03 -0.13252081663E+04 -0.30812923694E+03  0.14162196486E+04  0.50400001928E-02 0.  1.
</event>
<event>
 5   0  0.2948711E-06  0.3002313E+04  0.7818609E-02  0.8243071E-01
        2   -1    0    0  501    0  0.00000000000E+00  0.00000000000E+00  0.19676081964E+04  0.19676081964E+04  0.25500000920E-02 0.  1.
       -2   -1    0    0    0  501  0.00000000000E+00  0.00000000000E+00 -0.11452846605E+04  0.11452846605E+04  0.25500000920E-02 0. -1.
    10030    2    1    2    0    0  0.00000000000E+00  0.00000000000E+00  0.82232353587E+03  0.31128928569E+04  0.30023134315E+04 0.  0.
        5    1    3    3  502    0 -0.88471045564E+03 -0.10742537435E+04 -0.17234102553E+03  0.14023042519E+04  0.46999998093E+01 0. -1.
       -5    1    3    3    0  502  0.88471045564E+03  0.10742537435E+04  0.99466456140E+03  0.17105886050E+04  0.46999998093E+01 0.  1.
</event>
<event>
 5   0  0.3113328E-06  0.2997385E+04  0.7818609E-02  0.8244478E-01
       -2   -1    0    0    0  501  0.00000000000E+00  0.00000000000E+00  0.86970343173E+03  0.86970343174E+03  0.25500000920E-02 0.  1.
        2   -1    0    0  501    0  0.00000000000E+00  0.00000000000E+00 -0.25825805781E+04  0.25825805781E+04  0.25500000920E-02 0. -1.
    10030    2    1    2    0    0  0.00000000000E+00  0.00000000000E+00 -0.17128771463E+04  0.34522840098E+04  0.29973849879E+04 0.  0.
        1    1    3    3  502    0  0.62327942929E+03  0.50535024646E+03  0.60145385243E+03  0.10027975146E+04  0.50400001928E-02 0.  1.
       -1    1    3    3    0  502 -0.62327942929E+03 -0.50535024646E+03 -0.23143309988E+04  0.24494864952E+04  0.50400001928E-02 0. -1.
</event>
<event>
 5   0  0.1113245E-06  0.2995390E+04  0.7818609E-02  0.8245049E-01
        1   -1    0    0  501    0  0.00000000000E+00  0.00000000000E+00  0.12330679835E+04  0.12330679835E+04  0.50400001928E-02 0. -1.
       -1   -1    0    0    0  501  0.00000000000E+00  0.00000000000E+00 -0.18191129405E+04  0.18191129405E+04  0.50400001928E-02 0.  1.
    10030    2    1    2    0    0  0.00000000000E+00  0.00000000000E+00 -0.58604495698E+03  0.30521809240E+04  0.29953897411E+04 0.  0.
        5    1    3    3  502    0 -0.47259475722E+03  0.13490491208E+04  0.16242906625E+03  0.14386398529E+04  0.46999998093E+01 0.  1.
       -5    1    3    3    0  502  0.47259475722E+03 -0.13490491208E+04 -0.74847402322E+03  0.16135410711E+04  0.46999998093E+01 0. -1.
</event>
<event>
 5   0  0.1113245E-06  0.3005169E+04  0.7818609E-02  0.8242256E-01
        1   -1    0    0  501    0  0.00000000000E+00  0.00000000000E+00  0.17676232606E+04  0.17676232606E+04  0.50400001928E-02 0.  1.
       -1   -1    0    0    0  501  0.00000000000E+00  0.00000000000E+00 -0.12772859092E+04  0.12772859092E+04  0.50400001928E-02 0. -1.
    10030    2    1    2    0    0  0.00000000000E+00  0.00000000000E+00  0.49033735144E+03  0.30449091698E+04  0.30051690691E+04 0.  0.
        5    1    3    3  502    0  0.14121478644E+04  0.22766642417E+03 -0.22107355245E+03  0.14473732059E+04  0.46999998093E+01 0. -1.
       -5    1    3    3    0  502 -0.14121478644E+04 -0.22766642417E+03  0.71141090389E+03  0.15975359639E+04  0.46999998093E+01 0.  1.
</event>
<event>
 5   0  0.3113328E-06  0.2995701E+04  0.7818609E-02  0.8244960E-01
        2   -1    0    0  501    0  0.00000000000E+00  0.00000000000E+00  0.10436533136E+04  0.10436533136E+04  0.25500000920E-02 0. -1.
       -2   -1    0    0    0  501  0.00000000000E+00  0.00000000000E+00 -0.21497133610E+04  0.21497133610E+04  0.25500000920E-02 0.  1.
    10030    2    1    2    0    0  0.00000000000E+00  0.00000000000E+00 -0.11060600474E+04  0.31933666746E+04  0.29957005674E+04 0.  0.
        1    1    3    3  502    0  0.12038277163E+04  0.84835080541E+03 -0.26177028444E+03  0.14958021063E+04  0.50400001928E-02 0.  1.
       -1    1    3    3    0  502 -0.12038277163E+04 -0.84835080541E+03 -0.84428976296E+03  0.16975645682E+04  0.50400001928E-02 0. -1.
</event>
<event>
 5   0  0.1091076E-06  0.2993141E+04  0.7818609E-02  0.8245692E-01
        1   -1    0    0  501    0  0.00000000000E+00  0.00000000000E+00  0.12883500483E+04  0.12883500483E+04  0.50400001928E-02 0.  1.
       -1   -1    0    0    0  501  0.00000000000E+00  0.00000000000E+00 -0.17384429670E+04  0.17384429670E+04  0.50400001928E-02 0. -1.
    10030    2    1    2    0    0  0.00000000000E+00  0.00000000000E+00 -0.45009291872E+03  0.30267930153E+04  0.29931408791E+04 0.  0.
        3    1    3    3  502    0 -0.11952650513E+03  0.14885072522E+04 -0.12502718195E+03  0.14985233504E+04  0.10100000352E+00 0.  1.
       -3    1    3    3    0  502  0.11952650513E+03 -0.14885072522E+04 -0.32506573677E+03  0.15282696649E+04  0.10100000352E+00 0. -1.
</event>
<event>
 5   0  0.1054384E-06  0.3006254E+04  0.7818609E-02  0.8241947E-01
        1   -1    0    0  501    0  0.00000000000E+00  0.00000000000E+00  0.13876915920E+04  0.13876915920E+04  0.50400001928E-02 0. -1.
       -1   -1    0    0    0  501  0.00000000000E+00  0.00000000000E+00 -0.16281649004E+04  0.16281649004E+04  0.50400001928E-02 0.  1.
    10030    2    1    2    0    0  0.00000000000E+00  0.00000000000E+00 -0.24047330840E+03  0.30158564924E+04  0.30062539765E+04 0.  0.
        2    1    3    3  502    0  0.48793483390E+02  0.12062548694E+04  0.77814551078E+03  0.14362945554E+04  0.25500000920E-02 0. -1.
       -2    1    3    3    0  502 -0.48793483390E+02 -0.12062548694E+04 -0.10186188192E+04  0.15795619370E+04  0.25500000920E-02 0.  1.
</event>
<event>
 5   0  0.1097402E-06  0.2987162E+04  0.7818609E-02  0.8247406E-01
        1   -1    0    0  501    0  0.00000000000E+00  0.00000000000E+00  0.12918591533E+04  0.12918591533E+04  0.50400001928E-02 0.  1.
       -1   -1    0    0    0  501  0.00000000000E+00  0.00000000000E+00 -0.17268012339E+04  0.17268012339E+04  0.50400001928E-02 0. -1.
    10030    2    1    2    0    0  0.00000000000E+00  0.00000000000E+00 -0.43494208057E+03  0.30186603872E+04  0.29871618503E+04 0.  0.
        4    1    3    3  502    0 -0.12392987930E+04  0.35438562418E+03 -0.97996811811E+03  0.16191941806E+04  0.12699999809E+01 0. -1.
       -4    1    3    3    0  502  0.12392987930E+04 -0.35438562418E+03  0.54502603754E+03  0.13994662067E+04  0.12699999809E+01 0.  1.
</event>
<event>
 5   0  0.1097402E-06  0.3006222E+04  0.7818609E-02  0.8241956E-01
       -1   -1    0    0    0  501  0.00000000000E+00  0.00000000000E+00  0.14475395287E+04  0.14475395287E+04  0.50400001928E-02 0.  1.
        1   -1    0    0  501    0  0.00000000000E+00  0.00000000000E+00 -0.15608158328E+04  0.15608158328E+04  0.50400001928E-02 0. -1.
    10030    2    1    2    0    0  0.00000000000E+00  0.00000000000E+00 -0.11327630411E+03  0.30083553616E+04  0.30062219580E+04 0.  0.
        4    1    3    3  502    0 -0.12126058950E+04 -0.81178594463E+03 -0.41735411535E+03  0.15177600427E+04  0.12699999809E+01 0.  1.
       -4    1    3    3    0  502  0.12126058950E+04  0.81178594463E+03  0.30407781124E+03  0.14905953189E+04  0.12699999809E+01 0. -1.
</event>
<event>
 5   0  0.1091075E-06  0.2983995E+04  0.7818609E-02  0.8248316E-01
        1   -1    0    0  501    0  0.00000000000E+00  0.00000000000E+00  0.12368499119E+04  0.12368499119E+04  0.50400001928E-02 0. -1.
       -1   -1    0    0    0  501  0.00000000000E+00  0.00000000000E+00 -0.17997785333E+04  0.17997785333E+04  0.50400001928E-02 0.  1.
    10030    2    1    2    0    0  0.00000000000E+00  0.00000000000E+00 -0.56292862134E+03  0.30366284452E+04  0.29839945847E+04 0.  0.
        1    1    3    3  502    0 -0.33864410502E+03  0.46227011872E+03 -0.16833267295E+04  0.17781907577E+04  0.50400001928E-02 0.  1.
       -1    1    3    3    0  502  0.33864410502E+03 -0.46227011872E+03  0.11203981082E+04  0.12584376875E+04  0.50400001928E-02 0. -1.
</event>
<event>
 5   0  0.1091076E-06  0.2902266E+04  0.7818609E-02  0.8272204E-01
       -1   -1    0    0    0  501  0.00000000000E+00  0.00000000000E+00  0.13233575029E+04  0.13233575029E+04  0.50400001928E-02 0. -1.
        1   -1    0    0  501    0  0.00000000000E+00  0.00000000000E+00 -0.15912453115E+04  0.15912453115E+04  0.50400001928E-02 0.  1.
    10030    2    1    2    0    0  0.00000000000E+00  0.00000000000E+00 -0.26788780860E+03  0.29146028145E+04  0.29022656129E+04 0.  0.
        3    1    3    3  502    0  0.55742374521E+03  0.17217019434E+03  0.12003962800E+04  0.13346591501E+04  0.10100000352E+00 0. -1.
       -3    1    3    3    0  502 -0.55742374521E+03 -0.17217019434E+03 -0.14682840886E+04  0.15799436644E+04  0.10100000352E+00 0.  1.
</event>
<event>
 5   0  0.1097402E-06  0.3036360E+04  0.7818609E-02  0.8233424E-01
        1   -1    0    0  501    0  0.00000000000E+00  0.00000000000E+00  0.18724029053E+04  0.18724029054E+04  0.50400001928E-02 0. -1.
       -1   -1    0    0    0  501  0.00000000000E+00  0.00000000000E+00 -0.12309694903E+04  0.12309694903E+04  0.50400001928E-02 0.  1.
    10030    2    1    2    0    0  0.00000000000E+00  0.00000000000E+00  0.64143341509E+03  0.31033723956E+04  0.30363602224E+04 0.  0.
        4    1    3    3  502    0  0.33315979096E+03  0.12597257046E+04  0.11169904635E+04  0.17162673468E+04  0.12699999809E+01 0.  1.
       -4    1    3    3    0  502 -0.33315979096E+03 -0.12597257046E+04 -0.47555704844E+03  0.13871050488E+04  0.12699999809E+01 0. -1.
</event>
<event>
 5   0  0.2948711E-06  0.2995085E+04  0.7818609E-02  0.8245136E-01
       -2   -1    0    0    0  501  0.00000000000E+00  0.00000000000E+00  0.12387210978E+04  0.12387210978E+04  0.25500000920E-02 0. -1.
        2   -1    0    0  501    0  0.00000000000E+00  0.00000000000E+00 -0.18104427644E+04  0.18104427644E+04  0.25500000920E-02 0.  1.
    10030    2    1    2    0    0  0.00000000000E+00  0.00000000000E+00 -0.57172166652E+03  0.30491638622E+04  0.29950850730E+04 0.  0.
        5    1    3    3  502    0 -0.10174059923E+04  0.73144529646E+03  0.54899733990E+03  0.13680450811E+04  0.46999998093E+01 0. -1.
       -5    1    3    3    0  502  0.10174059923E+04 -0.73144529646E+03 -0.11207190064E+04  0.16811187811E+04  0.46999998093E+01 0.  1.
</event>
<event>
 5   0  0.1054384E-06  0.3013470E+04  0.7818609E-02  0.8239895E-01
        1   -1    0    0  501    0  0.00000000000E+00  0.00000000000E+00  0.24826368360E+04  0.24826368360E+04  0.50400001928E-02 0. -1.
       -1   -1    0    0    0  501  0.00000000000E+00  0.00000000000E+00 -0.91445144703E+03  0.91445144705E+03  0.50400001928E-02 0.  1.
    10030    2    1    2    0    0  0.00000000000E+00  0.00000000000E+00  0.15681853890E+04  0.33970882831E+04  0.30134703232E+04 0.  0.
        2    1    3    3  502    0  0.69070660397E+03 -0.11841603312E+04  0.14889394676E+04  0.20239199690E+04  0.25500000920E-02 0. -1.
       -2    1    3    3    0  502 -0.69070660397E+03  0.11841603312E+04  0.79245921334E+02  0.13731683140E+04  0.25500000920E-02 0.  1.
</event>
<event>
 5   0  0.1091076E-06  0.3003795E+04  0.7818609E-02  0.8242648E-01
        1   -1    0    0  501    0  0.00000000000E+00  0.00000000000E+00  0.25268642062E+04  0.25268642062E+04  0.50400001928E-02 0.  1.
       -1   -1    0    0    0  501  0.00000000000E+00  0.00000000000E+00 -0.89268572078E+03  0.89268572079E+03  0.50400001928E-02 0. -1.
    10030    2    1    2    0    0  0.00000000000E+00  0.00000000000E+00  0.16341784855E+04  0.34195499270E+04  0.30037946636E+04 0.  0.
        3    1    3    3  502    0 -0.58068380426E+03 -0.85640395898E+02 -0.75670552749E+03  0.95766968391E+03  0.10100000352E+00 0. -1.
       -3    1    3    3    0  502  0.58068380426E+03  0.85640395898E+02  0.23908840130E+04  0.24618802431E+04  0.10100000352E+00 0.  1.
</event>
<event>
 5   0  0.1054384E-06  0.2994211E+04  0.7818609E-02  0.8245386E-01
        1   -1    0    0  501    0  0.00000000000E+00  0.00000000000E+00  0.22860706237E+04  0.22860706237E+04  0.50400001928E-02 0. -1.
       -1   -1    0    0    0  501  0.00000000000E+00  0.00000000000E+00 -0.98042657360E+03  0.98042657361E+03  0.50400001928E-02 0.  1.
    10030    2    1    2    0    0  0.00000000000E+00  0.00000000000E+00  0.13056440501E+04  0.32664971973E+04  0.29942106731E+04 0.  0.
        2    1    3    3  502    0  0.64553719089E+02  0.23891597937E+03  0.22636003934E+04  0.22770890999E+04  0.25500000920E-02 0. -1.
       -2    1    3    3    0  502 -0.64553719089E+02 -0.23891597937E+03 -0.95795634323E+03  0.98940809749E+03  0.25500000920E-02 0.  1.
</event>
<event>
 5   0  0.3113328E-06  0.2936242E+04  0.7818609E-02  0.8262175E-01
       -2   -1    0    0    0  501  0.00000000000E+00  0.00000000000E+00  0.80698009422E+03  0.80698009422E+03  0.25500000920E-02 0.  1.
        2   -1    0    0  501    0  0.00000000000E+00  0.00000000000E+00 -0.26709209057E+04  0.26709209057E+04  0.25500000920E-02 0. -1.
    10030    2    1    2    0    0  0.00000000000E+00  0.00000000000E+00 -0.18639408115E+04  0.34779009999E+04  0.29362424996E+04 0.  0.
        1    1    3    3  502    0  0.67001935362E+03  0.24673398176E+03 -0.24514130876E+04  0.25532782297E+04  0.50400001928E-02 0. -1.
       -1    1    3    3    0  502 -0.67001935362E+03 -0.24673398176E+03  0.58747227615E+03  0.92462277024E+03  0.50400001928E-02 0.  1.
</event>
<event>
 5   0  0.1091075E-06  0.3001427E+04  0.7818609E-02  0.8243324E-01
       -1   -1    0    0    0  501  0.00000000000E+00  0.00000000000E+00  0.13815242813E+04  0.13815242813E+04  0.50400001928E-02 0. -1.
        1   -1    0    0  501    0  0.00000000000E+00  0.00000000000E+00 -0.16301856208E+04  0.16301856208E+04  0.50400001928E-02 0.  1.
    10030    2    1    2    0    0  0.00000000000E+00  0.00000000000E+00 -0.24866133950E+03  0.30117099021E+04  0.30014270060E+04 0.  0.
        1    1    3    3  502    0  0.19207839649E+03  0.12466112493E+04  0.69160171543E+03  0.14384876260E+04  0.50400001928E-02 0. -1.
       -1    1    3    3    0  502 -0.19207839649E+03 -0.12466112493E+04 -0.94026305493E+03  0.15732222761E+04  0.50400001928E-02 0.  1.
</event>
<event>
 5   0  0.2862033E-06  0.3167134E+04  0.7818609E-02  0.8197551E-01
       -2   -1    0    0    0  501  0.00000000000E+00  0.00000000000E+00  0.18567627432E+04  0.18567627432E+04  0.25500000920E-02 0.  1.
        2   -1    0    0  501    0  0.00000000000E+00  0.00000000000E+00 -0.13505677079E+04  0.13505677079E+04  0.25500000920E-02 0. -1.
    10030    2    1    2    0    0  0.00000000000E+00  0.00000000000E+00  0.50619503530E+03  0.32073304512E+04  0.31671335951E+04 0.  0.
        2    1    3    3  502    0 -0.10223180456E+04  0.39513074899E+03  0.14105920601E+04  0.17863461185E+04  0.25500000920E-02 0.  1.
       -2    1    3    3    0  502  0.10223180456E+04 -0.39513074899E+03 -0.90439702478E+03  0.14209843326E+04  0.25500000920E-02 0. -1.
</event>
<event>
 5   0  0.9749500E-07  0.2996048E+04  0.7818609E-02  0.8244860E-01
        3   -1    0    0  501    0  0.00000000000E+00  0.00000000000E+00  0.14365035338E+04  0.14365035373E+04  0.10100000352E+00 0. -1.
       -3   -1    0    0    0  501  0.00000000000E+00  0.00000000000E+00 -0.15621793767E+04  0.15621793800E+04  0.10100000352E+00 0.  1.
    10030    2    1    2    0    0  0.00000000000E+00  0.00000000000E+00 -0.12567584293E+03  0.29986829173E+04  0.29960482007E+04 0.  0.
        1    1    3    3  502    0  0.10029082409E+04 -0.56920589165E+01  0.10508934627E+04  0.14526645894E+04  0.50400001928E-02 0. -1.
       -1    1    3    3    0  502 -0.10029082409E+04  0.56920589165E+01 -0.11765693057E+04  0.15460183279E+04  0.50400001928E-02 0.  1.
</event>
<event>
 5   0  0.1091075E-06  0.2981539E+04  0.7818609E-02  0.8249022E-01
       -1   -1    0    0    0  501  0.00000000000E+00  0.00000000000E+00  0.12112793656E+04  0.12112793656E+04  0.50400001928E-02 0.  1.
        1   -1    0    0  501    0  0.00000000000E+00  0.00000000000E+00 -0.18347486984E+04  0.18347486984E+04  0.50400001928E-02 0. -1.
    10030    2    1    2    0    0  0.00000000000E+00  0.00000000000E+00 -0.62346933283E+03  0.30460280640E+04  0.29815386896E+04 0.  0.
        1    1    3    3  502    0 -0.13643297760E+04 -0.21810124386E+03  0.26022220442E+03  0.14059443395E+04  0.50400001928E-02 0.  1.
       -1    1    3    3    0  502  0.13643297760E+04  0.21810124386E+03 -0.88369153724E+03  0.16400837244E+04  0.50400001928E-02 0. -1.
</event>
<event>
 5   0  0.1091076E-06  0.3001953E+04  0.7818609E-02  0.8243173E-01
        1   -1    0    0  501    0  0.00000000000E+00  0.00000000000E+00  0.15976631320E+04  0.15976631320E+04  0.50400001928E-02 0. -1.
       -1   -1    0    0    0  501  0.00000000000E+00  0.00000000000E+00 -0.14101415657E+04  0.14101415657E+04  0.50400001928E-02 0.  1.
    10030    2    1    2    0    0  0.00000000000E+00  0.00000000000E+00  0.18752156631E+03  0.30078046977E+04  0.30019534909E+04 0.  0.
        3    1    3    3  502    0  0.10878659969E+04  0.71805841281E+03  0.83943638896E+03  0.15503914901E+04  0.10100000352E+00 0. -1.
       -3    1    3    3    0  502 -0.10878659969E+04 -0.71805841281E+03 -0.65191482265E+03  0.14574132076E+04  0.10100000352E+00 0.  1.
</event>
<event>
 5   0  0.2985941E-06  0.2996588E+04  0.7818609E-02  0.8244706E-01
       -2   -1    0    0    0  501  0.00000000000E+00  0.00000000000E+00  0.13111485486E+04  0.13111485487E+04  0.25500000920E-02 0.  1.
        2   -1    0    0  501    0  0.00000000000E+00  0.00000000000E+00 -0.17121509728E+04  0.17121509728E+04  0.25500000920E-02 0. -1.
    10030    2    1    2    0    0  0.00000000000E+00  0.00000000000E+00 -0.40100242412E+03  0.30232995214E+04  0.29965875679E+04 0.  0.
        3    1    3    3  502    0 -0.23229036897E+03  0.32240569496E+02 -0.16935189031E+04  0.17096796645E+04  0.10100000352E+00 0. -1.
       -3    1    3    3    0  502  0.23229036897E+03 -0.32240569496E+02  0.12925164790E+04  0.13136198569E+04  0.10100000352E+00 0.  1.
</event>
<event>
 5   0  0.2970915E-06  0.2996618E+04  0.7818609E-02  0.8244697E-01
        2   -1    0    0  501    0  0.00000000000E+00  0.00000000000E+00  0.16351899118E+04  0.16351899118E+04  0.25500000920E-02 0. -1.
       -2   -1    0    0    0  501  0.00000000000E+00  0.00000000000E+00 -0.13728866585E+04  0.13728866585E+04  0.25500000920E-02 0.  1.
    10030    2    1    2    0    0  0.00000000000E+00  0.00000000000E+00  0.26230325332E+03  0.30080765703E+04  0.29966183701E+04 0.  0.
        4    1    3    3  502    0 -0.68858121329E+03  0.12011276415E+04  0.70612192412E+03  0.15541754995E+04  0.12699999809E+01 0. -1.
       -4    1    3    3    0  502  0.68858121329E+03 -0.12011276415E+04 -0.44381867079E+03  0.14539010709E+04  0.12699999809E+01 0.  1.
</event>
<event>
 5   0  0.1091075E-06  0.2999346E+04  0.7818609E-02  0.8243918E-01
        1   -1    0    0  501    0  0.00000000000E+00  0.00000000000E+00  0.15784061308E+04  0.15784061308E+04  0.50400001928E-02 0.  1.
       -1   -1    0    0    0  501  0.00000000000E+00  0.00000000000E+00 -0.14248670779E+04  0.14248670779E+04  0.50400001928E-02 0. -1.
    10030    2    1    2    0    0  0.00000000000E+00  0.00000000000E+00  0.15353905286E+03  0.30032732088E+04  0.29993458830E+04 0.  0.
        1    1    3    3  502    0  0.11642606348E+04  0.13163615008E+03 -0.86050529071E+03  0.14537194561E+04  0.50400001928E-02 0. -1.
       -1    1    3    3    0  502 -0.11642606348E+04 -0.13163615008E+03  0.10140443436E+04  0.15495537527E+04  0.50400001928E-02 0.  1.
</event>
<event>
 5   0  0.1113245E-06  0.2963971E+04  0.7818609E-02  0.8254095E-01
        1   -1    0    0  501    0  0.00000000000E+00  0.00000000000E+00  0.12203866306E+04  0.12203866306E+04  0.50400001928E-02 0. -1.
       -1   -1    0    0    0  501  0.00000000000E+00  0.00000000000E+00 -0.17996601475E+04  0.17996601475E+04  0.50400001928E-02 0.  1.
    10030    2    1    2    0    0  0.00000000000E+00  0.00000000000E+00 -0.57927351693E+03  0.30200467781E+04  0.29639711089E+04 0.  0.
        5    1    3    3  502    0 -0.10102510246E+04 -0.68595370432E+03  0.56596379961E+03  0.13459111151E+04  0.46999998093E+01 0. -1.
       -5    1    3    3    0  502  0.10102510246E+04  0.68595370432E+03 -0.11452373165E+04  0.16741356631E+04  0.46999998093E+01 0.  1.
</event>
<event>
 5   0  0.2985941E-06  0.2681764E+04  0.7818609E-02  0.8340946E-01
       -2   -1    0    0    0  501  0.00000000000E+00  0.00000000000E+00  0.29088311005E+04  0.29088311005E+04  0.25500000920E-02 0. -1.
        2   -1    0    0  501    0  0.00000000000E+00  0.00000000000E+00 -0.61810538460E+03  0.61810538461E+03  0.25500000920E-02 0.  1.
    10030    2    1    2    0    0  0.00000000000E+00  0.00000000000E+00  0.22907257159E+04  0.35269364851E+04  0.26817637227E+04 0.  0.
        3    1    3    3  502    0  0.90735536702E+03  0.56285231610E+03  0.22120729336E+04  0.24562905296E+04  0.10100000352E+00 0. -1.
       -3    1    3    3    0  502 -0.90735536702E+03 -0.56285231610E+03  0.78652782313E+02  0.10706459556E+04  0.10100000352E+00 0.  1.
</event>
<event>
 5   0  0.1097402E-06  0.3002284E+04  0.7818609E-02  0.8243079E-01
        1   -1    0    0  501    0  0.00000000000E+00  0.00000000000E+00  0.22273389092E+04  0.22273389093E+04  0.50400001928E-02 0.  1.
       -1   -1    0    0    0  501  0.00000000000E+00  0.00000000000E+00 -0.10117130948E+04  0.10117130948E+04  0.50400001928E-02 0. -1.
    10030    2    1    2    0    0  0.00000000000E+00  0.00000000000E+00  0.12156258144E+04  0.32390520041E+04  0.30022844243E+04 0.  0.
        4    1    3    3  502    0 -0.13818142812E+04  0.42428744356E+03  0.17091251782E+03  0.14555559914E+04  0.12699999809E+01 0. -1.
       -4    1    3    3    0  502  0.13818142812E+04 -0.42428744356E+03  0.10447132966E+04  0.17834960127E+04  0.12699999809E+01 0.  1.
</event>
<event>
 5   0  0.2985941E-06  0.3023229E+04  0.7818609E-02  0.8237129E-01
       -2   -1    0    0    0  501  0.00000000000E+00  0.00000000000E+00  0.11408366897E+04  0.11408366897E+04  0.25500000920E-02 0. -1.
        2   -1    0    0  501    0  0.00000000000E+00  0.00000000000E+00 -0.20028968028E+04  0.20028968028E+04  0.25500000920E-02 0.  1.
    10030    2    1    2    0    0  0.00000000000E+00  0.00000000000E+00 -0.86206011308E+03  0.31437334925E+04  0.30232288424E+04 0.  0.
        3    1    3    3  502    0 -0.51260652234E+03  0.74078781054E+01 -0.19097373804E+04  0.19773510552E+04  0.10100000352E+00 0.  1.
       -3    1    3    3    0  502  0.51260652234E+03 -0.74078781054E+01  0.10476772673E+04  0.11663824373E+04  0.10100000352E+00 0. -1.
</event>
<event>
 5   0  0.9749500E-07  0.3012709E+04  0.7818609E-02  0.8240111E-01
       -3   -1    0    0    0  501  0.00000000000E+00  0.00000000000E+00  0.12630697668E+04  0.12630697709E+04  0.10100000352E+00 0. -1.
        3   -1    0    0  501    0  0.00000000000E+00  0.00000000000E+00 -0.17964989708E+04  0.17964989736E+04  0.10100000352E+00 0.  1.
    10030    2    1    2    0    0  0.00000000000E+00  0.00000000000E+00 -0.53342920392E+03  0.30595687445E+04  0.30127087789E+04 0.  0.
        4    1    3    3  502    0 -0.29675319245E+03 -0.92803832975E+03 -0.14334021087E+04  0.17331938197E+04  0.12699999809E+01 0.  1.
       -4    1    3    3    0  502  0.29675319245E+03  0.92803832975E+03  0.89997290477E+03  0.13263749247E+04  0.12699999809E+01 0. -1.
</event>
<event>
 5   0  0.1054384E-06  0.2990282E+04  0.7818609E-02  0.8246511E-01
        1   -1    0    0  501    0  0.00000000000E+00  0.00000000000E+00  0.21110627450E+04  0.21110627450E+04  0.50400001928E-02 0.  1.
       -1   -1    0    0    0  501  0.00000000000E+00  0.00000000000E+00 -0.10589200261E+04  0.10589200261E+04  0.50400001928E-02 0. -1.
    10030    2    1    2    0    0  0.00000000000E+00  0.00000000000E+00  0.10521427189E+04  0.31699827711E+04  0.29902820048E+04 0.  0.
        2    1    3    3  502    0 -0.61487521375E+03 -0.11440410423E+04 -0.25907560686E+03  0.13243948071E+04  0.25500000920E-02 0. -1.
       -2    1    3    3    0  502  0.61487521375E+03  0.11440410423E+04  0.13112183258E+04  0.18455879640E+04  0.25500000920E-02 0.  1.
</event>
<event>
 5   0  0.2948711E-06  0.3013513E+04  0.7818609E-02  0.8239883E-01
        2   -1    0    0  501    0  0.00000000000E+00  0.00000000000E+00  0.20154432847E+04  0.20154432847E+04  0.25500000920E-02 0.  1.
       -2   -1    0    0    0  501  0.00000000000E+00  0.00000000000E+00 -0.11264597320E+04  0.11264597320E+04  0.25500000920E-02 0. -1.
    10030    2    1    2    0    0  0.00000000000E+00  0.00000000000E+00  0.88898355267E+03  0.31419030167E+04  0.30135133664E+04 0.  0.
        5    1    3    3  502    0  0.53548729793E+03  0.27768048866E+03 -0.99507323406E+03  0.11636347929E+04  0.46999998093E+01 0. -1.
       -5    1    3    3    0  502 -0.53548729793E+03 -0.27768048866E+03  0.18840567867E+04  0.19782682239E+04  0.46999998093E+01 0.  1.
</event>
<event>
 5   0  0.1091075E-06  0.3059571E+04  0.7818609E-02  0.8226922E-01
        1   -1    0    0  501    0  0.00000000000E+00  0.00000000000E+00  0.20853133644E+04  0.20853133644E+04  0.50400001928E-02 0. -1.
       -1   -1    0    0    0  501  0.00000000000E+00  0.00000000000E+00 -0.11222501688E+04  0.11222501688E+04  0.50400001928E-02 0.  1.
    10030    2    1    2    0    0  0.00000000000E+00  0.00000000000E+00  0.96306319563E+03  0.32075635332E+04  0.30595707379E+04 0.  0.
        1    1    3    3  502    0 -0.34186057477E+03 -0.27058012123E+03 -0.10557387878E+04  0.11422200501E+04  0.50400001928E-02 0.  1.
       -1    1    3    3    0  502  0.34186057477E+03  0.27058012123E+03  0.20188019835E+04  0.20653434831E+04  0.50400001928E-02 0. -1.
</event>
<event>
 5   0  0.1091075E-06  0.3018656E+04  0.7818609E-02  0.8238423E-01
       -1   -1    0    0    0  501  0.00000000000E+00  0.00000000000E+00  0.14992732721E+04  0.14992732721E+04  0.50400001928E-02 0. -1.
        1   -1    0    0  501    0  0.00000000000E+00  0.00000000000E+00 -0.15194503349E+04  0.15194503349E+04  0.50400001928E-02 0.  1.
    10030    2    1    2    0    0  0.00000000000E+00  0.00000000000E+00 -0.20177062733E+02  0.30187236070E+04  0.30186561748E+04 0.  0.
        1    1    3    3  502    0 -0.14961325061E+03  0.49632829407E+02  0.14910191934E+04  0.14993284422E+04  0.50400001928E-02 0. -1.
       -1    1    3    3    0  502  0.14961325061E+03 -0.49632829407E+02 -0.15111962561E+04  0.15193951648E+04  0.50400001928E-02 0.  1.
</event>
<event>
 5   0  0.2985941E-06  0.3211478E+04  0.7818609E-02  0.8185792E-01
        2   -1    0    0  501    0  0.00000000000E+00  0.00000000000E+00  0.26052625517E+04  0.26052625517E+04  0.25500000920E-02 0. -1.
       -2   -1    0    0    0  501  0.00000000000E+00  0.00000000000E+00 -0.98968846918E+03  0.98968846918E+03  0.25500000920E-02 0.  1.
    10030    2    1    2    0    0  0.00000000000E+00  0.00000000000E+00  0.16155740825E+04  0.35949510209E+04  0.32114783553E+04 0.  0.
        3    1    3    3  502    0 -0.48745709433E+03 -0.64014830231E+03 -0.74774314676E+03  0.10984189053E+04  0.10100000352E+00 0.  1.
       -3    1    3    3    0  502  0.48745709433E+03  0.64014830231E+03  0.23633172293E+04  0.24965321156E+04  0.10100000352E+00 0. -1.
</event>
<event>
 5   0  0.1097402E-06  0.2988981E+04  0.7818609E-02  0.8246884E-01
       -1   -1    0    0    0  501  0.00000000000E+00  0.00000000000E+00  0.18532916003E+04  0.18532916003E+04  0.50400001928E-02 0. -1.
        1   -1    0    0  501    0  0.00000000000E+00  0.00000000000E+00 -0.12051541875E+04  0.12051541875E+04  0.50400001928E-02 0.  1.
    10030    2    1    2    0    0  0.00000000000E+00  0.00000000000E+00  0.64813741276E+03  0.30584457878E+04  0.29889811862E+04 0.  0.
        4    1    3    3  502    0  0.11064609943E+02 -0.13024995833E+04  0.10738133276E+04  0.16881067103E+04  0.12699999809E+01 0. -1.
       -4    1    3    3    0  502 -0.11064609943E+02  0.13024995833E+04 -0.42567591480E+03  0.13703390775E+04  0.12699999809E+01 0.  1.
</event>
<event>
 5   0  0.1091075E-06  0.3010656E+04  0.7818609E-02  0.8240694E-01
        1   -1    0    0  501    0  0.00000000000E+00  0.00000000000E+00  0.26521381103E+04  0.26521381103E+04  0.50400001928E-02 0.  1.
       -1   -1    0    0    0  501  0.00000000000E+00  0.00000000000E+00 -0.85440974903E+03  0.85440974905E+03  0.50400001928E-02 0. -1.
    10030    2    1    2    0    0  0.00000000000E+00  0.00000000000E+00  0.17977283613E+04  0.35065478594E+04  0.30106561792E+04 0.  0.
        1    1    3    3  502    0  0.21113077128E+03 -0.14795377325E+04  0.11085270983E+04  0.18607634004E+04  0.50400001928E-02 0.  1.
       -1    1    3    3    0  502 -0.21113077128E+03  0.14795377325E+04  0.68920126297E+03  0.16457844590E+04  0.50400001928E-02 0. -1.
</event>
<event>
 5   0  0.2948711E-06  0.2995212E+04  0.7818609E-02  0.8245099E-01
       -2   -1    0    0    0  501  0.00000000000E+00  0.00000000000E+00  0.15659910015E+04  0.15659910015E+04  0.25500000920E-02 0. -1.
        2   -1    0    0  501    0  0.00000000000E+00  0.00000000000E+00 -0.14322076184E+04  0.14322076184E+04  0.25500000920E-02 0.  1.
    10030    2    1    2    0    0  0.00000000000E+00  0.00000000000E+00  0.13378338313E+03  0.29981986199E+04  0.29952123416E+04 0.  0.
        5    1    3    3  502    0  0.51347622128E+03  0.61843422500E+03 -0.11979675343E+04  0.14426597048E+04  0.46999998093E+01 0.  1.
       -5    1    3    3    0  502 -0.51347622128E+03 -0.61843422500E+03  0.13317509175E+04  0.15555389152E+04  0.46999998093E+01 0. -1.
</event>
<event>
 5   0  0.1113245E-06  0.3009257E+04  0.7818609E-02  0.8241092E-01
        1   -1    0    0  501    0  0.00000000000E+00  0.00000000000E+00  0.12521140706E+04  0.12521140706E+04  0.50400001928E-02 0.  1.
       -1   -1    0    0    0  501  0.00000000000E+00  0.00000000000E+00 -0.18080673616E+04  0.18080673616E+04  0.50400001928E-02 0. -1.
    10030    2    1    2    0    0  0.00000000000E+00  0.00000000000E+00 -0.55595329092E+03  0.30601814322E+04  0.30092567747E+04 0.  0.
        5    1    3    3  502    0  0.34645039824E+03  0.12446591066E+04  0.50622854688E+03  0.13876215629E+04  0.46999998093E+01 0.  1.
       -5    1    3    3    0  502 -0.34645039824E+03 -0.12446591066E+04 -0.10621818378E+04  0.16725598694E+04  0.46999998093E+01 0. -1.
</event>
<event>
 5   0  0.2985941E-06  0.2989668E+04  0.7818609E-02  0.8246688E-01
        2   -1    0    0  501    0  0.00000000000E+00  0.00000000000E+00  0.23761090742E+04  0.23761090742E+04  0.25500000920E-02 0.  1.
       -2   -1    0    0    0  501  0.00000000000E+00  0.00000000000E+00 -0.94041471673E+03  0.94041471674E+03  0.25500000920E-02 0. -1.
    10030    2    1    2    0    0  0.00000000000E+00  0.00000000000E+00  0.14356943575E+04  0.33165237909E+04  0.29896675012E+04 0.  0.
        3    1    3    3  502    0 -0.11665270797E+04  0.19451968316E+03  0.17320821551E+04  0.20973154119E+04  0.10100000352E+00 0. -1.
       -3    1    3    3    0  502  0.11665270797E+04 -0.19451968316E+03 -0.29638779762E+03  0.12192083790E+04  0.10100000352E+00 0.  1.
</event>
<event>
 5   0  0.1054384E-06  0.3050196E+04  0.7818609E-02  0.8229541E-01
       -1   -1    0    0    0  501  0.00000000000E+00  0.00000000000E+00  0.19383008624E+04  0.19383008624E+04  0.50400001928E-02 0.  1.
        1   -1    0    0  501    0  0.00000000000E+00  0.00000000000E+00 -0.11999807939E+04  0.11999807939E+04  0.50400001928E-02 0. -1.
    10030    2    1    2    0    0  0.00000000000E+00  0.00000000000E+00  0.73832006851E+03  0.31382816564E+04  0.30501959332E+04 0.  0.
        2    1    3    3  502    0 -0.22228890357E+03  0.28466358767E+03 -0.11553445498E+04  0.12104820295E+04  0.25500000920E-02 0. -1.
       -2    1    3    3    0  502  0.22228890357E+03 -0.28466358767E+03  0.18936646183E+04  0.19277996269E+04  0.25500000920E-02 0.  1.
</event>
<event>
 5   0  0.1097402E-06  0.2993837E+04  0.7818609E-02  0.8245493E-01
        1   -1    0    0  501    0  0.00000000000E+00  0.00000000000E+00  0.15512796459E+04  0.15512796459E+04  0.50400001928E-02 0.  1.
       -1   -1    0    0    0  501  0.00000000000E+00  0.00000000000E+00 -0.14444619265E+04  0.14444619265E+04  0.50400001928E-02 0. -1.
    10030    2    1    2    0    0  0.00000000000E+00  0.00000000000E+00  0.10681771941E+03  0.29957415724E+04  0.29938365926E+04 0.  0.
        4    1    3    3  502    0  0.14681233120E+04 -0.63039085440E+02  0.33890214104E+03  0.15080504831E+04  0.12699999809E+01 0.  1.
       -4    1    3    3    0  502 -0.14681233120E+04  0.63039085440E+02 -0.23208442162E+03  0.14876910893E+04  0.12699999809E+01 0. -1.
</event>
<event>
 5   0  0.1091075E-06  0.2993523E+04  0.7818609E-02  0.8245583E-01
        1   -1    0    0  501    0  0.00000000000E+00  0.00000000000E+00  0.22746786765E+04  0.22746786765E+04  0.50400001928E-02 0.  1.
       -1   -1    0    0    0  501  0.00000000000E+00  0.00000000000E+00 -0.98488386115E+03  0.98488386116E+03  0.50400001928E-02 0. -1.
    10030    2    1    2    0    0  0.00000000000E+00  0.00000000000E+00  0.12897948154E+04  0.32595625377E+04  0.29935225523E+04 0.  0.
        1    1    3    3  502    0 -0.23726127875E+03 -0.22200156564E+03  0.22358121567E+04  0.22592993625E+04  0.50400001928E-02 0.  1.
       -1    1    3    3    0  502  0.23726127875E+03  0.22200156564E+03 -0.94601734130E+03  0.10002631752E+04  0.50400001928E-02 0. -1.
</event>
<event>
 5   0  0.1097402E-06  0.3026654E+04  0.7818609E-02  0.8236160E-01
        1   -1    0    0  501    0  0.00000000000E+00  0.00000000000E+00  0.20363190411E+04  0.20363190411E+04  0.50400001928E-02 0.  1.
       -1   -1    0    0    0  501  0.00000000000E+00  0.00000000000E+00 -0.11246557958E+04  0.11246557958E+04  0.50400001928E-02 0. -1.
    10030    2    1    2    0    0  0.00000000000E+00  0.00000000000E+00  0.91166324525E+03  0.31609748369E+04  0.30266536053E+04 0.  0.
        4    1    3    3  502    0 -0.10153229913E+04 -0.65216175590E+03 -0.49791080492E+03  0.13054166060E+04  0.12699999809E+01 0. -1.
       -4    1    3    3    0  502  0.10153229913E+04  0.65216175590E+03  0.14095740502E+04  0.18555582309E+04  0.12699999809E+01 0.  1.
</event>
<event>
 5   0  0.2862033E-06  0.2986820E+04  0.7818609E-02  0.8247504E-01
        2   -1    0    0  501    0  0.00000000000E+00  0.00000000000E+00  0.13631266368E+04  0.13631266368E+04  0.25500000920E-02 0.  1.
       -2   -1    0    0    0  501  0.00000000000E+00  0.00000000000E+00 -0.16361459838E+04  0.16361459838E+04  0.25500000920E-02 0. -1.
    10030    2    1    2    0    0  0.00000000000E+00  0.00000000000E+00 -0.27301934703E+03  0.29992726206E+04  0.29868204982E+04 0.  0.
        2    1    3    3  502    0 -0.23144165140E+03  0.12521328275E+04 -0.92006548133E+03  0.15709622356E+04  0.25500000920E-02 0. -1.
       -2    1    3    3    0  502  0.23144165140E+03 -0.12521328275E+04  0.64704613431E+03  0.14283103849E+04  0.25500000920E-02 0.  1.
</event>
<event>
 5   0  0.3113328E-06  0.2998543E+04  0.7818609E-02  0.8244147E-01
        2   -1    0    0  501    0  0.00000000000E+00  0.00000000000E+00  0.19328812267E+04  0.19328812267E+04  0.25500000920E-02 0. -1.
       -2   -1    0    0    0  501  0.00000000000E+00  0.00000000000E+00 -0.11629351421E+04  0.11629351421E+04  0.25500000920E-02 0.  1.
    10030    2    1    2    0    0  0.00000000000E+00  0.00000000000E+00  0.76994608458E+03  0.30958163688E+04  0.29985433157E+04 0.  0.
        1    1    3    3  502    0 -0.93592068727E+03  0.11194953804E+04  0.29420600087E+02  0.14594803908E+04  0.50400001928E-02 0.  1.
       -1    1    3    3    0  502  0.93592068727E+03 -0.11194953804E+04  0.74052548449E+03  0.16363359779E+04  0.50400001928E-02 0. -1.
</event>
<event>
 5   0  0.2985941E-06  0.2968004E+04  0.7818609E-02  0.8252927E-01
       -2   -1    0    0    0  501  0.00000000000E+00  0.00000000000E+00  0.11715395627E+04  0.11715395627E+04  0.25500000920E-02 0.  1.
        2   -1    0    0  501    0  0.00000000000E+00  0.00000000000E+00 -0.18798012317E+04  0.18798012317E+04  0.25500000920E-02 0. -1.
    10030    2    1    2    0    0  0.00000000000E+00  0.00000000000E+00 -0.70826166898E+03  0.30513407943E+04  0.29680037149E+04 0.  0.
        3    1    3    3  502    0 -0.32294518312E+03 -0.13571916525E+04 -0.87430068956E+03  0.16464095720E+04  0.10100000352E+00 0. -1.
       -3    1    3    3    0  502  0.32294518312E+03  0.13571916525E+04  0.16603902058E+03  0.14049312223E+04  0.10100000352E+00 0.  1.
</event>
<event>
 5   0  0.3113328E-06  0.2808817E+04  0.7818609E-02  0.8300536E-01
        2   -1    0    0  501    0  0.00000000000E+00  0.00000000000E+00  0.14018801595E+04  0.14018801595E+04  0.25500000920E-02 0.  1.
       -2   -1    0    0    0  501  0.00000000000E+00  0.00000000000E+00 -0.14069413190E+04  0.14069413190E+04  0.25500000920E-02 0. -1.
    10030    2    1    2    0    0  0.00000000000E+00  0.00000000000E+00 -0.50611595001E+01  0.28088214784E+04  0.28088169186E+04 0.  0.
        1    1    3    3  502    0 -0.98456686313E+03 -0.98302503255E+03 -0.19398061752E+03  0.14047557092E+04  0.50400001928E-02 0.  1.
       -1    1    3    3    0  502  0.98456686313E+03  0.98302503255E+03  0.18891945802E+03  0.14040657692E+04  0.50400001928E-02 0. -1.
</event>
<event>
 5   0  0.2970915E-06  0.3005158E+04  0.7818609E-02  0.8242260E-01
        2   -1    0    0  501    0  0.00000000000E+00  0.00000000000E+00  0.26514011064E+04  0.26514011064E+04  0.25500000920E-02 0.  1.
       -2   -1    0    0    0  501  0.00000000000E+00  0.00000000000E+00 -0.85152841119E+03  0.85152841119E+03  0.25500000920E-02 0. -1.
    10030    2    1    2    0    0  0.00000000000E+00  0.00000000000E+00  0.17998726952E+04  0.35029295176E+04  0.30051578138E+04 0.  0.
        4    1    3    3  502    0  0.28253172419E+03  0.14152001680E+04  0.13877337843E+04  0.20021044827E+04  0.12699999809E+01 0.  1.
       -4    1    3    3    0  502 -0.28253172419E+03 -0.14152001680E+04  0.41213891086E+03  0.15008250349E+04  0.12699999809E+01 0. -1.
</event>
<event>
 5   0  0.1091076E-06  0.3023069E+04  0.7818609E-02  0.8237174E-01
       -1   -1    0    0    0  501  0.00000000000E+00  0.00000000000E+00  0.79439237672E+03  0.79439237673E+03  0.50400001928E-02 0.  1.
        1   -1    0    0  501    0  0.00000000000E+00  0.00000000000E+00 -0.28760804564E+04  0.28760804564E+04  0.50400001928E-02 0. -1.
    10030    2    1    2    0    0  0.00000000000E+00  0.00000000000E+00 -0.20816880797E+04  0.36704728332E+04  0.30230688973E+04 0.  0.
        3    1    3    3  502    0 -0.10940655470E+04  0.92793354852E+03 -0.46275308661E+03  0.15073753749E+04  0.10100000352E+00 0.  1.
       -3    1    3    3    0  502  0.10940655470E+04 -0.92793354852E+03 -0.16189349931E+04  0.21630974582E+04  0.10100000352E+00 0. -1.
</event>
<event>
 5   0  0.1091075E-06  0.3013127E+04  0.7818609E-02  0.8239992E-01
       -1   -1    0    0    0  501  0.00000000000E+00  0.00000000000E+00  0.90108062417E+03  0.90108062418E+03  0.50400001928E-02 0.  1.
        1   -1    0    0  501    0  0.00000000000E+00  0.00000000000E+00 -0.25189017806E+04  0.25189017806E+04  0.50400001928E-02 0. -1.
    10030    2    1    2    0    0  0.00000000000E+00  0.00000000000E+00 -0.16178211564E+04  0.34199824047E+04  0.30131270061E+04 0.  0.
        1    1    3    3  502    0 -0.63177804778E+03  0.65538507096E+02  0.74167791108E+03  0.97648600675E+03  0.50400001928E-02 0.  1.
       -1    1    3    3    0  502  0.63177804778E+03 -0.65538507096E+02 -0.23594990675E+04  0.24434963980E+04  0.50400001928E-02 0. -1.
</event>
<event>
 5   0  0.9749500E-07  0.3005828E+04  0.7818609E-02  0.8242069E-01
       -3   -1    0    0    0  501  0.00000000000E+00  0.00000000000E+00  0.12750162931E+04  0.12750162971E+04  0.10100000352E+00 0. -1.
        3   -1    0    0  501    0  0.00000000000E+00  0.00000000000E+00 -0.17715468553E+04  0.17715468582E+04  0.10100000352E+00 0.  1.
    10030    2    1    2    0    0  0.00000000000E+00  0.00000000000E+00 -0.49653056221E+03  0.30465631553E+04  0.30058284149E+04 0.  0.
        1    1    3    3  502    0  0.24784558887E+03  0.13326504746E+04  0.40965904824E+03  0.14160527035E+04  0.50400001928E-02 0. -1.
       -1    1    3    3    0  502 -0.24784558887E+03 -0.13326504746E+04 -0.90618961045E+03  0.16305104518E+04  0.50400001928E-02 0.  1.
</event>
<event>
 5   0  0.1091075E-06  0.3000263E+04  0.7818609E-02  0.8243656E-01
       -1   -1    0    0    0  501  0.00000000000E+00  0.00000000000E+00  0.13089894379E+04  0.13089894379E+04  0.50400001928E-02 0. -1.
        1   -1    0    0  501    0  0.00000000000E+00  0.00000000000E+00 -0.17191847642E+04  0.17191847642E+04  0.50400001928E-02 0.  1.
    10030    2    1    2    0    0  0.00000000000E+00  0.00000000000E+00 -0.41019532629E+03  0.30281742021E+04  0.30002631205E+04 0.  0.
        1    1    3    3  502    0 -0.11509439099E+04  0.82386659500E+02  0.76243128502E+03  0.13830259975E+04  0.50400001928E-02 0. -1.
       -1    1    3    3    0  502  0.11509439099E+04 -0.82386659500E+02 -0.11726266113E+04  0.16451482046E+04  0.50400001928E-02 0.  1.
</event>
<event>
 5   0  0.1097402E-06  0.2706915E+04  0.7818609E-02  0.8332765E-01
        1   -1    0    0  501    0  0.00000000000E+00  0.00000000000E+00  0.20460310793E+04  0.20460310793E+04  0.50400001928E-02 0. -1.
       -1   -1    0    0    0  501  0.00000000000E+00  0.00000000000E+00 -0.89531734137E+03  0.89531734138E+03  0.50400001928E-02 0.  1.
    10030    2    1    2    0    0  0.00000000000E+00  0.00000000000E+00  0.11507137380E+04  0.29413484207E+04  0.27069149276E+04 0.  0.
        4    1    3    3  502    0  0.86147219597E+03  0.49916271387E+03 -0.42085808419E+03  0.10809351966E+04  0.12699999809E+01 0.  1.
       -4    1    3    3    0  502 -0.86147219597E+03 -0.49916271387E+03  0.15715718222E+04  0.18604132241E+04  0.12699999809E+01 0. -1.
</event>
<event>
 5   0  0.1091076E-06  0.2974826E+04  0.7818609E-02  0.8250956E-01
       -1   -1    0    0    0  501  0.00000000000E+00  0.00000000000E+00  0.13462288445E+04  0.13462288446E+04  0.50400001928E-02 0.  1.
        1   -1    0    0  501    0  0.00000000000E+00  0.00000000000E+00 -0.16434033546E+04  0.16434033546E+04  0.50400001928E-02 0. -1.
    10030    2    1    2    0    0  0.00000000000E+00  0.00000000000E+00 -0.29717451006E+03  0.29896321992E+04  0.29748257086E+04 0.  0.
        3    1    3    3  502    0  0.54537272371E+03 -0.79069044595E+03  0.99274759637E+03  0.13813654800E+04  0.10100000352E+00 0.  1.
       -3    1    3    3    0  502 -0.54537272371E+03  0.79069044595E+03 -0.12899221064E+04  0.16082667191E+04  0.10100000352E+00 0. -1.
</event>
<event>
 5   0  0.2970915E-06  0.2997348E+04  0.7818609E-02  0.8244489E-01
       -2   -1    0    0    0  501  0.00000000000E+00  0.00000000000E+00  0.13410008660E+04  0.13410008660E+04  0.25500000920E-02 0.  1.
        2   -1    0    0  501    0  0.00000000000E+00  0.00000000000E+00 -0.16748862206E+04  0.16748862206E+04  0.25500000920E-02 0. -1.
    10030    2    1    2    0    0  0.00000000000E+00  0.00000000000E+00 -0.33388535454E+03  0.30158870866E+04  0.29973480761E+04 0.  0.
        4    1    3    3  502    0 -0.15918646410E+03 -0.60406822594E+03  0.12037546107E+04  0.13561952395E+04  0.12699999809E+01 0.  1.
       -4    1    3    3    0  502  0.15918646410E+03  0.60406822594E+03 -0.15376399652E+04  0.16596918471E+04  0.12699999809E+01 0. -1.
</event>
<event>
 5   0  0.1054384E-06  0.3004177E+04  0.7818609E-02  0.8242539E-01
        1   -1    0    0  501    0  0.00000000000E+00  0.00000000000E+00  0.18279852926E+04  0.18279852926E+04  0.50400001928E-02 0. -1.
       -1   -1    0    0    0  501  0.00000000000E+00  0.00000000000E+00 -0.12342936195E+04  0.12342936195E+04  0.50400001928E-02 0.  1.
    10030    2    1    2    0    0  0.00000000000E+00  0.00000000000E+00  0.59369167307E+03  0.30622789121E+04  0.30041774802E+04 0.  0.
        2    1    3    3  502    0  0.52419667485E+03 -0.13073405136E+03 -0.11318303064E+04  0.12541584384E+04  0.25500000920E-02 0.  1.
       -2    1    3    3    0  502 -0.52419667485E+03  0.13073405136E+03  0.17255219794E+04  0.18081204737E+04  0.25500000920E-02 0. -1.
</event>
<event>
 5   0  0.1091076E-06  0.3010929E+04  0.7818609E-02  0.8240617E-01
       -1   -1    0    0    0  501  0.00000000000E+00  0.00000000000E+00  0.14152441297E+04  0.14152441297E+04  0.50400001928E-02 0. -1.
        1   -1    0    0  501    0  0.00000000000E+00  0.00000000000E+00 -0.16014364919E+04  0.16014364919E+04  0.50400001928E-02 0.  1.
    10030    2    1    2    0    0  0.00000000000E+00  0.00000000000E+00 -0.18619236226E+03  0.30166806216E+04  0.30109291551E+04 0.  0.
        3    1    3    3  502    0 -0.42620933879E+03  0.13702128078E+04 -0.54925264038E+03  0.15364947160E+04  0.10100000352E+00 0.  1.
       -3    1    3    3    0  502  0.42620933879E+03 -0.13702128078E+04  0.36306027812E+03  0.14801859055E+04  0.10100000352E+00 0. -1.
</event>
<event>
 5   0  0.2948711E-06  0.2884676E+04  0.7818609E-02  0.8277451E-01
       -2   -1    0    0    0  501  0.00000000000E+00  0.00000000000E+00  0.10220753611E+04  0.10220753611E+04  0.25500000920E-02 0.  1.
        2   -1    0    0  501    0  0.00000000000E+00  0.00000000000E+00 -0.20354064448E+04  0.20354064448E+04  0.25500000920E-02 0. -1.
    10030    2    1    2    0    0  0.00000000000E+00  0.00000000000E+00 -0.10133310837E+04  0.30574818060E+04  0.28846759105E+04 0.  0.
        5    1    3    3  502    0  0.50832419085E+02  0.14020750085E+04 -0.86124832501E+03  0.16462591022E+04  0.46999998093E+01 0. -1.
       -5    1    3    3    0  502 -0.50832419085E+02 -0.14020750085E+04 -0.15208275869E+03  0.14112227038E+04  0.46999998093E+01 0.  1.
</event>
<event>
 5   0  0.1054384E-06  0.3057906E+04  0.7818609E-02  0.8227386E-01
        1   -1    0    0  501    0  0.00000000000E+00  0.00000000000E+00  0.19129748092E+04  0.19129748092E+04  0.50400001928E-02 0.  1.
       -1   -1    0    0    0  501  0.00000000000E+00  0.00000000000E+00 -0.12220220793E+04  0.12220220793E+04  0.50400001928E-02 0. -1.
    10030    2    1    2    0    0  0.00000000000E+00  0.00000000000E+00  0.69095272992E+03  0.31349968885E+04  0.30579061163E+04 0.  0.
        2    1    3    3  502    0  0.12512824810E+04  0.87286365656E+03  0.44850180858E+03  0.15902052328E+04  0.25500000920E-02 0. -1.
       -2    1    3    3    0  502 -0.12512824810E+04 -0.87286365656E+03  0.24245092134E+03  0.15447916557E+04  0.25500000920E-02 0.  1.
</event>
<event>
 5   0  0.1113245E-06  0.3017981E+04  0.7818609E-02  0.8238615E-01
       -1   -1    0    0    0  501  0.00000000000E+00  0.00000000000E+00  0.18132568461E+04  0.18132568461E+04  0.50400001928E-02 0. -1.
        1   -1    0    0  501    0  0.00000000000E+00  0.00000000000E+00 -0.12557803130E+04  0.12557803130E+04  0.50400001928E-02 0.  1.
    10030    2    1    2    0    0  0.00000000000E+00  0.00000000000E+00  0.55747653312E+03  0.30690371591E+04  0.30179809474E+04 0.  0.
        5    1    3    3  502    0  0.49944165592E+03 -0.20134541588E+03 -0.11547358506E+04  0.12741345764E+04  0.46999998093E+01 0.  1.
       -5    1    3    3    0  502 -0.49944165592E+03  0.20134541588E+03  0.17122123837E+04  0.17949025827E+04  0.46999998093E+01 0. -1.
</event>
<event>
 5   0  0.1113245E-06  0.3002534E+04  0.7818609E-02  0.8243008E-01
        1   -1    0    0  501    0  0.00000000000E+00  0.00000000000E+00  0.96118639639E+03  0.96118639640E+03  0.50400001928E-02 0. -1.
       -1   -1    0    0    0  501  0.00000000000E+00  0.00000000000E+00 -0.23448131051E+04  0.23448131051E+04  0.50400001928E-02 0.  1.
    10030    2    1    2    0    0  0.00000000000E+00  0.00000000000E+00 -0.13836267087E+04  0.33059995015E+04  0.30025339023E+04 0.  0.
        5    1    3    3  502    0  0.93255378178E+03 -0.10073786011E+04 -0.13609451571E+04  0.19330447518E+04  0.46999998093E+01 0. -1.
       -5    1    3    3    0  502 -0.93255378178E+03  0.10073786011E+04 -0.22681551566E+02  0.13729547497E+04  0.46999998093E+01 0.  1.
</event>
<event>
 5   0  0.2862033E-06  0.3010324E+04  0.7818609E-02  0.8240789E-01
       -2   -1    0    0    0  501  0.00000000000E+00  0.00000000000E+00  0.16950036929E+04  0.16950036929E+04  0.25500000920E-02 0.  1.
        2   -1    0    0  501    0  0.00000000000E+00  0.00000000000E+00 -0.13365826769E+04  0.13365826769E+04  0.25500000920E-02 0. -1.
    10030    2    1    2    0    0  0.00000000000E+00  0.00000000000E+00  0.35842101600E+03  0.30315863698E+04  0.30103239515E+04 0.  0.
        2    1    3    3  502    0  0.13186325494E+04  0.49762863106E+03 -0.35280726464E+03  0.14528933274E+04  0.25500000920E-02 0. -1.
       -2    1    3    3    0  502 -0.13186325494E+04 -0.49762863106E+03  0.71122828063E+03  0.15786930424E+04  0.25500000920E-02 0.  1.
</event>
<event>
 5   0  0.2862033E-06  0.2948518E+04  0.7818609E-02  0.8258587E-01
       -2   -1    0    0    0  501  0.00000000000E+00  0.00000000000E+00  0.12484885558E+04  0.12484885558E+04  0.25500000920E-02 0.  1.
        2   -1    0    0  501    0  0.00000000000E+00  0.00000000000E+00 -0.17408561428E+04  0.17408561428E+04  0.25500000920E-02 0. -1.
    10030    2    1    2    0    0  0.00000000000E+00  0.00000000000E+00 -0.49236758703E+03  0.29893446986E+04  0.29485175743E+04 0.  0.
        2    1    3    3  502    0 -0.47268829914E+03  0.52963484046E+03 -0.15561630081E+04  0.17104357924E+04  0.25500000920E-02 0. -1.
       -2    1    3    3    0  502  0.47268829914E+03 -0.52963484046E+03  0.10637954210E+04  0.12789089061E+04  0.25500000920E-02 0.  1.
</event>
<event>
 5   0  0.2948711E-06  0.2998225E+04  0.7818609E-02  0.8244238E-01
       -2   -1    0    0    0  501  0.00000000000E+00  0.00000000000E+00  0.15525870032E+04  0.15525870032E+04  0.25500000920E-02 0. -1.
        2   -1    0    0  501    0  0.00000000000E+00  0.00000000000E+00 -0.14474800956E+04  0.14474800956E+04  0.25500000920E-02 0.  1.
    10030    2    1    2    0    0  0.00000000000E+00  0.00000000000E+00  0.10510690768E+03  0.30000670988E+04  0.29982253310E+04 0.  0.
        5    1    3    3  502    0  0.12467817824E+04  0.36081725116E+03 -0.69801584752E+03  0.14737374648E+04  0.46999998093E+01 0. -1.
       -5    1    3    3    0  502 -0.12467817824E+04 -0.36081725116E+03  0.80312275520E+03  0.15263296340E+04  0.46999998093E+01 0.  1.
</event>
<event>
 5   0  0.2970915E-06  0.2972902E+04  0.7818609E-02  0.8251511E-01
        2   -1    0    0  501    0  0.00000000000E+00  0.00000000000E+00  0.92751931087E+03  0.92751931088E+03  0.25500000920E-02 0. -1.
       -2   -1    0    0    0  501  0.00000000000E+00  0.00000000000E+00 -0.23822003701E+04  0.23822003701E+04  0.25500000920E-02 0.  1.
    10030    2    1    2    0    0  0.00000000000E+00  0.00000000000E+00 -0.14546810593E+04  0.33097196810E+04  0.29729021818E+04 0.  0.
        4    1    3    3  502    0  0.42519885155E+03 -0.11372274288E+04  0.22740718788E+03  0.12352311242E+04  0.12699999809E+01 0. -1.
       -4    1    3    3    0  502 -0.42519885155E+03  0.11372274288E+04 -0.16820882471E+04  0.20744885568E+04  0.12699999809E+01 0.  1.
</event>
<event>
 5   0  0.1091075E-06  0.2790784E+04  0.7818609E-02  0.8306135E-01
        1   -1    0    0  501    0  0.00000000000E+00  0.00000000000E+00  0.11953277158E+04  0.11953277158E+04  0.50400001928E-02 0.  1.
       -1   -1    0    0    0  501  0.00000000000E+00  0.00000000000E+00 -0.16289415162E+04  0.16289415162E+04  0.50400001928E-02 0. -1.
    10030    2    1    2    0    0  0.00000000000E+00  0.00000000000E+00 -0.43361380042E+03  0.28242692320E+04  0.27907840775E+04 0.  0.
        1    1    3    3  502    0 -0.69144552150E+03 -0.10266691432E+04  0.43510591500E+03  0.13120455770E+04  0.50400001928E-02 0. -1.
       -1    1    3    3    0  502  0.69144552150E+03  0.10266691432E+04 -0.86871971542E+03  0.15122236550E+04  0.50400001928E-02 0.  1.
</event>
<event>
 5   0  0.2970915E-06  0.3009707E+04  0.7818609E-02  0.8240964E-01
        2   -1    0    0  501    0  0.00000000000E+00  0.00000000000E+00  0.26021938279E+04  0.26021938279E+04  0.25500000920E-02 0. -1.
       -2   -1    0    0    0  501  0.00000000000E+00  0.00000000000E+00 -0.87025948087E+03  0.87025948087E+03  0.25500000920E-02 0.  1.
    10030    2    1    2    0    0  0.00000000000E+00  0.00000000000E+00  0.17319343471E+04  0.34724533088E+04  0.30097068627E+04 0.  0.
        4    1    3    3  502    0 -0.14169211087E+04  0.16064767209E+03  0.14206194139E+04  0.20128671677E+04  0.12699999809E+01 0. -1.
       -4    1    3    3    0  502  0.14169211087E+04 -0.16064767209E+03  0.31131493321E+03  0.14595861411E+04  0.12699999809E+01 0.  1.
</event>
<event>
 5   0  0.1097402E-06  0.2977600E+04  0.7818609E-02  0.8250156E-01
        1   -1    0    0  501    0  0.00000000000E+00  0.00000000000E+00  0.19300415526E+04  0.19300415526E+04  0.50400001928E-02 0. -1.
       -1   -1    0    0    0  501  0.00000000000E+00  0.00000000000E+00 -0.11484340778E+04  0.11484340779E+04  0.50400001928E-02 0.  1.
    10030    2    1    2    0    0  0.00000000000E+00  0.00000000000E+00  0.78160747478E+03  0.30784756305E+04  0.29776000341E+04 0.  0.
        4    1    3    3  502    0  0.37674754183E+03 -0.12332856359E+04  0.11600477904E+04  0.17345445105E+04  0.12699999809E+01 0. -1.
       -4    1    3    3    0  502 -0.37674754183E+03  0.12332856359E+04 -0.37844031560E+03  0.13439311200E+04  0.12699999809E+01 0.  1.
</event>
<event>
 5   0  0.3113328E-06  0.3009552E+04  0.7818609E-02  0.8241008E-01
       -2   -1    0    0    0  501  0.00000000000E+00  0.00000000000E+00  0.89633581593E+03  0.89633581593E+03  0.25500000920E-02 0.  1.
        2   -1    0    0  501    0  0.00000000000E+00  0.00000000000E+00 -0.25262312431E+04  0.25262312431E+04  0.25500000920E-02 0. -1.
    10030    2    1    2    0    0  0.00000000000E+00  0.00000000000E+00 -0.16298954272E+04  0.34225670590E+04  0.30095524867E+04 0.  0.
        1    1    3    3  502    0 -0.56590953077E+03 -0.71850460212E+03  0.54396386055E+03  0.10641424444E+04  0.50400001928E-02 0.  1.
       -1    1    3    3    0  502  0.56590953077E+03  0.71850460212E+03 -0.21738592877E+04  0.23584246147E+04  0.50400001928E-02 0. -1.
</event>
<event>
 5   0  0.1091076E-06  0.3041931E+04  0.7818609E-02  0.8231858E-01
       -1   -1    0    0    0  501  0.00000000000E+00  0.00000000000E+00  0.10444312820E+04  0.10444312820E+04  0.50400001928E-02 0. -1.
        1   -1    0    0  501    0  0.00000000000E+00  0.00000000000E+00 -0.22149239905E+04  0.22149239905E+04  0.50400001928E-02 0.  1.
    10030    2    1    2    0    0  0.00000000000E+00  0.00000000000E+00 -0.11704927085E+04  0.32593552726E+04  0.30419309019E+04 0.  0.
        3    1    3    3  502    0 -0.10875326892E+04  0.30534951265E+03 -0.16765591430E+04  0.20215875556E+04  0.10100000352E+00 0. -1.
       -3    1    3    3    0  502  0.10875326892E+04 -0.30534951265E+03  0.50606643444E+03  0.12377677170E+04  0.10100000352E+00 0.  1.
</event>
<event>
 5   0  0.2985941E-06  0.2992130E+04  0.7818609E-02  0.8245982E-01
       -2   -1    0    0    0  501  0.00000000000E+00  0.00000000000E+00  0.12029065077E+04  0.12029065077E+04  0.25500000920E-02 0. -1.
        2   -1    0    0  501    0  0.00000000000E+00  0.00000000000E+00 -0.18606686596E+04  0.18606686596E+04  0.25500000920E-02 0.  1.
    10030    2    1    2    0    0  0.00000000000E+00  0.00000000000E+00 -0.65776215193E+03  0.30635751673E+04  0.29921299700E+04 0.  0.
        3    1    3    3  502    0 -0.50173325350E+03 -0.95613019219E+02  0.11108716821E+04  0.12226667622E+04  0.10100000352E+00 0. -1.
       -3    1    3    3    0  502  0.50173325350E+03  0.95613019219E+02 -0.17686338340E+04  0.18409084051E+04  0.10100000352E+00 0.  1.
</event>
<event>
 5   0  0.1113245E-06  0.2783440E+04  0.7818609E-02  0.8308428E-01
       -1   -1    0    0    0  501  0.00000000000E+00  0.00000000000E+00  0.15460027001E+04  0.15460027002E+04  0.50400001928E-02 0.  1.
        1   -1    0    0  501    0  0.00000000000E+00  0.00000000000E+00 -0.12528340913E+04  0.12528340913E+04  0.50400001928E-02 0. -1.
    10030    2    1    2    0    0  0.00000000000E+00  0.00000000000E+00  0.29316860889E+03  0.27988367914E+04  0.27834402368E+04 0.  0.
        5    1    3    3  502    0  0.96811882731E+03  0.19374250059E+03 -0.83969425268E+03  0.12961090804E+04  0.46999998093E+01 0. -1.
       -5    1    3    3    0  502 -0.96811882731E+03 -0.19374250059E+03  0.11328628616E+04  0.15027277110E+04  0.46999998093E+01 0.  1.
</event>
<event>
 5   0  0.3113328E-06  0.2988702E+04  0.7818609E-02  0.8246964E-01
       -2   -1    0    0    0  501  0.00000000000E+00  0.00000000000E+00  0.18678306844E+04  0.18678306844E+04  0.25500000920E-02 0. -1.
        2   -1    0    0  501    0  0.00000000000E+00  0.00000000000E+00 -0.11955501996E+04  0.11955501996E+04  0.25500000920E-02 0.  1.
    10030    2    1    2    0    0  0.00000000000E+00  0.00000000000E+00  0.67228048485E+03  0.30633808840E+04  0.29887022920E+04 0.  0.
        1    1    3    3  502    0 -0.11393663440E+04  0.30186143602E+03 -0.60540351725E+03  0.13250620405E+04  0.50400001928E-02 0.  1.
       -1    1    3    3    0  502  0.11393663440E+04 -0.30186143602E+03  0.12776840021E+04  0.17383188435E+04  0.50400001928E-02 0. -1.
</event>
<event>
 5   0  0.2985941E-06  0.3047615E+04  0.7818609E-02  0.8230263E-01
       -2   -1    0    0    0  501  0.00000000000E+00  0.00000000000E+00  0.11958732069E+04  0.11958732069E+04  0.25500000920E-02 0. -1.
        2   -1    0    0  501    0  0.00000000000E+00  0.00000000000E+00 -0.19416680897E+04  0.19416680897E+04  0.25500000920E-02 0.  1.
    10030    2    1    2    0    0  0.00000000000E+00  0.00000000000E+00 -0.74579488273E+03  0.31375412966E+04  0.30476147035E+04 0.  0.
        3    1    3    3  502    0  0.11303737778E+03  0.82581407605E+03 -0.16861719957E+04  0.18809365609E+04  0.10100000352E+00 0.  1.
       -3    1    3    3    0  502 -0.11303737778E+03 -0.82581407605E+03  0.94037711296E+03  0.12566047357E+04  0.10100000352E+00 0. -1.
</event>
<event>
 5   0  0.9749500E-07  0.3004595E+04  0.7818609E-02  0.8242420E-01
       -3   -1    0    0    0  501  0.00000000000E+00  0.00000000000E+00  0.22189930089E+04  0.22189930112E+04  0.10100000352E+00 0. -1.
        3   -1    0    0  501    0  0.00000000000E+00  0.00000000000E+00 -0.10170822135E+04  0.10170822185E+04  0.10100000352E+00 0.  1.
    10030    2    1    2    0    0  0.00000000000E+00  0.00000000000E+00  0.12019107954E+04  0.32360752297E+04  0.30045953692E+04 0.  0.
        1    1    3    3  502    0 -0.44791895865E+03  0.22895965790E+03  0.21255859374E+04  0.21843006881E+04  0.50400001928E-02 0. -1.
       -1    1    3    3    0  502  0.44791895865E+03 -0.22895965790E+03 -0.92367514203E+03  0.10517745417E+04  0.50400001928E-02 0.  1.
</event>
<event>
 5   0  0.1097402E-06  0.2999579E+04  0.7818609E-02  0.8243851E-01
        1   -1    0    0  501    0  0.00000000000E+00  0.00000000000E+00  0.17056707274E+04  0.17056707275E+04  0.50400001928E-02 0.  1.
       -1   -1    0    0    0  501  0.00000000000E+00  0.00000000000E+00 -0.13187587694E+04  0.13187587694E+04  0.50400001928E-02 0. -1.
    10030    2    1    2    0    0  0.00000000000E+00  0.00000000000E+00  0.38691195802E+03  0.30244294969E+04  0.29995787902E+04 0.  0.
        4    1    3    3  502    0 -0.15706348206E+03  0.19924895784E+03 -0.12969640094E+04  0.13215469493E+04  0.12699999809E+01 0. -1.
       -4    1    3    3    0  502  0.15706348206E+03 -0.19924895784E+03  0.16838759674E+04  0.17028825476E+04  0.12699999809E+01 0.  1.
</event>
<event>
 5   0  0.1054384E-06  0.2949883E+04  0.7818609E-02  0.8258189E-01
        1   -1    0    0  501    0  0.00000000000E+00  0.00000000000E+00  0.16329503571E+04  0.16329503571E+04  0.50400001928E-02 0.  1.
       -1   -1    0    0    0  501  0.00000000000E+00  0.00000000000E+00 -0.13322222430E+04  0.13322222431E+04  0.50400001928E-02 0. -1.
    10030    2    1    2    0    0  0.00000000000E+00  0.00000000000E+00  0.30072811405E+03  0.29651726002E+04  0.29498832435E+04 0.  0.
        2    1    3    3  502    0  0.94030291423E+03  0.90440284282E+03  0.84192612628E+03  0.15527245972E+04  0.25500000920E-02 0.  1.
       -2    1    3    3    0  502 -0.94030291423E+03 -0.90440284282E+03 -0.54119801223E+03  0.14124480030E+04  0.25500000920E-02 0. -1.
</event>
<event>
 5   0  0.2970915E-06  0.2985128E+04  0.7818609E-02  0.8247991E-01
        2   -1    0    0  501    0  0.00000000000E+00  0.00000000000E+00  0.12414745369E+04  0.12414745369E+04  0.25500000920E-02 0. -1.
       -2   -1    0    0    0  501  0.00000000000E+00  0.00000000000E+00 -0.17944362728E+04  0.17944362728E+04  0.25500000920E-02 0.  1.
    10030    2    1    2    0    0  0.00000000000E+00  0.00000000000E+00 -0.55296173590E+03  0.30359108098E+04  0.29851277633E+04 0.  0.
        4    1    3    3  502    0  0.41138129228E+03 -0.37516703724E+03 -0.16848719432E+04  0.17744801919E+04  0.12699999809E+01 0.  1.
       -4    1    3    3    0  502 -0.41138129228E+03  0.37516703724E+03  0.11319102073E+04  0.12614306179E+04  0.12699999809E+01 0. -1.
</event>
<event>
 5   0  0.3113328E-06  0.3001213E+04  0.7818609E-02  0.8243385E-01
        2   -1    0    0  501    0  0.00000000000E+00  0.00000000000E+00  0.21962319424E+04  0.21962319424E+04  0.25500000920E-02 0. -1.
       -2   -1    0    0    0  501  0.00000000000E+00  0.00000000000E+00 -0.10253104886E+04  0.10253104886E+04  0.25500000920E-02 0.  1.
    10030    2    1    2    0    0  0.00000000000E+00  0.00000000000E+00  0.11709214538E+04  0.32215424310E+04  0.30012128522E+04 0.  0.
        1    1    3    3  502    0 -0.11031100415E+04  0.10073434493E+04  0.73812359324E+03  0.16662589917E+04  0.50400001928E-02 0. -1.
       -1    1    3    3    0  502  0.11031100415E+04 -0.10073434493E+04  0.43279786053E+03  0.15552834393E+04  0.50400001928E-02 0.  1.
</event>
<event>
 5   0  0.1091075E-06  0.3017616E+04  0.7818609E-02  0.8238718E-01
        1   -1    0    0  501    0  0.00000000000E+00  0.00000000000E+00  0.21220486439E+04  0.21220486439E+04  0.50400001928E-02 0.  1.
       -1   -1    0    0    0  501  0.00000000000E+00  0.00000000000E+00 -0.10727845623E+04  0.10727845623E+04  0.50400001928E-02 0. -1.
    10030    2    1    2    0    0  0.00000000000E+00  0.00000000000E+00  0.10492640816E+04  0.31948332062E+04  0.30176156320E+04 0.  0.
        1    1    3    3  502    0 -0.76582507123E+03 -0.74741094932E+03 -0.60150283800E+03  0.12275654080E+04  0.50400001928E-02 0. -1.
       -1    1    3    3    0  502  0.76582507123E+03  0.74741094932E+03  0.16507669196E+04  0.19672677982E+04  0.50400001928E-02 0.  1.
</event>
<event>
 5   0  0.2948711E-06  0.3000545E+04  0.7818609E-02  0.8243575E-01
        2   -1    0    0  501    0  0.00000000000E+00  0.00000000000E+00  0.12484468185E+04  0.12484468185E+04  0.25500000920E-02 0. -1.
       -2   -1    0    0    0  501  0.00000000000E+00  0.00000000000E+00 -0.18028944325E+04  0.18028944325E+04  0.25500000920E-02 0.  1.
    10030    2    1    2    0    0  0.00000000000E+00  0.00000000000E+00 -0.55444761401E+03  0.30513412511E+04  0.30005451628E+04 0.  0.
        5    1    3    3  502    0  0.14679863299E+03  0.14926029455E+04 -0.23941460210E+03  0.15188004587E+04  0.46999998093E+01 0.  1.
       -5    1    3    3    0  502 -0.14679863299E+03 -0.14926029455E+04 -0.31503301191E+03  0.15325407924E+04  0.46999998093E+01 0. -1.
</event>
<event>
 5   0  0.1097402E-06  0.2998868E+04  0.7818609E-02  0.8244054E-01
        1   -1    0    0  501    0  0.00000000000E+00  0.00000000000E+00  0.20384744295E+04  0.20384744295E+04  0.50400001928E-02 0. -1.
       -1   -1    0    0    0  501  0.00000000000E+00  0.00000000000E+00 -0.11029337677E+04  0.11029337677E+04  0.50400001928E-02 0.  1.
    10030    2    1    2    0    0  0.00000000000E+00  0.00000000000E+00  0.93554066179E+03  0.31414081972E+04  0.29988679750E+04 0.  0.
        4    1    3    3  502    0 -0.22972202951E+03 -0.86548485241E+03  0.17276263214E+04  0.19459009636E+04  0.12699999809E+01 0. -1.
       -4    1    3    3    0  502  0.22972202951E+03  0.86548485241E+03 -0.79208565963E+03  0.11955072336E+04  0.12699999809E+01 0.  1.
</event>
<event>
 5   0  0.1091076E-06  0.3010963E+04  0.7818609E-02  0.8240607E-01
        1   -1    0    0  501    0  0.00000000000E+00  0.00000000000E+00  0.13975117008E+04  0.13975117008E+04  0.50400001928E-02 0. -1.
       -1   -1    0    0    0  501  0.00000000000E+00  0.00000000000E+00 -0.16217933081E+04  0.16217933081E+04  0.50400001928E-02 0.  1.
    10030    2    1    2    0    0  0.00000000000E+00  0.00000000000E+00 -0.22428160732E+03  0.30193050090E+04  0.30109633837E+04 0.  0.
        3    1    3    3  502    0 -0.53750067891E+03 -0.11460847423E+04  0.70501427945E+03  0.14489521596E+04  0.10100000352E+00 0. -1.
       -3    1    3    3    0  502  0.53750067891E+03  0.11460847423E+04 -0.92929588677E+03  0.15703528494E+04  0.10100000352E+00 0.  1.
</event>
<event>
 5   0  0.1054384E-06  0.2992572E+04  0.7818609E-02  0.8245855E-01
        1   -1    0    0  501    0  0.00000000000E+00  0.00000000000E+00  0.16394675414E+04  0.16394675414E+04  0.50400001928E-02 0. -1.
       -1   -1    0    0    0  501  0.00000000000E+00  0.00000000000E+00 -0.13656088618E+04  0.13656088618E+04  0.50400001928E-02 0.  1.
    10030    2    1    2    0    0  0.00000000000E+00  0.00000000000E+00  0.27385867960E+03  0.30050764032E+04  0.29925717389E+04 0.  0.
        2    1    3    3  502    0 -0.57202496766E+03  0.10487137351E+04  0.10417261828E+04  0.15849941646E+04  0.25500000920E-02 0. -1.
       -2    1    3    3    0  502  0.57202496766E+03 -0.10487137351E+04 -0.76786750325E+03  0.14200822386E+04  0.25500000920E-02 0.  1.
</event>
<event>
 5   0  0.2970915E-06  0.2995659E+04  0.7818609E-02  0.8244972E-01
        2   -1    0    0  501    0  0.00000000000E+00  0.00000000000E+00  0.15491512488E+04  0.15491512488E+04  0.25500000920E-02 0.  1.
       -2   -1    0    0    0  501  0.00000000000E+00  0.00000000000E+00 -0.14482077111E+04  0.14482077111E+04  0.25500000920E-02 0. -1.
    10030    2    1    2    0    0  0.00000000000E+00  0.00000000000E+00  0.10094353771E+03  0.29973589600E+04  0.29956587151E+04 0.  0.
        4    1    3    3  502    0  0.12924685915E+04  0.52489670645E+03 -0.49527300501E+03  0.14803001638E+04  0.12699999809E+01 0. -1.
       -4    1    3    3    0  502 -0.12924685915E+04 -0.52489670645E+03  0.59621654272E+03  0.15170587962E+04  0.12699999809E+01 0.  1.
</event>
<event>
 5   0  0.1091075E-06  0.3002122E+04  0.7818609E-02  0.8243125E-01
       -1   -1    0    0    0  501  0.00000000000E+00  0.00000000000E+00  0.12263371441E+04  0.12263371441E+04  0.50400001928E-02 0. -1.
        1   -1    0    0  501    0  0.00000000000E+00  0.00000000000E+00 -0.18373280149E+04  0.18373280149E+04  0.50400001928E-02 0.  1.
    10030    2    1    2    0    0  0.00000000000E+00  0.00000000000E+00 -0.61099087079E+03  0.30636651589E+04  0.30021216434E+04 0.  0.
        1    1    3    3  502    0 -0.32447330980E+03  0.38543225696E+03 -0.17484631892E+04  0.18196055829E+04  0.50400001928E-02 0.  1.
       -1    1    3    3    0  502  0.32447330980E+03 -0.38543225696E+03  0.11374723184E+04  0.12440595760E+04  0.50400001928E-02 0. -1.
</event>
<event>
 5   0  0.1091076E-06  0.3113857E+04  0.7818609E-02  0.8211945E-01
       -1   -1    0    0    0  501  0.00000000000E+00  0.00000000000E+00  0.11574651229E+04  0.11574651229E+04  0.50400001928E-02 0. -1.
        1   -1    0    0  501    0  0.00000000000E+00  0.00000000000E+00 -0.20942543657E+04  0.20942543657E+04  0.50400001928E-02 0.  1.
    10030    2    1    2    0    0  0.00000000000E+00  0.00000000000E+00 -0.93678924279E+03  0.32517194886E+04  0.31138570209E+04 0.  0.
        3    1    3    3  502    0  0.83142502567E+03  0.12640380283E+04 -0.85203796470E+03  0.17363837173E+04  0.10100000352E+00 0.  1.
       -3    1    3    3    0  502 -0.83142502567E+03 -0.12640380283E+04 -0.84751278091E+02  0.15153357712E+04  0.10100000352E+00 0. -1.
</event>
<event>
 5   0  0.2862033E-06  0.2988759E+04  0.7818609E-02  0.8246948E-01
       -2   -1    0    0    0  501  0.00000000000E+00  0.00000000000E+00  0.13793415905E+04  0.13793415905E+04  0.25500000920E-02 0. -1.
        2   -1    0    0  501    0  0.00000000000E+00  0.00000000000E+00 -0.16190112806E+04  0.16190112806E+04  0.25500000920E-02 0.  1.
    10030    2    1    2    0    0  0.00000000000E+00  0.00000000000E+00 -0.23966969004E+03  0.29983528711E+04  0.29887586686E+04 0.  0.
        2    1    3    3  502    0  0.41111749919E+03  0.58892224177E+03 -0.14345081228E+04  0.16042632451E+04  0.25500000920E-02 0.  1.
       -2    1    3    3    0  502 -0.41111749919E+03 -0.58892224177E+03  0.11948384328E+04  0.13940896260E+04  0.25500000920E-02 0. -1.
</event>
<event>
 5   0  0.2970915E-06  0.3005521E+04  0.7818609E-02  0.8242156E-01
        2   -1    0    0  501    0  0.00000000000E+00  0.00000000000E+00  0.11312991956E+04  0.11312991956E+04  0.25500000920E-02 0. -1.
       -2   -1    0    0    0  501  0.00000000000E+00  0.00000000000E+00 -0.19961902912E+04  0.19961902912E+04  0.25500000920E-02 0.  1.
    10030    2    1    2    0    0  0.00000000000E+00  0.00000000000E+00 -0.86489109567E+03  0.31274894868E+04  0.30055205677E+04 0.  0.
        4    1    3    3  502    0  0.50407896339E+03  0.10572051572E+04  0.54730972424E+03  0.12927984734E+04  0.12699999809E+01 0. -1.
       -4    1    3    3    0  502 -0.50407896339E+03 -0.10572051572E+04 -0.14122008199E+04  0.18346910133E+04  0.12699999809E+01 0.  1.
</event>
<event>
 5   0  0.1113245E-06  0.2998618E+04  0.7818609E-02  0.8244126E-01
        1   -1    0    0  501    0  0.00000000000E+00  0.00000000000E+00  0.14460036038E+04  0.14460036038E+04  0.50400001928E-02 0.  1.
       -1   -1    0    0    0  501  0.00000000000E+00  0.00000000000E+00 -0.15545794554E+04  0.15545794554E+04  0.50400001928E-02 0. -1.
    10030    2    1    2    0    0  0.00000000000E+00  0.00000000000E+00 -0.10857585162E+03  0.30005830592E+04  0.29986180116E+04 0.  0.
        5    1    3    3  502    0 -0.97009912711E+03  0.60658151633E+03  0.91530109777E+03  0.14652070304E+04  0.46999998093E+01 0.  1.
       -5    1    3    3    0  502  0.97009912711E+03 -0.60658151633E+03 -0.10238769494E+04  0.15353760288E+04  0.46999998093E+01 0. -1.
</event>
<event>
 5   0  0.2970915E-06  0.2843852E+04  0.7818609E-02  0.8289782E-01
       -2   -1    0    0    0  501  0.00000000000E+00  0.00000000000E+00  0.14217843823E+04  0.14217843823E+04  0.25500000920E-02 0.  1.
        2   -1    0    0  501    0  0.00000000000E+00  0.00000000000E+00 -0.14220677064E+04  0.14220677064E+04  0.25500000920E-02 0. -1.
    10030    2    1    2    0    0  0.00000000000E+00  0.00000000000E+00 -0.28332413754E+00  0.28438520887E+04  0.28438520746E+04 0.  0.
        4    1    3    3  502    0  0.14060599561E+04 -0.14399430395E+03  0.15520660247E+03  0.14219105675E+04  0.12699999809E+01 0. -1.
       -4    1    3    3    0  502 -0.14060599561E+04  0.14399430395E+03 -0.15548992661E+03  0.14219415212E+04  0.12699999809E+01 0.  1.
</event>
<event>
 5   0  0.1054384E-06  0.3026300E+04  0.7818609E-02  0.8236260E-01
        1   -1    0    0  501    0  0.00000000000E+00  0.00000000000E+00  0.17110881635E+04  0.17110881635E+04  0.50400001928E-02 0.  1.
       -1   -1    0    0    0  501  0.00000000000E+00  0.00000000000E+00 -0.13381094944E+04  0.13381094944E+04  0.50400001928E-02 0. -1.
    10030    2    1    2    0    0  0.00000000000E+00  0.00000000000E+00  0.37297866911E+03  0.30491976580E+04  0.30263002610E+04 0.  0.
        2    1    3    3  502    0  0.82181404289E+03  0.10246319602E+04 -0.57044323577E+03  0.14320106355E+04  0.25500000920E-02 0. -1.
       -2    1    3    3    0  502 -0.82181404289E+03 -0.10246319602E+04  0.94342190488E+03  0.16171870224E+04  0.25500000920E-02 0.  1.
</event>
<event>
 5   0  0.2948711E-06  0.3001081E+04  0.7818609E-02  0.8243422E-01
       -2   -1    0    0    0  501  0.00000000000E+00  0.00000000000E+00  0.10957952271E+04  0.10957952271E+04  0.25500000920E-02 0. -1.
        2   -1    0    0  501    0  0.00000000000E+00  0.00000000000E+00 -0.20547831492E+04  0.20547831492E+04  0.25500000920E-02 0.  1.
    10030    2    1    2    0    0  0.00000000000E+00  0.00000000000E+00 -0.95898792210E+03  0.31505783762E+04  0.30010808503E+04 0.  0.
        5    1    3    3  502    0 -0.47427041747E+03 -0.12210009069E+04 -0.12479581009E+04  0.18091979314E+04  0.46999998093E+01 0.  1.
       -5    1    3    3    0  502  0.47427041747E+03  0.12210009069E+04  0.28897017881E+03  0.13413804448E+04  0.46999998093E+01 0. -1.
</event>
<event>
 5   0  0.1097402E-06  0.2955186E+04  0.7818609E-02  0.8256645E-01
       -1   -1    0    0    0  501  0.00000000000E+00  0.00000000000E+00  0.12317648892E+04  0.12317648892E+04  0.50400001928E-02 0.  1.
        1   -1    0    0  501    0  0.00000000000E+00  0.00000000000E+00 -0.17724814414E+04  0.17724814414E+04  0.50400001928E-02 0. -1.
    10030    2    1    2    0    0  0.00000000000E+00  0.00000000000E+00 -0.54071655223E+03  0.30042463306E+04  0.29551855484E+04 0.  0.
        4    1    3    3  502    0  0.68469777890E+03 -0.12631219959E+04 -0.62103509231E+03  0.15652394142E+04  0.12699999809E+01 0. -1.
       -4    1    3    3    0  502 -0.68469777890E+03  0.12631219959E+04  0.80318540081E+02  0.14390069165E+04  0.12699999809E+01 0.  1.
</event>
<event>
 5   0  0.2985941E-06  0.2996853E+04  0.7818609E-02  0.8244630E-01
       -2   -1    0    0    0  501  0.00000000000E+00  0.00000000000E+00  0.17299171567E+04  0.17299171567E+04  0.25500000920E-02 0.  1.
        2   -1    0    0  501    0  0.00000000000E+00  0.00000000000E+00 -0.12979131430E+04  0.12979131430E+04  0.25500000920E-02 0. -1.
    10030    2    1    2    0    0  0.00000000000E+00  0.00000000000E+00  0.43200401365E+03  0.30278302997E+04  0.29968531589E+04 0.  0.
        3    1    3    3  502    0  0.14422870742E+04 -0.24191068857E+03  0.54582609009E+03  0.15609737079E+04  0.10100000352E+00 0. -1.
       -3    1    3    3    0  502 -0.14422870742E+04  0.24191068857E+03 -0.11382207643E+03  0.14668565919E+04  0.10100000352E+00 0.  1.
</event>
<event>
 5   0  0.1054384E-06  0.2996407E+04  0.7818609E-02  0.8244758E-01
        1   -1    0    0  501    0  0.00000000000E+00  0.00000000000E+00  0.19209457847E+04  0.19209457847E+04  0.50400001928E-02 0.  1.
       -1   -1    0    0    0  501  0.00000000000E+00  0.00000000000E+00 -0.11684942912E+04  0.11684942912E+04  0.50400001928E-02 0. -1.
    10030    2    1    2    0    0  0.00000000000E+00  0.00000000000E+00  0.75245149348E+03  0.30894400759E+04  0.29964073041E+04 0.  0.
        2    1    3    3  502    0  0.50892266315E+03  0.82549924975E+03 -0.80123069138E+03  0.12579435239E+04  0.25500000920E-02 0. -1.
       -2    1    3    3    0  502 -0.50892266315E+03 -0.82549924975E+03  0.15536821849E+04  0.18314965520E+04  0.25500000920E-02 0.  1.
</event>
<event>
 5   0  0.2862033E-06  0.2768162E+04  0.7818609E-02  0.8313221E-01
       -2   -1    0    0    0  501  0.00000000000E+00  0.00000000000E+00  0.11686242188E+04  0.11686242188E+04  0.25500000920E-02 0. -1.
        2   -1    0    0  501    0  0.00000000000E+00  0.00000000000E+00 -0.16392611323E+04  0.16392611323E+04  0.25500000920E-02 0.  1.
    10030    2    1    2    0    0  0.00000000000E+00  0.00000000000E+00 -0.47063691344E+03  0.28078853511E+04  0.27681620330E+04 0.  0.
        2    1    3    3  502    0 -0.94410552695E+02 -0.94988792222E+03 -0.12519380520E+04  0.15743409108E+04  0.25500000920E-02 0.  1.
       -2    1    3    3    0  502  0.94410552695E+02  0.94988792222E+03  0.78130113857E+03  0.12335444404E+04  0.25500000920E-02 0. -1.
</event>
<event>
 5   0  0.2970915E-06  0.3016566E+04  0.7818609E-02  0.8239016E-01
       -2   -1    0    0    0  501  0.00000000000E+00  0.00000000000E+00  0.14031282112E+04  0.14031282112E+04  0.25500000920E-02 0. -1.
        2   -1    0    0  501    0  0.00000000000E+00  0.00000000000E+00 -0.16213178880E+04  0.16213178880E+04  0.25500000920E-02 0.  1.
    10030    2    1    2    0    0  0.00000000000E+00  0.00000000000E+00 -0.21818967688E+03  0.30244460992E+04  0.30165655093E+04 0.  0.
        4    1    3    3  502    0 -0.45852195623E+03  0.12448146079E+04  0.61049140460E+03  0.14603106383E+04  0.12699999809E+01 0. -1.
       -4    1    3    3    0  502  0.45852195623E+03 -0.12448146079E+04 -0.82868108148E+03  0.15641354609E+04  0.12699999809E+01 0.  1.
</event>
<event>
 5   0  0.2948711E-06  0.3046594E+04  0.7818609E-02  0.8230549E-01
       -2   -1    0    0    0  501  0.00000000000E+00  0.00000000000E+00  0.93642561477E+03  0.93642561477E+03  0.25500000920E-02 0.  1.
        2   -1    0    0  501    0  0.00000000000E+00  0.00000000000E+00 -0.24779689390E+04  0.24779689390E+04  0.25500000920E-02 0. -1.
    10030    2    1    2    0    0  0.00000000000E+00  0.00000000000E+00 -0.15415433242E+04  0.34143945538E+04  0.30465938929E+04 0.  0.
        5    1    3    3  502    0  0.62892903896E+03 -0.17233495579E+03  0.77207273299E+03  0.10106282541E+04  0.46999998093E+01 0.  1.
       -5    1    3    3    0  502 -0.62892903896E+03  0.17233495579E+03 -0.23136160572E+04  0.24037662996E+04  0.46999998093E+01 0. -1.
</event>
<event>
 5   0  0.1097402E-06  0.2972909E+04  0.7818609E-02  0.8251509E-01
        1   -1    0    0  501    0  0.00000000000E+00  0.00000000000E+00  0.19989840251E+04  0.19989840251E+04  0.50400001928E-02 0. -1.
       -1   -1    0    0    0  501  0.00000000000E+00  0.00000000000E+00 -0.11053349484E+04  0.11053349484E+04  0.50400001928E-02 0.  1.
    10030    2    1    2    0    0  0.00000000000E+00  0.00000000000E+00  0.89364907674E+03  0.31043189735E+04  0.29729089487E+04 0.  0.
        4    1    3    3  502    0  0.10949996745E+04  0.48291672367E+03 -0.47379998796E+03  0.12871367024E+04  0.12699999809E+01 0.  1.
       -4    1    3    3    0  502 -0.10949996745E+04 -0.48291672367E+03  0.13674490647E+04  0.18171822711E+04  0.12699999809E+01 0. -1.
</event>
<event>
 5   0  0.1054384E-06  0.3007697E+04  0.7818609E-02  0.8241536E-01
        1   -1    0    0  501    0  0.00000000000E+00  0.00000000000E+00  0.13487985521E+04  0.13487985521E+04  0.50400001928E-02 0.  1.
       -1   -1    0    0    0  501  0.00000000000E+00  0.00000000000E+00 -0.16767226261E+04  0.16767226261E+04  0.50400001928E-02 0. -1.
    10030    2    1    2    0    0  0.00000000000E+00  0.00000000000E+00 -0.32792407404E+03  0.30255211782E+04  0.30076974917E+04 0.  0.
        2    1    3    3  502    0  0.13212575836E+04 -0.61971307472E+03 -0.52914941899E+03  0.15523417809E+04  0.25500000920E-02 0.  1.
       -2    1    3    3    0  502 -0.13212575836E+04  0.61971307472E+03  0.20122534495E+03  0.14731793973E+04  0.25500000920E-02 0. -1.
</event>
<event>
 5   0  0.2948711E-06  0.2961435E+04  0.7818609E-02  0.8254830E-01
        2   -1    0    0  501    0  0.00000000000E+00  0.00000000000E+00  0.12046881505E+04  0.12046881505E+04  0.25500000920E-02 0. -1.
       -2   -1    0    0    0  501  0.00000000000E+00  0.00000000000E+00 -0.18199937593E+04  0.18199937593E+04  0.25500000920E-02 0.  1.
    10030    2    1    2    0    0  0.00000000000E+00  0.00000000000E+00 -0.61530560886E+03  0.30246819098E+04  0.29614354058E+04 0.  0.
        5    1    3    3  502    0  0.31705735620E+03 -0.12111100770E+04  0.49992318903E+03  0.13480572209E+04  0.46999998093E+01 0. -1.
       -5    1    3    3    0  502 -0.31705735620E+03  0.12111100770E+04 -0.11152287979E+04  0.16766246889E+04  0.46999998093E+01 0.  1.
</event>
<event>
 5   0  0.1091076E-06  0.2974722E+04  0.7818609E-02  0.8250986E-01
       -1   -1    0    0    0  501  0.00000000000E+00  0.00000000000E+00  0.25180467311E+04  0.25180467311E+04  0.50400001928E-02 0.  1.
        1   -1    0    0  501    0  0.00000000000E+00  0.00000000000E+00 -0.87855521950E+03  0.87855521951E+03  0.50400001928E-02 0. -1.
    10030    2    1    2    0    0  0.00000000000E+00  0.00000000000E+00  0.16394915116E+04  0.33966019506E+04  0.29747222382E+04 0.  0.
        3    1    3    3  502    0 -0.44497644622E+03 -0.11855097096E+04 -0.71172006690E+02  0.12682676272E+04  0.10100000352E+00 0. -1.
       -3    1    3    3    0  502  0.44497644622E+03  0.11855097096E+04  0.17106635183E+04  0.21283343234E+04  0.10100000352E+00 0.  1.
</event>
<event>
 5   0  0.3113328E-06  0.3006273E+04  0.7818609E-02  0.8241942E-01
        2   -1    0    0  501    0  0.00000000000E+00  0.00000000000E+00  0.20370696432E+04  0.20370696432E+04  0.25500000920E-02 0.  1.
       -2   -1    0    0    0  501  0.00000000000E+00  0.00000000000E+00 -0.11091515183E+04  0.11091515183E+04  0.25500000920E-02 0. -1.
    10030    2    1    2    0    0  0.00000000000E+00  0.00000000000E+00  0.92791812492E+03  0.31462211616E+04  0.30062727007E+04 0.  0.
        1    1    3    3  502    0 -0.34738605879E+03 -0.13578166308E+03 -0.10599535350E+04  0.11236615283E+04  0.50400001928E-02 0. -1.
       -1    1    3    3    0  502  0.34738605879E+03  0.13578166308E+03  0.19878716599E+04  0.20225596333E+04  0.50400001928E-02 0.  1.
</event>
<event>
 5   0  0.1091075E-06  0.2992165E+04  0.7818609E-02  0.8245972E-01
        1   -1    0    0  501    0  0.00000000000E+00  0.00000000000E+00  0.18140569521E+04  0.18140569521E+04  0.50400001928E-02 0.  1.
       -1   -1    0    0    0  501  0.00000000000E+00  0.00000000000E+00 -0.12338435730E+04  0.12338435730E+04  0.50400001928E-02 0. -1.
    10030    2    1    2    0    0  0.00000000000E+00  0.00000000000E+00  0.58021337911E+03  0.30479005251E+04  0.29921647758E+04 0.  0.
        1    1    3    3  502    0  0.11264981886E+04  0.17823211261E+03  0.12763870337E+04  0.17117034541E+04  0.50400001928E-02 0.  1.
       -1    1    3    3    0  502 -0.11264981886E+04 -0.17823211261E+03 -0.69617365463E+03  0.13361970709E+04  0.50400001928E-02 0. -1.
</event>
<event>
 5   0  0.3113328E-06  0.3003414E+04  0.7818609E-02  0.8242757E-01
        2   -1    0    0  501    0  0.00000000000E+00  0.00000000000E+00  0.11782402786E+04  0.11782402786E+04  0.25500000920E-02 0. -1.
       -2   -1    0    0    0  501  0.00000000000E+00  0.00000000000E+00 -0.19139763902E+04  0.19139763902E+04  0.25500000920E-02 0.  1.
    10030    2    1    2    0    0  0.00000000000E+00  0.00000000000E+00 -0.73573611160E+03  0.30922166688E+04  0.30034141075E+04 0.  0.
        1    1    3    3  502    0 -0.60001202420E+03  0.93967718204E+03  0.66791771387E+03  0.12996621515E+04  0.50400001928E-02 0. -1.
       -1    1    3    3    0  502  0.60001202420E+03 -0.93967718204E+03 -0.14036538255E+04  0.17925545173E+04  0.50400001928E-02 0.  1.
</event>
<event>
 5   0  0.3113328E-06  0.2995224E+04  0.7818609E-02  0.8245096E-01
       -2   -1    0    0    0  501  0.00000000000E+00  0.00000000000E+00  0.76879778019E+03  0.76879778019E+03  0.25500000920E-02 0.  1.
        2   -1    0    0  501    0  0.00000000000E+00  0.00000000000E+00 -0.29173354990E+04  0.29173354990E+04  0.25500000920E-02 0. -1.
    10030    2    1    2    0    0  0.00000000000E+00  0.00000000000E+00 -0.21485377188E+04  0.36861332791E+04  0.29952235681E+04 0.  0.
        1    1    3    3  502    0  0.86940275949E+03  0.86863667692E+03 -0.21275173532E+04  0.24569739361E+04  0.50400001928E-02 0.  1.
       -1    1    3    3    0  502 -0.86940275949E+03 -0.86863667692E+03 -0.21020365562E+02  0.12291593430E+04  0.50400001928E-02 0. -1.
</event>
<event>
 5   0  0.2948711E-06  0.2979805E+04  0.7818609E-02  0.8249521E-01
        2   -1    0    0  501    0  0.00000000000E+00  0.00000000000E+00  0.16220135336E+04  0.16220135336E+04  0.25500000920E-02 0. -1.
       -2   -1    0    0    0  501  0.00000000000E+00  0.00000000000E+00 -0.13685513058E+04  0.13685513058E+04  0.25500000920E-02 0.  1.
    10030    2    1    2    0    0  0.00000000000E+00  0.00000000000E+00  0.25346222778E+03  0.29905648394E+04  0.29798045167E+04 0.  0.
        5    1    3    3  502    0 -0.79682526275E+03  0.64403191340E+03 -0.95887692237E+03  0.14032728342E+04  0.46999998093E+01 0.  1.
       -5    1    3    3    0  502  0.79682526275E+03 -0.64403191340E+03  0.12123391502E+04  0.15872920052E+04  0.46999998093E+01 0. -1.
</event>
<event>
 5   0  0.2985941E-06  0.2999287E+04  0.7818609E-02  0.8243935E-01
       -2   -1    0    0    0  501  0.00000000000E+00  0.00000000000E+00  0.11610469862E+04  0.11610469862E+04  0.25500000920E-02 0.  1.
        2   -1    0    0  501    0  0.00000000000E+00  0.00000000000E+00 -0.19369845800E+04  0.19369845800E+04  0.25500000920E-02 0. -1.
    10030    2    1    2    0    0  0.00000000000E+00  0.00000000000E+00 -0.77593759385E+03  0.30980315662E+04  0.29992866544E+04 0.  0.
        3    1    3    3  502    0  0.21212367333E+02 -0.81698302734E+03  0.91081358794E+03  0.12237208152E+04  0.10100000352E+00 0.  1.
       -3    1    3    3    0  502 -0.21212367333E+02  0.81698302734E+03 -0.16867511818E+04  0.18743107509E+04  0.10100000352E+00 0. -1.
</event>
<event>
 5   0  0.1054384E-06  0.2991383E+04  0.7818609E-02  0.8246196E-01
       -1   -1    0    0    0  501  0.00000000000E+00  0.00000000000E+00  0.15966434617E+04  0.15966434618E+04  0.50400001928E-02 0. -1.
        1   -1    0    0  501    0  0.00000000000E+00  0.00000000000E+00 -0.14011221386E+04  0.14011221386E+04  0.50400001928E-02 0.  1.
    10030    2    1    2    0    0  0.00000000000E+00  0.00000000000E+00  0.19552132315E+03  0.29977656003E+04  0.29913826246E+04 0.  0.
        2    1    3    3  502    0  0.84130001683E+02 -0.14033880761E+04 -0.41373666254E+03  0.14655217417E+04  0.25500000920E-02 0.  1.
       -2    1    3    3    0  502 -0.84130001683E+02  0.14033880761E+04  0.60925798569E+03  0.15322438587E+04  0.25500000920E-02 0. -1.
</event>
<event>
 5   0  0.1091076E-06  0.2941552E+04  0.7818609E-02  0.8260621E-01
       -1   -1    0    0    0  501  0.00000000000E+00  0.00000000000E+00  0.20053514801E+04  0.20053514801E+04  0.50400001928E-02 0.  1.
        1   -1    0    0  501    0  0.00000000000E+00  0.00000000000E+00 -0.10787046653E+04  0.10787046653E+04  0.50400001928E-02 0. -1.
    10030    2    1    2    0    0  0.00000000000E+00  0.00000000000E+00  0.92664681478E+03  0.30840561454E+04  0.29415519694E+04 0.  0.
        3    1    3    3  502    0 -0.94945565987E+03 -0.49908917309E+03 -0.59171986647E+03  0.12250259031E+04  0.10100000352E+00 0. -1.
       -3    1    3    3    0  502  0.94945565987E+03  0.49908917309E+03  0.15183666813E+04  0.18590302423E+04  0.10100000352E+00 0.  1.
</event>
<event>
 5   0  0.1054384E-06  0.2841509E+04  0.7818609E-02  0.8290496E-01
        1   -1    0    0  501    0  0.00000000000E+00  0.00000000000E+00  0.20772267904E+04  0.20772267904E+04  0.50400001928E-02 0. -1.
       -1   -1    0    0    0  501  0.00000000000E+00  0.00000000000E+00 -0.97174926485E+03  0.97174926487E+03  0.50400001928E-02 0.  1.
    10030    2    1    2    0    0  0.00000000000E+00  0.00000000000E+00  0.11054775255E+04  0.30489760552E+04  0.28415091811E+04 0.  0.
        2    1    3    3  502    0 -0.92858443658E+03 -0.10428605168E+04  0.27146097076E+03  0.14225041905E+04  0.25500000920E-02 0. -1.
       -2    1    3    3    0  502  0.92858443658E+03  0.10428605168E+04  0.83401655477E+03  0.16264718648E+04  0.25500000920E-02 0.  1.
</event>
<event>
 5   0  0.1091075E-06  0.3003443E+04  0.7818609E-02  0.8242748E-01
       -1   -1    0    0    0  501  0.00000000000E+00  0.00000000000E+00  0.22516073527E+04  0.22516073527E+04  0.50400001928E-02 0.  1.
        1   -1    0    0  501    0  0.00000000000E+00  0.00000000000E+00 -0.10015809115E+04  0.10015809116E+04  0.50400001928E-02 0. -1.
    10030    2    1    2    0    0  0.00000000000E+00  0.00000000000E+00  0.12500264411E+04  0.32531882642E+04  0.30034426545E+04 0.  0.
        1    1    3    3  502    0 -0.95757882897E+03 -0.11438383930E+04  0.81213074000E+03  0.16984933977E+04  0.50400001928E-02 0.  1.
       -1    1    3    3    0  502  0.95757882897E+03  0.11438383930E+04  0.43789570114E+03  0.15546948666E+04  0.50400001928E-02 0. -1.
</event>
<event>
 5   0  0.2970915E-06  0.2996564E+04  0.7818609E-02  0.8244713E-01
        2   -1    0    0  501    0  0.00000000000E+00  0.00000000000E+00  0.15238378579E+04  0.15238378579E+04  0.25500000920E-02 0. -1.
       -2   -1    0    0    0  501  0.00000000000E+00  0.00000000000E+00 -0.14731546553E+04  0.14731546553E+04  0.25500000920E-02 0.  1.
    10030    2    1    2    0    0  0.00000000000E+00  0.00000000000E+00  0.50683202614E+02  0.29969925132E+04  0.29965639218E+04 0.  0.
        4    1    3    3  502    0 -0.12116766599E+04 -0.80085813120E+03 -0.34256036487E+03  0.14922745361E+04  0.12699999809E+01 0.  1.
       -4    1    3    3    0  502  0.12116766599E+04  0.80085813120E+03  0.39324356748E+03  0.15047179772E+04  0.12699999809E+01 0. -1.
</event>
<event>
 5   0  0.1091076E-06  0.2988078E+04  0.7818609E-02  0.8247143E-01
       -1   -1    0    0    0  501  0.00000000000E+00  0.00000000000E+00  0.12912480064E+04  0.12912480064E+04  0.50400001928E-02 0.  1.
        1   -1    0    0  501    0  0.00000000000E+00  0.00000000000E+00 -0.17286786961E+04  0.17286786961E+04  0.50400001928E-02 0. -1.
    10030    2    1    2    0    0  0.00000000000E+00  0.00000000000E+00 -0.43743068968E+03  0.30199267025E+04  0.29880782587E+04 0.  0.
        3    1    3    3  502    0  0.16567028089E+03 -0.63189033998E+03 -0.15766962502E+04  0.17066643253E+04  0.10100000352E+00 0. -1.
       -3    1    3    3    0  502 -0.16567028089E+03  0.63189033998E+03  0.11392655605E+04  0.13132623772E+04  0.10100000352E+00 0.  1.
</event>
<event>
 5   0  0.2862033E-06  0.3005219E+04  0.7818609E-02  0.8242242E-01
        2   -1    0    0  501    0  0.00000000000E+00  0.00000000000E+00  0.10187965191E+04  0.10187965191E+04  0.25500000920E-02 0. -1.
       -2   -1    0    0    0  501  0.00000000000E+00  0.00000000000E+00 -0.22161794229E+04  0.22161794229E+04  0.25500000920E-02 0.  1.
    10030    2    1    2    0    0  0.00000000000E+00  0.00000000000E+00 -0.11973829038E+04  0.32349759420E+04  0.30052193808E+04 0.  0.
        2    1    3    3  502    0  0.74317045282E+03 -0.39120624572E+03  0.74255767560E+03  0.11210426175E+04  0.25500000920E-02 0. -1.
       -2    1    3    3    0  502 -0.74317045282E+03  0.39120624572E+03 -0.19399405794E+04  0.21139333245E+04  0.25500000920E-02 0.  1.
</event>
<event>
 5   0  0.1113245E-06  0.2995113E+04  0.7818609E-02  0.8245128E-01
       -1   -1    0    0    0  501  0.00000000000E+00  0.00000000000E+00  0.10915722353E+04  0.10915722353E+04  0.50400001928E-02 0.  1.
        1   -1    0    0  501    0  0.00000000000E+00  0.00000000000E+00 -0.20545362532E+04  0.20545362532E+04  0.50400001928E-02 0. -1.
    10030    2    1    2    0    0  0.00000000000E+00  0.00000000000E+00 -0.96296401793E+03  0.31461084885E+04  0.29951125057E+04 0.  0.
        5    1    3    3  502    0 -0.13137400128E+04 -0.18394908115E+03  0.24846327241E+03  0.13496318659E+04  0.46999998093E+01 0.  1.
       -5    1    3    3    0  502  0.13137400128E+04  0.18394908115E+03 -0.12114272903E+04  0.17964766226E+04  0.46999998093E+01 0. -1.
</event>
<event>
 5   0  0.2970915E-06  0.2982728E+04  0.7818609E-02  0.8248680E-01
        2   -1    0    0  501    0  0.00000000000E+00  0.00000000000E+00  0.32849429935E+04  0.32849429935E+04  0.25500000920E-02 0. -1.
       -2   -1    0    0    0  501  0.00000000000E+00  0.00000000000E+00 -0.67707902102E+03  0.67707902103E+03  0.25500000920E-02 0.  1.
    10030    2    1    2    0    0  0.00000000000E+00  0.00000000000E+00  0.26078639724E+04  0.39620220145E+04  0.29827276015E+04 0.  0.
        4    1    3    3  502    0 -0.51726752424E+03 -0.11437790765E+04  0.23434991928E+03  0.12769956010E+04  0.12699999809E+01 0.  1.
       -4    1    3    3    0  502  0.51726752424E+03  0.11437790765E+04  0.23735140532E+04  0.26850264134E+04  0.12699999809E+01 0. -1.
</event>
<event>
 5   0  0.3113328E-06  0.2989336E+04  0.7818609E-02  0.8246783E-01
       -2   -1    0    0    0  501  0.00000000000E+00  0.00000000000E+00  0.15534611830E+04  0.15534611830E+04  0.25500000920E-02 0.  1.
        2   -1    0    0  501    0  0.00000000000E+00  0.00000000000E+00 -0.14380998364E+04  0.14380998364E+04  0.25500000920E-02 0. -1.
    10030    2    1    2    0    0  0.00000000000E+00  0.00000000000E+00  0.11536134662E+03  0.29915610194E+04  0.29893358949E+04 0.  0.
        1    1    3    3  502    0  0.10535901118E+04  0.10375791722E+04 -0.16021888184E+03  0.14873778109E+04  0.50400001928E-02 0.  1.
       -1    1    3    3    0  502 -0.10535901118E+04 -0.10375791722E+04  0.27558022846E+03  0.15041832085E+04  0.50400001928E-02 0. -1.
</event>
<event>
 5   0  0.3113328E-06  0.2653017E+04  0.7818609E-02  0.8350412E-01
        2   -1    0    0  501    0  0.00000000000E+00  0.00000000000E+00  0.22494983256E+04  0.22494983256E+04  0.25500000920E-02 0. -1.
       -2   -1    0    0    0  501  0.00000000000E+00  0.00000000000E+00 -0.78223002208E+03  0.78223002208E+03  0.25500000920E-02 0.  1.
    10030    2    1    2    0    0  0.00000000000E+00  0.00000000000E+00  0.14672683035E+04  0.30317283477E+04  0.26530172445E+04 0.  0.
        1    1    3    3  502    0 -0.10907324770E+04  0.27911054575E+02 -0.12847669498E+03  0.10986276096E+04  0.50400001928E-02 0.  1.
       -1    1    3    3    0  502  0.10907324770E+04 -0.27911054575E+02  0.15957449985E+04  0.19331007381E+04  0.50400001928E-02 0. -1.
</event>
<event>
 5   0  0.1097402E-06  0.3001824E+04  0.7818609E-02  0.8243210E-01
        1   -1    0    0  501    0  0.00000000000E+00  0.00000000000E+00  0.23936817936E+04  0.23936817936E+04  0.50400001928E-02 0. -1.
       -1   -1    0    0    0  501  0.00000000000E+00  0.00000000000E+00 -0.94111807811E+03  0.94111807812E+03  0.50400001928E-02 0.  1.
    10030    2    1    2    0    0  0.00000000000E+00  0.00000000000E+00  0.14525637155E+04  0.33347998717E+04  0.30018242515E+04 0.  0.
        4    1    3    3  502    0  0.11651898710E+04  0.70533911776E+03  0.25813493027E+02  0.13622916926E+04  0.12699999809E+01 0. -1.
       -4    1    3    3    0  502 -0.11651898710E+04 -0.70533911776E+03  0.14267502224E+04  0.19725081791E+04  0.12699999809E+01 0.  1.
</event>
<event>
 5   0  0.2970915E-06  0.3003667E+04  0.7818609E-02  0.8242684E-01
        2   -1    0    0  501    0  0.00000000000E+00  0.00000000000E+00  0.27047454458E+04  0.27047454458E+04  0.25500000920E-02 0.  1.
       -2   -1    0    0    0  501  0.00000000000E+00  0.00000000000E+00 -0.83390633238E+03  0.83390633238E+03  0.25500000920E-02 0. -1.
    10030    2    1    2    0    0  0.00000000000E+00  0.00000000000E+00  0.18708391134E+04  0.35386517781E+04  0.30036673282E+04 0.  0.
        4    1    3    3  502    0 -0.51196221539E+02  0.12448768971E+04 -0.52482897052E+02  0.12470347266E+04  0.12699999809E+01 0.  1.
       -4    1    3    3    0  502  0.51196221539E+02 -0.12448768971E+04  0.19233220104E+04  0.22916170515E+04  0.12699999809E+01 0. -1.
</event>
<event>
 5   0  0.2970915E-06  0.2994504E+04  0.7818609E-02  0.8245302E-01
       -2   -1    0    0    0  501  0.00000000000E+00  0.00000000000E+00  0.17440406499E+04  0.17440406499E+04  0.25500000920E-02 0. -1.
        2   -1    0    0  501    0  0.00000000000E+00  0.00000000000E+00 -0.12853850301E+04  0.12853850301E+04  0.25500000920E-02 0.  1.
    10030    2    1    2    0    0  0.00000000000E+00  0.00000000000E+00  0.45865561975E+03  0.30294256800E+04  0.29945041281E+04 0.  0.
        4    1    3    3  502    0  0.11082543863E+04  0.37048467415E+03 -0.71768468503E+03  0.13713349695E+04  0.12699999809E+01 0.  1.
       -4    1    3    3    0  502 -0.11082543863E+04 -0.37048467415E+03  0.11763403048E+04  0.16580907105E+04  0.12699999809E+01 0. -1.
</event>
<event>
 5   0  0.1054384E-06  0.2887491E+04  0.7818609E-02  0.8276609E-01
       -1   -1    0    0    0  501  0.00000000000E+00  0.00000000000E+00  0.97125677940E+03  0.97125677942E+03  0.50400001928E-02 0. -1.
        1   -1    0    0  501    0  0.00000000000E+00  0.00000000000E+00 -0.21460870046E+04  0.21460870046E+04  0.50400001928E-02 0.  1.
    10030    2    1    2    0    0  0.00000000000E+00  0.00000000000E+00 -0.11748302252E+04  0.31173437841E+04  0.28874913350E+04 0.  0.
        2    1    3    3  502    0 -0.72358626994E+03  0.12464600629E+04 -0.67877894597E+03  0.15931040883E+04  0.25500000920E-02 0.  1.
       -2    1    3    3    0  502  0.72358626994E+03 -0.12464600629E+04 -0.49605127926E+03  0.15242396958E+04  0.25500000920E-02 0. -1.
</event>
<event>
 5   0  0.2970915E-06  0.3012424E+04  0.7818609E-02  0.8240192E-01
       -2   -1    0    0    0  501  0.00000000000E+00  0.00000000000E+00  0.11932689260E+04  0.11932689260E+04  0.25500000920E-02 0. -1.
        2   -1    0    0  501    0  0.00000000000E+00  0.00000000000E+00 -0.19012262142E+04  0.19012262142E+04  0.25500000920E-02 0.  1.
    10030    2    1    2    0    0  0.00000000000E+00  0.00000000000E+00 -0.70795728822E+03  0.30944951401E+04  0.30124237170E+04 0.  0.
        4    1    3    3  502    0  0.85905976116E+03 -0.19077000545E+02 -0.16247446118E+04  0.18379728702E+04  0.12699999809E+01 0.  1.
       -4    1    3    3    0  502 -0.85905976116E+03  0.19077000545E+02  0.91678732360E+03  0.12565222699E+04  0.12699999809E+01 0. -1.
</event>
<event>
 5   0  0.1113245E-06  0.3001823E+04  0.7818609E-02  0.8243210E-01
       -1   -1    0    0    0  501  0.00000000000E+00  0.00000000000E+00  0.11031770066E+04  0.11031770066E+04  0.50400001928E-02 0.  1.
        1   -1    0    0  501    0  0.00000000000E+00  0.00000000000E+00 -0.20420440440E+04  0.20420440440E+04  0.50400001928E-02 0. -1.
    10030    2    1    2    0    0  0.00000000000E+00  0.00000000000E+00 -0.93886703739E+03  0.31452210505E+04  0.30018234696E+04 0.  0.
        5    1    3    3  502    0 -0.84577227904E+03  0.28651548097E+03 -0.17334161532E+04  0.19499167980E+04  0.46999998093E+01 0. -1.
       -5    1    3    3    0  502  0.84577227904E+03 -0.28651548097E+03  0.79454911579E+03  0.11953042526E+04  0.46999998093E+01 0.  1.
</event>
<event>
 5   0  0.1113245E-06  0.2968865E+04  0.7818609E-02  0.8252678E-01
        1   -1    0    0  501    0  0.00000000000E+00  0.00000000000E+00  0.15593924478E+04  0.15593924478E+04  0.50400001928E-02 0. -1.
       -1   -1    0    0    0  501  0.00000000000E+00  0.00000000000E+00 -0.14130761206E+04  0.14130761206E+04  0.50400001928E-02 0.  1.
    10030    2    1    2    0    0  0.00000000000E+00  0.00000000000E+00  0.14631632718E+03  0.29724685684E+04  0.29688652584E+04 0.  0.
        5    1    3    3  502    0  0.39375001098E+03 -0.10439131452E+04  0.10534912874E+04  0.15344900483E+04  0.46999998093E+01 0. -1.
       -5    1    3    3    0  502 -0.39375001098E+03  0.10439131452E+04 -0.90717496017E+03  0.14379785201E+04  0.46999998093E+01 0.  1.
</event>
<event>
 5   0  0.1113245E-06  0.3012145E+04  0.7818609E-02  0.8240271E-01
        1   -1    0    0  501    0  0.00000000000E+00  0.00000000000E+00  0.24122364427E+04  0.24122364427E+04  0.50400001928E-02 0.  1.
       -1   -1    0    0    0  501  0.00000000000E+00  0.00000000000E+00 -0.94031201941E+03  0.94031201942E+03  0.50400001928E-02 0. -1.
    10030    2    1    2    0    0  0.00000000000E+00  0.00000000000E+00  0.14719244233E+04  0.33525484621E+04  0.30121453622E+04 0.  0.
        5    1    3    3  502    0  0.31458137537E+03 -0.12369677312E+04 -0.15387688062E+03  0.12855935571E+04  0.46999998093E+01 0. -1.
       -5    1    3    3    0  502 -0.31458137537E+03  0.12369677312E+04  0.16258013039E+04  0.20669549050E+04  0.46999998093E+01 0.  1.
</event>
<event>
 5   0  0.1054384E-06  0.2997634E+04  0.7818609E-02  0.8244407E-01
        1   -1    0    0  501    0  0.00000000000E+00  0.00000000000E+00  0.12954306343E+04  0.12954306343E+04  0.50400001928E-02 0.  1.
       -1   -1    0    0    0  501  0.00000000000E+00  0.00000000000E+00 -0.17341360485E+04  0.17341360485E+04  0.50400001928E-02 0. -1.
    10030    2    1    2    0    0  0.00000000000E+00  0.00000000000E+00 -0.43870541423E+03  0.30295666828E+04  0.29976343748E+04 0.  0.
        2    1    3    3  502    0 -0.10918971311E+03 -0.12130863652E+04  0.66342320558E+03  0.13869503497E+04  0.25500000920E-02 0.  1.
       -2    1    3    3    0  502  0.10918971311E+03  0.12130863652E+04 -0.11021286198E+04  0.16426163330E+04  0.25500000920E-02 0. -1.
</event>
<event>
 5   0  0.2985941E-06  0.2993326E+04  0.7818609E-02  0.8245639E-01
        2   -1    0    0  501    0  0.00000000000E+00  0.00000000000E+00  0.13420700966E+04  0.13420700966E+04  0.25500000920E-02 0. -1.
       -2   -1    0    0    0  501  0.00000000000E+00  0.00000000000E+00 -0.16690632912E+04  0.16690632912E+04  0.25500000920E-02 0.  1.
    10030    2    1    2    0    0  0.00000000000E+00  0.00000000000E+00 -0.32699319452E+03  0.30111333878E+04  0.29933258643E+04 0.  0.
        3    1    3    3  502    0  0.88828252674E+03  0.12004155414E+04 -0.63120203661E+02  0.14946663473E+04  0.10100000352E+00 0. -1.
       -3    1    3    3    0  502 -0.88828252674E+03 -0.12004155414E+04 -0.26387299086E+03  0.15164670405E+04  0.10100000352E+00 0.  1.
</event>
<event>
 5   0  0.2948711E-06  0.3001593E+04  0.7818609E-02  0.8243276E-01
       -2   -1    0    0    0  501  0.00000000000E+00  0.00000000000E+00  0.14391678669E+04  0.14391678669E+04  0.25500000920E-02 0.  1.
        2   -1    0    0  501    0  0.00000000000E+00  0.00000000000E+00 -0.15650646236E+04  0.15650646236E+04  0.25500000920E-02 0. -1.
    10030    2    1    2    0    0  0.00000000000E+00  0.00000000000E+00 -0.12589675670E+03  0.30042324904E+04  0.30015933874E+04 0.  0.
        5    1    3    3  502    0 -0.82302092798E+03 -0.66003646185E+03  0.10053968143E+04  0.14573456773E+04  0.46999998093E+01 0.  1.
       -5    1    3    3    0  502  0.82302092798E+03  0.66003646185E+03 -0.11312935710E+04  0.15468868131E+04  0.46999998093E+01 0. -1.
</event>
<event>
 5   0  0.2862033E-06  0.2934085E+04  0.7818609E-02  0.8262808E-01
        2   -1    0    0  501    0  0.00000000000E+00  0.00000000000E+00  0.30252613303E+04  0.30252613303E+04  0.25500000920E-02 0. -1.
       -2   -1    0    0    0  501  0.00000000000E+00  0.00000000000E+00 -0.71141400388E+03  0.71141400389E+03  0.25500000920E-02 0.  1.
    10030    2    1    2    0    0  0.00000000000E+00  0.00000000000E+00  0.23138473264E+04  0.37366753342E+04  0.29340847130E+04 0.  0.
        2    1    3    3  502    0 -0.37888630928E+03  0.14151512692E+04  0.12556154467E+04  0.19294502067E+04  0.25500000920E-02 0. -1.
       -2    1    3    3    0  502  0.37888630928E+03 -0.14151512692E+04  0.10582318797E+04  0.18072251275E+04  0.25500000920E-02 0.  1.
</event>
<event>
 5   0  0.1097402E-06  0.3018420E+04  0.7818609E-02  0.8238490E-01
        1   -1    0    0  501    0  0.00000000000E+00  0.00000000000E+00  0.22476960655E+04  0.22476960655E+04  0.50400001928E-02 0.  1.
       -1   -1    0    0    0  501  0.00000000000E+00  0.00000000000E+00 -0.10133553522E+04  0.10133553522E+04  0.50400001928E-02 0. -1.
    10030    2    1    2    0    0  0.00000000000E+00  0.00000000000E+00  0.12343407133E+04  0.32610514177E+04  0.30184200093E+04 0.  0.
        4    1    3    3  502    0 -0.48868738475E+03 -0.56106000401E+03 -0.80143110316E+03  0.10935708089E+04  0.12699999809E+01 0. -1.
       -4    1    3    3    0  502  0.48868738475E+03  0.56106000401E+03  0.20357718164E+04  0.21674806088E+04  0.12699999809E+01 0.  1.
</event>
<event>
 5   0  0.3113328E-06  0.2994237E+04  0.7818609E-02  0.8245378E-01
        2   -1    0    0  501    0  0.00000000000E+00  0.00000000000E+00  0.20050167039E+04  0.20050167039E+04  0.25500000920E-02 0. -1.
       -2   -1    0    0    0  501  0.00000000000E+00  0.00000000000E+00 -0.11178780479E+04  0.11178780479E+04  0.25500000920E-02 0.  1.
    10030    2    1    2    0    0  0.00000000000E+00  0.00000000000E+00  0.88713865597E+03  0.31228947518E+04  0.29942372378E+04 0.  0.
        1    1    3    3  502    0  0.39739878904E+03  0.93925311130E+02 -0.10586731696E+04  0.11346967179E+04  0.50400001928E-02 0.  1.
       -1    1    3    3    0  502 -0.39739878904E+03 -0.93925311130E+02  0.19458118255E+04  0.19881980339E+04  0.50400001928E-02 0. -1.
</event>
<event>
 5   0  0.1054384E-06  0.2985439E+04  0.7818609E-02  0.8247901E-01
       -1   -1    0    0    0  501  0.00000000000E+00  0.00000000000E+00  0.92553857331E+03  0.92553857332E+03  0.50400001928E-02 0. -1.
        1   -1    0    0  501    0  0.00000000000E+00  0.00000000000E+00 -0.24074752003E+04  0.24074752003E+04  0.50400001928E-02 0.  1.
    10030    2    1    2    0    0  0.00000000000E+00  0.00000000000E+00 -0.14819366270E+04  0.33330137736E+04  0.29854387699E+04 0.  0.
        2    1    3    3  502    0  0.65590307723E+03  0.10583242675E+04 -0.16602072939E+04  0.20752222437E+04  0.25500000920E-02 0.  1.
       -2    1    3    3    0  502 -0.65590307723E+03 -0.10583242675E+04  0.17827066695E+03  0.12577915299E+04  0.25500000920E-02 0. -1.
</event>
<event>
 5   0  0.1091075E-06  0.3061345E+04  0.7818609E-02  0.8226427E-01
       -1   -1    0    0    0  501  0.00000000000E+00  0.00000000000E+00  0.24337520346E+04  0.24337520346E+04  0.50400001928E-02 0. -1.
        1   -1    0    0  501    0  0.00000000000E+00  0.00000000000E+00 -0.96269414965E+03  0.96269414966E+03  0.50400001928E-02 0.  1.
    10030    2    1    2    0    0  0.00000000000E+00  0.00000000000E+00  0.14710578850E+04  0.33964461843E+04  0.30613453549E+04 0.  0.
        1    1    3    3  502    0  0.11838496777E+04  0.52542310695E+03  0.16405325970E+04  0.20901953743E+04  0.50400001928E-02 0. -1.
       -1    1    3    3    0  502 -0.11838496777E+04 -0.52542310695E+03 -0.16947471203E+03  0.13062508100E+04  0.50400001928E-02 0.  1.
</event>
<event>
 5   0  0.1091076E-06  0.3005950E+04  0.7818609E-02  0.8242034E-01
        1   -1    0    0  501    0  0.00000000000E+00  0.00000000000E+00  0.19906260259E+04  0.19906260259E+04  0.50400001928E-02 0. -1.
       -1   -1    0    0    0  501  0.00000000000E+00  0.00000000000E+00 -0.11347857619E+04  0.11347857620E+04  0.50400001928E-02 0.  1.
    10030    2    1    2    0    0  0.00000000000E+00  0.00000000000E+00  0.85584026399E+03  0.31254117879E+04  0.30059501470E+04 0.  0.
        3    1    3    3  502    0  0.29535365168E+03 -0.33689623162E+03 -0.10637382981E+04  0.11542408880E+04  0.10100000352E+00 0.  1.
       -3    1    3    3    0  502 -0.29535365168E+03  0.33689623162E+03  0.19195785621E+04  0.19711708999E+04  0.10100000352E+00 0. -1.
</event>
<event>
 5   0  0.1054384E-06  0.3015403E+04  0.7818609E-02  0.8239346E-01
        1   -1    0    0  501    0  0.00000000000E+00  0.00000000000E+00  0.16312448774E+04  0.16312448774E+04  0.50400001928E-02 0.  1.
       -1   -1    0    0    0  501  0.00000000000E+00  0.00000000000E+00 -0.13935144704E+04  0.13935144704E+04  0.50400001928E-02 0. -1.
    10030    2    1    2    0    0  0.00000000000E+00  0.00000000000E+00  0.23773040696E+03  0.30247593479E+04  0.30154026872E+04 0.  0.
        2    1    3    3  502    0 -0.28202725889E+03 -0.13122054126E+04 -0.57009999604E+03  0.14582305803E+04  0.25500000920E-02 0. -1.
       -2    1    3    3    0  502  0.28202725889E+03  0.13122054126E+04  0.80783040300E+03  0.15665287676E+04  0.25500000920E-02 0.  1.
</event>
<event>
 5   0  0.1091076E-06  0.2998331E+04  0.7818609E-02  0.8244208E-01
        1   -1    0    0  501    0  0.00000000000E+00  0.00000000000E+00  0.17109041670E+04  0.17109041670E+04  0.50400001928E-02 0. -1.
       -1   -1    0    0    0  501  0.00000000000E+00  0.00000000000E+00 -0.13136314926E+04  0.13136314926E+04  0.50400001928E-02 0.  1.
    10030    2    1    2    0    0  0.00000000000E+00  0.00000000000E+00  0.39727267443E+03  0.30245356597E+04  0.29983312657E+04 0.  0.
        3    1    3    3  502    0 -0.10023969693E+04  0.51095964406E+02  0.13219607341E+04  0.16598164580E+04  0.10100000352E+00 0. -1.
       -3    1    3    3    0  502  0.10023969693E+04 -0.51095964406E+02 -0.92468805964E+03  0.13647192017E+04  0.10100000352E+00 0.  1.
</event>
<event>
 5   0  0.1091075E-06  0.2999802E+04  0.7818609E-02  0.8243788E-01
        1   -1    0    0  501    0  0.00000000000E+00  0.00000000000E+00  0.17627135673E+04  0.17627135673E+04  0.50400001928E-02 0. -1.
       -1   -1    0    0    0  501  0.00000000000E+00  0.00000000000E+00 -0.12762723656E+04  0.12762723656E+04  0.50400001928E-02 0.  1.
    10030    2    1    2    0    0  0.00000000000E+00  0.00000000000E+00  0.48644120177E+03  0.30389859329E+04  0.29998017364E+04 0.  0.
        1    1    3    3  502    0 -0.24071799031E+03  0.91690227338E+03  0.14207492340E+04  0.17079763804E+04  0.50400001928E-02 0. -1.
       -1    1    3    3    0  502  0.24071799031E+03 -0.91690227338E+03 -0.93430803227E+03  0.13310095526E+04  0.50400001928E-02 0.  1.
</event>
<event>
 5   0  0.1054384E-06  0.3229500E+04  0.7818609E-02  0.8181070E-01
       -1   -1    0    0    0  501  0.00000000000E+00  0.00000000000E+00  0.14097877723E+04  0.14097877723E+04  0.50400001928E-02 0. -1.
        1   -1    0    0  501    0  0.00000000000E+00  0.00000000000E+00 -0.18495103095E+04  0.18495103095E+04  0.50400001928E-02 0.  1.
    10030    2    1    2    0    0  0.00000000000E+00  0.00000000000E+00 -0.43972253723E+03  0.32592980819E+04  0.32294996635E+04 0.  0.
        2    1    3    3  502    0  0.67186183490E+03  0.19806741608E+03  0.12484817379E+04  0.14315500957E+04  0.25500000920E-02 0. -1.
       -2    1    3    3    0  502 -0.67186183490E+03 -0.19806741608E+03 -0.16882042751E+04  0.18277479862E+04  0.25500000920E-02 0.  1.
</event>
<event>
 5   0  0.2862033E-06  0.2957370E+04  0.7818609E-02  0.8256010E-01
       -2   -1    0    0    0  501  0.00000000000E+00  0.00000000000E+00  0.13470684668E+04  0.13470684668E+04  0.25500000920E-02 0. -1.
        2   -1    0    0  501    0  0.00000000000E+00  0.00000000000E+00 -0.16231607206E+04  0.16231607206E+04  0.25500000920E-02 0.  1.
    10030    2    1    2    0    0  0.00000000000E+00  0.00000000000E+00 -0.27609225377E+03  0.29702291874E+04  0.29573695226E+04 0.  0.
        2    1    3    3  502    0  0.14881382481E+03  0.14376161112E+04  0.17575927224E+03  0.14559453834E+04  0.25500000920E-02 0. -1.
       -2    1    3    3    0  502 -0.14881382481E+03 -0.14376161112E+04 -0.45185152601E+03  0.15142838040E+04  0.25500000920E-02 0.  1.
</event>
<event>
 5   0  0.1054384E-06  0.3018416E+04  0.7818609E-02  0.8238492E-01
       -1   -1    0    0    0  501  0.00000000000E+00  0.00000000000E+00  0.22416674450E+04  0.22416674450E+04  0.50400001928E-02 0.  1.
        1   -1    0    0  501    0  0.00000000000E+00  0.00000000000E+00 -0.10160777581E+04  0.10160777581E+04  0.50400001928E-02 0. -1.
    10030    2    1    2    0    0  0.00000000000E+00  0.00000000000E+00  0.12255896870E+04  0.32577452031E+04  0.30184157646E+04 0.  0.
        2    1    3    3  502    0 -0.14890431080E+04  0.24581619543E+03  0.60655243069E+03  0.16265241562E+04  0.25500000920E-02 0.  1.
       -2    1    3    3    0  502  0.14890431080E+04 -0.24581619543E+03  0.61903725627E+03  0.16312210470E+04  0.25500000920E-02 0. -1.
</event>
<event>
 5   0  0.1113245E-06  0.2881608E+04  0.7818609E-02  0.8278371E-01
        1   -1    0    0  501    0  0.00000000000E+00  0.00000000000E+00  0.18359527477E+04  0.18359527477E+04  0.50400001928E-02 0. -1.
       -1   -1    0    0    0  501  0.00000000000E+00  0.00000000000E+00 -0.11307026531E+04  0.11307026531E+04  0.50400001928E-02 0.  1.
    10030    2    1    2    0    0  0.00000000000E+00  0.00000000000E+00  0.70525009464E+03  0.29666554008E+04  0.28816083306E+04 0.  0.
        5    1    3    3  502    0  0.13443083037E+04  0.51377259332E+03  0.42370967028E+03  0.15002263389E+04  0.46999998093E+01 0.  1.
       -5    1    3    3    0  502 -0.13443083037E+04 -0.51377259332E+03  0.28154042435E+03  0.14664290619E+04  0.46999998093E+01 0. -1.
</event>
<event>
 5   0  0.2985941E-06  0.3002486E+04  0.7818609E-02  0.8243021E-01
        2   -1    0    0  501    0  0.00000000000E+00  0.00000000000E+00  0.27967669387E+04  0.27967669387E+04  0.25500000920E-02 0. -1.
       -2   -1    0    0    0  501  0.00000000000E+00  0.00000000000E+00 -0.80583404628E+03  0.80583404629E+03  0.25500000920E-02 0.  1.
    10030    2    1    2    0    0  0.00000000000E+00  0.00000000000E+00  0.19909328924E+04  0.36026009849E+04  0.30024856494E+04 0.  0.
        3    1    3    3  502    0 -0.66650109274E+03  0.84850551334E+03  0.22479088079E+04  0.24934472787E+04  0.10100000352E+00 0. -1.
       -3    1    3    3    0  502  0.66650109274E+03 -0.84850551334E+03 -0.25697591550E+03  0.11091537063E+04  0.10100000352E+00 0.  1.
</event>
<event>
 5   0  0.2985941E-06  0.3000690E+04  0.7818609E-02  0.8243534E-01
       -2   -1    0    0    0  501  0.00000000000E+00  0.00000000000E+00  0.18274223672E+04  0.18274223672E+04  0.25500000920E-02 0. -1.
        2   -1    0    0  501    0  0.00000000000E+00  0.00000000000E+00 -0.12318086368E+04  0.12318086368E+04  0.25500000920E-02 0.  1.
    10030    2    1    2    0    0  0.00000000000E+00  0.00000000000E+00  0.59561373034E+03  0.30592310040E+04  0.30006896907E+04 0.  0.
        3    1    3    3  502    0 -0.47742388335E+03 -0.56077136696E+03 -0.10348429165E+04  0.12701566685E+04  0.10100000352E+00 0.  1.
       -3    1    3    3    0  502  0.47742388335E+03  0.56077136696E+03  0.16304566469E+04  0.17890743355E+04  0.10100000352E+00 0. -1.
</event>
<event>
 5   0  0.2970915E-06  0.3001735E+04  0.7818609E-02  0.8243236E-01
        2   -1    0    0  501    0  0.00000000000E+00  0.00000000000E+00  0.10917505118E+04  0.10917505118E+04  0.25500000920E-02 0. -1.
       -2   -1    0    0    0  501  0.00000000000E+00  0.00000000000E+00 -0.20632947344E+04  0.20632947344E+04  0.25500000920E-02 0.  1.
    10030    2    1    2    0    0  0.00000000000E+00  0.00000000000E+00 -0.97154422261E+03  0.31550452463E+04  0.30017348866E+04 0.  0.
        4    1    3    3  502    0  0.23200343776E+03  0.12463596872E+04 -0.13301472285E+04  0.18375340343E+04  0.12699999809E+01 0.  1.
       -4    1    3    3    0  502 -0.23200343776E+03 -0.12463596872E+04  0.35860300585E+03  0.13175112120E+04  0.12699999809E+01 0. -1.
</event>
<event>
 5   0  0.2985941E-06  0.2991324E+04  0.7818609E-02  0.8246213E-01
        2   -1    0    0  501    0  0.00000000000E+00  0.00000000000E+00  0.14364606005E+04  0.14364606005E+04  0.25500000920E-02 0.  1.
       -2   -1    0    0    0  501  0.00000000000E+00  0.00000000000E+00 -0.15573032499E+04  0.15573032499E+04  0.25500000920E-02 0. -1.
    10030    2    1    2    0    0  0.00000000000E+00  0.00000000000E+00 -0.12084264935E+03  0.29937638504E+04  0.29913239621E+04 0.  0.
        3    1    3    3  502    0  0.93849843980E+03 -0.17019223539E+03 -0.12134287351E+04  0.15434228273E+04  0.10100000352E+00 0. -1.
       -3    1    3    3    0  502 -0.93849843980E+03  0.17019223539E+03  0.10925860857E+04  0.14503410231E+04  0.10100000352E+00 0.  1.
</event>
<event>
 5   0  0.3113328E-06  0.3055465E+04  0.7818609E-02  0.8228068E-01
        2   -1    0    0  501    0  0.00000000000E+00  0.00000000000E+00  0.23160919920E+04  0.23160919920E+04  0.25500000920E-02 0. -1.
       -2   -1    0    0    0  501  0.00000000000E+00  0.00000000000E+00 -0.10077173871E+04  0.10077173871E+04  0.25500000920E-02 0.  1.
    10030    2    1    2    0    0  0.00000000000E+00  0.00000000000E+00  0.13083746049E+04  0.33238093791E+04  0.30554647243E+04 0.  0.
        1    1    3    3  502    0 -0.62149772026E+02  0.11527820760E+04  0.17426627018E+04  0.20903689630E+04  0.50400001928E-02 0. -1.
       -1    1    3    3    0  502  0.62149772026E+02 -0.11527820760E+04 -0.43428809690E+03  0.12334404161E+04  0.50400001928E-02 0.  1.
</event>
<event>
 5   0  0.2985941E-06  0.2963129E+04  0.7818609E-02  0.8254339E-01
       -2   -1    0    0    0  501  0.00000000000E+00  0.00000000000E+00  0.17499266389E+04  0.17499266389E+04  0.25500000920E-02 0.  1.
        2   -1    0    0  501    0  0.00000000000E+00  0.00000000000E+00 -0.12543569929E+04  0.12543569929E+04  0.25500000920E-02 0. -1.
    10030    2    1    2    0    0  0.00000000000E+00  0.00000000000E+00  0.49556964602E+03  0.30042836318E+04  0.29631285606E+04 0.  0.
        3    1    3    3  502    0  0.58268037454E+03  0.79718890766E+03 -0.87209506209E+03  0.13174127603E+04  0.10100000352E+00 0. -1.
       -3    1    3    3    0  502 -0.58268037454E+03 -0.79718890766E+03  0.13676647081E+04  0.16868708716E+04  0.10100000352E+00 0.  1.
</event>
<event>
 5   0  0.2948711E-06  0.2977341E+04  0.7818609E-02  0.8250231E-01
       -2   -1    0    0    0  501  0.00000000000E+00  0.00000000000E+00  0.12749421601E+04  0.12749421601E+04  0.25500000920E-02 0.  1.
        2   -1    0    0  501    0  0.00000000000E+00  0.00000000000E+00 -0.17382276509E+04  0.17382276509E+04  0.25500000920E-02 0. -1.
    10030    2    1    2    0    0  0.00000000000E+00  0.00000000000E+00 -0.46328549078E+03  0.30131698110E+04  0.29773409049E+04 0.  0.
        5    1    3    3  502    0  0.20660510110E+03  0.70861412808E+03  0.10767013749E+04  0.13054223804E+04  0.46999998093E+01 0.  1.
       -5    1    3    3    0  502 -0.20660510110E+03 -0.70861412808E+03 -0.15399868657E+04  0.17077474307E+04  0.46999998093E+01 0. -1.
</event>
<event>
 5   0  0.1091076E-06  0.3039797E+04  0.7818609E-02  0.8232457E-01
       -1   -1    0    0    0  501  0.00000000000E+00  0.00000000000E+00  0.10743184623E+04  0.10743184623E+04  0.50400001928E-02 0.  1.
        1   -1    0    0  501    0  0.00000000000E+00  0.00000000000E+00 -0.21502853824E+04  0.21502853824E+04  0.50400001928E-02 0. -1.
    10030    2    1    2    0    0  0.00000000000E+00  0.00000000000E+00 -0.10759669201E+04  0.32246038447E+04  0.30397968916E+04 0.  0.
        3    1    3    3  502    0 -0.15491474946E+03 -0.20006203882E+03 -0.21277861928E+04  0.21427779846E+04  0.10100000352E+00 0. -1.
       -3    1    3    3    0  502  0.15491474946E+03  0.20006203882E+03  0.10518192727E+04  0.10818258601E+04  0.10100000352E+00 0.  1.
</event>
<event>
 5   0  0.1091075E-06  0.2995692E+04  0.7818609E-02  0.8244962E-01
       -1   -1    0    0    0  501  0.00000000000E+00  0.00000000000E+00  0.89472094631E+03  0.89472094633E+03  0.50400001928E-02 0. -1.
        1   -1    0    0  501    0  0.00000000000E+00  0.00000000000E+00 -0.25075326264E+04  0.25075326264E+04  0.50400001928E-02 0.  1.
    10030    2    1    2    0    0  0.00000000000E+00  0.00000000000E+00 -0.16128116801E+04  0.34022535727E+04  0.29956915492E+04 0.  0.
        1    1    3    3  502    0  0.25467610693E+03  0.48060907322E+03 -0.23914095319E+04  0.24524853822E+04  0.50400001928E-02 0.  1.
       -1    1    3    3    0  502 -0.25467610693E+03 -0.48060907322E+03  0.77859785186E+03  0.94976819048E+03  0.50400001928E-02 0. -1.
</event>
<event>
 5   0  0.1091076E-06  0.3000949E+04  0.7818609E-02  0.8243460E-01
       -1   -1    0    0    0  501  0.00000000000E+00  0.00000000000E+00  0.10038272192E+04  0.10038272192E+04  0.50400001928E-02 0.  1.
        1   -1    0    0  501    0  0.00000000000E+00  0.00000000000E+00 -0.22428397970E+04  0.22428397970E+04  0.50400001928E-02 0. -1.
    10030    2    1    2    0    0  0.00000000000E+00  0.00000000000E+00 -0.12390125778E+04  0.32466670162E+04  0.30009489409E+04 0.  0.
        3    1    3    3  502    0 -0.57772253676E+03  0.39261683323E+03 -0.20562138969E+04  0.21716184995E+04  0.10100000352E+00 0. -1.
       -3    1    3    3    0  502  0.57772253676E+03 -0.39261683323E+03  0.81720131909E+03  0.10750485167E+04  0.10100000352E+00 0.  1.
</event>
<event>
 5   0  0.1091075E-06  0.3009911E+04  0.7818609E-02  0.8240906E-01
       -1   -1    0    0    0  501  0.00000000000E+00  0.00000000000E+00  0.13670162059E+04  0.13670162059E+04  0.50400001928E-02 0. -1.
        1   -1    0    0  501    0  0.00000000000E+00  0.00000000000E+00 -0.16568135504E+04  0.16568135505E+04  0.50400001928E-02 0.  1.
    10030    2    1    2    0    0  0.00000000000E+00  0.00000000000E+00 -0.28979734456E+03  0.30238297563E+04  0.30099109446E+04 0.  0.
        1    1    3    3  502    0  0.12306069111E+04 -0.36209131523E+03  0.64575247002E+03  0.14361405721E+04  0.50400001928E-02 0. -1.
       -1    1    3    3    0  502 -0.12306069111E+04  0.36209131523E+03 -0.93554981458E+03  0.15876891843E+04  0.50400001928E-02 0.  1.
</event>
<event>
 5   0  0.1097402E-06  0.3037447E+04  0.7818609E-02  0.8233118E-01
       -1   -1    0    0    0  501  0.00000000000E+00  0.00000000000E+00  0.11018875761E+04  0.11018875761E+04  0.50400001928E-02 0. -1.
        1   -1    0    0  501    0  0.00000000000E+00  0.00000000000E+00 -0.20932456563E+04  0.20932456563E+04  0.50400001928E-02 0.  1.
    10030    2    1    2    0    0  0.00000000000E+00  0.00000000000E+00 -0.99135808017E+03  0.31951332324E+04  0.30374472061E+04 0.  0.
        4    1    3    3  502    0 -0.10061620401E+04  0.52361710071E+03  0.56669308998E+03  0.12679430548E+04  0.12699999809E+01 0. -1.
       -4    1    3    3    0  502  0.10061620401E+04 -0.52361710071E+03 -0.15580511702E+04  0.19271901776E+04  0.12699999809E+01 0.  1.
</event>
<event>
 5   0  0.2970915E-06  0.3004823E+04  0.7818609E-02  0.8242355E-01
       -2   -1    0    0    0  501  0.00000000000E+00  0.00000000000E+00  0.11284740612E+04  0.11284740612E+04  0.25500000920E-02 0.  1.
        2   -1    0    0  501    0  0.00000000000E+00  0.00000000000E+00 -0.20002594968E+04  0.20002594968E+04  0.25500000920E-02 0. -1.
    10030    2    1    2    0    0  0.00000000000E+00  0.00000000000E+00 -0.87178543564E+03  0.31287335580E+04  0.30048234276E+04 0.  0.
        4    1    3    3  502    0 -0.23227060565E+03  0.14780778384E+04 -0.57780540268E+03  0.16039091080E+04  0.12699999809E+01 0. -1.
       -4    1    3    3    0  502  0.23227060565E+03 -0.14780778384E+04 -0.29398003297E+03  0.15248244500E+04  0.12699999809E+01 0.  1.
</event>
<event>
 5   0  0.2948711E-06  0.2983669E+04  0.7818609E-02  0.8248410E-01
        2   -1    0    0  501    0  0.00000000000E+00  0.00000000000E+00  0.18774777974E+04  0.18774777974E+04  0.25500000920E-02 0. -1.
       -2   -1    0    0    0  501  0.00000000000E+00  0.00000000000E+00 -0.11854040517E+04  0.11854040517E+04  0.25500000920E-02 0.  1.
    10030    2    1    2    0    0  0.00000000000E+00  0.00000000000E+00  0.69207374572E+03  0.30628818491E+04  0.29836687404E+04 0.  0.
        5    1    3    3  502    0  0.35678522103E+03  0.14923900208E+03 -0.11330415234E+04  0.11972356315E+04  0.46999998093E+01 0.  1.
       -5    1    3    3    0  502 -0.35678522103E+03 -0.14923900208E+03  0.18251152691E+04  0.18656462176E+04  0.46999998093E+01 0. -1.
</event>
<event>
 5   0  0.1091075E-06  0.2918390E+04  0.7818609E-02  0.8267427E-01
       -1   -1    0    0    0  501  0.00000000000E+00  0.00000000000E+00  0.13693265068E+04  0.13693265068E+04  0.50400001928E-02 0. -1.
        1   -1    0    0  501    0  0.00000000000E+00  0.00000000000E+00 -0.15549614850E+04  0.15549614850E+04  0.50400001928E-02 0.  1.
    10030    2    1    2    0    0  0.00000000000E+00  0.00000000000E+00 -0.18563497820E+03  0.29242879918E+04  0.29183899523E+04 0.  0.
        1    1    3    3  502    0 -0.44351306405E+03  0.67885909211E+03  0.11227692231E+04  0.13849780624E+04  0.50400001928E-02 0. -1.
       -1    1    3    3    0  502  0.44351306405E+03 -0.67885909211E+03 -0.13084042013E+04  0.15393099294E+04  0.50400001928E-02 0.  1.
</event>
<event>
 5   0  0.2985941E-06  0.2992748E+04  0.7818609E-02  0.8245805E-01
       -2   -1    0    0    0  501  0.00000000000E+00  0.00000000000E+00  0.17380898454E+04  0.17380898454E+04  0.25500000920E-02 0. -1.
        2   -1    0    0  501    0  0.00000000000E+00  0.00000000000E+00 -0.12882733905E+04  0.12882733905E+04  0.25500000920E-02 0.  1.
    10030    2    1    2    0    0  0.00000000000E+00  0.00000000000E+00  0.44981645491E+03  0.30263632360E+04  0.29927478332E+04 0.  0.
        3    1    3    3  502    0 -0.13090177539E+04 -0.62884666317E+02 -0.50545979723E+03  0.14046250668E+04  0.10100000352E+00 0.  1.
       -3    1    3    3    0  502  0.13090177539E+04  0.62884666317E+02  0.95527625214E+03  0.16217381692E+04  0.10100000352E+00 0. -1.
</event>
<event>
 5   0  0.3113328E-06  0.2995799E+04  0.7818609E-02  0.8244932E-01
        2   -1    0    0  501    0  0.00000000000E+00  0.00000000000E+00  0.27025830000E+04  0.27025830000E+04  0.25500000920E-02 0. -1.
       -2   -1    0    0    0  501  0.00000000000E+00  0.00000000000E+00 -0.83020672100E+03  0.83020672101E+03  0.25500000920E-02 0.  1.
    10030    2    1    2    0    0  0.00000000000E+00  0.00000000000E+00  0.18723762790E+04  0.35327897210E+04  0.29957987721E+04 0.  0.
        1    1    3    3  502    0  0.86115201611E+03  0.67613681335E+03 -0.26927720769E+03  0.11274990021E+04  0.50400001928E-02 0.  1.
       -1    1    3    3    0  502 -0.86115201611E+03 -0.67613681335E+03  0.21416534867E+04  0.24052907189E+04  0.50400001928E-02 0. -1.
</event>
<event>
 5   0  0.2862033E-06  0.3030458E+04  0.7818609E-02  0.8235087E-01
        2   -1    0    0  501    0  0.00000000000E+00  0.00000000000E+00  0.21498131249E+04  0.21498131249E+04  0.25500000920E-02 0. -1.
       -2   -1    0    0    0  501  0.00000000000E+00  0.00000000000E+00 -0.10679619187E+04  0.10679619187E+04  0.25500000920E-02 0.  1.
    10030    2    1    2    0    0  0.00000000000E+00  0.00000000000E+00  0.10818512061E+04  0.32177750436E+04  0.30304577541E+04 0.  0.
        2    1    3    3  502    0 -0.14114421150E+04 -0.16866284905E+03 -0.16199286722E+02  0.14215760330E+04  0.25500000920E-02 0.  1.
       -2    1    3    3    0  502  0.14114421150E+04  0.16866284905E+03  0.10980504929E+04  0.17961990106E+04  0.25500000920E-02 0. -1.
</event>
<event>
 5   0  0.1054384E-06  0.3004551E+04  0.7818609E-02  0.8242432E-01
       -1   -1    0    0    0  501  0.00000000000E+00  0.00000000000E+00  0.15702446855E+04  0.15702446856E+04  0.50400001928E-02 0.  1.
        1   -1    0    0  501    0  0.00000000000E+00  0.00000000000E+00 -0.14372485274E+04  0.14372485274E+04  0.50400001928E-02 0. -1.
    10030    2    1    2    0    0  0.00000000000E+00  0.00000000000E+00  0.13299615812E+03  0.30074932130E+04  0.30045511226E+04 0.  0.
        2    1    3    3  502    0  0.44415297390E+03 -0.84236394431E+02  0.15005433322E+04  0.15671623803E+04  0.25500000920E-02 0.  1.
       -2    1    3    3    0  502 -0.44415297390E+03  0.84236394431E+02 -0.13675471741E+04  0.14403308327E+04  0.25500000920E-02 0. -1.
</event>
<event>
 5   0  0.1097402E-06  0.2995930E+04  0.7818609E-02  0.8244894E-01
        1   -1    0    0  501    0  0.00000000000E+00  0.00000000000E+00  0.19231557519E+04  0.19231557519E+04  0.50400001928E-02 0.  1.
       -1   -1    0    0    0  501  0.00000000000E+00  0.00000000000E+00 -0.11667795823E+04  0.11667795823E+04  0.50400001928E-02 0. -1.
    10030    2    1    2    0    0  0.00000000000E+00  0.00000000000E+00  0.75637616959E+03  0.30899353342E+04  0.29959298156E+04 0.  0.
        4    1    3    3  502    0  0.11242755316E+04 -0.98651900531E+03  0.46249672203E+03  0.15656053301E+04  0.12699999809E+01 0. -1.
       -4    1    3    3    0  502 -0.11242755316E+04  0.98651900531E+03  0.29387944756E+03  0.15243300041E+04  0.12699999809E+01 0.  1.
</event>
<event>
 5   0  0.2948711E-06  0.2974350E+04  0.7818609E-02  0.8251094E-01
       -2   -1    0    0    0  501  0.00000000000E+00  0.00000000000E+00  0.12047691502E+04  0.12047691502E+04  0.25500000920E-02 0. -1.
        2   -1    0    0  501    0  0.00000000000E+00  0.00000000000E+00 -0.18357784557E+04  0.18357784557E+04  0.25500000920E-02 0.  1.
    10030    2    1    2    0    0  0.00000000000E+00  0.00000000000E+00 -0.63100930550E+03  0.30405476059E+04  0.29743498450E+04 0.  0.
        5    1    3    3  502    0 -0.38176932162E+03  0.11911522095E+04 -0.11378179698E+04  0.16909296921E+04  0.46999998093E+01 0.  1.
       -5    1    3    3    0  502  0.38176932162E+03 -0.11911522095E+04  0.50680866426E+03  0.13496179139E+04  0.46999998093E+01 0. -1.
</event>
<event>
 5   0  0.1054384E-06  0.3021902E+04  0.7818609E-02  0.8237504E-01
       -1   -1    0    0    0  501  0.00000000000E+00  0.00000000000E+00  0.10774588487E+04  0.10774588487E+04  0.50400001928E-02 0. -1.
        1   -1    0    0  501    0  0.00000000000E+00  0.00000000000E+00 -0.21188499444E+04  0.21188499444E+04  0.50400001928E-02 0.  1.
    10030    2    1    2    0    0  0.00000000000E+00  0.00000000000E+00 -0.10413910957E+04  0.31963087931E+04  0.30219024615E+04 0.  0.
        2    1    3    3  502    0  0.26799396129E+03  0.62050187175E+03 -0.19500310031E+04  0.20638469539E+04  0.25500000920E-02 0.  1.
       -2    1    3    3    0  502 -0.26799396129E+03 -0.62050187175E+03  0.90863990734E+03  0.11324618392E+04  0.25500000920E-02 0. -1.
</event>
<event>
 5   0  0.1113245E-06  0.2983773E+04  0.7818609E-02  0.8248380E-01
       -1   -1    0    0    0  501  0.00000000000E+00  0.00000000000E+00  0.10050953857E+04  0.10050953857E+04  0.50400001928E-02 0. -1.
        1   -1    0    0  501    0  0.00000000000E+00  0.00000000000E+00 -0.22144422570E+04  0.22144422570E+04  0.50400001928E-02 0.  1.
    10030    2    1    2    0    0  0.00000000000E+00  0.00000000000E+00 -0.12093468713E+04  0.32195376427E+04  0.29837732450E+04 0.  0.
        5    1    3    3  502    0 -0.76243173435E+03  0.21508532953E+02 -0.19881459001E+04  0.21294391225E+04  0.46999998093E+01 0.  1.
       -5    1    3    3    0  502  0.76243173435E+03 -0.21508532953E+02  0.77879902877E+03  0.10900985202E+04  0.46999998093E+01 0. -1.
</event>
<event>
 5   0  0.1097402E-06  0.2899087E+04  0.7818609E-02  0.8273149E-01
       -1   -1    0    0    0  501  0.00000000000E+00  0.00000000000E+00  0.13733638058E+04  0.13733638058E+04  0.50400001928E-02 0.  1.
        1   -1    0    0  501    0  0.00000000000E+00  0.00000000000E+00 -0.15299490331E+04  0.15299490331E+04  0.50400001928E-02 0. -1.
    10030    2    1    2    0    0  0.00000000000E+00  0.00000000000E+00 -0.15658522731E+03  0.29033128390E+04  0.28990871852E+04 0.  0.
        4    1    3    3  502    0 -0.64751247011E+03  0.11749179355E+04  0.47157094716E+03  0.14220004659E+04  0.12699999809E+01 0.  1.
       -4    1    3    3    0  502  0.64751247011E+03 -0.11749179355E+04 -0.62815617447E+03  0.14813123730E+04  0.12699999809E+01 0. -1.
</event>
<event>
 5   0  0.1091076E-06  0.2992659E+04  0.7818609E-02  0.8245830E-01
        1   -1    0    0  501    0  0.00000000000E+00  0.00000000000E+00  0.16959832399E+04  0.16959832399E+04  0.50400001928E-02 0.  1.
       -1   -1    0    0    0  501  0.00000000000E+00  0.00000000000E+00 -0.13201791877E+04  0.13201791877E+04  0.50400001928E-02 0. -1.
    10030    2    1    2    0    0  0.00000000000E+00  0.00000000000E+00  0.37580405224E+03  0.30161624276E+04  0.29926588687E+04 0.  0.
        3    1    3    3  502    0 -0.13408754948E+04  0.65755773033E+03  0.94044353094E+02  0.14963868523E+04  0.10100000352E+00 0.  1.
       -3    1    3    3    0  502  0.13408754948E+04 -0.65755773033E+03  0.28175969914E+03  0.15197755754E+04  0.10100000352E+00 0. -1.
</event>
<event>
 5   0  0.1113245E-06  0.2987995E+04  0.7818609E-02  0.8247167E-01
       -1   -1    0    0    0  501  0.00000000000E+00  0.00000000000E+00  0.21888299181E+04  0.21888299181E+04  0.50400001928E-02 0.  1.
        1   -1    0    0  501    0  0.00000000000E+00  0.00000000000E+00 -0.10197361658E+04  0.10197361658E+04  0.50400001928E-02 0. -1.
    10030    2    1    2    0    0  0.00000000000E+00  0.00000000000E+00  0.11690937523E+04  0.32085660840E+04  0.29879953336E+04 0.  0.
        5    1    3    3  502    0  0.90128862353E+03 -0.71075367030E+03  0.16114429287E+04  0.19784494852E+04  0.46999998093E+01 0.  1.
       -5    1    3    3    0  502 -0.90128862353E+03  0.71075367030E+03 -0.44234917643E+03  0.12301165988E+04  0.46999998093E+01 0. -1.
</event>
<event>
 5   0  0.1091075E-06  0.3042860E+04  0.7818609E-02  0.8231597E-01
        1   -1    0    0  501    0  0.00000000000E+00  0.00000000000E+00  0.14223295753E+04  0.14223295753E+04  0.50400001928E-02 0.  1.
       -1   -1    0    0    0  501  0.00000000000E+00  0.00000000000E+00 -0.16274351180E+04  0.16274351180E+04  0.50400001928E-02 0. -1.
    10030    2    1    2    0    0  0.00000000000E+00  0.00000000000E+00 -0.20510554270E+03  0.30497646933E+04  0.30428599049E+04 0.  0.
        1    1    3    3  502    0 -0.13074154699E+04 -0.49340809774E+03  0.50044550020E+03  0.14843289597E+04  0.50400001928E-02 0.  1.
       -1    1    3    3    0  502  0.13074154699E+04  0.49340809774E+03 -0.70555104290E+03  0.15654357336E+04  0.50400001928E-02 0. -1.
</event>
<event>
 5   0  0.3113328E-06  0.2978134E+04  0.7818609E-02  0.8250003E-01
        2   -1    0    0  501    0  0.00000000000E+00  0.00000000000E+00  0.22139274213E+04  0.22139274213E+04  0.25500000920E-02 0.  1.
       -2   -1    0    0    0  501  0.00000000000E+00  0.00000000000E+00 -0.10015325325E+04  0.10015325325E+04  0.25500000920E-02 0. -1.
    10030    2    1    2    0    0  0.00000000000E+00  0.00000000000E+00  0.12123948888E+04  0.32154599538E+04  0.29781338701E+04 0.  0.
        1    1    3    3  502    0 -0.70435387388E+03 -0.79179039776E+03 -0.52323930430E+03  0.11818738440E+04  0.50400001928E-02 0. -1.
       -1    1    3    3    0  502  0.70435387388E+03  0.79179039776E+03  0.17356341931E+04  0.20335861097E+04  0.50400001928E-02 0.  1.
</event>
<event>
 5   0  0.1091075E-06  0.3013688E+04  0.7818609E-02  0.8239833E-01
        1   -1    0    0  501    0  0.00000000000E+00  0.00000000000E+00  0.13892563655E+04  0.13892563655E+04  0.50400001928E-02 0. -1.
       -1   -1    0    0    0  501  0.00000000000E+00  0.00000000000E+00 -0.16343844890E+04  0.16343844890E+04  0.50400001928E-02 0.  1.
    10030    2    1    2    0    0  0.00000000000E+00  0.00000000000E+00 -0.24512812342E+03  0.30236408545E+04  0.30136881425E+04 0.  0.
        1    1    3    3  502    0 -0.51797865362E+03  0.46067649195E+03 -0.14649116991E+04  0.16206452425E+04  0.50400001928E-02 0.  1.
       -1    1    3    3    0  502  0.51797865362E+03 -0.46067649195E+03  0.12197835757E+04  0.14029956120E+04  0.50400001928E-02 0. -1.
</event>
<event>
 5   0  0.2970915E-06  0.3001817E+04  0.7818609E-02  0.8243212E-01
       -2   -1    0    0    0  501  0.00000000000E+00  0.00000000000E+00  0.93505174636E+03  0.93505174636E+03  0.25500000920E-02 0. -1.
        2   -1    0    0  501    0  0.00000000000E+00  0.00000000000E+00 -0.24091990916E+04  0.24091990916E+04  0.25500000920E-02 0.  1.
    10030    2    1    2    0    0  0.00000000000E+00  0.00000000000E+00 -0.14741473453E+04  0.33442508380E+04  0.30018166619E+04 0.  0.
        4    1    3    3  502    0  0.20617788574E+03 -0.14781222730E+04 -0.55962610968E+03  0.15939064496E+04  0.12699999809E+01 0. -1.
       -4    1    3    3    0  502 -0.20617788574E+03  0.14781222730E+04 -0.91452123559E+03  0.17503443884E+04  0.12699999809E+01 0.  1.
</event>
<event>
 5   0  0.2948711E-06  0.2999167E+04  0.7818609E-02  0.8243969E-01
        2   -1    0    0  501    0  0.00000000000E+00  0.00000000000E+00  0.25571593075E+04  0.25571593075E+04  0.25500000920E-02 0. -1.
       -2   -1    0    0    0  501  0.00000000000E+00  0.00000000000E+00 -0.87939390373E+03  0.87939390373E+03  0.25500000920E-02 0.  1.
    10030    2    1    2    0    0  0.00000000000E+00  0.00000000000E+00  0.16777654037E+04  0.34365532112E+04  0.29991667549E+04 0.  0.
        5    1    3    3  502    0  0.40594108496E+03  0.10531176130E+04  0.19702374004E+04  0.22706171794E+04  0.46999998093E+01 0. -1.
       -5    1    3    3    0  502 -0.40594108496E+03 -0.10531176130E+04 -0.29247199671E+03  0.11659360318E+04  0.46999998093E+01 0.  1.
</event>
<event>
 5   0  0.1054384E-06  0.2941447E+04  0.7818609E-02  0.8260651E-01
       -1   -1    0    0    0  501  0.00000000000E+00  0.00000000000E+00  0.16803133262E+04  0.16803133262E+04  0.50400001928E-02 0. -1.
        1   -1    0    0  501    0  0.00000000000E+00  0.00000000000E+00 -0.12872766009E+04  0.12872766009E+04  0.50400001928E-02 0.  1.
    10030    2    1    2    0    0  0.00000000000E+00  0.00000000000E+00  0.39303672527E+03  0.29675899271E+04  0.29414472812E+04 0.  0.
        2    1    3    3  502    0  0.27234679858E+03 -0.10556619545E+03 -0.12577193118E+04  0.12911912591E+04  0.25500000920E-02 0.  1.
       -2    1    3    3    0  502 -0.27234679858E+03  0.10556619545E+03  0.16507560370E+04  0.16763986680E+04  0.25500000920E-02 0. -1.
</event>
<event>
 5   0  0.1091075E-06  0.3029728E+04  0.7818609E-02  0.8235293E-01
       -1   -1    0    0    0  501  0.00000000000E+00  0.00000000000E+00  0.14966520521E+04  0.14966520522E+04  0.50400001928E-02 0. -1.
        1   -1    0    0  501    0  0.00000000000E+00  0.00000000000E+00 -0.15332972259E+04  0.15332972259E+04  0.50400001928E-02 0.  1.
    10030    2    1    2    0    0  0.00000000000E+00  0.00000000000E+00 -0.36645173790E+02  0.30299492781E+04  0.30297276708E+04 0.  0.
        1    1    3    3  502    0  0.31979271458E+03 -0.81785539722E+03  0.12161329654E+04  0.15000447395E+04  0.50400001928E-02 0. -1.
       -1    1    3    3    0  502 -0.31979271458E+03  0.81785539722E+03 -0.12527781392E+04  0.15299045386E+04  0.50400001928E-02 0.  1.
</event>
<event>
 5   0  0.2862033E-06  0.3011560E+04  0.7818609E-02  0.8240438E-01
        2   -1    0    0  501    0  0.00000000000E+00  0.00000000000E+00  0.22136957116E+04  0.22136957116E+04  0.25500000920E-02 0. -1.
       -2   -1    0    0    0  501  0.00000000000E+00  0.00000000000E+00 -0.10242480368E+04  0.10242480368E+04  0.25500000920E-02 0.  1.
    10030    2    1    2    0    0  0.00000000000E+00  0.00000000000E+00  0.11894476748E+04  0.32379437485E+04  0.30115600521E+04 0.  0.
        2    1    3    3  502    0 -0.22571918716E+03  0.48058333944E+03  0.21097103947E+04  0.21754970575E+04  0.25500000920E-02 0. -1.
       -2    1    3    3    0  502  0.22571918716E+03 -0.48058333944E+03 -0.92026271988E+03  0.10624466910E+04  0.25500000920E-02 0.  1.
</event>
<event>
 5   0  0.1091076E-06  0.2987009E+04  0.7818609E-02  0.8247450E-01
       -1   -1    0    0    0  501  0.00000000000E+00  0.00000000000E+00  0.89602021966E+03  0.89602021967E+03  0.50400001928E-02 0. -1.
        1   -1    0    0  501    0  0.00000000000E+00  0.00000000000E+00 -0.24894027867E+04  0.24894027867E+04  0.50400001928E-02 0.  1.
    10030    2    1    2    0    0  0.00000000000E+00  0.00000000000E+00 -0.15933825671E+04  0.33854230064E+04  0.29870086922E+04 0.  0.
        3    1    3    3  502    0 -0.16977437036E+02 -0.12614132153E+03  0.88986218160E+03  0.89891856072E+03  0.10100000352E+00 0. -1.
       -3    1    3    3    0  502  0.16977437036E+02  0.12614132153E+03 -0.24832447487E+04  0.24865044457E+04  0.10100000352E+00 0.  1.
</event>
<event>
 5   0  0.1091076E-06  0.2989210E+04  0.7818609E-02  0.8246819E-01
       -1   -1    0    0    0  501  0.00000000000E+00  0.00000000000E+00  0.13141031013E+04  0.13141031013E+04  0.50400001928E-02 0. -1.
        1   -1    0    0  501    0  0.00000000000E+00  0.00000000000E+00 -0.16999000571E+04  0.16999000571E+04  0.50400001928E-02 0.  1.
    10030    2    1    2    0    0  0.00000000000E+00  0.00000000000E+00 -0.38579695582E+03  0.30140031585E+04  0.29892098869E+04 0.  0.
        3    1    3    3  502    0 -0.10256983930E+04  0.10693917467E+04  0.41399324182E+01  0.14817803652E+04  0.10100000352E+00 0. -1.
       -3    1    3    3    0  502  0.10256983930E+04 -0.10693917467E+04 -0.38993688823E+03  0.15322227933E+04  0.10100000352E+00 0.  1.
</event>
<event>
 5   0  0.2862033E-06  0.2942372E+04  0.7818609E-02  0.8260381E-01
        2   -1    0    0  501    0  0.00000000000E+00  0.00000000000E+00  0.13752612725E+04  0.13752612725E+04  0.25500000920E-02 0.  1.
       -2   -1    0    0    0  501  0.00000000000E+00  0.00000000000E+00 -0.15738013642E+04  0.15738013643E+04  0.25500000920E-02 0. -1.
    10030    2    1    2    0    0  0.00000000000E+00  0.00000000000E+00 -0.19854009170E+03  0.29490626368E+04  0.29423718779E+04 0.  0.
        2    1    3    3  502    0 -0.10560406137E+04  0.32704891255E+03 -0.10721498919E+04  0.15400286230E+04  0.25500000920E-02 0. -1.
       -2    1    3    3    0  502  0.10560406137E+04 -0.32704891255E+03  0.87360980023E+03  0.14090340138E+04  0.25500000920E-02 0.  1.
</event>
<event>
 5   0  0.1113245E-06  0.3045594E+04  0.7818609E-02  0.8230830E-01
        1   -1    0    0  501    0  0.00000000000E+00  0.00000000000E+00  0.20138324246E+04  0.20138324246E+04  0.50400001928E-02 0.  1.
       -1   -1    0    0    0  501  0.00000000000E+00  0.00000000000E+00 -0.11514917018E+04  0.11514917018E+04  0.50400001928E-02 0. -1.
    10030    2    1    2    0    0  0.00000000000E+00  0.00000000000E+00  0.86234072279E+03  0.31653241264E+04  0.30455944088E+04 0.  0.
        5    1    3    3  502    0 -0.36186269527E+03  0.12772239538E+03 -0.11004079203E+04  0.11654086415E+04  0.46999998093E+01 0. -1.
       -5    1    3    3    0  502  0.36186269527E+03 -0.12772239538E+03  0.19627486431E+04  0.19999154849E+04  0.46999998093E+01 0.  1.
</event>
<event>
 5   0  0.2985941E-06  0.2986067E+04  0.7818609E-02  0.8247721E-01
       -2   -1    0    0    0  501  0.00000000000E+00  0.00000000000E+00  0.15095296705E+04  0.15095296705E+04  0.25500000920E-02 0.  1.
        2   -1    0    0  501    0  0.00000000000E+00  0.00000000000E+00 -0.14767177576E+04  0.14767177576E+04  0.25500000920E-02 0. -1.
    10030    2    1    2    0    0  0.00000000000E+00  0.00000000000E+00  0.32811912926E+02  0.29862474282E+04  0.29860671594E+04 0.  0.
        3    1    3    3  502    0 -0.11308852550E+04  0.85634236336E+03  0.48218675150E+03  0.14982415616E+04  0.10100000352E+00 0.  1.
       -3    1    3    3    0  502  0.11308852550E+04 -0.85634236336E+03 -0.44937483857E+03  0.14880058666E+04  0.10100000352E+00 0. -1.
</event>
<event>
 5   0  0.2985941E-06  0.2992272E+04  0.7818609E-02  0.8245941E-01
        2   -1    0    0  501    0  0.00000000000E+00  0.00000000000E+00  0.22385866173E+04  0.22385866173E+04  0.25500000920E-02 0.  1.
       -2   -1    0    0    0  501  0.00000000000E+00  0.00000000000E+00 -0.99992694376E+03  0.99992694377E+03  0.25500000920E-02 0. -1.
    10030    2    1    2    0    0  0.00000000000E+00  0.00000000000E+00  0.12386596735E+04  0.32385135611E+04  0.29922720963E+04 0.  0.
        3    1    3    3  502    0  0.45998735544E+03  0.13083364618E+04  0.12268521354E+04  0.18516205974E+04  0.10100000352E+00 0. -1.
       -3    1    3    3    0  502 -0.45998735544E+03 -0.13083364618E+04  0.11807538175E+02  0.13868929637E+04  0.10100000352E+00 0.  1.
</event>
<event>
 5   0  0.2862033E-06  0.2828964E+04  0.7818609E-02  0.8294332E-01
       -2   -1    0    0    0  501  0.00000000000E+00  0.00000000000E+00  0.87516690614E+03  0.87516690615E+03  0.25500000920E-02 0.  1.
        2   -1    0    0  501    0  0.00000000000E+00  0.00000000000E+00 -0.22861460978E+04  0.22861460978E+04  0.25500000920E-02 0. -1.
    10030    2    1    2    0    0  0.00000000000E+00  0.00000000000E+00 -0.14109791917E+04  0.31613130040E+04  0.28289640559E+04 0.  0.
        2    1    3    3  502    0 -0.50446232254E+03 -0.12882667850E+04 -0.10344275483E+04  0.17274703751E+04  0.25500000920E-02 0. -1.
       -2    1    3    3    0  502  0.50446232254E+03  0.12882667850E+04 -0.37655164334E+03  0.14338426288E+04  0.25500000920E-02 0.  1.
</event>
<event>
 5   0  0.1097402E-06  0.3042498E+04  0.7818609E-02  0.8231698E-01
       -1   -1    0    0    0  501  0.00000000000E+00  0.00000000000E+00  0.17095762399E+04  0.17095762400E+04  0.50400001928E-02 0. -1.
        1   -1    0    0  501    0  0.00000000000E+00  0.00000000000E+00 -0.13536676404E+04  0.13536676404E+04  0.50400001928E-02 0.  1.
    10030    2    1    2    0    0  0.00000000000E+00  0.00000000000E+00  0.35590859958E+03  0.30632438803E+04  0.30424976810E+04 0.  0.
        4    1    3    3  502    0  0.12072335180E+04 -0.73364271074E+03 -0.39029839728E+03  0.14655984600E+04  0.12699999809E+01 0.  1.
       -4    1    3    3    0  502 -0.12072335180E+04  0.73364271074E+03  0.74620699686E+03  0.15976454203E+04  0.12699999809E+01 0. -1.
</event>
<event>
 5   0  0.3113328E-06  0.3019880E+04  0.7818609E-02  0.8238077E-01
        2   -1    0    0  501    0  0.00000000000E+00  0.00000000000E+00  0.22232260868E+04  0.22232260868E+04  0.25500000920E-02 0. -1.
       -2   -1    0    0    0  501  0.00000000000E+00  0.00000000000E+00 -0.10255004626E+04  0.10255004626E+04  0.25500000920E-02 0.  1.
    10030    2    1    2    0    0  0.00000000000E+00  0.00000000000E+00  0.11977256242E+04  0.32487265494E+04  0.30198803820E+04 0.  0.
        1    1    3    3  502    0 -0.22129461556E+03  0.14794913164E+04  0.81947250202E+03  0.17056966447E+04  0.50400001928E-02 0. -1.
       -1    1    3    3    0  502  0.22129461556E+03 -0.14794913164E+04  0.37825312223E+03  0.15430299047E+04  0.50400001928E-02 0.  1.
</event>
<event>
 5   0  0.2862033E-06  0.2921482E+04  0.7818609E-02  0.8266514E-01
       -2   -1    0    0    0  501  0.00000000000E+00  0.00000000000E+00  0.10157261823E+04  0.10157261823E+04  0.25500000920E-02 0. -1.
        2   -1    0    0  501    0  0.00000000000E+00  0.00000000000E+00 -0.21007281661E+04  0.21007281661E+04  0.25500000920E-02 0.  1.
    10030    2    1    2    0    0  0.00000000000E+00  0.00000000000E+00 -0.10850019837E+04  0.31164543484E+04  0.29214822267E+04 0.  0.
        2    1    3    3  502    0  0.13548938215E+04  0.20625503517E+03 -0.10816902588E+04  0.17459473712E+04  0.25500000920E-02 0. -1.
       -2    1    3    3    0  502 -0.13548938215E+04 -0.20625503517E+03 -0.33117248822E+01  0.13705069772E+04  0.25500000920E-02 0.  1.
</event>
<event>
 5   0  0.2970915E-06  0.2993710E+04  0.7818609E-02  0.8245529E-01
       -2   -1    0    0    0  501  0.00000000000E+00  0.00000000000E+00  0.11689369722E+04  0.11689369722E+04  0.25500000920E-02 0. -1.
        2   -1    0    0  501    0  0.00000000000E+00  0.00000000000E+00 -0.19167631996E+04  0.19167631996E+04  0.25500000920E-02 0.  1.
    10030    2    1    2    0    0  0.00000000000E+00  0.00000000000E+00 -0.74782622745E+03  0.30857001718E+04  0.29937103207E+04 0.  0.
        4    1    3    3  502    0  0.11242993449E+04 -0.71527639872E+03  0.32887722927E+03  0.13725272996E+04  0.12699999809E+01 0.  1.
       -4    1    3    3    0  502 -0.11242993449E+04  0.71527639872E+03 -0.10767034567E+04  0.17131728722E+04  0.12699999809E+01 0. -1.
</event>
<event>
 5   0  0.2985941E-06  0.3054251E+04  0.7818609E-02  0.8228407E-01
       -2   -1    0    0    0  501  0.00000000000E+00  0.00000000000E+00  0.14455546641E+04  0.14455546641E+04  0.25500000920E-02 0. -1.
        2   -1    0    0  501    0  0.00000000000E+00  0.00000000000E+00 -0.16132990625E+04  0.16132990625E+04  0.25500000920E-02 0.  1.
    10030    2    1    2    0    0  0.00000000000E+00  0.00000000000E+00 -0.16774439838E+03  0.30588537265E+04  0.30542507980E+04 0.  0.
        3    1    3    3  502    0 -0.14029950047E+04 -0.58454062329E+03  0.64774022847E+02  0.15212752570E+04  0.10100000352E+00 0.  1.
       -3    1    3    3    0  502  0.14029950047E+04  0.58454062329E+03 -0.23251842123E+03  0.15375784695E+04  0.10100000352E+00 0. -1.
</event>
<event>
 5   0  0.1054384E-06  0.3011571E+04  0.7818609E-02  0.8240434E-01
        1   -1    0    0  501    0  0.00000000000E+00  0.00000000000E+00  0.15291643280E+04  0.15291643280E+04  0.50400001928E-02 0. -1.
       -1   -1    0    0    0  501  0.00000000000E+00  0.00000000000E+00 -0.14827640478E+04  0.14827640479E+04  0.50400001928E-02 0.  1.
    10030    2    1    2    0    0  0.00000000000E+00  0.00000000000E+00  0.46400280182E+02  0.30119283759E+04  0.30115709448E+04 0.  0.
        2    1    3    3  502    0 -0.11345492813E+04  0.78386569282E+03  0.62803831264E+03  0.15152820259E+04  0.25500000920E-02 0. -1.
       -2    1    3    3    0  502  0.11345492813E+04 -0.78386569282E+03 -0.58163803245E+03  0.14966463499E+04  0.25500000920E-02 0.  1.
</event>
<event>
 5   0  0.3113328E-06  0.2963910E+04  0.7818609E-02  0.8254112E-01
       -2   -1    0    0    0  501  0.00000000000E+00  0.00000000000E+00  0.11890978504E+04  0.11890978504E+04  0.25500000920E-02 0.  1.
        2   -1    0    0  501    0  0.00000000000E+00  0.00000000000E+00 -0.18469387255E+04  0.18469387255E+04  0.25500000920E-02 0. -1.
    10030    2    1    2    0    0  0.00000000000E+00  0.00000000000E+00 -0.65784087508E+03  0.30360365759E+04  0.29639101662E+04 0.  0.
        1    1    3    3  502    0 -0.14461349631E+03  0.12447051119E+04  0.48152655762E+03  0.13424126432E+04  0.50400001928E-02 0.  1.
       -1    1    3    3    0  502  0.14461349631E+03 -0.12447051119E+04 -0.11393674327E+04  0.16936239327E+04  0.50400001928E-02 0. -1.
</event>
<event>
 5   0  0.2970915E-06  0.2992488E+04  0.7818609E-02  0.8245879E-01
        2   -1    0    0  501    0  0.00000000000E+00  0.00000000000E+00  0.17093596970E+04  0.17093596970E+04  0.25500000920E-02 0. -1.
       -2   -1    0    0    0  501  0.00000000000E+00  0.00000000000E+00 -0.13096990487E+04  0.13096990487E+04  0.25500000920E-02 0.  1.
    10030    2    1    2    0    0  0.00000000000E+00  0.00000000000E+00  0.39966064826E+03  0.30190587457E+04  0.29924884422E+04 0.  0.
        4    1    3    3  502    0 -0.11154338266E+04  0.57409852885E+02 -0.80462849804E+03  0.13765598954E+04  0.12699999809E+01 0.  1.
       -4    1    3    3    0  502  0.11154338266E+04 -0.57409852885E+02  0.12042891463E+04  0.16424988504E+04  0.12699999809E+01 0. -1.
</event>
<event>
 5   0  0.1091075E-06  0.3008302E+04  0.7818609E-02  0.8241364E-01
        1   -1    0    0  501    0  0.00000000000E+00  0.00000000000E+00  0.25044903509E+04  0.25044903510E+04  0.50400001928E-02 0.  1.
       -1   -1    0    0    0  501  0.00000000000E+00  0.00000000000E+00 -0.90336527675E+03  0.90336527676E+03  0.50400001928E-02 0. -1.
    10030    2    1    2    0    0  0.00000000000E+00  0.00000000000E+00  0.16011250742E+04  0.34078556277E+04  0.30083015933E+04 0.  0.
        1    1    3    3  502    0 -0.10528705336E+04  0.18668207986E+03  0.19989326653E+04  0.22669623641E+04  0.50400001928E-02 0. -1.
       -1    1    3    3    0  502  0.10528705336E+04 -0.18668207986E+03 -0.39780759112E+03  0.11408932637E+04  0.50400001928E-02 0.  1.
</event>
<event>
 5   0  0.1054384E-06  0.2992098E+04  0.7818609E-02  0.8245991E-01
        1   -1    0    0  501    0  0.00000000000E+00  0.00000000000E+00  0.15112738844E+04  0.15112738844E+04  0.50400001928E-02 0. -1.
       -1   -1    0    0    0  501  0.00000000000E+00  0.00000000000E+00 -0.14809778490E+04  0.14809778490E+04  0.50400001928E-02 0.  1.
    10030    2    1    2    0    0  0.00000000000E+00  0.00000000000E+00  0.30296035434E+02  0.29922517334E+04  0.29920983584E+04 0.  0.
        2    1    3    3  502    0  0.11859770921E+04 -0.90355056588E+03 -0.10821899008E+03  0.14948767969E+04  0.25500000920E-02 0. -1.
       -2    1    3    3    0  502 -0.11859770921E+04  0.90355056588E+03  0.13851502551E+03  0.14973749365E+04  0.25500000920E-02 0.  1.
</event>
<event>
 5   0  0.1113245E-06  0.2994934E+04  0.7818609E-02  0.8245179E-01
        1   -1    0    0  501    0  0.00000000000E+00  0.00000000000E+00  0.14414017181E+04  0.14414017181E+04  0.50400001928E-02 0. -1.
       -1   -1    0    0    0  501  0.00000000000E+00  0.00000000000E+00 -0.15557132487E+04  0.15557132487E+04  0.50400001928E-02 0.  1.
    10030    2    1    2    0    0  0.00000000000E+00  0.00000000000E+00 -0.11431153062E+03  0.29971149668E+04  0.29949342227E+04 0.  0.
        5    1    3    3  502    0  0.85320173448E+03 -0.26604490148E+03 -0.12595515863E+04  0.15444174882E+04  0.46999998093E+01 0.  1.
       -5    1    3    3    0  502 -0.85320173448E+03  0.26604490148E+03  0.11452400557E+04  0.14526974786E+04  0.46999998093E+01 0. -1.
</event>
<event>
 5   0  0.1091076E-06  0.2953707E+04  0.7818609E-02  0.8257075E-01
        1   -1    0    0  501    0  0.00000000000E+00  0.00000000000E+00  0.22816941588E+04  0.22816941588E+04  0.50400001928E-02 0. -1.
       -1   -1    0    0    0  501  0.00000000000E+00  0.00000000000E+00 -0.95591099195E+03  0.95591099197E+03  0.50400001928E-02 0.  1.
    10030    2    1    2    0    0  0.00000000000E+00  0.00000000000E+00  0.13257831669E+04  0.32376051508E+04  0.29537071803E+04 0.  0.
        3    1    3    3  502    0  0.31130278658E+01 -0.97949418701E+03  0.18744233715E+04  0.21149188020E+04  0.10100000352E+00 0. -1.
       -3    1    3    3    0  502 -0.31130278658E+01  0.97949418701E+03 -0.54864020465E+03  0.11226863488E+04  0.10100000352E+00 0.  1.
</event>
<event>
 5   0  0.2970915E-06  0.3000780E+04  0.7818609E-02  0.8243508E-01
       -2   -1    0    0    0  501  0.00000000000E+00  0.00000000000E+00  0.89529641099E+03  0.89529641099E+03  0.25500000920E-02 0.  1.
        2   -1    0    0  501    0  0.00000000000E+00  0.00000000000E+00 -0.25144410875E+04  0.25144410875E+04  0.25500000920E-02 0. -1.
    10030    2    1    2    0    0  0.00000000000E+00  0.00000000000E+00 -0.16191446765E+04  0.34097374985E+04  0.30007799528E+04 0.  0.
        4    1    3    3  502    0 -0.95751725201E+03 -0.11386784848E+04 -0.10303171756E+04  0.18096914309E+04  0.12699999809E+01 0.  1.
       -4    1    3    3    0  502  0.95751725201E+03  0.11386784848E+04 -0.58882750083E+03  0.16000460676E+04  0.12699999809E+01 0. -1.
</event>
<event>
 5   0  0.1091075E-06  0.3014269E+04  0.7818609E-02  0.8239668E-01
        1   -1    0    0  501    0  0.00000000000E+00  0.00000000000E+00  0.15569327290E+04  0.15569327290E+04  0.50400001928E-02 0.  1.
       -1   -1    0    0    0  501  0.00000000000E+00  0.00000000000E+00 -0.14589294486E+04  0.14589294486E+04  0.50400001928E-02 0. -1.
    10030    2    1    2    0    0  0.00000000000E+00  0.00000000000E+00  0.98003280411E+02  0.30158621776E+04  0.30142694025E+04 0.  0.
        1    1    3    3  502    0  0.22344458692E+03  0.13289744788E+04 -0.62615442716E+03  0.14859912568E+04  0.50400001928E-02 0. -1.
       -1    1    3    3    0  502 -0.22344458692E+03 -0.13289744788E+04  0.72415770757E+03  0.15298709207E+04  0.50400001928E-02 0.  1.
</event>
<event>
 5   0  0.2948711E-06  0.3003310E+04  0.7818609E-02  0.8242786E-01
       -2   -1    0    0    0  501  0.00000000000E+00  0.00000000000E+00  0.15801146954E+04  0.15801146954E+04  0.25500000920E-02 0. -1.
        2   -1    0    0  501    0  0.00000000000E+00  0.00000000000E+00 -0.14270913980E+04  0.14270913980E+04  0.25500000920E-02 0.  1.
    10030    2    1    2    0    0  0.00000000000E+00  0.00000000000E+00  0.15302329740E+03  0.30072060934E+04  0.30033102335E+04 0.  0.
        5    1    3    3  502    0  0.69481467532E+03 -0.60857422923E+03 -0.11090072978E+04  0.14432772783E+04  0.46999998093E+01 0.  1.
       -5    1    3    3    0  502 -0.69481467532E+03  0.60857422923E+03  0.12620305952E+04  0.15639288151E+04  0.46999998093E+01 0. -1.
</event>
<event>
 5   0  0.2948711E-06  0.2999384E+04  0.7818609E-02  0.8243907E-01
       -2   -1    0    0    0  501  0.00000000000E+00  0.00000000000E+00  0.11480434024E+04  0.11480434024E+04  0.25500000920E-02 0. -1.
        2   -1    0    0  501    0  0.00000000000E+00  0.00000000000E+00 -0.19590508344E+04  0.19590508344E+04  0.25500000920E-02 0.  1.
    10030    2    1    2    0    0  0.00000000000E+00  0.00000000000E+00 -0.81100743198E+03  0.31070942369E+04  0.29993835270E+04 0.  0.
        5    1    3    3  502    0 -0.12958484265E+04  0.72840775953E+03 -0.20026707148E+03  0.14999766660E+04  0.46999998093E+01 0.  1.
       -5    1    3    3    0  502  0.12958484265E+04 -0.72840775953E+03 -0.61074036050E+03  0.16071175709E+04  0.46999998093E+01 0. -1.
</event>
<event>
 5   0  0.2948711E-06  0.3000146E+04  0.7818609E-02  0.8243689E-01
       -2   -1    0    0    0  501  0.00000000000E+00  0.00000000000E+00  0.15729271883E+04  0.15729271883E+04  0.25500000920E-02 0. -1.
        2   -1    0    0  501    0  0.00000000000E+00  0.00000000000E+00 -0.14305936389E+04  0.14305936389E+04  0.25500000920E-02 0.  1.
    10030    2    1    2    0    0  0.00000000000E+00  0.00000000000E+00  0.14233354940E+03  0.30035208272E+04  0.30001464165E+04 0.  0.
        5    1    3    3  502    0  0.60292616075E+03 -0.95751384588E+02 -0.13005967196E+04  0.14367540500E+04  0.46999998093E+01 0.  1.
       -5    1    3    3    0  502 -0.60292616075E+03  0.95751384588E+02  0.14429302690E+04  0.15667667772E+04  0.46999998093E+01 0. -1.
</event>
<event>
 5   0  0.2862033E-06  0.2991542E+04  0.7818609E-02  0.8246150E-01
        2   -1    0    0  501    0  0.00000000000E+00  0.00000000000E+00  0.20541287134E+04  0.20541287134E+04  0.25500000920E-02 0.  1.
       -2   -1    0    0    0  501  0.00000000000E+00  0.00000000000E+00 -0.10891873897E+04  0.10891873897E+04  0.25500000920E-02 0. -1.
    10030    2    1    2    0    0  0.00000000000E+00  0.00000000000E+00  0.96494132365E+03  0.31433161031E+04  0.29915421385E+04 0.  0.
        2    1    3    3  502    0  0.95331628049E+03 -0.95293867009E+02  0.16894156234E+04  0.19421683759E+04  0.25500000920E-02 0.  1.
       -2    1    3    3    0  502 -0.95331628049E+03  0.95293867009E+02 -0.72447429972E+03  0.12011477273E+04  0.25500000920E-02 0. -1.
</event>
<event>
 5   0  0.1097402E-06  0.3011898E+04  0.7818609E-02  0.8240342E-01
        1   -1    0    0  501    0  0.00000000000E+00  0.00000000000E+00  0.11770674531E+04  0.11770674531E+04  0.50400001928E-02 0.  1.
       -1   -1    0    0    0  501  0.00000000000E+00  0.00000000000E+00 -0.19267223563E+04  0.19267223563E+04  0.50400001928E-02 0. -1.
    10030    2    1    2    0    0  0.00000000000E+00  0.00000000000E+00 -0.74965490326E+03  0.31037898094E+04  0.30118978580E+04 0.  0.
        4    1    3    3  502    0  0.98847350834E+03  0.94755066085E+03 -0.10208085990E+04  0.17079180133E+04  0.12699999809E+01 0. -1.
       -4    1    3    3    0  502 -0.98847350834E+03 -0.94755066085E+03  0.27115369570E+03  0.13958717961E+04  0.12699999809E+01 0.  1.
</event>
<event>
 5   0  0.3113328E-06  0.3240713E+04  0.7818609E-02  0.8178147E-01
       -2   -1    0    0    0  501  0.00000000000E+00  0.00000000000E+00  0.13920620687E+04  0.13920620687E+04  0.25500000920E-02 0.  1.
        2   -1    0    0  501    0  0.00000000000E+00  0.00000000000E+00 -0.18860900888E+04  0.18860900888E+04  0.25500000920E-02 0. -1.
    10030    2    1    2    0    0  0.00000000000E+00  0.00000000000E+00 -0.49402802009E+03  0.32781521575E+04  0.32407125580E+04 0.  0.
        1    1    3    3  502    0  0.14763921477E+04 -0.80626105950E+02 -0.91748369539E+03  0.17401180058E+04  0.50400001928E-02 0.  1.
       -1    1    3    3    0  502 -0.14763921477E+04  0.80626105950E+02  0.42345567530E+03  0.15380341517E+04  0.50400001928E-02 0. -1.
</event>
<event>
 5   0  0.2948711E-06  0.2984032E+04  0.7818609E-02  0.8248305E-01
       -2   -1    0    0    0  501  0.00000000000E+00  0.00000000000E+00  0.13844661042E+04  0.13844661042E+04  0.25500000920E-02 0.  1.
        2   -1    0    0  501    0  0.00000000000E+00  0.00000000000E+00 -0.16079211381E+04  0.16079211381E+04  0.25500000920E-02 0. -1.
    10030    2    1    2    0    0  0.00000000000E+00  0.00000000000E+00 -0.22345503390E+03  0.29923872423E+04  0.29840323818E+04 0.  0.
        5    1    3    3  502    0 -0.79274172087E+03  0.11143592512E+04 -0.70993293153E+03  0.15408643139E+04  0.46999998093E+01 0. -1.
       -5    1    3    3    0  502  0.79274172087E+03 -0.11143592512E+04  0.48647789763E+03  0.14515229284E+04  0.46999998093E+01 0.  1.
</event>
<event>
 5   0  0.2970915E-06  0.3015618E+04  0.7818609E-02  0.8239285E-01
       -2   -1    0    0    0  501  0.00000000000E+00  0.00000000000E+00  0.10441039183E+04  0.10441039183E+04  0.25500000920E-02 0. -1.
        2   -1    0    0  501    0  0.00000000000E+00  0.00000000000E+00 -0.21774536929E+04  0.21774536929E+04  0.25500000920E-02 0.  1.
    10030    2    1    2    0    0  0.00000000000E+00  0.00000000000E+00 -0.11333497746E+04  0.32215576111E+04  0.30156179682E+04 0.  0.
        4    1    3    3  502    0 -0.13978910260E+04 -0.53518127778E+03 -0.37270430295E+03  0.15425396044E+04  0.12699999809E+01 0. -1.
       -4    1    3    3    0  502  0.13978910260E+04  0.53518127778E+03 -0.76064547163E+03  0.16790180068E+04  0.12699999809E+01 0.  1.
</event>
<event>
 5   0  0.2985941E-06  0.3004855E+04  0.7818609E-02  0.8242346E-01
       -2   -1    0    0    0  501  0.00000000000E+00  0.00000000000E+00  0.12811169982E+04  0.12811169982E+04  0.25500000920E-02 0. -1.
        2   -1    0    0  501    0  0.00000000000E+00  0.00000000000E+00 -0.17619693980E+04  0.17619693980E+04  0.25500000920E-02 0.  1.
    10030    2    1    2    0    0  0.00000000000E+00  0.00000000000E+00 -0.48085239982E+03  0.30430863962E+04  0.30048553683E+04 0.  0.
        3    1    3    3  502    0 -0.82698788928E+03  0.61564756622E+03 -0.13471977282E+04  0.16964293749E+04  0.10100000352E+00 0.  1.
       -3    1    3    3    0  502  0.82698788928E+03 -0.61564756622E+03  0.86634532842E+03  0.13466570213E+04  0.10100000352E+00 0. -1.
</event>
<event>
 5   0  0.2948711E-06  0.3002131E+04  0.7818609E-02  0.8243123E-01
       -2   -1    0    0    0  501  0.00000000000E+00  0.00000000000E+00  0.83961554545E+03  0.83961554546E+03  0.25500000920E-02 0. -1.
        2   -1    0    0  501    0  0.00000000000E+00  0.00000000000E+00 -0.26836067854E+04  0.26836067854E+04  0.25500000920E-02 0.  1.
    10030    2    1    2    0    0  0.00000000000E+00  0.00000000000E+00 -0.18439912400E+04  0.35232223309E+04  0.30021312263E+04 0.  0.
        5    1    3    3  502    0 -0.21622604184E+03 -0.14447889530E+04 -0.51714319001E+03  0.15497186806E+04  0.46999998093E+01 0. -1.
       -5    1    3    3    0  502  0.21622604184E+03  0.14447889530E+04 -0.13268480500E+04  0.19735036503E+04  0.46999998093E+01 0.  1.
</event>
<event>
 5   0  0.1097402E-06  0.2997048E+04  0.7818609E-02  0.8244574E-01
        1   -1    0    0  501    0  0.00000000000E+00  0.00000000000E+00  0.17369648970E+04  0.17369648970E+04  0.50400001928E-02 0.  1.
       -1   -1    0    0    0  501  0.00000000000E+00  0.00000000000E+00 -0.12928152878E+04  0.12928152878E+04  0.50400001928E-02 0. -1.
    10030    2    1    2    0    0  0.00000000000E+00  0.00000000000E+00  0.44414960917E+03  0.30297801849E+04  0.29970483969E+04 0.  0.
        4    1    3    3  502    0  0.37958520130E+03 -0.12530039797E+04  0.95905605799E+03  0.16229276119E+04  0.12699999809E+01 0.  1.
       -4    1    3    3    0  502 -0.37958520130E+03  0.12530039797E+04 -0.51490644882E+03  0.14068525730E+04  0.12699999809E+01 0. -1.
</event>
<event>
 5   0  0.1091076E-06  0.2945408E+04  0.7818609E-02  0.8259494E-01
       -1   -1    0    0    0  501  0.00000000000E+00  0.00000000000E+00  0.11464685044E+04  0.11464685044E+04  0.50400001928E-02 0. -1.
        1   -1    0    0  501    0  0.00000000000E+00  0.00000000000E+00 -0.18917718197E+04  0.18917718197E+04  0.50400001928E-02 0.  1.
    10030    2    1    2    0    0  0.00000000000E+00  0.00000000000E+00 -0.74530331533E+03  0.30382403242E+04  0.29454078216E+04 0.  0.
        3    1    3    3  502    0  0.64007759470E+03 -0.96977625814E+03 -0.13059850912E+04  0.17480739077E+04  0.10100000352E+00 0.  1.
       -3    1    3    3    0  502 -0.64007759470E+03  0.96977625814E+03  0.56068177592E+03  0.12901664165E+04  0.10100000352E+00 0. -1.
</event>
<event>
 5   0  0.1113245E-06  0.3000585E+04  0.7818609E-02  0.8243564E-01
        1   -1    0    0  501    0  0.00000000000E+00  0.00000000000E+00  0.21163177989E+04  0.21163177989E+04  0.50400001928E-02 0. -1.
       -1   -1    0    0    0  501  0.00000000000E+00  0.00000000000E+00 -0.10635822019E+04  0.10635822019E+04  0.50400001928E-02 0.  1.
    10030    2    1    2    0    0  0.00000000000E+00  0.00000000000E+00  0.10527355971E+04  0.31799000008E+04  0.30005852392E+04 0.  0.
        5    1    3    3  502    0  0.44610295675E+03  0.50379483137E+03 -0.89467455080E+03  0.11195006574E+04  0.46999998093E+01 0. -1.
       -5    1    3    3    0  502 -0.44610295675E+03 -0.50379483137E+03  0.19474101479E+04  0.20603993434E+04  0.46999998093E+01 0.  1.
</event>
<event>
 5   0  0.3113328E-06  0.2667586E+04  0.7818609E-02  0.8345599E-01
        2   -1    0    0  501    0  0.00000000000E+00  0.00000000000E+00  0.11070693148E+04  0.11070693148E+04  0.25500000920E-02 0.  1.
       -2   -1    0    0    0  501  0.00000000000E+00  0.00000000000E+00 -0.16069489530E+04  0.16069489530E+04  0.25500000920E-02 0. -1.
    10030    2    1    2    0    0  0.00000000000E+00  0.00000000000E+00 -0.49987963818E+03  0.27140182678E+04  0.26675860820E+04 0.  0.
        1    1    3    3  502    0  0.44883368240E+03  0.80675679064E+03  0.72946648142E+03  0.11766178399E+04  0.50400001928E-02 0.  1.
       -1    1    3    3    0  502 -0.44883368240E+03 -0.80675679064E+03 -0.12293461196E+04  0.15374004278E+04  0.50400001928E-02 0. -1.
</event>
<event>
 5   0  0.2948711E-06  0.2931356E+04  0.7818609E-02  0.8263609E-01
       -2   -1    0    0    0  501  0.00000000000E+00  0.00000000000E+00  0.18565341033E+04  0.18565341033E+04  0.25500000920E-02 0.  1.
        2   -1    0    0  501    0  0.00000000000E+00  0.00000000000E+00 -0.11571088943E+04  0.11571088943E+04  0.25500000920E-02 0. -1.
    10030    2    1    2    0    0  0.00000000000E+00  0.00000000000E+00  0.69942520907E+03  0.30136429976E+04  0.29313560844E+04 0.  0.
        5    1    3    3  502    0 -0.29207983579E+03  0.78568266964E+03 -0.88636180166E+03  0.12199455813E+04  0.46999998093E+01 0. -1.
       -5    1    3    3    0  502  0.29207983579E+03 -0.78568266964E+03  0.15857870107E+04  0.17936974163E+04  0.46999998093E+01 0.  1.
</event>
<event>
 5   0  0.1113245E-06  0.2908579E+04  0.7818609E-02  0.8270330E-01
       -1   -1    0    0    0  501  0.00000000000E+00  0.00000000000E+00  0.14384868201E+04  0.14384868201E+04  0.50400001928E-02 0. -1.
        1   -1    0    0  501    0  0.00000000000E+00  0.00000000000E+00 -0.14702655643E+04  0.14702655643E+04  0.50400001928E-02 0.  1.
    10030    2    1    2    0    0  0.00000000000E+00  0.00000000000E+00 -0.31778744211E+02  0.29087523845E+04  0.29085787845E+04 0.  0.
        5    1    3    3  502    0  0.98042601298E+03  0.45766330774E+02  0.10573036650E+04  0.14426513279E+04  0.46999998093E+01 0. -1.
       -5    1    3    3    0  502 -0.98042601298E+03 -0.45766330774E+02 -0.10890824092E+04  0.14661010565E+04  0.46999998093E+01 0.  1.
</event>
<event>
 5   0  0.1091075E-06  0.3045404E+04  0.7818609E-02  0.8230883E-01
       -1   -1    0    0    0  501  0.00000000000E+00  0.00000000000E+00  0.10818407144E+04  0.10818407144E+04  0.50400001928E-02 0.  1.
        1   -1    0    0  501    0  0.00000000000E+00  0.00000000000E+00 -0.21432186384E+04  0.21432186384E+04  0.50400001928E-02 0. -1.
    10030    2    1    2    0    0  0.00000000000E+00  0.00000000000E+00 -0.10613779240E+04  0.32250593528E+04  0.30454038700E+04 0.  0.
        1    1    3    3  502    0 -0.19545613835E+03 -0.10558009292E+04 -0.16740586550E+04  0.19888165035E+04  0.50400001928E-02 0. -1.
       -1    1    3    3    0  502  0.19545613835E+03  0.10558009292E+04  0.61268073099E+03  0.12362428493E+04  0.50400001928E-02 0.  1.
</event>
<event>
 5   0  0.2862033E-06  0.3022198E+04  0.7818609E-02  0.8237420E-01
        2   -1    0    0  501    0  0.00000000000E+00  0.00000000000E+00  0.13113980190E+04  0.13113980190E+04  0.25500000920E-02 0.  1.
       -2   -1    0    0    0  501  0.00000000000E+00  0.00000000000E+00 -0.17412101906E+04  0.17412101906E+04  0.25500000920E-02 0. -1.
    10030    2    1    2    0    0  0.00000000000E+00  0.00000000000E+00 -0.42981217154E+03  0.30526082096E+04  0.30221976075E+04 0.  0.
        2    1    3    3  502    0  0.12638997509E+04  0.60456605809E+03  0.35689710315E+03  0.14457932913E+04  0.25500000920E-02 0. -1.
       -2    1    3    3    0  502 -0.12638997509E+04 -0.60456605809E+03 -0.78670927469E+03  0.16068149183E+04  0.25500000920E-02 0.  1.
</event>
<event>
 5   0  0.1091075E-06  0.3018392E+04  0.7818609E-02  0.8238498E-01
        1   -1    0    0  501    0  0.00000000000E+00  0.00000000000E+00  0.14011179924E+04  0.14011179924E+04  0.50400001928E-02 0.  1.
       -1   -1    0    0    0  501  0.00000000000E+00  0.00000000000E+00 -0.16256109621E+04  0.16256109621E+04  0.50400001928E-02 0. -1.
    10030    2    1    2    0    0  0.00000000000E+00  0.00000000000E+00 -0.22449296969E+03  0.30267289545E+04  0.30183921334E+04 0.  0.
        1    1    3    3  502    0  0.10691820276E+04  0.11870095016E+02  0.95576880307E+03  0.14341496129E+04  0.50400001928E-02 0.  1.
       -1    1    3    3    0  502 -0.10691820276E+04 -0.11870095016E+02 -0.11802617728E+04  0.15925793417E+04  0.50400001928E-02 0. -1.
</event>
<event>
 5   0  0.2970915E-06  0.2982017E+04  0.7818609E-02  0.8248885E-01
       -2   -1    0    0    0  501  0.00000000000E+00  0.00000000000E+00  0.94277195244E+03  0.94277195245E+03  0.25500000920E-02 0. -1.
        2   -1    0    0  501    0  0.00000000000E+00  0.00000000000E+00 -0.23580529904E+04  0.23580529904E+04  0.25500000920E-02 0.  1.
    10030    2    1    2    0    0  0.00000000000E+00  0.00000000000E+00 -0.14152810380E+04  0.33008249428E+04  0.29820169159E+04 0.  0.
        4    1    3    3  502    0 -0.71182619279E+03 -0.68489994695E+03 -0.19438764369E+04  0.21804682252E+04  0.12699999809E+01 0. -1.
       -4    1    3    3    0  502  0.71182619279E+03  0.68489994695E+03  0.52859539898E+03  0.11203567177E+04  0.12699999809E+01 0.  1.
</event>
<event>
 5   0  0.3113328E-06  0.3053118E+04  0.7818609E-02  0.8228723E-01
       -2   -1    0    0    0  501  0.00000000000E+00  0.00000000000E+00  0.12407057958E+04  0.12407057958E+04  0.25500000920E-02 0.  1.
        2   -1    0    0  501    0  0.00000000000E+00  0.00000000000E+00 -0.18782716738E+04  0.18782716738E+04  0.25500000920E-02 0. -1.
    10030    2    1    2    0    0  0.00000000000E+00  0.00000000000E+00 -0.63756587792E+03  0.31189774696E+04  0.30531181122E+04 0.  0.
        1    1    3    3  502    0 -0.72346433876E+03 -0.13280632398E+04 -0.53118607012E+03  0.16029071276E+04  0.50400001928E-02 0.  1.
       -1    1    3    3    0  502  0.72346433876E+03  0.13280632398E+04 -0.10637980780E+03  0.15160703420E+04  0.50400001928E-02 0. -1.
</event>
<event>
 5   0  0.1054384E-06  0.3001198E+04  0.7818609E-02  0.8243389E-01
        1   -1    0    0  501    0  0.00000000000E+00  0.00000000000E+00  0.13729779682E+04  0.13729779682E+04  0.50400001928E-02 0.  1.
       -1   -1    0    0    0  501  0.00000000000E+00  0.00000000000E+00 -0.16400830059E+04  0.16400830059E+04  0.50400001928E-02 0. -1.
    10030    2    1    2    0    0  0.00000000000E+00  0.00000000000E+00 -0.26710503774E+03  0.30130609741E+04  0.30011983161E+04 0.  0.
        2    1    3    3  502    0  0.57486296130E+03  0.73849999050E+03  0.10440921333E+04  0.14021333899E+04  0.25500000920E-02 0.  1.
       -2    1    3    3    0  502 -0.57486296130E+03 -0.73849999050E+03 -0.13111971710E+04  0.16109275842E+04  0.25500000920E-02 0. -1.
</event>
<event>
 5   0  0.1091075E-06  0.2995519E+04  0.7818609E-02  0.8245012E-01
        1   -1    0    0  501    0  0.00000000000E+00  0.00000000000E+00  0.10729912606E+04  0.10729912606E+04  0.50400001928E-02 0.  1.
       -1   -1    0    0    0  501  0.00000000000E+00  0.00000000000E+00 -0.20906823390E+04  0.20906823390E+04  0.50400001928E-02 0. -1.
    10030    2    1    2    0    0  0.00000000000E+00  0.00000000000E+00 -0.10176910784E+04  0.31636735996E+04  0.29955192395E+04 0.  0.
        1    1    3    3  502    0 -0.32307234741E+03  0.90937161254E+02 -0.20504552927E+04  0.20777420957E+04  0.50400001928E-02 0. -1.
       -1    1    3    3    0  502  0.32307234741E+03 -0.90937161254E+02  0.10327642143E+04  0.10859315039E+04  0.50400001928E-02 0.  1.
</event>
<event>
 5   0  0.9749500E-07  0.2994232E+04  0.7818609E-02  0.8245380E-01
        3   -1    0    0  501    0  0.00000000000E+00  0.00000000000E+00  0.12154662252E+04  0.12154662294E+04  0.10100000352E+00 0.  1.
       -3   -1    0    0    0  501  0.00000000000E+00  0.00000000000E+00 -0.18440298014E+04  0.18440298042E+04  0.10100000352E+00 0. -1.
    10030    2    1    2    0    0  0.00000000000E+00  0.00000000000E+00 -0.62856357622E+03  0.30594960336E+04  0.29942317563E+04 0.  0.
        5    1    3    3  502    0 -0.44525855501E+03  0.14196355953E+04 -0.14417962175E+03  0.14948010763E+04  0.46999998093E+01 0. -1.
       -5    1    3    3    0  502  0.44525855501E+03 -0.14196355953E+04 -0.48438395447E+03  0.15646949574E+04  0.46999998093E+01 0.  1.
</event>
<event>
 5   0  0.2970915E-06  0.2998235E+04  0.7818609E-02  0.8244235E-01
        2   -1    0    0  501    0  0.00000000000E+00  0.00000000000E+00  0.21254986246E+04  0.21254986246E+04  0.25500000920E-02 0.  1.
       -2   -1    0    0    0  501  0.00000000000E+00  0.00000000000E+00 -0.10573302614E+04  0.10573302614E+04  0.25500000920E-02 0. -1.
    10030    2    1    2    0    0  0.00000000000E+00  0.00000000000E+00  0.10681683632E+04  0.31828288860E+04  0.29982354920E+04 0.  0.
        4    1    3    3  502    0  0.78410463072E+03  0.41552115964E+03  0.18167257511E+04  0.20218733822E+04  0.12699999809E+01 0.  1.
       -4    1    3    3    0  502 -0.78410463072E+03 -0.41552115964E+03 -0.74855738784E+03  0.11609555038E+04  0.12699999809E+01 0. -1.
</event>
<event>
 5   0  0.1097402E-06  0.3044665E+04  0.7818609E-02  0.8231090E-01
        1   -1    0    0  501    0  0.00000000000E+00  0.00000000000E+00  0.18865487057E+04  0.18865487057E+04  0.50400001928E-02 0.  1.
       -1   -1    0    0    0  501  0.00000000000E+00  0.00000000000E+00 -0.12284314786E+04  0.12284314786E+04  0.50400001928E-02 0. -1.
    10030    2    1    2    0    0  0.00000000000E+00  0.00000000000E+00  0.65811722708E+03  0.31149801844E+04  0.30446647212E+04 0.  0.
        4    1    3    3  502    0 -0.13297248140E+04  0.60523806367E+03  0.76673870578E+03  0.16499609240E+04  0.12699999809E+01 0. -1.
       -4    1    3    3    0  502  0.13297248140E+04 -0.60523806367E+03 -0.10862147870E+03  0.14650192604E+04  0.12699999809E+01 0.  1.
</event>
<event>
 5   0  0.2970915E-06  0.2998860E+04  0.7818609E-02  0.8244056E-01
        2   -1    0    0  501    0  0.00000000000E+00  0.00000000000E+00  0.73587593130E+03  0.73587593130E+03  0.25500000920E-02 0.  1.
       -2   -1    0    0    0  501  0.00000000000E+00  0.00000000000E+00 -0.30552580771E+04  0.30552580771E+04  0.25500000920E-02 0. -1.
    10030    2    1    2    0    0  0.00000000000E+00  0.00000000000E+00 -0.23193821458E+04  0.37911340084E+04  0.29988603721E+04 0.  0.
        4    1    3    3  502    0  0.14441020012E+02  0.10851617071E+04  0.14830728712E+03  0.10953452140E+04  0.12699999809E+01 0.  1.
       -4    1    3    3    0  502 -0.14441020012E+02 -0.10851617071E+04 -0.24676894329E+04  0.26957887943E+04  0.12699999809E+01 0. -1.
</event>
<event>
 5   0  0.1054384E-06  0.3002524E+04  0.7818609E-02  0.8243011E-01
       -1   -1    0    0    0  501  0.00000000000E+00  0.00000000000E+00  0.18309744765E+04  0.18309744765E+04  0.50400001928E-02 0. -1.
        1   -1    0    0  501    0  0.00000000000E+00  0.00000000000E+00 -0.12309221263E+04  0.12309221263E+04  0.50400001928E-02 0.  1.
    10030    2    1    2    0    0  0.00000000000E+00  0.00000000000E+00  0.60005235019E+03  0.30618966028E+04  0.30025236024E+04 0.  0.
        2    1    3    3  502    0  0.12187277312E+04 -0.61566414705E+03  0.93642369589E+03  0.16556657160E+04  0.25500000920E-02 0. -1.
       -2    1    3    3    0  502 -0.12187277312E+04  0.61566414705E+03 -0.33637134570E+03  0.14062308868E+04  0.25500000920E-02 0.  1.
</event>
<event>
 5   0  0.3113328E-06  0.3012542E+04  0.7818609E-02  0.8240158E-01
        2   -1    0    0  501    0  0.00000000000E+00  0.00000000000E+00  0.15943322223E+04  0.15943322223E+04  0.25500000920E-02 0. -1.
       -2   -1    0    0    0  501  0.00000000000E+00  0.00000000000E+00 -0.14230739911E+04  0.14230739911E+04  0.25500000920E-02 0.  1.
    10030    2    1    2    0    0  0.00000000000E+00  0.00000000000E+00  0.17125823113E+03  0.30174062134E+04  0.30125422611E+04 0.  0.
        1    1    3    3  502    0  0.11782056172E+04  0.52394836497E+03 -0.69419221859E+03  0.14644429664E+04  0.50400001928E-02 0.  1.
       -1    1    3    3    0  502 -0.11782056172E+04 -0.52394836497E+03  0.86545044972E+03  0.15529632470E+04  0.50400001928E-02 0. -1.
</event>
<event>
 5   0  0.1091076E-06  0.2989671E+04  0.7818609E-02  0.8246686E-01
       -1   -1    0    0    0  501  0.00000000000E+00  0.00000000000E+00  0.18139317970E+04  0.18139317971E+04  0.50400001928E-02 0.  1.
        1   -1    0    0  501    0  0.00000000000E+00  0.00000000000E+00 -0.12318731133E+04  0.12318731133E+04  0.50400001928E-02 0. -1.
    10030    2    1    2    0    0  0.00000000000E+00  0.00000000000E+00  0.58205868373E+03  0.30458049104E+04  0.29896714269E+04 0.  0.
        3    1    3    3  502    0  0.45852479771E+03 -0.26643296341E+03 -0.11328177445E+04  0.12508027688E+04  0.10100000352E+00 0. -1.
       -3    1    3    3    0  502 -0.45852479771E+03  0.26643296341E+03  0.17148764282E+04  0.17950021416E+04  0.10100000352E+00 0.  1.
</event>
<event>
 5   0  0.1091075E-06  0.2990432E+04  0.7818609E-02  0.8246468E-01
       -1   -1    0    0    0  501  0.00000000000E+00  0.00000000000E+00  0.11589576306E+04  0.11589576306E+04  0.50400001928E-02 0.  1.
        1   -1    0    0  501    0  0.00000000000E+00  0.00000000000E+00 -0.19290363509E+04  0.19290363509E+04  0.50400001928E-02 0. -1.
    10030    2    1    2    0    0  0.00000000000E+00  0.00000000000E+00 -0.77007872030E+03  0.30879939815E+04  0.29904323423E+04 0.  0.
        1    1    3    3  502    0 -0.94577484225E+03 -0.62999551049E+03  0.61840771228E+03  0.12937590557E+04  0.50400001928E-02 0.  1.
       -1    1    3    3    0  502  0.94577484225E+03  0.62999551049E+03 -0.13884864326E+04  0.17942349258E+04  0.50400001928E-02 0. -1.
</event>
<event>
 5   0  0.1091076E-06  0.3005749E+04  0.7818609E-02  0.8242091E-01
       -1   -1    0    0    0  501  0.00000000000E+00  0.00000000000E+00  0.90520856615E+03  0.90520856616E+03  0.50400001928E-02 0. -1.
        1   -1    0    0  501    0  0.00000000000E+00  0.00000000000E+00 -0.24951500014E+04  0.24951500014E+04  0.50400001928E-02 0.  1.
    10030    2    1    2    0    0  0.00000000000E+00  0.00000000000E+00 -0.15899414352E+04  0.34003585675E+04  0.30057485957E+04 0.  0.
        3    1    3    3  502    0 -0.59121066975E+03  0.89320343749E+03 -0.19875452032E+04  0.22578038847E+04  0.10100000352E+00 0.  1.
       -3    1    3    3    0  502  0.59121066975E+03 -0.89320343749E+03  0.39760376798E+03  0.11425546828E+04  0.10100000352E+00 0. -1.
</event>
<event>
 5   0  0.2985941E-06  0.3005699E+04  0.7818609E-02  0.8242105E-01
       -2   -1    0    0    0  501  0.00000000000E+00  0.00000000000E+00  0.14652790797E+04  0.14652790797E+04  0.25500000920E-02 0. -1.
        2   -1    0    0  501    0  0.00000000000E+00  0.00000000000E+00 -0.15413830841E+04  0.15413830841E+04  0.25500000920E-02 0.  1.
    10030    2    1    2    0    0  0.00000000000E+00  0.00000000000E+00 -0.76104004410E+02  0.30066621637E+04  0.30056988451E+04 0.  0.
        3    1    3    3  502    0  0.10876132201E+04 -0.43529938572E+03 -0.97971883563E+03  0.15271663560E+04  0.10100000352E+00 0.  1.
       -3    1    3    3    0  502 -0.10876132201E+04  0.43529938572E+03  0.90361483122E+03  0.14794958078E+04  0.10100000352E+00 0. -1.
</event>
<event>
 5   0  0.2862033E-06  0.3002229E+04  0.7818609E-02  0.8243095E-01
        2   -1    0    0  501    0  0.00000000000E+00  0.00000000000E+00  0.19380924155E+04  0.19380924155E+04  0.25500000920E-02 0. -1.
       -2   -1    0    0    0  501  0.00000000000E+00  0.00000000000E+00 -0.11626608620E+04  0.11626608620E+04  0.25500000920E-02 0.  1.
    10030    2    1    2    0    0  0.00000000000E+00  0.00000000000E+00  0.77543155354E+03  0.31007532775E+04  0.30022286378E+04 0.  0.
        2    1    3    3  502    0  0.10688894294E+04  0.85721747705E+03  0.10210254045E+04  0.17087537248E+04  0.25500000920E-02 0. -1.
       -2    1    3    3    0  502 -0.10688894294E+04 -0.85721747705E+03 -0.24559385097E+03  0.13919995528E+04  0.25500000920E-02 0.  1.
</event>
<event>
 5   0  0.1097402E-06  0.2971412E+04  0.7818609E-02  0.8251942E-01
       -1   -1    0    0    0  501  0.00000000000E+00  0.00000000000E+00  0.12568539254E+04  0.12568539254E+04  0.50400001928E-02 0. -1.
        1   -1    0    0  501    0  0.00000000000E+00  0.00000000000E+00 -0.17562282464E+04  0.17562282464E+04  0.50400001928E-02 0.  1.
    10030    2    1    2    0    0  0.00000000000E+00  0.00000000000E+00 -0.49937432099E+03  0.30130821718E+04  0.29714120316E+04 0.  0.
        4    1    3    3  502    0  0.20474597110E+03 -0.14277355009E+04  0.11164005532E+03  0.14466563822E+04  0.12699999809E+01 0.  1.
       -4    1    3    3    0  502 -0.20474597110E+03  0.14277355009E+04 -0.61101437632E+03  0.15664257896E+04  0.12699999809E+01 0. -1.
</event>
<event>
 5   0  0.2970915E-06  0.2958299E+04  0.7818609E-02  0.8255740E-01
       -2   -1    0    0    0  501  0.00000000000E+00  0.00000000000E+00  0.15015947842E+04  0.15015947842E+04  0.25500000920E-02 0.  1.
        2   -1    0    0  501    0  0.00000000000E+00  0.00000000000E+00 -0.14570397428E+04  0.14570397428E+04  0.25500000920E-02 0. -1.
    10030    2    1    2    0    0  0.00000000000E+00  0.00000000000E+00  0.44555041322E+02  0.29586345270E+04  0.29582990236E+04 0.  0.
        4    1    3    3  502    0 -0.57651995234E+03  0.13129631108E+04 -0.34057801355E+03  0.14738529038E+04  0.12699999809E+01 0.  1.
       -4    1    3    3    0  502  0.57651995234E+03 -0.13129631108E+04  0.38513305487E+03  0.14847816232E+04  0.12699999809E+01 0. -1.
</event>
<event>
 5   0  0.2948711E-06  0.2989768E+04  0.7818609E-02  0.8246659E-01
       -2   -1    0    0    0  501  0.00000000000E+00  0.00000000000E+00  0.90913395407E+03  0.90913395407E+03  0.25500000920E-02 0. -1.
        2   -1    0    0  501    0  0.00000000000E+00  0.00000000000E+00 -0.24580299763E+04  0.24580299763E+04  0.25500000920E-02 0.  1.
    10030    2    1    2    0    0  0.00000000000E+00  0.00000000000E+00 -0.15488960223E+04  0.33671639304E+04  0.29897682262E+04 0.  0.
        5    1    3    3  502    0  0.91034470240E+03 -0.11822478369E+04 -0.67234556760E+03  0.16366148225E+04  0.46999998093E+01 0.  1.
       -5    1    3    3    0  502 -0.91034470240E+03  0.11822478369E+04 -0.87655045465E+03  0.17305491078E+04  0.46999998093E+01 0. -1.
</event>
<event>
 5   0  0.1097402E-06  0.2988605E+04  0.7818609E-02  0.8246992E-01
        1   -1    0    0  501    0  0.00000000000E+00  0.00000000000E+00  0.23251168684E+04  0.23251168684E+04  0.50400001928E-02 0.  1.
       -1   -1    0    0    0  501  0.00000000000E+00  0.00000000000E+00 -0.96035598307E+03  0.96035598308E+03  0.50400001928E-02 0. -1.
    10030    2    1    2    0    0  0.00000000000E+00  0.00000000000E+00  0.13647608854E+04  0.32854728515E+04  0.29886049561E+04 0.  0.
        4    1    3    3  502    0 -0.21775683381E+03  0.29240778256E+03 -0.91071161424E+03  0.98097788313E+03  0.12699999809E+01 0. -1.
       -4    1    3    3    0  502  0.21775683381E+03 -0.29240778256E+03  0.22754724996E+04  0.23044949684E+04  0.12699999809E+01 0.  1.
</event>
<event>
 5   0  0.3113328E-06  0.2997557E+04  0.7818609E-02  0.8244429E-01
       -2   -1    0    0    0  501  0.00000000000E+00  0.00000000000E+00  0.10364755902E+04  0.10364755902E+04  0.25500000920E-02 0. -1.
        2   -1    0    0  501    0  0.00000000000E+00  0.00000000000E+00 -0.21672833899E+04  0.21672833899E+04  0.25500000920E-02 0.  1.
    10030    2    1    2    0    0  0.00000000000E+00  0.00000000000E+00 -0.11308077997E+04  0.32037589801E+04  0.29975565587E+04 0.  0.
        1    1    3    3  502    0 -0.12001674144E+04 -0.12104841390E+03  0.38532793382E+03  0.12663065023E+04  0.50400001928E-02 0. -1.
       -1    1    3    3    0  502  0.12001674144E+04  0.12104841390E+03 -0.15161357335E+04  0.19374524778E+04  0.50400001928E-02 0.  1.
</event>
<event>
 5   0  0.1091075E-06  0.2679356E+04  0.7818609E-02  0.8341734E-01
        1   -1    0    0  501    0  0.00000000000E+00  0.00000000000E+00  0.10823188215E+04  0.10823188215E+04  0.50400001928E-02 0.  1.
       -1   -1    0    0    0  501  0.00000000000E+00  0.00000000000E+00 -0.16582334842E+04  0.16582334842E+04  0.50400001928E-02 0. -1.
    10030    2    1    2    0    0  0.00000000000E+00  0.00000000000E+00 -0.57591466267E+03  0.27405523057E+04  0.26793561244E+04 0.  0.
        1    1    3    3  502    0  0.79399048907E+03 -0.88029487610E+03 -0.92622691206E+03  0.15044056163E+04  0.50400001928E-02 0.  1.
       -1    1    3    3    0  502 -0.79399048907E+03  0.88029487610E+03  0.35031224939E+03  0.12361466894E+04  0.50400001928E-02 0. -1.
</event>
<event>
 5   0  0.3113328E-06  0.2983908E+04  0.7818609E-02  0.8248341E-01
        2   -1    0    0  501    0  0.00000000000E+00  0.00000000000E+00  0.16884954449E+04  0.16884954449E+04  0.25500000920E-02 0.  1.
       -2   -1    0    0    0  501  0.00000000000E+00  0.00000000000E+00 -0.13182904449E+04  0.13182904449E+04  0.25500000920E-02 0. -1.
    10030    2    1    2    0    0  0.00000000000E+00  0.00000000000E+00  0.37020500005E+03  0.30067858898E+04  0.29839084512E+04 0.  0.
        1    1    3    3  502    0 -0.10872886249E+04 -0.94996232394E+03 -0.19368168708E+03  0.14567558363E+04  0.50400001928E-02 0.  1.
       -1    1    3    3    0  502  0.10872886249E+04  0.94996232394E+03  0.56388668713E+03  0.15500300535E+04  0.50400001928E-02 0. -1.
</event>
<event>
 5   0  0.1097402E-06  0.2955013E+04  0.7818609E-02  0.8256695E-01
       -1   -1    0    0    0  501  0.00000000000E+00  0.00000000000E+00  0.11277329466E+04  0.11277329466E+04  0.50400001928E-02 0. -1.
        1   -1    0    0  501    0  0.00000000000E+00  0.00000000000E+00 -0.19357645009E+04  0.19357645009E+04  0.50400001928E-02 0.  1.
    10030    2    1    2    0    0  0.00000000000E+00  0.00000000000E+00 -0.80803155431E+03  0.30634974476E+04  0.29550129642E+04 0.  0.
        4    1    3    3  502    0 -0.11042721359E+04 -0.54174164838E+03 -0.12526789146E+04  0.17555930735E+04  0.12699999809E+01 0.  1.
       -4    1    3    3    0  502  0.11042721359E+04  0.54174164838E+03  0.44464736033E+03  0.13079043741E+04  0.12699999809E+01 0. -1.
</event>
<event>
 5   0  0.2862033E-06  0.2969148E+04  0.7818609E-02  0.8252596E-01
        2   -1    0    0  501    0  0.00000000000E+00  0.00000000000E+00  0.23012004800E+04  0.23012004800E+04  0.25500000920E-02 0. -1.
       -2   -1    0    0    0  501  0.00000000000E+00  0.00000000000E+00 -0.95774362479E+03  0.95774362480E+03  0.25500000920E-02 0.  1.
    10030    2    1    2    0    0  0.00000000000E+00  0.00000000000E+00  0.13434568552E+04  0.32589441048E+04  0.29691480859E+04 0.  0.
        2    1    3    3  502    0  0.68799314230E+03 -0.10229854817E+04 -0.23611964117E+03  0.12552236234E+04  0.25500000920E-02 0.  1.
       -2    1    3    3    0  502 -0.68799314230E+03  0.10229854817E+04  0.15795764963E+04  0.20037204814E+04  0.25500000920E-02 0. -1.
</event>
<event>
 5   0  0.2862033E-06  0.2997473E+04  0.7818609E-02  0.8244453E-01
       -2   -1    0    0    0  501  0.00000000000E+00  0.00000000000E+00  0.11731120395E+04  0.11731120395E+04  0.25500000920E-02 0. -1.
        2   -1    0    0  501    0  0.00000000000E+00  0.00000000000E+00 -0.19147454365E+04  0.19147454365E+04  0.25500000920E-02 0.  1.
    10030    2    1    2    0    0  0.00000000000E+00  0.00000000000E+00 -0.74163339703E+03  0.30878574761E+04  0.29974728851E+04 0.  0.
        2    1    3    3  502    0 -0.78104127254E+03 -0.11381473348E+04 -0.97220595121E+03  0.16883688095E+04  0.25500000920E-02 0.  1.
       -2    1    3    3    0  502  0.78104127254E+03  0.11381473348E+04  0.23057255418E+03  0.13994886666E+04  0.25500000920E-02 0. -1.
</event>
<event>
 5   0  0.1097402E-06  0.2981402E+04  0.7818609E-02  0.8249062E-01
        1   -1    0    0  501    0  0.00000000000E+00  0.00000000000E+00  0.20517370461E+04  0.20517370461E+04  0.50400001928E-02 0. -1.
       -1   -1    0    0    0  501  0.00000000000E+00  0.00000000000E+00 -0.10830771280E+04  0.10830771281E+04  0.50400001928E-02 0.  1.
    10030    2    1    2    0    0  0.00000000000E+00  0.00000000000E+00  0.96865991800E+03  0.31348141741E+04  0.29814019973E+04 0.  0.
        4    1    3    3  502    0 -0.13663410770E+03  0.14042984030E+04 -0.21534189291E+02  0.14110946879E+04  0.12699999809E+01 0. -1.
       -4    1    3    3    0  502  0.13663410770E+03 -0.14042984030E+04  0.99019410730E+03  0.17237194862E+04  0.12699999809E+01 0.  1.
</event>
<event>
 5   0  0.1113245E-06  0.2985604E+04  0.7818609E-02  0.8247854E-01
       -1   -1    0    0    0  501  0.00000000000E+00  0.00000000000E+00  0.17029695490E+04  0.17029695491E+04  0.50400001928E-02 0.  1.
        1   -1    0    0  501    0  0.00000000000E+00  0.00000000000E+00 -0.13085716488E+04  0.13085716488E+04  0.50400001928E-02 0. -1.
    10030    2    1    2    0    0  0.00000000000E+00  0.00000000000E+00  0.39439790026E+03  0.30115411978E+04  0.29856039058E+04 0.  0.
        5    1    3    3  502    0  0.99271108565E+03 -0.10697689219E+04  0.51386052348E+03  0.15472412784E+04  0.46999998093E+01 0.  1.
       -5    1    3    3    0  502 -0.99271108565E+03  0.10697689219E+04 -0.11946262322E+03  0.14642999195E+04  0.46999998093E+01 0. -1.
</event>
<event>
 5   0  0.1054384E-06  0.3004520E+04  0.7818609E-02  0.8242441E-01
        1   -1    0    0  501    0  0.00000000000E+00  0.00000000000E+00  0.13083963170E+04  0.13083963170E+04  0.50400001928E-02 0.  1.
       -1   -1    0    0    0  501  0.00000000000E+00  0.00000000000E+00 -0.17248486475E+04  0.17248486475E+04  0.50400001928E-02 0. -1.
    10030    2    1    2    0    0  0.00000000000E+00  0.00000000000E+00 -0.41645233052E+03  0.30332449646E+04  0.30045203397E+04 0.  0.
        2    1    3    3  502    0  0.52271208183E+03  0.10895868885E+04 -0.11091468131E+04  0.16403152627E+04  0.25500000920E-02 0. -1.
       -2    1    3    3    0  502 -0.52271208183E+03 -0.10895868885E+04  0.69269448259E+03  0.13929297019E+04  0.25500000920E-02 0.  1.
</event>
<event>
 5   0  0.2985941E-06  0.2967111E+04  0.7818609E-02  0.8253185E-01
       -2   -1    0    0    0  501  0.00000000000E+00  0.00000000000E+00  0.10494793547E+04  0.10494793547E+04  0.25500000920E-02 0. -1.
        2   -1    0    0  501    0  0.00000000000E+00  0.00000000000E+00 -0.20971708431E+04  0.20971708432E+04  0.25500000920E-02 0.  1.
    10030    2    1    2    0    0  0.00000000000E+00  0.00000000000E+00 -0.10476914884E+04  0.31466501979E+04  0.29671113921E+04 0.  0.
        3    1    3    3  502    0 -0.11108145581E+04  0.57734135807E+03 -0.13680710041E+04  0.18544137372E+04  0.10100000352E+00 0.  1.
       -3    1    3    3    0  502  0.11108145581E+04 -0.57734135807E+03  0.32037951564E+03  0.12922364607E+04  0.10100000352E+00 0. -1.
</event>
<event>
 5   0  0.1054384E-06  0.3037621E+04  0.7818609E-02  0.8233069E-01
        1   -1    0    0  501    0  0.00000000000E+00  0.00000000000E+00  0.15592347326E+04  0.15592347326E+04  0.50400001928E-02 0.  1.
       -1   -1    0    0    0  501  0.00000000000E+00  0.00000000000E+00 -0.14794345710E+04  0.14794345710E+04  0.50400001928E-02 0. -1.
    10030    2    1    2    0    0  0.00000000000E+00  0.00000000000E+00  0.79800161639E+02  0.30386693036E+04  0.30376212850E+04 0.  0.
        2    1    3    3  502    0 -0.76514234314E+03 -0.13054803654E+04  0.17057431151E+03  0.15227663595E+04  0.25500000920E-02 0.  1.
       -2    1    3    3    0  502  0.76514234314E+03  0.13054803654E+04 -0.90774149870E+02  0.15159029442E+04  0.25500000920E-02 0. -1.
</event>
<event>
 5   0  0.1091075E-06  0.2996207E+04  0.7818609E-02  0.8244815E-01
       -1   -1    0    0    0  501  0.00000000000E+00  0.00000000000E+00  0.15964555951E+04  0.15964555951E+04  0.50400001928E-02 0. -1.
        1   -1    0    0  501    0  0.00000000000E+00  0.00000000000E+00 -0.14058109381E+04  0.14058109381E+04  0.50400001928E-02 0.  1.
    10030    2    1    2    0    0  0.00000000000E+00  0.00000000000E+00  0.19064465694E+03  0.30022665332E+04  0.29962074279E+04 0.  0.
        1    1    3    3  502    0 -0.67109621808E+02  0.14493059768E+04  0.46933741760E+03  0.15248833160E+04  0.50400001928E-02 0. -1.
       -1    1    3    3    0  502  0.67109621808E+02 -0.14493059768E+04 -0.27869276066E+03  0.14773832172E+04  0.50400001928E-02 0.  1.
</event>
<event>
 5   0  0.3113328E-06  0.2998836E+04  0.7818609E-02  0.8244063E-01
       -2   -1    0    0    0  501  0.00000000000E+00  0.00000000000E+00  0.10150580320E+04  0.10150580320E+04  0.25500000920E-02 0.  1.
        2   -1    0    0  501    0  0.00000000000E+00  0.00000000000E+00 -0.22149021020E+04  0.22149021020E+04  0.25500000920E-02 0. -1.
    10030    2    1    2    0    0  0.00000000000E+00  0.00000000000E+00 -0.11998440700E+04  0.32299601340E+04  0.29988358867E+04 0.  0.
        1    1    3    3  502    0  0.11717181873E+04  0.82801734644E+03 -0.13078615016E+03  0.14407085943E+04  0.50400001928E-02 0.  1.
       -1    1    3    3    0  502 -0.11717181873E+04 -0.82801734644E+03 -0.10690579198E+04  0.17892515398E+04  0.50400001928E-02 0. -1.
</event>
<event>
 5   0  0.9749500E-07  0.3008517E+04  0.7818609E-02  0.8241303E-01
       -3   -1    0    0    0  501  0.00000000000E+00  0.00000000000E+00  0.12585364079E+04  0.12585364120E+04  0.10100000352E+00 0. -1.
        3   -1    0    0  501    0  0.00000000000E+00  0.00000000000E+00 -0.17979563514E+04  0.17979563542E+04  0.10100000352E+00 0.  1.
    10030    2    1    2    0    0  0.00000000000E+00  0.00000000000E+00 -0.53941994350E+03  0.30564927662E+04  0.30085169360E+04 0.  0.
        4    1    3    3  502    0  0.38912518079E+03 -0.17189874566E+03 -0.17355715195E+04  0.17869464730E+04  0.12699999809E+01 0.  1.
       -4    1    3    3    0  502 -0.38912518079E+03  0.17189874566E+03  0.11961515760E+04  0.12695462932E+04  0.12699999809E+01 0. -1.
</event>
<event>
 5   0  0.1113245E-06  0.2803814E+04  0.7818609E-02  0.8302085E-01
        1   -1    0    0  501    0  0.00000000000E+00  0.00000000000E+00  0.99596243712E+03  0.99596243714E+03  0.50400001928E-02 0.  1.
       -1   -1    0    0    0  501  0.00000000000E+00  0.00000000000E+00 -0.19733103164E+04  0.19733103164E+04  0.50400001928E-02 0. -1.
    10030    2    1    2    0    0  0.00000000000E+00  0.00000000000E+00 -0.97734787924E+03  0.29692727535E+04  0.28038137969E+04 0.  0.
        5    1    3    3  502    0  0.13064201630E+04 -0.50501950532E+03 -0.55170534760E+03  0.15053834142E+04  0.46999998093E+01 0. -1.
       -5    1    3    3    0  502 -0.13064201630E+04  0.50501950532E+03 -0.42564253164E+03  0.14638893393E+04  0.46999998093E+01 0.  1.
</event>
<event>
 5   0  0.2862033E-06  0.2802432E+04  0.7818609E-02  0.8302514E-01
       -2   -1    0    0    0  501  0.00000000000E+00  0.00000000000E+00  0.79617075958E+03  0.79617075958E+03  0.25500000920E-02 0.  1.
        2   -1    0    0  501    0  0.00000000000E+00  0.00000000000E+00 -0.24660615202E+04  0.24660615202E+04  0.25500000920E-02 0. -1.
    10030    2    1    2    0    0  0.00000000000E+00  0.00000000000E+00 -0.16698907607E+04  0.32622322798E+04  0.28024318538E+04 0.  0.
        2    1    3    3  502    0 -0.13993425809E+04 -0.48685186507E+01 -0.91907092288E+03  0.16741788204E+04  0.25500000920E-02 0.  1.
       -2    1    3    3    0  502  0.13993425809E+04  0.48685186507E+01 -0.75081983778E+03  0.15880534595E+04  0.25500000920E-02 0. -1.
</event>
<event>
 5   0  0.2862033E-06  0.3070099E+04  0.7818609E-02  0.8223992E-01
        2   -1    0    0  501    0  0.00000000000E+00  0.00000000000E+00  0.17617474467E+04  0.17617474467E+04  0.25500000920E-02 0. -1.
       -2   -1    0    0    0  501  0.00000000000E+00  0.00000000000E+00 -0.13375221376E+04  0.13375221376E+04  0.25500000920E-02 0.  1.
    10030    2    1    2    0    0  0.00000000000E+00  0.00000000000E+00  0.42422530910E+03  0.30992695843E+04  0.30700985071E+04 0.  0.
        2    1    3    3  502    0  0.73821371715E+03 -0.75331921939E+03 -0.91379939941E+03  0.13955209353E+04  0.25500000920E-02 0.  1.
       -2    1    3    3    0  502 -0.73821371715E+03  0.75331921939E+03  0.13380247085E+04  0.17037486490E+04  0.25500000920E-02 0. -1.
</event>
<event>
 5   0  0.1091076E-06  0.2996489E+04  0.7818609E-02  0.8244734E-01
       -1   -1    0    0    0  501  0.00000000000E+00  0.00000000000E+00  0.13816109395E+04  0.13816109395E+04  0.50400001928E-02 0. -1.
        1   -1    0    0  501    0  0.00000000000E+00  0.00000000000E+00 -0.16247237115E+04  0.16247237115E+04  0.50400001928E-02 0.  1.
    10030    2    1    2    0    0  0.00000000000E+00  0.00000000000E+00 -0.24311277201E+03  0.30063346511E+04  0.29964886474E+04 0.  0.
        3    1    3    3  502    0 -0.13152674582E+04 -0.15352910962E+03  0.58162917153E+03  0.14463029342E+04  0.10100000352E+00 0. -1.
       -3    1    3    3    0  502  0.13152674582E+04  0.15352910962E+03 -0.82474194354E+03  0.15600317169E+04  0.10100000352E+00 0.  1.
</event>
<event>
 5   0  0.2948711E-06  0.2999415E+04  0.7818609E-02  0.8243898E-01
        2   -1    0    0  501    0  0.00000000000E+00  0.00000000000E+00  0.18315217499E+04  0.18315217499E+04  0.25500000920E-02 0. -1.
       -2   -1    0    0    0  501  0.00000000000E+00  0.00000000000E+00 -0.12280074915E+04  0.12280074915E+04  0.25500000920E-02 0.  1.
    10030    2    1    2    0    0  0.00000000000E+00  0.00000000000E+00  0.60351425837E+03  0.30595292414E+04  0.29994148961E+04 0.  0.
        5    1    3    3  502    0 -0.37992069133E+03  0.14143006259E+04 -0.28008980723E+02  0.14647158719E+04  0.46999998093E+01 0.  1.
       -5    1    3    3    0  502  0.37992069133E+03 -0.14143006259E+04  0.63152323909E+03  0.15948133696E+04  0.46999998093E+01 0. -1.
</event>
<event>
 5   0  0.1097402E-06  0.2966520E+04  0.7818609E-02  0.8253357E-01
        1   -1    0    0  501    0  0.00000000000E+00  0.00000000000E+00  0.15947599755E+04  0.15947599755E+04  0.50400001928E-02 0. -1.
       -1   -1    0    0    0  501  0.00000000000E+00  0.00000000000E+00 -0.13795554165E+04  0.13795554165E+04  0.50400001928E-02 0.  1.
    10030    2    1    2    0    0  0.00000000000E+00  0.00000000000E+00  0.21520455901E+03  0.29743153921E+04  0.29665196863E+04 0.  0.
        4    1    3    3  502    0 -0.68511237713E+03  0.11512761684E+03  0.14215517079E+04  0.15822276096E+04  0.12699999809E+01 0. -1.
       -4    1    3    3    0  502  0.68511237713E+03 -0.11512761684E+03 -0.12063471489E+04  0.13920877824E+04  0.12699999809E+01 0.  1.
</event>
<event>
 5   0  0.2862033E-06  0.2988103E+04  0.7818609E-02  0.8247136E-01
        2   -1    0    0  501    0  0.00000000000E+00  0.00000000000E+00  0.14139761532E+04  0.14139761532E+04  0.25500000920E-02 0.  1.
       -2   -1    0    0    0  501  0.00000000000E+00  0.00000000000E+00 -0.15786611455E+04  0.15786611455E+04  0.25500000920E-02 0. -1.
    10030    2    1    2    0    0  0.00000000000E+00  0.00000000000E+00 -0.16468499231E+03  0.29926372987E+04  0.29881025509E+04 0.  0.
        2    1    3    3  502    0  0.27423017201E+03 -0.14829211502E+03  0.13810376794E+04  0.14157887592E+04  0.25500000920E-02 0.  1.
       -2    1    3    3    0  502 -0.27423017201E+03  0.14829211502E+03 -0.15457226717E+04  0.15768485395E+04  0.25500000920E-02 0. -1.
</event>
<event>
 5   0  0.1113245E-06  0.2996093E+04  0.7818609E-02  0.8244847E-01
       -1   -1    0    0    0  501  0.00000000000E+00  0.00000000000E+00  0.10420239392E+04  0.10420239392E+04  0.50400001928E-02 0. -1.
        1   -1    0    0  501    0  0.00000000000E+00  0.00000000000E+00 -0.21536389015E+04  0.21536389015E+04  0.50400001928E-02 0.  1.
    10030    2    1    2    0    0  0.00000000000E+00  0.00000000000E+00 -0.11116149623E+04  0.31956628407E+04  0.29960929837E+04 0.  0.
        5    1    3    3  502    0  0.10288530192E+04  0.74011764455E+03  0.29601839713E+03  0.13015228175E+04  0.46999998093E+01 0. -1.
       -5    1    3    3    0  502 -0.10288530192E+04 -0.74011764455E+03 -0.14076333595E+04  0.18941400232E+04  0.46999998093E+01 0.  1.
</event>
<event>
 5   0  0.9749500E-07  0.2989776E+04  0.7818609E-02  0.8246656E-01
        3   -1    0    0  501    0  0.00000000000E+00  0.00000000000E+00  0.11249518283E+04  0.11249518329E+04  0.10100000352E+00 0.  1.
       -3   -1    0    0    0  501  0.00000000000E+00  0.00000000000E+00 -0.19864765308E+04  0.19864765333E+04  0.10100000352E+00 0. -1.
    10030    2    1    2    0    0  0.00000000000E+00  0.00000000000E+00 -0.86152470245E+03  0.31114283662E+04  0.29897761898E+04 0.  0.
        4    1    3    3  502    0 -0.17726658117E+03  0.47222144876E+03  0.10337181054E+04  0.11502135766E+04  0.12699999809E+01 0.  1.
       -4    1    3    3    0  502  0.17726658117E+03 -0.47222144876E+03 -0.18952428078E+04  0.19612147896E+04  0.12699999809E+01 0. -1.
</event>
<event>
 5   0  0.1054384E-06  0.2868660E+04  0.7818609E-02  0.8282264E-01
       -1   -1    0    0    0  501  0.00000000000E+00  0.00000000000E+00  0.14917563175E+04  0.14917563175E+04  0.50400001928E-02 0.  1.
        1   -1    0    0  501    0  0.00000000000E+00  0.00000000000E+00 -0.13791140294E+04  0.13791140294E+04  0.50400001928E-02 0. -1.
    10030    2    1    2    0    0  0.00000000000E+00  0.00000000000E+00  0.11264228814E+03  0.28708703470E+04  0.28686596633E+04 0.  0.
        2    1    3    3  502    0 -0.69923863945E+03 -0.64089359595E+03 -0.10204368054E+04  0.13931871913E+04  0.25500000920E-02 0. -1.
       -2    1    3    3    0  502  0.69923863945E+03  0.64089359595E+03  0.11330790935E+04  0.14776831556E+04  0.25500000920E-02 0.  1.
</event>
<event>
 5   0  0.1113245E-06  0.3059127E+04  0.7818609E-02  0.8227045E-01
       -1   -1    0    0    0  501  0.00000000000E+00  0.00000000000E+00  0.12498258801E+04  0.12498258801E+04  0.50400001928E-02 0. -1.
        1   -1    0    0  501    0  0.00000000000E+00  0.00000000000E+00 -0.18719129570E+04  0.18719129570E+04  0.50400001928E-02 0.  1.
    10030    2    1    2    0    0  0.00000000000E+00  0.00000000000E+00 -0.62208707691E+03  0.31217388371E+04  0.30591274958E+04 0.  0.
        5    1    3    3  502    0 -0.10706369166E+04 -0.63015921235E+03 -0.12215947660E+04  0.17423202641E+04  0.46999998093E+01 0.  1.
       -5    1    3    3    0  502  0.10706369166E+04  0.63015921235E+03  0.59950768914E+03  0.13794185730E+04  0.46999998093E+01 0. -1.
</event>
<event>
 5   0  0.2862033E-06  0.3009604E+04  0.7818609E-02  0.8240994E-01
        2   -1    0    0  501    0  0.00000000000E+00  0.00000000000E+00  0.19384456624E+04  0.19384456624E+04  0.25500000920E-02 0.  1.
       -2   -1    0    0    0  501  0.00000000000E+00  0.00000000000E+00 -0.11681672043E+04  0.11681672043E+04  0.25500000920E-02 0. -1.
    10030    2    1    2    0    0  0.00000000000E+00  0.00000000000E+00  0.77027845805E+03  0.31066128667E+04  0.30096037282E+04 0.  0.
        2    1    3    3  502    0 -0.19562926256E+02 -0.78009499801E+02 -0.11659471595E+04  0.11687176600E+04  0.25500000920E-02 0. -1.
       -2    1    3    3    0  502  0.19562926256E+02  0.78009499801E+02  0.19362256175E+04  0.19378952067E+04  0.25500000920E-02 0.  1.
</event>
<event>
 5   0  0.2862033E-06  0.3008198E+04  0.7818609E-02  0.8241394E-01
       -2   -1    0    0    0  501  0.00000000000E+00  0.00000000000E+00  0.12279121396E+04  0.12279121396E+04  0.25500000920E-02 0. -1.
        2   -1    0    0  501    0  0.00000000000E+00  0.00000000000E+00 -0.18424069728E+04  0.18424069728E+04  0.25500000920E-02 0.  1.
    10030    2    1    2    0    0  0.00000000000E+00  0.00000000000E+00 -0.61449483316E+03  0.30703191124E+04  0.30081980573E+04 0.  0.
        2    1    3    3  502    0 -0.49199103855E+03  0.12648207821E+04  0.35459321461E+03  0.14026985210E+04  0.25500000920E-02 0. -1.
       -2    1    3    3    0  502  0.49199103855E+03 -0.12648207821E+04 -0.96908804777E+03  0.16676205915E+04  0.25500000920E-02 0.  1.
</event>
<event>
 5   0  0.1097402E-06  0.2987724E+04  0.7818609E-02  0.8247245E-01
       -1   -1    0    0    0  501  0.00000000000E+00  0.00000000000E+00  0.20232157990E+04  0.20232157990E+04  0.50400001928E-02 0.  1.
        1   -1    0    0  501    0  0.00000000000E+00  0.00000000000E+00 -0.11030082827E+04  0.11030082827E+04  0.50400001928E-02 0. -1.
    10030    2    1    2    0    0  0.00000000000E+00  0.00000000000E+00  0.92020751632E+03  0.31262240818E+04  0.29877240730E+04 0.  0.
        4    1    3    3  502    0  0.59869516551E+03 -0.13160387437E+04  0.85332817388E+03  0.16788580826E+04  0.12699999809E+01 0.  1.
       -4    1    3    3    0  502 -0.59869516551E+03  0.13160387437E+04  0.66879342434E+02  0.14473659992E+04  0.12699999809E+01 0. -1.
</event>
<event>
 5   0  0.2970915E-06  0.2986205E+04  0.7818609E-02  0.8247681E-01
        2   -1    0    0  501    0  0.00000000000E+00  0.00000000000E+00  0.12603279547E+04  0.12603279547E+04  0.25500000920E-02 0. -1.
       -2   -1    0    0    0  501  0.00000000000E+00  0.00000000000E+00 -0.17688689321E+04  0.17688689321E+04  0.25500000920E-02 0.  1.
    10030    2    1    2    0    0  0.00000000000E+00  0.00000000000E+00 -0.50854097742E+03  0.30291968868E+04  0.29862049248E+04 0.  0.
        4    1    3    3  502    0  0.26178802263E+03  0.13359932045E+04  0.36769835416E+03  0.14101824364E+04  0.12699999809E+01 0. -1.
       -4    1    3    3    0  502 -0.26178802263E+03 -0.13359932045E+04 -0.87623933158E+03  0.16190144504E+04  0.12699999809E+01 0.  1.
</event>
<event>
 5   0  0.9749500E-07  0.2995764E+04  0.7818609E-02  0.8244941E-01
       -3   -1    0    0    0  501  0.00000000000E+00  0.00000000000E+00  0.77212260474E+03  0.77212261135E+03  0.10100000352E+00 0.  1.
        3   -1    0    0  501    0  0.00000000000E+00  0.00000000000E+00 -0.29058217515E+04  0.29058217532E+04  0.10100000352E+00 0. -1.
    10030    2    1    2    0    0  0.00000000000E+00  0.00000000000E+00 -0.21336991467E+04  0.36779443646E+04  0.29957641263E+04 0.  0.
        5    1    3    3  502    0  0.12473384515E+04  0.31254345350E+03 -0.12375034582E+03  0.12918486215E+04  0.46999998093E+01 0.  1.
       -5    1    3    3    0  502 -0.12473384515E+04 -0.31254345350E+03 -0.20099488009E+04  0.23860957431E+04  0.46999998093E+01 0. -1.
</event>
<event>
 5   0  0.9749500E-07  0.2873431E+04  0.7818609E-02  0.8280827E-01
        3   -1    0    0  501    0  0.00000000000E+00  0.00000000000E+00  0.12380393082E+04  0.12380393123E+04  0.10100000352E+00 0. -1.
       -3   -1    0    0    0  501  0.00000000000E+00  0.00000000000E+00 -0.16672745284E+04  0.16672745314E+04  0.10100000352E+00 0.  1.
    10030    2    1    2    0    0  0.00000000000E+00  0.00000000000E+00 -0.42923522015E+03  0.29053138437E+04  0.28734309904E+04 0.  0.
        4    1    3    3  502    0 -0.23332299852E+03 -0.10151944874E+04 -0.12150866720E+04  0.16004676512E+04  0.12699999809E+01 0.  1.
       -4    1    3    3    0  502  0.23332299852E+03  0.10151944874E+04  0.78585145187E+03  0.13048461926E+04  0.12699999809E+01 0. -1.
</event>
<event>
 5   0  0.1091076E-06  0.2907574E+04  0.7818609E-02  0.8270628E-01
        1   -1    0    0  501    0  0.00000000000E+00  0.00000000000E+00  0.11972554826E+04  0.11972554826E+04  0.50400001928E-02 0.  1.
       -1   -1    0    0    0  501  0.00000000000E+00  0.00000000000E+00 -0.17652847853E+04  0.17652847854E+04  0.50400001928E-02 0. -1.
    10030    2    1    2    0    0  0.00000000000E+00  0.00000000000E+00 -0.56802930278E+03  0.29625402679E+04  0.29075741694E+04 0.  0.
        3    1    3    3  502    0  0.13755778070E+04  0.47033730604E+03 -0.29225409770E+03  0.14828499427E+04  0.10100000352E+00 0. -1.
       -3    1    3    3    0  502 -0.13755778070E+04 -0.47033730604E+03 -0.27577520508E+03  0.14796903252E+04  0.10100000352E+00 0.  1.
</event>
<event>
 5   0  0.2862033E-06  0.3004853E+04  0.7818609E-02  0.8242346E-01
       -2   -1    0    0    0  501  0.00000000000E+00  0.00000000000E+00  0.12634623545E+04  0.12634623545E+04  0.25500000920E-02 0. -1.
        2   -1    0    0  501    0  0.00000000000E+00  0.00000000000E+00 -0.17865868430E+04  0.17865868430E+04  0.25500000920E-02 0.  1.
    10030    2    1    2    0    0  0.00000000000E+00  0.00000000000E+00 -0.52312448853E+03  0.30500491974E+04  0.30048528876E+04 0.  0.
        2    1    3    3  502    0 -0.66202306694E+03  0.85398418617E+03 -0.13211609696E+04  0.17067600415E+04  0.25500000920E-02 0.  1.
       -2    1    3    3    0  502  0.66202306694E+03 -0.85398418617E+03  0.79803648111E+03  0.13432891560E+04  0.25500000920E-02 0. -1.
</event>
<event>
 5   0  0.1091075E-06  0.2991666E+04  0.7818609E-02  0.8246115E-01
        1   -1    0    0  501    0  0.00000000000E+00  0.00000000000E+00  0.25903028712E+04  0.25903028712E+04  0.50400001928E-02 0.  1.
       -1   -1    0    0    0  501  0.00000000000E+00  0.00000000000E+00 -0.86380471660E+03  0.86380471661E+03  0.50400001928E-02 0. -1.
    10030    2    1    2    0    0  0.00000000000E+00  0.00000000000E+00  0.17264981546E+04  0.34541075879E+04  0.29916656482E+04 0.  0.
        1    1    3    3  502    0  0.69706970583E+03 -0.87814895881E+03  0.20064923314E+04  0.22984915151E+04  0.50400001928E-02 0.  1.
       -1    1    3    3    0  502 -0.69706970583E+03  0.87814895881E+03 -0.27999417680E+03  0.11556160728E+04  0.50400001928E-02 0. -1.
</event>
<event>
 5   0  0.2862033E-06  0.3033063E+04  0.7818609E-02  0.8234352E-01
       -2   -1    0    0    0  501  0.00000000000E+00  0.00000000000E+00  0.10287191261E+04  0.10287191261E+04  0.25500000920E-02 0. -1.
        2   -1    0    0  501    0  0.00000000000E+00  0.00000000000E+00 -0.22356619942E+04  0.22356619942E+04  0.25500000920E-02 0.  1.
    10030    2    1    2    0    0  0.00000000000E+00  0.00000000000E+00 -0.12069428681E+04  0.32643811203E+04  0.30330633049E+04 0.  0.
        2    1    3    3  502    0  0.11931023547E+04  0.56792545503E+03  0.19748677454E+03  0.13360514876E+04  0.25500000920E-02 0. -1.
       -2    1    3    3    0  502 -0.11931023547E+04 -0.56792545503E+03 -0.14044296426E+04  0.19283296327E+04  0.25500000920E-02 0.  1.
</event>
<event>
 5   0  0.2862033E-06  0.2989514E+04  0.7818609E-02  0.8246732E-01
       -2   -1    0    0    0  501  0.00000000000E+00  0.00000000000E+00  0.87973355246E+03  0.87973355246E+03  0.25500000920E-02 0.  1.
        2   -1    0    0  501    0  0.00000000000E+00  0.00000000000E+00 -0.25397443831E+04  0.25397443831E+04  0.25500000920E-02 0. -1.
    10030    2    1    2    0    0  0.00000000000E+00  0.00000000000E+00 -0.16600108306E+04  0.34194779356E+04  0.29895139060E+04 0.  0.
        2    1    3    3  502    0  0.85126433610E+03  0.55152683535E+02  0.57396840861E+03  0.10281695009E+04  0.25500000920E-02 0.  1.
       -2    1    3    3    0  502 -0.85126433610E+03 -0.55152683535E+02 -0.22339792392E+04  0.23913084347E+04  0.25500000920E-02 0. -1.
</event>
<event>
 5   0  0.1091076E-06  0.3106669E+04  0.7818609E-02  0.8213910E-01
        1   -1    0    0  501    0  0.00000000000E+00  0.00000000000E+00  0.13290951628E+04  0.13290951628E+04  0.50400001928E-02 0.  1.
       -1   -1    0    0    0  501  0.00000000000E+00  0.00000000000E+00 -0.18154067915E+04  0.18154067915E+04  0.50400001928E-02 0. -1.
    10030    2    1    2    0    0  0.00000000000E+00  0.00000000000E+00 -0.48631162875E+03  0.31445019543E+04  0.31066692036E+04 0.  0.
        3    1    3    3  502    0  0.70960448590E+03  0.18421557287E+03 -0.16292758996E+04  0.17866207966E+04  0.10100000352E+00 0. -1.
       -3    1    3    3    0  502 -0.70960448590E+03 -0.18421557287E+03  0.11429642709E+04  0.13578811577E+04  0.10100000352E+00 0.  1.
</event>
<event>
 5   0  0.1091075E-06  0.3003952E+04  0.7818609E-02  0.8242603E-01
        1   -1    0    0  501    0  0.00000000000E+00  0.00000000000E+00  0.23447283667E+04  0.23447283668E+04  0.50400001928E-02 0. -1.
       -1   -1    0    0    0  501  0.00000000000E+00  0.00000000000E+00 -0.96212925184E+03  0.96212925186E+03  0.50400001928E-02 0.  1.
    10030    2    1    2    0    0  0.00000000000E+00  0.00000000000E+00  0.13825991149E+04  0.33068576186E+04  0.30039518966E+04 0.  0.
        1    1    3    3  502    0  0.69706061937E+03  0.55152594863E+03  0.20241099785E+04  0.22106776301E+04  0.50400001928E-02 0. -1.
       -1    1    3    3    0  502 -0.69706061937E+03 -0.55152594863E+03 -0.64151086359E+03  0.10961799885E+04  0.50400001928E-02 0.  1.
</event>
<event>
 5   0  0.1091076E-06  0.3003815E+04  0.7818609E-02  0.8242642E-01
        1   -1    0    0  501    0  0.00000000000E+00  0.00000000000E+00  0.12661727338E+04  0.12661727339E+04  0.50400001928E-02 0.  1.
       -1   -1    0    0    0  501  0.00000000000E+00  0.00000000000E+00 -0.17815310504E+04  0.17815310504E+04  0.50400001928E-02 0. -1.
    10030    2    1    2    0    0  0.00000000000E+00  0.00000000000E+00 -0.51535831659E+03  0.30477037843E+04  0.30038149348E+04 0.  0.
        3    1    3    3  502    0 -0.13914572918E+04  0.56523893277E+03 -0.26661605602E+03  0.15253630969E+04  0.10100000352E+00 0.  1.
       -3    1    3    3    0  502  0.13914572918E+04 -0.56523893277E+03 -0.24874226057E+03  0.15223406874E+04  0.10100000352E+00 0. -1.
</event>
<event>
 5   0  0.9749500E-07  0.3022548E+04  0.7818609E-02  0.8237321E-01
        3   -1    0    0  501    0  0.00000000000E+00  0.00000000000E+00  0.14669026979E+04  0.14669027014E+04  0.10100000352E+00 0. -1.
       -3   -1    0    0    0  501  0.00000000000E+00  0.00000000000E+00 -0.15569871820E+04  0.15569871853E+04  0.10100000352E+00 0.  1.
    10030    2    1    2    0    0  0.00000000000E+00  0.00000000000E+00 -0.90084484090E+02  0.30238898867E+04  0.30225477387E+04 0.  0.
        3    1    3    3  502    0  0.11431734652E+04 -0.71498629978E+02  0.94129161624E+03  0.14825611430E+04  0.10100000352E+00 0. -1.
       -3    1    3    3    0  502 -0.11431734652E+04  0.71498629978E+02 -0.10313761003E+04  0.15413287437E+04  0.10100000352E+00 0.  1.
</event>
<event>
 5   0  0.1097402E-06  0.3013186E+04  0.7818609E-02  0.8239975E-01
       -1   -1    0    0    0  501  0.00000000000E+00  0.00000000000E+00  0.13591603618E+04  0.13591603618E+04  0.50400001928E-02 0.  1.
        1   -1    0    0  501    0  0.00000000000E+00  0.00000000000E+00 -0.16700184889E+04  0.16700184889E+04  0.50400001928E-02 0. -1.
    10030    2    1    2    0    0  0.00000000000E+00  0.00000000000E+00 -0.31085812710E+03  0.30291788507E+04  0.30131863093E+04 0.  0.
        4    1    3    3  502    0  0.68325686364E+03  0.20153638068E+03 -0.14900157692E+04  0.16515463844E+04  0.12699999809E+01 0. -1.
       -4    1    3    3    0  502 -0.68325686364E+03 -0.20153638068E+03  0.11791576421E+04  0.13776324663E+04  0.12699999809E+01 0.  1.
</event>
<event>
 5   0  0.1097402E-06  0.2998940E+04  0.7818609E-02  0.8244034E-01
       -1   -1    0    0    0  501  0.00000000000E+00  0.00000000000E+00  0.13243245826E+04  0.13243245826E+04  0.50400001928E-02 0. -1.
        1   -1    0    0  501    0  0.00000000000E+00  0.00000000000E+00 -0.16977784518E+04  0.16977784518E+04  0.50400001928E-02 0.  1.
    10030    2    1    2    0    0  0.00000000000E+00  0.00000000000E+00 -0.37345386921E+03  0.30221030344E+04  0.29989396389E+04 0.  0.
        4    1    3    3  502    0 -0.12575183214E+04  0.59757631156E+03 -0.74776614202E+03  0.15803814707E+04  0.12699999809E+01 0. -1.
       -4    1    3    3    0  502  0.12575183214E+04 -0.59757631156E+03  0.37431227280E+03  0.14417215637E+04  0.12699999809E+01 0.  1.
</event>
<event>
 5   0  0.3113328E-06  0.3015016E+04  0.7818609E-02  0.8239456E-01
       -2   -1    0    0    0  501  0.00000000000E+00  0.00000000000E+00  0.15178397253E+04  0.15178397253E+04  0.25500000920E-02 0. -1.
        2   -1    0    0  501    0  0.00000000000E+00  0.00000000000E+00 -0.14972462766E+04  0.14972462766E+04  0.25500000920E-02 0.  1.
    10030    2    1    2    0    0  0.00000000000E+00  0.00000000000E+00  0.20593448737E+02  0.30150860019E+04  0.30150156731E+04 0.  0.
        1    1    3    3  502    0  0.65624009521E+03  0.10541033592E+04  0.86518210650E+03  0.15133819847E+04  0.50400001928E-02 0. -1.
       -1    1    3    3    0  502 -0.65624009521E+03 -0.10541033592E+04 -0.84458865776E+03  0.15017040172E+04  0.50400001928E-02 0.  1.
</event>
<event>
 5   0  0.2985941E-06  0.3028163E+04  0.7818609E-02  0.8235734E-01
       -2   -1    0    0    0  501  0.00000000000E+00  0.00000000000E+00  0.13149302183E+04  0.13149302183E+04  0.25500000920E-02 0. -1.
        2   -1    0    0  501    0  0.00000000000E+00  0.00000000000E+00 -0.17433953719E+04  0.17433953719E+04  0.25500000920E-02 0.  1.
    10030    2    1    2    0    0  0.00000000000E+00  0.00000000000E+00 -0.42846515359E+03  0.30583255903E+04  0.30281633094E+04 0.  0.
        3    1    3    3  502    0 -0.12879145596E+04  0.29451220723E+03 -0.96118149215E+03  0.16338088089E+04  0.10100000352E+00 0.  1.
       -3    1    3    3    0  502  0.12879145596E+04 -0.29451220723E+03  0.53271633856E+03  0.14245167814E+04  0.10100000352E+00 0. -1.
</event>
<event>
 5   0  0.9749500E-07  0.2988974E+04  0.7818609E-02  0.8246886E-01
       -3   -1    0    0    0  501  0.00000000000E+00  0.00000000000E+00  0.14777880347E+04  0.14777880382E+04  0.10100000352E+00 0.  1.
        3   -1    0    0  501    0  0.00000000000E+00  0.00000000000E+00 -0.15113750201E+04  0.15113750235E+04  0.10100000352E+00 0. -1.
    10030    2    1    2    0    0  0.00000000000E+00  0.00000000000E+00 -0.33586985379E+02  0.29891630616E+04  0.29889743598E+04 0.  0.
        4    1    3    3  502    0 -0.59108877385E+03  0.35609503509E+03  0.13089223888E+04  0.14796854549E+04  0.12699999809E+01 0.  1.
       -4    1    3    3    0  502  0.59108877385E+03 -0.35609503509E+03 -0.13425093742E+04  0.15094776067E+04  0.12699999809E+01 0. -1.
</event>
<event>
 5   0  0.2862033E-06  0.2998032E+04  0.7818609E-02  0.8244293E-01
       -2   -1    0    0    0  501  0.00000000000E+00  0.00000000000E+00  0.14475376507E+04  0.14475376507E+04  0.25500000920E-02 0. -1.
        2   -1    0    0  501    0  0.00000000000E+00  0.00000000000E+00 -0.15523249161E+04  0.15523249161E+04  0.25500000920E-02 0.  1.
    10030    2    1    2    0    0  0.00000000000E+00  0.00000000000E+00 -0.10478726540E+03  0.29998625668E+04  0.29980318625E+04 0.  0.
        2    1    3    3  502    0  0.18480737634E+03  0.74850382525E+03  0.12339406757E+04  0.14549987401E+04  0.25500000920E-02 0. -1.
       -2    1    3    3    0  502 -0.18480737634E+03 -0.74850382525E+03 -0.13387279411E+04  0.15448638267E+04  0.25500000920E-02 0.  1.
</event>
<event>
 5   0  0.2970915E-06  0.3021698E+04  0.7818609E-02  0.8237562E-01
        2   -1    0    0  501    0  0.00000000000E+00  0.00000000000E+00  0.17593276293E+04  0.17593276293E+04  0.25500000920E-02 0. -1.
       -2   -1    0    0    0  501  0.00000000000E+00  0.00000000000E+00 -0.12974639134E+04  0.12974639134E+04  0.25500000920E-02 0.  1.
    10030    2    1    2    0    0  0.00000000000E+00  0.00000000000E+00  0.46186371591E+03  0.30567915427E+04  0.30216976095E+04 0.  0.
        4    1    3    3  502    0 -0.41737088882E+03  0.11204043386E+04  0.11653249000E+04  0.16695772148E+04  0.12699999809E+01 0. -1.
       -4    1    3    3    0  502  0.41737088882E+03 -0.11204043386E+04 -0.70346118408E+03  0.13872143278E+04  0.12699999809E+01 0.  1.
</event>
<event>
 5   0  0.1097402E-06  0.2978167E+04  0.7818609E-02  0.8249993E-01
        1   -1    0    0  501    0  0.00000000000E+00  0.00000000000E+00  0.11652434280E+04  0.11652434280E+04  0.50400001928E-02 0. -1.
       -1   -1    0    0    0  501  0.00000000000E+00  0.00000000000E+00 -0.19029242409E+04  0.19029242409E+04  0.50400001928E-02 0.  1.
    10030    2    1    2    0    0  0.00000000000E+00  0.00000000000E+00 -0.73768081289E+03  0.30681676690E+04  0.29781671986E+04 0.  0.
        4    1    3    3  502    0 -0.23435214861E+03 -0.33679690436E+03 -0.18435367740E+04  0.18886456878E+04  0.12699999809E+01 0.  1.
       -4    1    3    3    0  502  0.23435214861E+03  0.33679690436E+03  0.11058559611E+04  0.11795219811E+04  0.12699999809E+01 0. -1.
</event>
<event>
 5   0  0.2948711E-06  0.2989532E+04  0.7818609E-02  0.8246726E-01
        2   -1    0    0  501    0  0.00000000000E+00  0.00000000000E+00  0.16179083169E+04  0.16179083169E+04  0.25500000920E-02 0. -1.
       -2   -1    0    0    0  501  0.00000000000E+00  0.00000000000E+00 -0.13809963250E+04  0.13809963250E+04  0.25500000920E-02 0.  1.
    10030    2    1    2    0    0  0.00000000000E+00  0.00000000000E+00  0.23691199195E+03  0.29989046419E+04  0.29895320302E+04 0.  0.
        5    1    3    3  502    0  0.20328735003E+02 -0.11318581310E+04  0.10976244586E+04  0.15768061480E+04  0.46999998093E+01 0. -1.
       -5    1    3    3    0  502 -0.20328735003E+02  0.11318581310E+04 -0.86071246664E+03  0.14220984939E+04  0.46999998093E+01 0.  1.
</event>
<event>
 5   0  0.2985941E-06  0.2979733E+04  0.7818609E-02  0.8249542E-01
       -2   -1    0    0    0  501  0.00000000000E+00  0.00000000000E+00  0.12345477671E+04  0.12345477671E+04  0.25500000920E-02 0.  1.
        2   -1    0    0  501    0  0.00000000000E+00  0.00000000000E+00 -0.17979881077E+04  0.17979881077E+04  0.25500000920E-02 0. -1.
    10030    2    1    2    0    0  0.00000000000E+00  0.00000000000E+00 -0.56344034061E+03  0.30325358748E+04  0.29797330106E+04 0.  0.
        3    1    3    3  502    0 -0.11625842676E+04 -0.80664587048E+03  0.19282853342E+03  0.14280975433E+04  0.10100000352E+00 0.  1.
       -3    1    3    3    0  502  0.11625842676E+04  0.80664587048E+03 -0.75626887402E+03  0.16044383315E+04  0.10100000352E+00 0. -1.
</event>
<event>
 5   0  0.1097402E-06  0.2886811E+04  0.7818609E-02  0.8276812E-01
        1   -1    0    0  501    0  0.00000000000E+00  0.00000000000E+00  0.20423980724E+04  0.20423980724E+04  0.50400001928E-02 0. -1.
       -1   -1    0    0    0  501  0.00000000000E+00  0.00000000000E+00 -0.10200848595E+04  0.10200848595E+04  0.50400001928E-02 0.  1.
    10030    2    1    2    0    0  0.00000000000E+00  0.00000000000E+00  0.10223132129E+04  0.30624829319E+04  0.28868109400E+04 0.  0.
        4    1    3    3  502    0  0.60950761495E+03 -0.58544244863E+03  0.17524797983E+04  0.19456180123E+04  0.12699999809E+01 0. -1.
       -4    1    3    3    0  502 -0.60950761495E+03  0.58544244863E+03 -0.73016658540E+03  0.11168649196E+04  0.12699999809E+01 0.  1.
</event>
<event>
 5   0  0.1091076E-06  0.2964707E+04  0.7818609E-02  0.8253881E-01
        1   -1    0    0  501    0  0.00000000000E+00  0.00000000000E+00  0.16395334050E+04  0.16395334050E+04  0.50400001928E-02 0. -1.
       -1   -1    0    0    0  501  0.00000000000E+00  0.00000000000E+00 -0.13402426013E+04  0.13402426014E+04  0.50400001928E-02 0.  1.
    10030    2    1    2    0    0  0.00000000000E+00  0.00000000000E+00  0.29929080360E+03  0.29797760063E+04  0.29647074160E+04 0.  0.
        3    1    3    3  502    0  0.12839341808E+04 -0.72630714110E+03  0.29655074486E+03  0.15046432794E+04  0.10100000352E+00 0. -1.
       -3    1    3    3    0  502 -0.12839341808E+04  0.72630714110E+03  0.27400587467E+01  0.14751327269E+04  0.10100000352E+00 0.  1.
</event>
<event>
 5   0  0.2970915E-06  0.2989318E+04  0.7818609E-02  0.8246788E-01
        2   -1    0    0  501    0  0.00000000000E+00  0.00000000000E+00  0.13917838696E+04  0.13917838696E+04  0.25500000920E-02 0. -1.
       -2   -1    0    0    0  501  0.00000000000E+00  0.00000000000E+00 -0.16051383172E+04  0.16051383172E+04  0.25500000920E-02 0.  1.
    10030    2    1    2    0    0  0.00000000000E+00  0.00000000000E+00 -0.21335444756E+03  0.29969221868E+04  0.29893180616E+04 0.  0.
        4    1    3    3  502    0 -0.65548699283E+03 -0.46783945881E+03 -0.13690335211E+04  0.15883297365E+04  0.12699999809E+01 0.  1.
       -4    1    3    3    0  502  0.65548699283E+03  0.46783945881E+03  0.11556790736E+04  0.14085924503E+04  0.12699999809E+01 0. -1.
</event>
<event>
 5   0  0.2985941E-06  0.3004569E+04  0.7818609E-02  0.8242427E-01
       -2   -1    0    0    0  501  0.00000000000E+00  0.00000000000E+00  0.13708329366E+04  0.13708329366E+04  0.25500000920E-02 0. -1.
        2   -1    0    0  501    0  0.00000000000E+00  0.00000000000E+00 -0.16463410911E+04  0.16463410911E+04  0.25500000920E-02 0.  1.
    10030    2    1    2    0    0  0.00000000000E+00  0.00000000000E+00 -0.27550815449E+03  0.30171740278E+04  0.30045689160E+04 0.  0.
        3    1    3    3  502    0 -0.26913483970E+03 -0.12356032329E+04 -0.95214946378E+03  0.15829521542E+04  0.10100000352E+00 0.  1.
       -3    1    3    3    0  502  0.26913483970E+03  0.12356032329E+04  0.67664130928E+03  0.14342218736E+04  0.10100000352E+00 0. -1.
</event>
<event>
 5   0  0.2862033E-06  0.3007163E+04  0.7818609E-02  0.8241688E-01
       -2   -1    0    0    0  501  0.00000000000E+00  0.00000000000E+00  0.99673712535E+03  0.99673712536E+03  0.25500000920E-02 0. -1.
        2   -1    0    0  501    0  0.00000000000E+00  0.00000000000E+00 -0.22681581211E+04  0.22681581211E+04  0.25500000920E-02 0.  1.
    10030    2    1    2    0    0  0.00000000000E+00  0.00000000000E+00 -0.12714209957E+04  0.32648952464E+04  0.30071630521E+04 0.  0.
        2    1    3    3  502    0  0.10541950750E+03  0.10832636458E+04  0.49059328218E+03  0.11938405117E+04  0.25500000920E-02 0. -1.
       -2    1    3    3    0  502 -0.10541950750E+03 -0.10832636458E+04 -0.17620142779E+04  0.20710547348E+04  0.25500000920E-02 0.  1.
</event>
<event>
 5   0  0.2862033E-06  0.2980521E+04  0.7818609E-02  0.8249315E-01
       -2   -1    0    0    0  501  0.00000000000E+00  0.00000000000E+00  0.19514783707E+04  0.19514783707E+04  0.25500000920E-02 0. -1.
        2   -1    0    0  501    0  0.00000000000E+00  0.00000000000E+00 -0.11380479282E+04  0.11380479282E+04  0.25500000920E-02 0.  1.
    10030    2    1    2    0    0  0.00000000000E+00  0.00000000000E+00  0.81343044258E+03  0.30895262989E+04  0.29805207039E+04 0.  0.
        2    1    3    3  502    0  0.50967748438E+03 -0.82256305030E+03  0.15815206097E+04  0.18540735015E+04  0.25500000920E-02 0. -1.
       -2    1    3    3    0  502 -0.50967748438E+03  0.82256305030E+03 -0.76809016715E+03  0.12354527974E+04  0.25500000920E-02 0.  1.
</event>
<event>
 5   0  0.2970915E-06  0.3106265E+04  0.7818609E-02  0.8214021E-01
        2   -1    0    0  501    0  0.00000000000E+00  0.00000000000E+00  0.26438494216E+04  0.26438494216E+04  0.25500000920E-02 0. -1.
       -2   -1    0    0    0  501  0.00000000000E+00  0.00000000000E+00 -0.91238966217E+03  0.91238966217E+03  0.25500000920E-02 0.  1.
    10030    2    1    2    0    0  0.00000000000E+00  0.00000000000E+00  0.17314597594E+04  0.35562390838E+04  0.31062652048E+04 0.  0.
        4    1    3    3  502    0  0.60863106103E+03  0.88996753397E+03  0.21455919620E+04  0.24012580995E+04  0.12699999809E+01 0. -1.
       -4    1    3    3    0  502 -0.60863106103E+03 -0.88996753397E+03 -0.41413220257E+03  0.11549809843E+04  0.12699999809E+01 0.  1.
</event>
<event>
 5   0  0.2948711E-06  0.3041390E+04  0.7818609E-02  0.8232009E-01
       -2   -1    0    0    0  501  0.00000000000E+00  0.00000000000E+00  0.14167515549E+04  0.14167515549E+04  0.25500000920E-02 0. -1.
        2   -1    0    0  501    0  0.00000000000E+00  0.00000000000E+00 -0.16322645742E+04  0.16322645742E+04  0.25500000920E-02 0.  1.
    10030    2    1    2    0    0  0.00000000000E+00  0.00000000000E+00 -0.21551301930E+03  0.30490161291E+04  0.30413900595E+04 0.  0.
        5    1    3    3  502    0  0.13379843130E+04  0.68098020075E+03  0.13483211743E+03  0.15073612194E+04  0.46999998093E+01 0. -1.
       -5    1    3    3    0  502 -0.13379843130E+04 -0.68098020075E+03 -0.35034513673E+03  0.15416549097E+04  0.46999998093E+01 0.  1.
</event>
<event>
 5   0  0.2948711E-06  0.2976325E+04  0.7818609E-02  0.8250524E-01
       -2   -1    0    0    0  501  0.00000000000E+00  0.00000000000E+00  0.14170243360E+04  0.14170243360E+04  0.25500000920E-02 0.  1.
        2   -1    0    0  501    0  0.00000000000E+00  0.00000000000E+00 -0.15628723341E+04  0.15628723341E+04  0.25500000920E-02 0. -1.
    10030    2    1    2    0    0  0.00000000000E+00  0.00000000000E+00 -0.14584799806E+03  0.29798966702E+04  0.29763253394E+04 0.  0.
        5    1    3    3  502    0 -0.12648835601E+04  0.26559102730E+03  0.66561756677E+03  0.14538011727E+04  0.46999998093E+01 0.  1.
       -5    1    3    3    0  502  0.12648835601E+04 -0.26559102730E+03 -0.81146556483E+03  0.15260954975E+04  0.46999998093E+01 0. -1.
</event>
<event>
 5   0  0.2985941E-06  0.3001928E+04  0.7818609E-02  0.8243181E-01
        2   -1    0    0  501    0  0.00000000000E+00  0.00000000000E+00  0.19878121120E+04  0.19878121120E+04  0.25500000920E-02 0.  1.
       -2   -1    0    0    0  501  0.00000000000E+00  0.00000000000E+00 -0.11333529921E+04  0.11333529921E+04  0.25500000920E-02 0. -1.
    10030    2    1    2    0    0  0.00000000000E+00  0.00000000000E+00  0.85445911994E+03  0.31211651041E+04  0.30019279171E+04 0.  0.
        3    1    3    3  502    0 -0.13830276895E+04 -0.44639169306E+03  0.37006539918E+02  0.14537539777E+04  0.10100000352E+00 0. -1.
       -3    1    3    3    0  502  0.13830276895E+04  0.44639169306E+03  0.81745258002E+03  0.16674111264E+04  0.10100000352E+00 0.  1.
</event>
<event>
 5   0  0.1091075E-06  0.2983357E+04  0.7818609E-02  0.8248500E-01
        1   -1    0    0  501    0  0.00000000000E+00  0.00000000000E+00  0.79038741420E+03  0.79038741422E+03  0.50400001928E-02 0. -1.
       -1   -1    0    0    0  501  0.00000000000E+00  0.00000000000E+00 -0.28152070300E+04  0.28152070300E+04  0.50400001928E-02 0.  1.
    10030    2    1    2    0    0  0.00000000000E+00  0.00000000000E+00 -0.20248196157E+04  0.36055944442E+04  0.29833566363E+04 0.  0.
        1    1    3    3  502    0 -0.82047361179E+03  0.11751371135E+04 -0.51266949204E+03  0.15221544571E+04  0.50400001928E-02 0. -1.
       -1    1    3    3    0  502  0.82047361179E+03 -0.11751371135E+04 -0.15121501237E+04  0.20834399871E+04  0.50400001928E-02 0.  1.
</event>
<event>
 5   0  0.1091075E-06  0.3027217E+04  0.7818609E-02  0.8236001E-01
       -1   -1    0    0    0  501  0.00000000000E+00  0.00000000000E+00  0.10085983792E+04  0.10085983792E+04  0.50400001928E-02 0.  1.
        1   -1    0    0  501    0  0.00000000000E+00  0.00000000000E+00 -0.22714797878E+04  0.22714797878E+04  0.50400001928E-02 0. -1.
    10030    2    1    2    0    0  0.00000000000E+00  0.00000000000E+00 -0.12628814086E+04  0.32800781671E+04  0.30272170933E+04 0.  0.
        1    1    3    3  502    0 -0.12412131645E+04 -0.11498749682E+03  0.29886778213E+03  0.12818557623E+04  0.50400001928E-02 0.  1.
       -1    1    3    3    0  502  0.12412131645E+04  0.11498749682E+03 -0.15617491907E+04  0.19982224048E+04  0.50400001928E-02 0. -1.
</event>
<event>
 5   0  0.2862033E-06  0.2984270E+04  0.7818609E-02  0.8248237E-01
        2   -1    0    0  501    0  0.00000000000E+00  0.00000000000E+00  0.11683171252E+04  0.11683171252E+04  0.25500000920E-02 0.  1.
       -2   -1    0    0    0  501  0.00000000000E+00  0.00000000000E+00 -0.19057044681E+04  0.19057044681E+04  0.25500000920E-02 0. -1.
    10030    2    1    2    0    0  0.00000000000E+00  0.00000000000E+00 -0.73738734290E+03  0.30740215933E+04  0.29842702061E+04 0.  0.
        2    1    3    3  502    0 -0.94343976618E+03  0.81293570655E+03 -0.12153149855E+04  0.17400958507E+04  0.25500000920E-02 0. -1.
       -2    1    3    3    0  502  0.94343976618E+03 -0.81293570655E+03  0.47792764264E+03  0.13339257427E+04  0.25500000920E-02 0.  1.
</event>
<event>
 5   0  0.2970915E-06  0.2990392E+04  0.7818609E-02  0.8246480E-01
       -2   -1    0    0    0  501  0.00000000000E+00  0.00000000000E+00  0.13740931696E+04  0.13740931696E+04  0.25500000920E-02 0.  1.
        2   -1    0    0  501    0  0.00000000000E+00  0.00000000000E+00 -0.16269720534E+04  0.16269720534E+04  0.25500000920E-02 0. -1.
    10030    2    1    2    0    0  0.00000000000E+00  0.00000000000E+00 -0.25287888374E+03  0.30010652230E+04  0.29903920718E+04 0.  0.
        4    1    3    3  502    0  0.18221011622E+03 -0.14829200748E+04 -0.18458671166E+03  0.15054322773E+04  0.12699999809E+01 0. -1.
       -4    1    3    3    0  502 -0.18221011622E+03  0.14829200748E+04 -0.68292172080E+02  0.14956329457E+04  0.12699999809E+01 0.  1.
</event>
<event>
 5   0  0.1113245E-06  0.3021331E+04  0.7818609E-02  0.8237666E-01
        1   -1    0    0  501    0  0.00000000000E+00  0.00000000000E+00  0.16275592084E+04  0.16275592084E+04  0.50400001928E-02 0.  1.
       -1   -1    0    0    0  501  0.00000000000E+00  0.00000000000E+00 -0.14021673143E+04  0.14021673143E+04  0.50400001928E-02 0. -1.
    10030    2    1    2    0    0  0.00000000000E+00  0.00000000000E+00  0.22539189403E+03  0.30297265227E+04  0.30213310471E+04 0.  0.
        5    1    3    3  502    0 -0.57816907272E+03 -0.13953344506E+04  0.14194080489E+03  0.15170388880E+04  0.46999998093E+01 0. -1.
       -5    1    3    3    0  502  0.57816907272E+03  0.13953344506E+04  0.83451089143E+02  0.15126876347E+04  0.46999998093E+01 0.  1.
</event>
<event>
 5   0  0.2970915E-06  0.2999986E+04  0.7818609E-02  0.8243735E-01
        2   -1    0    0  501    0  0.00000000000E+00  0.00000000000E+00  0.25219339389E+04  0.25219339389E+04  0.25500000920E-02 0. -1.
       -2   -1    0    0    0  501  0.00000000000E+00  0.00000000000E+00 -0.89216434220E+03  0.89216434220E+03  0.25500000920E-02 0.  1.
    10030    2    1    2    0    0  0.00000000000E+00  0.00000000000E+00  0.16297695967E+04  0.34140982811E+04  0.29999863557E+04 0.  0.
        4    1    3    3  502    0  0.23570619270E+02 -0.12198465181E+04  0.18079145684E+04  0.21810863810E+04  0.12699999809E+01 0.  1.
       -4    1    3    3    0  502 -0.23570619270E+02  0.12198465181E+04 -0.17814497172E+03  0.12330119001E+04  0.12699999809E+01 0. -1.
</event>
<event>
 5   0  0.1113245E-06  0.3025033E+04  0.7818609E-02  0.8236619E-01
        1   -1    0    0  501    0  0.00000000000E+00  0.00000000000E+00  0.20881022898E+04  0.20881022898E+04  0.50400001928E-02 0.  1.
       -1   -1    0    0    0  501  0.00000000000E+00  0.00000000000E+00 -0.10955907563E+04  0.10955907563E+04  0.50400001928E-02 0. -1.
    10030    2    1    2    0    0  0.00000000000E+00  0.00000000000E+00  0.99251153351E+03  0.31836930460E+04  0.30250326060E+04 0.  0.
        5    1    3    3  502    0 -0.56448191703E+03 -0.13971177181E+04  0.35860714754E+03  0.15489347724E+04  0.46999998093E+01 0.  1.
       -5    1    3    3    0  502  0.56448191703E+03  0.13971177181E+04  0.63390438597E+03  0.16347582737E+04  0.46999998093E+01 0. -1.
</event>
<event>
 5   0  0.1097402E-06  0.2993124E+04  0.7818609E-02  0.8245697E-01
        1   -1    0    0  501    0  0.00000000000E+00  0.00000000000E+00  0.25683723923E+04  0.25683723923E+04  0.50400001928E-02 0.  1.
       -1   -1    0    0    0  501  0.00000000000E+00  0.00000000000E+00 -0.87203030549E+03  0.87203030551E+03  0.50400001928E-02 0. -1.
    10030    2    1    2    0    0  0.00000000000E+00  0.00000000000E+00  0.16963420868E+04  0.34404026978E+04  0.29931244958E+04 0.  0.
        4    1    3    3  502    0  0.12288500546E+04 -0.15117135011E+03  0.18144979644E+04  0.21966633127E+04  0.12699999809E+01 0.  1.
       -4    1    3    3    0  502 -0.12288500546E+04  0.15117135011E+03 -0.11815587761E+03  0.12437393851E+04  0.12699999809E+01 0. -1.
</event>
<event>
 5   0  0.1091075E-06  0.3000154E+04  0.7818609E-02  0.8243687E-01
        1   -1    0    0  501    0  0.00000000000E+00  0.00000000000E+00  0.15710888641E+04  0.15710888641E+04  0.50400001928E-02 0.  1.
       -1   -1    0    0    0  501  0.00000000000E+00  0.00000000000E+00 -0.14322752000E+04  0.14322752000E+04  0.50400001928E-02 0. -1.
    10030    2    1    2    0    0  0.00000000000E+00  0.00000000000E+00  0.13881366404E+03  0.30033640641E+04  0.30001544074E+04 0.  0.
        1    1    3    3  502    0 -0.98767960284E+03 -0.11288629968E+04  0.49663827741E+02  0.15007695224E+04  0.50400001928E-02 0.  1.
       -1    1    3    3    0  502  0.98767960284E+03  0.11288629968E+04  0.89149836301E+02  0.15025945417E+04  0.50400001928E-02 0. -1.
</event>
<event>
 5   0  0.1091075E-06  0.2992875E+04  0.7818609E-02  0.8245769E-01
       -1   -1    0    0    0  501  0.00000000000E+00  0.00000000000E+00  0.16438093145E+04  0.16438093145E+04  0.50400001928E-02 0.  1.
        1   -1    0    0  501    0  0.00000000000E+00  0.00000000000E+00 -0.13622775137E+04  0.13622775137E+04  0.50400001928E-02 0. -1.
    10030    2    1    2    0    0  0.00000000000E+00  0.00000000000E+00  0.28153180085E+03  0.30060868282E+04  0.29928745152E+04 0.  0.
        1    1    3    3  502    0 -0.64134886445E+02  0.14794832109E+04  0.35698491776E+03  0.15232931716E+04  0.50400001928E-02 0.  1.
       -1    1    3    3    0  502  0.64134886445E+02 -0.14794832109E+04 -0.75453116916E+02  0.14827936566E+04  0.50400001928E-02 0. -1.
</event>
<event>
 5   0  0.1091075E-06  0.2991722E+04  0.7818609E-02  0.8246099E-01
       -1   -1    0    0    0  501  0.00000000000E+00  0.00000000000E+00  0.10770845722E+04  0.10770845722E+04  0.50400001928E-02 0.  1.
        1   -1    0    0  501    0  0.00000000000E+00  0.00000000000E+00 -0.20774595614E+04  0.20774595614E+04  0.50400001928E-02 0. -1.
    10030    2    1    2    0    0  0.00000000000E+00  0.00000000000E+00 -0.10003749892E+04  0.31545441336E+04  0.29917216736E+04 0.  0.
        1    1    3    3  502    0  0.12971126414E+04 -0.74345071613E+03 -0.55162212833E+03  0.15935831149E+04  0.50400001928E-02 0.  1.
       -1    1    3    3    0  502 -0.12971126414E+04  0.74345071613E+03 -0.44875286085E+03  0.15609610187E+04  0.50400001928E-02 0. -1.
</event>
<event>
 5   0  0.1054384E-06  0.2997321E+04  0.7818609E-02  0.8244496E-01
        1   -1    0    0  501    0  0.00000000000E+00  0.00000000000E+00  0.13794336153E+04  0.13794336153E+04  0.50400001928E-02 0. -1.
       -1   -1    0    0    0  501  0.00000000000E+00  0.00000000000E+00 -0.16281920066E+04  0.16281920067E+04  0.50400001928E-02 0.  1.
    10030    2    1    2    0    0  0.00000000000E+00  0.00000000000E+00 -0.24875839133E+03  0.30076256220E+04  0.29973206610E+04 0.  0.
        2    1    3    3  502    0 -0.59683658874E+03 -0.45618401263E+03 -0.14256279110E+04  0.16114380868E+04  0.25500000920E-02 0.  1.
       -2    1    3    3    0  502  0.59683658874E+03  0.45618401263E+03  0.11768695197E+04  0.13961875352E+04  0.25500000920E-02 0. -1.
</event>
<event>
 5   0  0.1113245E-06  0.3001278E+04  0.7818609E-02  0.8243366E-01
       -1   -1    0    0    0  501  0.00000000000E+00  0.00000000000E+00  0.13441310686E+04  0.13441310686E+04  0.50400001928E-02 0. -1.
        1   -1    0    0  501    0  0.00000000000E+00  0.00000000000E+00 -0.16753707408E+04  0.16753707408E+04  0.50400001928E-02 0.  1.
    10030    2    1    2    0    0  0.00000000000E+00  0.00000000000E+00 -0.33123967219E+03  0.30195018095E+04  0.30012783038E+04 0.  0.
        5    1    3    3  502    0 -0.68903993806E+03  0.55348410108E+03  0.10544990738E+04  0.13759037295E+04  0.46999998093E+01 0. -1.
       -5    1    3    3    0  502  0.68903993806E+03 -0.55348410108E+03 -0.13857387459E+04  0.16435980799E+04  0.46999998093E+01 0.  1.
</event>
<event>
 5   0  0.2985941E-06  0.3090773E+04  0.7818609E-02  0.8218275E-01
       -2   -1    0    0    0  501  0.00000000000E+00  0.00000000000E+00  0.17161651050E+04  0.17161651050E+04  0.25500000920E-02 0.  1.
        2   -1    0    0  501    0  0.00000000000E+00  0.00000000000E+00 -0.13916021446E+04  0.13916021446E+04  0.25500000920E-02 0. -1.
    10030    2    1    2    0    0  0.00000000000E+00  0.00000000000E+00  0.32456296038E+03  0.31077672496E+04  0.30907727452E+04 0.  0.
        3    1    3    3  502    0  0.94991183126E+03 -0.44615798237E+03 -0.97834101508E+03  0.14347615078E+04  0.10100000352E+00 0. -1.
       -3    1    3    3    0  502 -0.94991183126E+03  0.44615798237E+03  0.13029039755E+04  0.16730057417E+04  0.10100000352E+00 0.  1.
</event>
<event>
 5   0  0.1091076E-06  0.2994130E+04  0.7818609E-02  0.8245409E-01
       -1   -1    0    0    0  501  0.00000000000E+00  0.00000000000E+00  0.15862423738E+04  0.15862423738E+04  0.50400001928E-02 0.  1.
        1   -1    0    0  501    0  0.00000000000E+00  0.00000000000E+00 -0.14129009197E+04  0.14129009197E+04  0.50400001928E-02 0. -1.
    10030    2    1    2    0    0  0.00000000000E+00  0.00000000000E+00  0.17334145410E+03  0.29991432935E+04  0.29941297960E+04 0.  0.
        3    1    3    3  502    0 -0.42253558141E+03  0.13288260775E+03  0.15191034225E+04  0.15823619445E+04  0.10100000352E+00 0.  1.
       -3    1    3    3    0  502  0.42253558141E+03 -0.13288260775E+03 -0.13457619684E+04  0.14167813490E+04  0.10100000352E+00 0. -1.
</event>
<event>
 5   0  0.1054384E-06  0.3003252E+04  0.7818609E-02  0.8242803E-01
       -1   -1    0    0    0  501  0.00000000000E+00  0.00000000000E+00  0.78264890133E+03  0.78264890134E+03  0.50400001928E-02 0.  1.
        1   -1    0    0  501    0  0.00000000000E+00  0.00000000000E+00 -0.28810878141E+04  0.28810878141E+04  0.50400001928E-02 0. -1.
    10030    2    1    2    0    0  0.00000000000E+00  0.00000000000E+00 -0.20984389128E+04  0.36637367155E+04  0.30032517126E+04 0.  0.
        2    1    3    3  502    0 -0.65341016775E+03  0.11029611288E+04 -0.95326717885E+02  0.12855175153E+04  0.25500000920E-02 0.  1.
       -2    1    3    3    0  502  0.65341016775E+03 -0.11029611288E+04 -0.20031121949E+04  0.23782192002E+04  0.25500000920E-02 0. -1.
</event>
<event>
 5   0  0.2948711E-06  0.2996590E+04  0.7818609E-02  0.8244705E-01
        2   -1    0    0  501    0  0.00000000000E+00  0.00000000000E+00  0.24298589952E+04  0.24298589952E+04  0.25500000920E-02 0. -1.
       -2   -1    0    0    0  501  0.00000000000E+00  0.00000000000E+00 -0.92387582916E+03  0.92387582917E+03  0.25500000920E-02 0.  1.
    10030    2    1    2    0    0  0.00000000000E+00  0.00000000000E+00  0.15059831661E+04  0.33537348244E+04  0.29965900580E+04 0.  0.
        5    1    3    3  502    0  0.52732444061E+03 -0.12242500928E+04  0.15186364077E+04  0.20206776051E+04  0.46999998093E+01 0. -1.
       -5    1    3    3    0  502 -0.52732444061E+03  0.12242500928E+04 -0.12653241574E+02  0.13330572193E+04  0.46999998093E+01 0.  1.
</event>
<event>
 5   0  0.2985941E-06  0.3003686E+04  0.7818609E-02  0.8242679E-01
       -2   -1    0    0    0  501  0.00000000000E+00  0.00000000000E+00  0.16792209545E+04  0.16792209545E+04  0.25500000920E-02 0.  1.
        2   -1    0    0  501    0  0.00000000000E+00  0.00000000000E+00 -0.13432020946E+04  0.13432020946E+04  0.25500000920E-02 0. -1.
    10030    2    1    2    0    0  0.00000000000E+00  0.00000000000E+00  0.33601885993E+03  0.30224230490E+04  0.30036864705E+04 0.  0.
        3    1    3    3  502    0 -0.38590621502E+03 -0.14277530713E+04 -0.94637260130E+02  0.14820116938E+04  0.10100000352E+00 0. -1.
       -3    1    3    3    0  502  0.38590621502E+03  0.14277530713E+04  0.43065612006E+03  0.15404113552E+04  0.10100000352E+00 0.  1.
</event>
<event>
 5   0  0.1091075E-06  0.2972945E+04  0.7818609E-02  0.8251499E-01
        1   -1    0    0  501    0  0.00000000000E+00  0.00000000000E+00  0.20367129378E+04  0.20367129378E+04  0.50400001928E-02 0.  1.
       -1   -1    0    0    0  501  0.00000000000E+00  0.00000000000E+00 -0.10848855717E+04  0.10848855717E+04  0.50400001928E-02 0. -1.
    10030    2    1    2    0    0  0.00000000000E+00  0.00000000000E+00  0.95182736615E+03  0.31215985095E+04  0.29729449910E+04 0.  0.
        1    1    3    3  502    0 -0.73132292712E+03  0.11875116631E+04  0.10160102177E+04  0.17254836818E+04  0.50400001928E-02 0.  1.
       -1    1    3    3    0  502  0.73132292712E+03 -0.11875116631E+04 -0.64182851584E+02  0.13961148277E+04  0.50400001928E-02 0. -1.
</event>
<event>
 5   0  0.2970915E-06  0.3102029E+04  0.7818609E-02  0.8215181E-01
        2   -1    0    0  501    0  0.00000000000E+00  0.00000000000E+00  0.20401335432E+04  0.20401335433E+04  0.25500000920E-02 0. -1.
       -2   -1    0    0    0  501  0.00000000000E+00  0.00000000000E+00 -0.11791610762E+04  0.11791610762E+04  0.25500000920E-02 0.  1.
    10030    2    1    2    0    0  0.00000000000E+00  0.00000000000E+00  0.86097246703E+03  0.32192946195E+04  0.31020290550E+04 0.  0.
        4    1    3    3  502    0 -0.61888040617E+03  0.19180420695E+03 -0.10319848180E+04  0.12185220919E+04  0.12699999809E+01 0.  1.
       -4    1    3    3    0  502  0.61888040617E+03 -0.19180420695E+03  0.18929572851E+04  0.20007725275E+04  0.12699999809E+01 0. -1.
</event>
<event>
 5   0  0.3113328E-06  0.2998226E+04  0.7818609E-02  0.8244238E-01
       -2   -1    0    0    0  501  0.00000000000E+00  0.00000000000E+00  0.11551469879E+04  0.11551469879E+04  0.25500000920E-02 0.  1.
        2   -1    0    0  501    0  0.00000000000E+00  0.00000000000E+00 -0.19455010419E+04  0.19455010419E+04  0.25500000920E-02 0. -1.
    10030    2    1    2    0    0  0.00000000000E+00  0.00000000000E+00 -0.79035405400E+03  0.31006480299E+04  0.29982259212E+04 0.  0.
        1    1    3    3  502    0 -0.56683715708E+03 -0.72000024664E+03 -0.16221447448E+04  0.18630776395E+04  0.50400001928E-02 0. -1.
       -1    1    3    3    0  502  0.56683715708E+03  0.72000024664E+03  0.83179069078E+03  0.12375703904E+04  0.50400001928E-02 0.  1.
</event>
<event>
 5   0  0.2985941E-06  0.3046647E+04  0.7818609E-02  0.8230535E-01
       -2   -1    0    0    0  501  0.00000000000E+00  0.00000000000E+00  0.22912839232E+04  0.22912839232E+04  0.25500000920E-02 0. -1.
        2   -1    0    0  501    0  0.00000000000E+00  0.00000000000E+00 -0.10127572525E+04  0.10127572525E+04  0.25500000920E-02 0.  1.
    10030    2    1    2    0    0  0.00000000000E+00  0.00000000000E+00  0.12785266707E+04  0.33040411757E+04  0.30466469508E+04 0.  0.
        3    1    3    3  502    0 -0.11842241343E+04 -0.41955726807E+03  0.15734944579E+04  0.20135292203E+04  0.10100000352E+00 0. -1.
       -3    1    3    3    0  502  0.11842241343E+04  0.41955726807E+03 -0.29496778718E+03  0.12905119555E+04  0.10100000352E+00 0.  1.
</event>
<event>
 5   0  0.1113245E-06  0.2985147E+04  0.7818609E-02  0.8247985E-01
        1   -1    0    0  501    0  0.00000000000E+00  0.00000000000E+00  0.12612362934E+04  0.12612362934E+04  0.50400001928E-02 0. -1.
       -1   -1    0    0    0  501  0.00000000000E+00  0.00000000000E+00 -0.17663430127E+04  0.17663430127E+04  0.50400001928E-02 0.  1.
    10030    2    1    2    0    0  0.00000000000E+00  0.00000000000E+00 -0.50510671936E+03  0.30275793061E+04  0.29851471751E+04 0.  0.
        5    1    3    3  502    0 -0.98366267163E+03  0.60883638168E+03 -0.12090816809E+04  0.16733722216E+04  0.46999998093E+01 0.  1.
       -5    1    3    3    0  502  0.98366267163E+03 -0.60883638168E+03  0.70397496149E+03  0.13542070845E+04  0.46999998093E+01 0. -1.
</event>
<event>
 5   0  0.1054384E-06  0.3021070E+04  0.7818609E-02  0.8237740E-01
        1   -1    0    0  501    0  0.00000000000E+00  0.00000000000E+00  0.22670067034E+04  0.22670067034E+04  0.50400001928E-02 0. -1.
       -1   -1    0    0    0  501  0.00000000000E+00  0.00000000000E+00 -0.10064885058E+04  0.10064885058E+04  0.50400001928E-02 0.  1.
    10030    2    1    2    0    0  0.00000000000E+00  0.00000000000E+00  0.12605181976E+04  0.32734952092E+04  0.30210701346E+04 0.  0.
        2    1    3    3  502    0 -0.76428199424E+03 -0.62618682878E+03 -0.60778437005E+03  0.11600167032E+04  0.25500000920E-02 0.  1.
       -2    1    3    3    0  502  0.76428199424E+03  0.62618682878E+03  0.18683025676E+04  0.21134785060E+04  0.25500000920E-02 0. -1.
</event>
<event>
 5   0  0.1091076E-06  0.3022610E+04  0.7818609E-02  0.8237304E-01
       -1   -1    0    0    0  501  0.00000000000E+00  0.00000000000E+00  0.11667877833E+04  0.11667877833E+04  0.50400001928E-02 0. -1.
        1   -1    0    0  501    0  0.00000000000E+00  0.00000000000E+00 -0.19575471300E+04  0.19575471300E+04  0.50400001928E-02 0.  1.
    10030    2    1    2    0    0  0.00000000000E+00  0.00000000000E+00 -0.79075934669E+03  0.31243349133E+04  0.30226095193E+04 0.  0.
        3    1    3    3  502    0  0.16201278566E+03 -0.11430616771E+04  0.61274061092E+03  0.13070153813E+04  0.10100000352E+00 0. -1.
       -3    1    3    3    0  502 -0.16201278566E+03  0.11430616771E+04 -0.14034999576E+04  0.18173195321E+04  0.10100000352E+00 0.  1.
</event>
<event>
 5   0  0.2862033E-06  0.2994502E+04  0.7818609E-02  0.8245303E-01
        2   -1    0    0  501    0  0.00000000000E+00  0.00000000000E+00  0.13681498951E+04  0.13681498951E+04  0.25500000920E-02 0. -1.
       -2   -1    0    0    0  501  0.00000000000E+00  0.00000000000E+00 -0.16385339232E+04  0.16385339232E+04  0.25500000920E-02 0.  1.
    10030    2    1    2    0    0  0.00000000000E+00  0.00000000000E+00 -0.27038402804E+03  0.30066838183E+04  0.29945016381E+04 0.  0.
        2    1    3    3  502    0 -0.18575060793E+03 -0.26541981634E+03  0.13325376178E+04  0.13713524238E+04  0.25500000920E-02 0. -1.
       -2    1    3    3    0  502  0.18575060793E+03  0.26541981634E+03 -0.16029216459E+04  0.16353313946E+04  0.25500000920E-02 0.  1.
</event>
<event>
 5   0  0.2970915E-06  0.2996486E+04  0.7818609E-02  0.8244735E-01
        2   -1    0    0  501    0  0.00000000000E+00  0.00000000000E+00  0.12388653239E+04  0.12388653239E+04  0.25500000920E-02 0.  1.
       -2   -1    0    0    0  501  0.00000000000E+00  0.00000000000E+00 -0.18119262342E+04  0.18119262342E+04  0.25500000920E-02 0. -1.
    10030    2    1    2    0    0  0.00000000000E+00  0.00000000000E+00 -0.57306091033E+03  0.30507915581E+04  0.29964863297E+04 0.  0.
        4    1    3    3  502    0 -0.97301693790E+03  0.10817020395E+04  0.77567321738E+02  0.14570036259E+04  0.12699999809E+01 0.  1.
       -4    1    3    3    0  502  0.97301693790E+03 -0.10817020395E+04 -0.65062823207E+03  0.15937879322E+04  0.12699999809E+01 0. -1.
</event>
<event>
 5   0  0.1054384E-06  0.3035022E+04  0.7818609E-02  0.8233800E-01
        1   -1    0    0  501    0  0.00000000000E+00  0.00000000000E+00  0.12297402562E+04  0.12297402562E+04  0.50400001928E-02 0. -1.
       -1   -1    0    0    0  501  0.00000000000E+00  0.00000000000E+00 -0.18726224728E+04  0.18726224728E+04  0.50400001928E-02 0.  1.
    10030    2    1    2    0    0  0.00000000000E+00  0.00000000000E+00 -0.64288221665E+03  0.31023627290E+04  0.30350217393E+04 0.  0.
        2    1    3    3  502    0  0.22722961140E+03 -0.10839554154E+04 -0.13818824840E+04  0.17709296537E+04  0.25500000920E-02 0.  1.
       -2    1    3    3    0  502 -0.22722961140E+03  0.10839554154E+04  0.73900026735E+03  0.13314330753E+04  0.25500000920E-02 0. -1.
</event>
<event>
 5   0  0.1113245E-06  0.2940929E+04  0.7818609E-02  0.8260803E-01
       -1   -1    0    0    0  501  0.00000000000E+00  0.00000000000E+00  0.12425048348E+04  0.12425048348E+04  0.50400001928E-02 0.  1.
        1   -1    0    0  501    0  0.00000000000E+00  0.00000000000E+00 -0.17402474268E+04  0.17402474268E+04  0.50400001928E-02 0. -1.
    10030    2    1    2    0    0  0.00000000000E+00  0.00000000000E+00 -0.49774259194E+03  0.29827522616E+04  0.29409289972E+04 0.  0.
        5    1    3    3  502    0 -0.58063169234E+03  0.12803771535E+04  0.18823909759E+03  0.14184339482E+04  0.46999998093E+01 0.  1.
       -5    1    3    3    0  502  0.58063169234E+03 -0.12803771535E+04 -0.68598168953E+03  0.15643183135E+04  0.46999998093E+01 0. -1.
</event>
<event>
 5   0  0.1054384E-06  0.3008757E+04  0.7818609E-02  0.8241235E-01
        1   -1    0    0  501    0  0.00000000000E+00  0.00000000000E+00  0.16958434827E+04  0.16958434827E+04  0.50400001928E-02 0.  1.
       -1   -1    0    0    0  501  0.00000000000E+00  0.00000000000E+00 -0.13345307583E+04  0.13345307583E+04  0.50400001928E-02 0. -1.
    10030    2    1    2    0    0  0.00000000000E+00  0.00000000000E+00  0.36131272445E+03  0.30303742410E+04  0.30087574105E+04 0.  0.
        2    1    3    3  502    0 -0.85736265973E+02  0.15001164096E+04  0.25504728985E+03  0.15240567803E+04  0.25500000920E-02 0.  1.
       -2    1    3    3    0  502  0.85736265973E+02 -0.15001164096E+04  0.10626543460E+03  0.15063174606E+04  0.25500000920E-02 0. -1.
</event>
<event>
 5   0  0.2862033E-06  0.2997015E+04  0.7818609E-02  0.8244584E-01
       -2   -1    0    0    0  501  0.00000000000E+00  0.00000000000E+00  0.14229781964E+04  0.14229781964E+04  0.25500000920E-02 0.  1.
        2   -1    0    0  501    0  0.00000000000E+00  0.00000000000E+00 -0.15780461006E+04  0.15780461006E+04  0.25500000920E-02 0. -1.
    10030    2    1    2    0    0  0.00000000000E+00  0.00000000000E+00 -0.15506790420E+03  0.30010242970E+04  0.29970153113E+04 0.  0.
        2    1    3    3  502    0 -0.51305579490E+03 -0.24499109394E+03  0.13107831789E+04  0.14287754991E+04  0.25500000920E-02 0.  1.
       -2    1    3    3    0  502  0.51305579490E+03  0.24499109394E+03 -0.14658510831E+04  0.15722487979E+04  0.25500000920E-02 0. -1.
</event>
<event>
 5   0  0.2985941E-06  0.2991486E+04  0.7818609E-02  0.8246166E-01
       -2   -1    0    0    0  501  0.00000000000E+00  0.00000000000E+00  0.11009611668E+04  0.11009611668E+04  0.25500000920E-02 0. -1.
        2   -1    0    0  501    0  0.00000000000E+00  0.00000000000E+00 -0.20320858771E+04  0.20320858771E+04  0.25500000920E-02 0.  1.
    10030    2    1    2    0    0  0.00000000000E+00  0.00000000000E+00 -0.93112471036E+03  0.31330470439E+04  0.29914863451E+04 0.  0.
        3    1    3    3  502    0 -0.44860139072E+03 -0.46881721694E+03 -0.18770058643E+04  0.19859969324E+04  0.10100000352E+00 0.  1.
       -3    1    3    3    0  502  0.44860139072E+03  0.46881721694E+03  0.94588115396E+03  0.11470501115E+04  0.10100000352E+00 0. -1.
</event>
<event>
 5   0  0.2862033E-06  0.2980174E+04  0.7818609E-02  0.8249415E-01
        2   -1    0    0  501    0  0.00000000000E+00  0.00000000000E+00  0.20492878913E+04  0.20492878913E+04  0.25500000920E-02 0. -1.
       -2   -1    0    0    0  501  0.00000000000E+00  0.00000000000E+00 -0.10834784223E+04  0.10834784223E+04  0.25500000920E-02 0.  1.
    10030    2    1    2    0    0  0.00000000000E+00  0.00000000000E+00  0.96580946895E+03  0.31327663136E+04  0.29801739623E+04 0.  0.
        2    1    3    3  502    0 -0.63603088985E+03 -0.30276389595E+01  0.18994229194E+04  0.20030855913E+04  0.25500000920E-02 0. -1.
       -2    1    3    3    0  502  0.63603088985E+03  0.30276389595E+01 -0.93361345044E+03  0.11296807223E+04  0.25500000920E-02 0.  1.
</event>
<event>
 5   0  0.1091076E-06  0.2989561E+04  0.7818609E-02  0.8246718E-01
       -1   -1    0    0    0  501  0.00000000000E+00  0.00000000000E+00  0.12098487210E+04  0.12098487210E+04  0.50400001928E-02 0. -1.
        1   -1    0    0  501    0  0.00000000000E+00  0.00000000000E+00 -0.18468160552E+04  0.18468160552E+04  0.50400001928E-02 0.  1.
    10030    2    1    2    0    0  0.00000000000E+00  0.00000000000E+00 -0.63696733421E+03  0.30566647762E+04  0.29895605312E+04 0.  0.
        3    1    3    3  502    0 -0.94937498854E+03  0.11275034436E+04 -0.64325779220E+02  0.14753693437E+04  0.10100000352E+00 0.  1.
       -3    1    3    3    0  502  0.94937498854E+03 -0.11275034436E+04 -0.57264155498E+03  0.15812954325E+04  0.10100000352E+00 0. -1.
</event>
<event>
 5   0  0.1113245E-06  0.2943716E+04  0.7818609E-02  0.8259988E-01
        1   -1    0    0  501    0  0.00000000000E+00  0.00000000000E+00  0.79530303019E+03  0.79530303021E+03  0.50400001928E-02 0. -1.
       -1   -1    0    0    0  501  0.00000000000E+00  0.00000000000E+00 -0.27239500969E+04  0.27239500969E+04  0.50400001928E-02 0.  1.
    10030    2    1    2    0    0  0.00000000000E+00  0.00000000000E+00 -0.19286470667E+04  0.35192531271E+04  0.29437158600E+04 0.  0.
        5    1    3    3  502    0  0.38537242674E+03 -0.45605957371E+03 -0.25726524886E+04  0.26410348652E+04  0.46999998093E+01 0.  1.
       -5    1    3    3    0  502 -0.38537242674E+03  0.45605957371E+03  0.64400542192E+03  0.87821826190E+03  0.46999998093E+01 0. -1.
</event>
<event>
 5   0  0.2948711E-06  0.3007547E+04  0.7818609E-02  0.8241579E-01
        2   -1    0    0  501    0  0.00000000000E+00  0.00000000000E+00  0.15070812788E+04  0.15070812788E+04  0.25500000920E-02 0.  1.
       -2   -1    0    0    0  501  0.00000000000E+00  0.00000000000E+00 -0.15004728721E+04  0.15004728721E+04  0.25500000920E-02 0. -1.
    10030    2    1    2    0    0  0.00000000000E+00  0.00000000000E+00  0.66084066945E+01  0.30075541508E+04  0.30075468906E+04 0.  0.
        5    1    3    3  502    0  0.14036998923E+04 -0.35830095110E+03  0.40649188960E+03  0.15046629874E+04  0.46999998093E+01 0.  1.
       -5    1    3    3    0  502 -0.14036998923E+04  0.35830095110E+03 -0.39988348291E+03  0.15028911635E+04  0.46999998093E+01 0. -1.
</event>
<event>
 5   0  0.1113245E-06  0.3086251E+04  0.7818609E-02  0.8219521E-01
        1   -1    0    0  501    0  0.00000000000E+00  0.00000000000E+00  0.18736710633E+04  0.18736710633E+04  0.50400001928E-02 0.  1.
       -1   -1    0    0    0  501  0.00000000000E+00  0.00000000000E+00 -0.12708932680E+04  0.12708932680E+04  0.50400001928E-02 0. -1.
    10030    2    1    2    0    0  0.00000000000E+00  0.00000000000E+00  0.60277779524E+03  0.31445643313E+04  0.30862507616E+04 0.  0.
        5    1    3    3  502    0  0.96724931038E+03 -0.11724970548E+04  0.30100134629E+02  0.15202791455E+04  0.46999998093E+01 0. -1.
       -5    1    3    3    0  502 -0.96724931038E+03  0.11724970548E+04  0.57267766061E+03  0.16242851859E+04  0.46999998093E+01 0.  1.
</event>
<event>
 5   0  0.1054384E-06  0.3005681E+04  0.7818609E-02  0.8242111E-01
       -1   -1    0    0    0  501  0.00000000000E+00  0.00000000000E+00  0.23755893835E+04  0.23755893835E+04  0.50400001928E-02 0.  1.
        1   -1    0    0  501    0  0.00000000000E+00  0.00000000000E+00 -0.95072379768E+03  0.95072379769E+03  0.50400001928E-02 0. -1.
    10030    2    1    2    0    0  0.00000000000E+00  0.00000000000E+00  0.14248655858E+04  0.33263131812E+04  0.30056808616E+04 0.  0.
        2    1    3    3  502    0 -0.10539057352E+04  0.82622143115E+03  0.14672229310E+04  0.19864798719E+04  0.25500000920E-02 0.  1.
       -2    1    3    3    0  502  0.10539057352E+04 -0.82622143115E+03 -0.42357345207E+02  0.13398333093E+04  0.25500000920E-02 0. -1.
</event>
<event>
 5   0  0.2948711E-06  0.2994511E+04  0.7818609E-02  0.8245300E-01
        2   -1    0    0  501    0  0.00000000000E+00  0.00000000000E+00  0.24671791595E+04  0.24671791595E+04  0.25500000920E-02 0.  1.
       -2   -1    0    0    0  501  0.00000000000E+00  0.00000000000E+00 -0.90863822698E+03  0.90863822699E+03  0.25500000920E-02 0. -1.
    10030    2    1    2    0    0  0.00000000000E+00  0.00000000000E+00  0.15585409325E+04  0.33758173865E+04  0.29945105090E+04 0.  0.
        5    1    3    3  502    0 -0.10668725274E+04 -0.10273045429E+04  0.10267188777E+04  0.18021502039E+04  0.46999998093E+01 0.  1.
       -5    1    3    3    0  502  0.10668725274E+04  0.10273045429E+04  0.53182205481E+03  0.15736671826E+04  0.46999998093E+01 0. -1.
</event>
<event>
 5   0  0.1091075E-06  0.2968753E+04  0.7818609E-02  0.8252710E-01
       -1   -1    0    0    0  501  0.00000000000E+00  0.00000000000E+00  0.13248112047E+04  0.13248112047E+04  0.50400001928E-02 0.  1.
        1   -1    0    0  501    0  0.00000000000E+00  0.00000000000E+00 -0.16631605242E+04  0.16631605242E+04  0.50400001928E-02 0. -1.
    10030    2    1    2    0    0  0.00000000000E+00  0.00000000000E+00 -0.33834931950E+03  0.29879717289E+04  0.29687530700E+04 0.  0.
        1    1    3    3  502    0 -0.49754424953E+02  0.10176152915E+04  0.91733091994E+03  0.13709530995E+04  0.50400001928E-02 0.  1.
       -1    1    3    3    0  502  0.49754424953E+02 -0.10176152915E+04 -0.12556802394E+04  0.16170186295E+04  0.50400001928E-02 0. -1.
</event>
<event>
 5   0  0.2985941E-06  0.3014205E+04  0.7818609E-02  0.8239686E-01
        2   -1    0    0  501    0  0.00000000000E+00  0.00000000000E+00  0.14247336478E+04  0.14247336478E+04  0.25500000920E-02 0.  1.
       -2   -1    0    0    0  501  0.00000000000E+00  0.00000000000E+00 -0.15942333831E+04  0.15942333831E+04  0.25500000920E-02 0. -1.
    10030    2    1    2    0    0  0.00000000000E+00  0.00000000000E+00 -0.16949973531E+03  0.30189670309E+04  0.30142049985E+04 0.  0.
        3    1    3    3  502    0  0.33143037358E+03 -0.96157354015E+03 -0.11986616611E+04  0.15720240309E+04  0.10100000352E+00 0. -1.
       -3    1    3    3    0  502 -0.33143037358E+03  0.96157354015E+03  0.10291619258E+04  0.14469430000E+04  0.10100000352E+00 0.  1.
</event>
<event>
 5   0  0.3113328E-06  0.2979389E+04  0.7818609E-02  0.8249641E-01
       -2   -1    0    0    0  501  0.00000000000E+00  0.00000000000E+00  0.17353930783E+04  0.17353930783E+04  0.25500000920E-02 0. -1.
        2   -1    0    0  501    0  0.00000000000E+00  0.00000000000E+00 -0.12787821636E+04  0.12787821636E+04  0.25500000920E-02 0.  1.
    10030    2    1    2    0    0  0.00000000000E+00  0.00000000000E+00  0.45661091465E+03  0.30141752419E+04  0.29793890081E+04 0.  0.
        1    1    3    3  502    0  0.13102806978E+04  0.70838792103E+03  0.25183124786E+03  0.15106514923E+04  0.50400001928E-02 0.  1.
       -1    1    3    3    0  502 -0.13102806978E+04 -0.70838792103E+03  0.20477966679E+03  0.15035237496E+04  0.50400001928E-02 0. -1.
</event>
<event>
 5   0  0.2985941E-06  0.2960120E+04  0.7818609E-02  0.8255211E-01
        2   -1    0    0  501    0  0.00000000000E+00  0.00000000000E+00  0.17406148337E+04  0.17406148337E+04  0.25500000920E-02 0. -1.
       -2   -1    0    0    0  501  0.00000000000E+00  0.00000000000E+00 -0.12585078972E+04  0.12585078972E+04  0.25500000920E-02 0.  1.
    10030    2    1    2    0    0  0.00000000000E+00  0.00000000000E+00  0.48210693651E+03  0.29991227309E+04  0.29601199396E+04 0.  0.
        3    1    3    3  502    0 -0.46169494021E+03  0.13943122136E+04  0.56141929066E+02  0.14698369615E+04  0.10100000352E+00 0. -1.
       -3    1    3    3    0  502  0.46169494021E+03 -0.13943122136E+04  0.42596500744E+03  0.15292857695E+04  0.10100000352E+00 0.  1.
</event>
<event>
 5   0  0.1054384E-06  0.3018462E+04  0.7818609E-02  0.8238479E-01
        1   -1    0    0  501    0  0.00000000000E+00  0.00000000000E+00  0.20055628407E+04  0.20055628407E+04  0.50400001928E-02 0. -1.
       -1   -1    0    0    0  501  0.00000000000E+00  0.00000000000E+00 -0.11357301561E+04  0.11357301561E+04  0.50400001928E-02 0.  1.
    10030    2    1    2    0    0  0.00000000000E+00  0.00000000000E+00  0.86983268466E+03  0.31412929968E+04  0.30184619912E+04 0.  0.
        2    1    3    3  502    0 -0.11501790281E+04  0.10975186459E+03  0.14454187252E+04  0.18504573920E+04  0.25500000920E-02 0. -1.
       -2    1    3    3    0  502  0.11501790281E+04 -0.10975186459E+03 -0.57558604057E+03  0.12908356048E+04  0.25500000920E-02 0.  1.
</event>
<event>
 5   0  0.2970915E-06  0.3024033E+04  0.7818609E-02  0.8236901E-01
       -2   -1    0    0    0  501  0.00000000000E+00  0.00000000000E+00  0.11306042042E+04  0.11306042043E+04  0.25500000920E-02 0.  1.
        2   -1    0    0  501    0  0.00000000000E+00  0.00000000000E+00 -0.20220992534E+04  0.20220992534E+04  0.25500000920E-02 0. -1.
    10030    2    1    2    0    0  0.00000000000E+00  0.00000000000E+00 -0.89149504920E+03  0.31527034577E+04  0.30240330139E+04 0.  0.
        4    1    3    3  502    0 -0.15091784610E+04  0.89022180909E+02 -0.47228093591E+03  0.15838546244E+04  0.12699999809E+01 0.  1.
       -4    1    3    3    0  502  0.15091784610E+04 -0.89022180909E+02 -0.41921411329E+03  0.15688488333E+04  0.12699999809E+01 0. -1.
</event>
<event>
 5   0  0.1113245E-06  0.3021546E+04  0.7818609E-02  0.8237605E-01
       -1   -1    0    0    0  501  0.00000000000E+00  0.00000000000E+00  0.13912725627E+04  0.13912725627E+04  0.50400001928E-02 0. -1.
        1   -1    0    0  501    0  0.00000000000E+00  0.00000000000E+00 -0.16405374923E+04  0.16405374924E+04  0.50400001928E-02 0.  1.
    10030    2    1    2    0    0  0.00000000000E+00  0.00000000000E+00 -0.24926492964E+03  0.30318100551E+04  0.30215458303E+04 0.  0.
        5    1    3    3  502    0 -0.78716329578E+03  0.35624678195E+03 -0.13681465898E+04  0.16181424551E+04  0.46999998093E+01 0.  1.
       -5    1    3    3    0  502  0.78716329578E+03 -0.35624678195E+03  0.11188816601E+04  0.14136676000E+04  0.46999998093E+01 0. -1.
</event>
<event>
 5   0  0.1054384E-06  0.2994928E+04  0.7818609E-02  0.8245181E-01
        1   -1    0    0  501    0  0.00000000000E+00  0.00000000000E+00  0.27517202599E+04  0.27517202599E+04  0.50400001928E-02 0. -1.
       -1   -1    0    0    0  501  0.00000000000E+00  0.00000000000E+00 -0.81490799861E+03  0.81490799862E+03  0.50400001928E-02 0.  1.
    10030    2    1    2    0    0  0.00000000000E+00  0.00000000000E+00  0.19368122613E+04  0.35666282585E+04  0.29949282795E+04 0.  0.
        2    1    3    3  502    0  0.87401908988E+03  0.60215834637E+03 -0.28960084023E+03  0.11001693916E+04  0.25500000920E-02 0.  1.
       -2    1    3    3    0  502 -0.87401908988E+03 -0.60215834637E+03  0.22264131015E+04  0.24664588669E+04  0.25500000920E-02 0. -1.
</event>
<event>
 5   0  0.1054384E-06  0.3006507E+04  0.7818609E-02  0.8241875E-01
       -1   -1    0    0    0  501  0.00000000000E+00  0.00000000000E+00  0.15440859005E+04  0.15440859005E+04  0.50400001928E-02 0.  1.
        1   -1    0    0  501    0  0.00000000000E+00  0.00000000000E+00 -0.14635010807E+04  0.14635010807E+04  0.50400001928E-02 0. -1.
    10030    2    1    2    0    0  0.00000000000E+00  0.00000000000E+00  0.80584819755E+02  0.30075869812E+04  0.30065071987E+04 0.  0.
        2    1    3    3  502    0  0.12306928786E+04  0.55915560510E+03 -0.61759979963E+03  0.14861660286E+04  0.25500000920E-02 0. -1.
       -2    1    3    3    0  502 -0.12306928786E+04 -0.55915560510E+03  0.69818461938E+03  0.15214209526E+04  0.25500000920E-02 0.  1.
</event>
<event>
 5   0  0.1091076E-06  0.3015448E+04  0.7818609E-02  0.8239333E-01
       -1   -1    0    0    0  501  0.00000000000E+00  0.00000000000E+00  0.96862552460E+03  0.96862552462E+03  0.50400001928E-02 0. -1.
        1   -1    0    0  501    0  0.00000000000E+00  0.00000000000E+00 -0.23468634033E+04  0.23468634033E+04  0.50400001928E-02 0.  1.
    10030    2    1    2    0    0  0.00000000000E+00  0.00000000000E+00 -0.13782378787E+04  0.33154889279E+04  0.30154480896E+04 0.  0.
        3    1    3    3  502    0 -0.93410194329E+03 -0.84831020338E+02 -0.19870376834E+04  0.21972850311E+04  0.10100000352E+00 0.  1.
       -3    1    3    3    0  502  0.93410194329E+03  0.84831020338E+02  0.60879980469E+03  0.11182038968E+04  0.10100000352E+00 0. -1.
</event>
<event>
 5   0  0.1113245E-06  0.2947368E+04  0.7818609E-02  0.8258922E-01
       -1   -1    0    0    0  501  0.00000000000E+00  0.00000000000E+00  0.12916739959E+04  0.12916739959E+04  0.50400001928E-02 0. -1.
        1   -1    0    0  501    0  0.00000000000E+00  0.00000000000E+00 -0.16813410848E+04  0.16813410848E+04  0.50400001928E-02 0.  1.
    10030    2    1    2    0    0  0.00000000000E+00  0.00000000000E+00 -0.38966708895E+03  0.29730150807E+04  0.29473680174E+04 0.  0.
        5    1    3    3  502    0 -0.82621866378E+03  0.12078364159E+04 -0.37017473827E+03  0.15094891569E+04  0.46999998093E+01 0.  1.
       -5    1    3    3    0  502  0.82621866378E+03 -0.12078364159E+04 -0.19492350675E+02  0.14635259238E+04  0.46999998093E+01 0. -1.
</event>
<event>
 5   0  0.2948711E-06  0.3001459E+04  0.7818609E-02  0.8243315E-01
       -2   -1    0    0    0  501  0.00000000000E+00  0.00000000000E+00  0.90216784963E+03  0.90216784964E+03  0.25500000920E-02 0.  1.
        2   -1    0    0  501    0  0.00000000000E+00  0.00000000000E+00 -0.24964182694E+04  0.24964182694E+04  0.25500000920E-02 0. -1.
    10030    2    1    2    0    0  0.00000000000E+00  0.00000000000E+00 -0.15942504197E+04  0.33985861190E+04  0.30014585134E+04 0.  0.
        5    1    3    3  502    0  0.12136253227E+04  0.52353372466E+03 -0.16019368784E+04  0.20768239784E+04  0.46999998093E+01 0. -1.
       -5    1    3    3    0  502 -0.12136253227E+04 -0.52353372466E+03  0.76864586972E+01  0.13217621406E+04  0.46999998093E+01 0.  1.
</event>
<event>
 5   0  0.1091075E-06  0.2954138E+04  0.7818609E-02  0.8256950E-01
       -1   -1    0    0    0  501  0.00000000000E+00  0.00000000000E+00  0.17192825975E+04  0.17192825975E+04  0.50400001928E-02 0.  1.
        1   -1    0    0  501    0  0.00000000000E+00  0.00000000000E+00 -0.12689789291E+04  0.12689789291E+04  0.50400001928E-02 0. -1.
    10030    2    1    2    0    0  0.00000000000E+00  0.00000000000E+00  0.45030366840E+03  0.29882615266E+04  0.29541383782E+04 0.  0.
        1    1    3    3  502    0  0.91542904233E+03  0.97498188671E+03  0.85939782098E+03  0.15897058299E+04  0.50400001928E-02 0. -1.
       -1    1    3    3    0  502 -0.91542904233E+03 -0.97498188671E+03 -0.40909415258E+03  0.13985556967E+04  0.50400001928E-02 0.  1.
</event>
<event>
 5   0  0.1113245E-06  0.3011398E+04  0.7818609E-02  0.8240484E-01
        1   -1    0    0  501    0  0.00000000000E+00  0.00000000000E+00  0.20009029962E+04  0.20009029963E+04  0.50400001928E-02 0.  1.
       -1   -1    0    0    0  501  0.00000000000E+00  0.00000000000E+00 -0.11330532396E+04  0.11330532396E+04  0.50400001928E-02 0. -1.
    10030    2    1    2    0    0  0.00000000000E+00  0.00000000000E+00  0.86784975661E+03  0.31339562359E+04  0.30113980953E+04 0.  0.
        5    1    3    3  502    0  0.12247333444E+04  0.86063802865E+03  0.60313979745E+03  0.16138368216E+04  0.46999998093E+01 0.  1.
       -5    1    3    3    0  502 -0.12247333444E+04 -0.86063802865E+03  0.26470995916E+03  0.15201194143E+04  0.46999998093E+01 0. -1.
</event>
<event>
 5   0  0.1097402E-06  0.2981567E+04  0.7818609E-02  0.8249014E-01
        1   -1    0    0  501    0  0.00000000000E+00  0.00000000000E+00  0.24207241601E+04  0.24207241601E+04  0.50400001928E-02 0. -1.
       -1   -1    0    0    0  501  0.00000000000E+00  0.00000000000E+00 -0.91808683088E+03  0.91808683089E+03  0.50400001928E-02 0.  1.
    10030    2    1    2    0    0  0.00000000000E+00  0.00000000000E+00  0.15026373293E+04  0.33388109910E+04  0.29815666839E+04 0.  0.
        4    1    3    3  502    0  0.58311143100E+03  0.92932358528E+03  0.18815981037E+04  0.21780895996E+04  0.12699999809E+01 0. -1.
       -4    1    3    3    0  502 -0.58311143100E+03 -0.92932358528E+03 -0.37896077443E+03  0.11607213915E+04  0.12699999809E+01 0.  1.
</event>
<event>
 5   0  0.1054384E-06  0.2936221E+04  0.7818609E-02  0.8262182E-01
       -1   -1    0    0    0  501  0.00000000000E+00  0.00000000000E+00  0.13277029678E+04  0.13277029678E+04  0.50400001928E-02 0. -1.
        1   -1    0    0  501    0  0.00000000000E+00  0.00000000000E+00 -0.16233664788E+04  0.16233664788E+04  0.50400001928E-02 0.  1.
    10030    2    1    2    0    0  0.00000000000E+00  0.00000000000E+00 -0.29566351097E+03  0.29510694466E+04  0.29362210351E+04 0.  0.
        2    1    3    3  502    0  0.12035459611E+04 -0.67187166598E+03 -0.65577255439E+03  0.15264245999E+04  0.25500000920E-02 0.  1.
       -2    1    3    3    0  502 -0.12035459611E+04  0.67187166598E+03  0.36010904341E+03  0.14246448467E+04  0.25500000920E-02 0. -1.
</event>
<event>
 5   0  0.2862033E-06  0.2990307E+04  0.7818609E-02  0.8246504E-01
       -2   -1    0    0    0  501  0.00000000000E+00  0.00000000000E+00  0.88139922242E+03  0.88139922243E+03  0.25500000920E-02 0. -1.
        2   -1    0    0  501    0  0.00000000000E+00  0.00000000000E+00 -0.25362893628E+04  0.25362893628E+04  0.25500000920E-02 0.  1.
    10030    2    1    2    0    0  0.00000000000E+00  0.00000000000E+00 -0.16548901404E+04  0.34176885852E+04  0.29903066546E+04 0.  0.
        2    1    3    3  502    0 -0.14524384045E+04 -0.33728956973E+03 -0.95338402215E+03  0.17698256034E+04  0.25500000920E-02 0. -1.
       -2    1    3    3    0  502  0.14524384045E+04  0.33728956973E+03 -0.70150611821E+03  0.16478629818E+04  0.25500000920E-02 0.  1.
</event>
<event>
 5   0  0.2985941E-06  0.2959300E+04  0.7818609E-02  0.8255449E-01
        2   -1    0    0  501    0  0.00000000000E+00  0.00000000000E+00  0.92780085369E+03  0.92780085369E+03  0.25500000920E-02 0. -1.
       -2   -1    0    0    0  501  0.00000000000E+00  0.00000000000E+00 -0.23597345623E+04  0.23597345623E+04  0.25500000920E-02 0.  1.
    10030    2    1    2    0    0  0.00000000000E+00  0.00000000000E+00 -0.14319337086E+04  0.32875354160E+04  0.29592997424E+04 0.  0.
        3    1    3    3  502    0 -0.49505127824E+03 -0.10183755662E+04 -0.17740816951E+04  0.21046449660E+04  0.10100000352E+00 0.  1.
       -3    1    3    3    0  502  0.49505127824E+03  0.10183755662E+04  0.34214798648E+03  0.11828904500E+04  0.10100000352E+00 0. -1.
</event>
<event>
 5   0  0.2970915E-06  0.2749537E+04  0.7818609E-02  0.8319109E-01
        2   -1    0    0  501    0  0.00000000000E+00  0.00000000000E+00  0.16499647196E+04  0.16499647196E+04  0.25500000920E-02 0. -1.
       -2   -1    0    0    0  501  0.00000000000E+00  0.00000000000E+00 -0.11454719941E+04  0.11454719941E+04  0.25500000920E-02 0.  1.
    10030    2    1    2    0    0  0.00000000000E+00  0.00000000000E+00  0.50449272547E+03  0.27954367137E+04  0.27495369628E+04 0.  0.
        4    1    3    3  502    0  0.87887399667E+03  0.15558450482E+03  0.13153407783E+04  0.15895751056E+04  0.12699999809E+01 0. -1.
       -4    1    3    3    0  502 -0.87887399667E+03 -0.15558450482E+03 -0.81084805287E+03  0.12058616081E+04  0.12699999809E+01 0.  1.
</event>
<event>
 5   0  0.1113245E-06  0.2995535E+04  0.7818609E-02  0.8245007E-01
       -1   -1    0    0    0  501  0.00000000000E+00  0.00000000000E+00  0.13436737299E+04  0.13436737300E+04  0.50400001928E-02 0. -1.
        1   -1    0    0  501    0  0.00000000000E+00  0.00000000000E+00 -0.16695324134E+04  0.16695324134E+04  0.50400001928E-02 0.  1.
    10030    2    1    2    0    0  0.00000000000E+00  0.00000000000E+00 -0.32585868348E+03  0.30132061434E+04  0.29955345735E+04 0.  0.
        5    1    3    3  502    0  0.55904705379E+03 -0.10337035660E+04 -0.10969587560E+04  0.16076122894E+04  0.46999998093E+01 0.  1.
       -5    1    3    3    0  502 -0.55904705379E+03  0.10337035660E+04  0.77110007248E+03  0.14055938540E+04  0.46999998093E+01 0. -1.
</event>
<event>
 5   0  0.3113328E-06  0.3004731E+04  0.7818609E-02  0.8242381E-01
       -2   -1    0    0    0  501  0.00000000000E+00  0.00000000000E+00  0.10864467528E+04  0.10864467528E+04  0.25500000920E-02 0.  1.
        2   -1    0    0  501    0  0.00000000000E+00  0.00000000000E+00 -0.20775084600E+04  0.20775084600E+04  0.25500000920E-02 0. -1.
    10030    2    1    2    0    0  0.00000000000E+00  0.00000000000E+00 -0.99106170724E+03  0.31639552128E+04  0.30047311496E+04 0.  0.
        1    1    3    3  502    0  0.53945037593E+03 -0.13432215022E+04 -0.71904258233E+02  0.14492829035E+04  0.50400001928E-02 0.  1.
       -1    1    3    3    0  502 -0.53945037593E+03  0.13432215022E+04 -0.91915744900E+03  0.17146723093E+04  0.50400001928E-02 0. -1.
</event>
<event>
 5   0  0.2948711E-06  0.2861059E+04  0.7818609E-02  0.8284559E-01
        2   -1    0    0  501    0  0.00000000000E+00  0.00000000000E+00  0.19081455064E+04  0.19081455064E+04  0.25500000920E-02 0.  1.
       -2   -1    0    0    0  501  0.00000000000E+00  0.00000000000E+00 -0.10724626817E+04  0.10724626817E+04  0.25500000920E-02 0. -1.
    10030    2    1    2    0    0  0.00000000000E+00  0.00000000000E+00  0.83568282470E+03  0.29806081880E+04  0.28610591373E+04 0.  0.
        5    1    3    3  502    0 -0.26044664667E+03  0.30911860001E+03 -0.10117235868E+04  0.10894922995E+04  0.46999998093E+01 0. -1.
       -5    1    3    3    0  502  0.26044664667E+03 -0.30911860001E+03  0.18474064115E+04  0.18911158885E+04  0.46999998093E+01 0.  1.
</event>
<event>
 5   0  0.1097402E-06  0.2971344E+04  0.7818609E-02  0.8251961E-01
        1   -1    0    0  501    0  0.00000000000E+00  0.00000000000E+00  0.17724775545E+04  0.17724775545E+04  0.50400001928E-02 0. -1.
       -1   -1    0    0    0  501  0.00000000000E+00  0.00000000000E+00 -0.12452745208E+04  0.12452745208E+04  0.50400001928E-02 0.  1.
    10030    2    1    2    0    0  0.00000000000E+00  0.00000000000E+00  0.52720303369E+03  0.30177520753E+04  0.29713438962E+04 0.  0.
        4    1    3    3  502    0 -0.11041579277E+04 -0.24284568051E+03  0.12425444465E+04  0.16798979339E+04  0.12699999809E+01 0. -1.
       -4    1    3    3    0  502  0.11041579277E+04  0.24284568051E+03 -0.71534141284E+03  0.13378541414E+04  0.12699999809E+01 0.  1.
</event>
<event>
 5   0  0.1054384E-06  0.2980595E+04  0.7818609E-02  0.8249294E-01
       -1   -1    0    0    0  501  0.00000000000E+00  0.00000000000E+00  0.92345811988E+03  0.92345811989E+03  0.50400001928E-02 0. -1.
        1   -1    0    0  501    0  0.00000000000E+00  0.00000000000E+00 -0.24050748774E+04  0.24050748774E+04  0.50400001928E-02 0.  1.
    10030    2    1    2    0    0  0.00000000000E+00  0.00000000000E+00 -0.14816167575E+04  0.33285329973E+04  0.29805945209E+04 0.  0.
        2    1    3    3  502    0 -0.89496780268E+03  0.22474427948E+03 -0.20476782456E+04  0.22459883251E+04  0.25500000920E-02 0.  1.
       -2    1    3    3    0  502  0.89496780268E+03 -0.22474427948E+03  0.56606148808E+03  0.10825446722E+04  0.25500000920E-02 0. -1.
</event>
<event>
 5   0  0.1054384E-06  0.2997350E+04  0.7818609E-02  0.8244488E-01
        1   -1    0    0  501    0  0.00000000000E+00  0.00000000000E+00  0.15988944508E+04  0.15988944508E+04  0.50400001928E-02 0. -1.
       -1   -1    0    0    0  501  0.00000000000E+00  0.00000000000E+00 -0.14047377571E+04  0.14047377571E+04  0.50400001928E-02 0.  1.
    10030    2    1    2    0    0  0.00000000000E+00  0.00000000000E+00  0.19415669371E+03  0.30036322080E+04  0.29973504331E+04 0.  0.
        2    1    3    3  502    0  0.11112376447E+04 -0.10054097219E+04  0.11527108776E+03  0.15029920943E+04  0.25500000920E-02 0. -1.
       -2    1    3    3    0  502 -0.11112376447E+04  0.10054097219E+04  0.78885605949E+02  0.15006401137E+04  0.25500000920E-02 0.  1.
</event>
<event>
 5   0  0.1113245E-06  0.3005621E+04  0.7818609E-02  0.8242128E-01
        1   -1    0    0  501    0  0.00000000000E+00  0.00000000000E+00  0.13042093352E+04  0.13042093352E+04  0.50400001928E-02 0.  1.
       -1   -1    0    0    0  501  0.00000000000E+00  0.00000000000E+00 -0.17316541123E+04  0.17316541123E+04  0.50400001928E-02 0. -1.
    10030    2    1    2    0    0  0.00000000000E+00  0.00000000000E+00 -0.42744477716E+03  0.30358634475E+04  0.30056210397E+04 0.  0.
        5    1    3    3  502    0 -0.85993201144E+03  0.44895414441E+03 -0.13730405359E+04  0.16811618873E+04  0.46999998093E+01 0. -1.
       -5    1    3    3    0  502  0.85993201144E+03 -0.44895414441E+03  0.94559575879E+03  0.13547015602E+04  0.46999998093E+01 0.  1.
</event>
<event>
 5   0  0.1054384E-06  0.2996218E+04  0.7818609E-02  0.8244812E-01
       -1   -1    0    0    0  501  0.00000000000E+00  0.00000000000E+00  0.97396986276E+03  0.97396986277E+03  0.50400001928E-02 0.  1.
        1   -1    0    0  501    0  0.00000000000E+00  0.00000000000E+00 -0.23043123381E+04  0.23043123381E+04  0.50400001928E-02 0. -1.
    10030    2    1    2    0    0  0.00000000000E+00  0.00000000000E+00 -0.13303424753E+04  0.32782822008E+04  0.29962181307E+04 0.  0.
        2    1    3    3  502    0  0.72662863158E+03 -0.59339719865E+03  0.61278308677E+03  0.11205411706E+04  0.25500000920E-02 0.  1.
       -2    1    3    3    0  502 -0.72662863158E+03  0.59339719865E+03 -0.19431255621E+04  0.21577410302E+04  0.25500000920E-02 0. -1.
</event>
<event>
 5   0  0.2862033E-06  0.2958741E+04  0.7818609E-02  0.8255612E-01
       -2   -1    0    0    0  501  0.00000000000E+00  0.00000000000E+00  0.33768443051E+04  0.33768443051E+04  0.25500000920E-02 0.  1.
        2   -1    0    0  501    0  0.00000000000E+00  0.00000000000E+00 -0.64810119936E+03  0.64810119937E+03  0.25500000920E-02 0. -1.
    10030    2    1    2    0    0  0.00000000000E+00  0.00000000000E+00  0.27287431057E+04  0.40249455045E+04  0.29587408431E+04 0.  0.
        2    1    3    3  502    0 -0.10347860172E+04  0.10305147553E+04  0.10430446077E+04  0.17946266508E+04  0.25500000920E-02 0.  1.
       -2    1    3    3    0  502  0.10347860172E+04 -0.10305147553E+04  0.16856984981E+04  0.22303188536E+04  0.25500000920E-02 0. -1.
</event>
<event>
 5   0  0.2862033E-06  0.2984031E+04  0.7818609E-02  0.8248306E-01
       -2   -1    0    0    0  501  0.00000000000E+00  0.00000000000E+00  0.11633979863E+04  0.11633979863E+04  0.25500000920E-02 0. -1.
        2   -1    0    0  501    0  0.00000000000E+00  0.00000000000E+00 -0.19134555889E+04  0.19134555889E+04  0.25500000920E-02 0.  1.
    10030    2    1    2    0    0  0.00000000000E+00  0.00000000000E+00 -0.75005760263E+03  0.30768535752E+04  0.29840310850E+04 0.  0.
        2    1    3    3  502    0 -0.14046141120E+03 -0.10924912512E+04 -0.14127357648E+04  0.17913930007E+04  0.25500000920E-02 0.  1.
       -2    1    3    3    0  502  0.14046141120E+03  0.10924912512E+04  0.66267816218E+03  0.12854605745E+04  0.25500000920E-02 0. -1.
</event>
<event>
 5   0  0.2985941E-06  0.2960193E+04  0.7818609E-02  0.8255190E-01
       -2   -1    0    0    0  501  0.00000000000E+00  0.00000000000E+00  0.25371421085E+04  0.25371421085E+04  0.25500000920E-02 0.  1.
        2   -1    0    0  501    0  0.00000000000E+00  0.00000000000E+00 -0.86344633043E+03  0.86344633044E+03  0.25500000920E-02 0. -1.
    10030    2    1    2    0    0  0.00000000000E+00  0.00000000000E+00  0.16736957781E+04  0.34005884390E+04  0.29601932663E+04 0.  0.
        3    1    3    3  502    0 -0.79502329430E+03  0.66791816220E+03  0.20485220239E+04  0.22966539144E+04  0.10100000352E+00 0.  1.
       -3    1    3    3    0  502  0.79502329430E+03 -0.66791816220E+03 -0.37482624578E+03  0.11039345246E+04  0.10100000352E+00 0. -1.
</event>
<event>
 5   0  0.1091075E-06  0.3367348E+04  0.7818609E-02  0.8145967E-01
        1   -1    0    0  501    0  0.00000000000E+00  0.00000000000E+00  0.10876506672E+04  0.10876506673E+04  0.50400001928E-02 0.  1.
       -1   -1    0    0    0  501  0.00000000000E+00  0.00000000000E+00 -0.26063137735E+04  0.26063137735E+04  0.50400001928E-02 0. -1.
    10030    2    1    2    0    0  0.00000000000E+00  0.00000000000E+00 -0.15186631062E+04  0.36939644407E+04  0.33673484612E+04 0.  0.
        1    1    3    3  502    0  0.41543210673E+03  0.12968210275E+04  0.32687648585E+03  0.14004202404E+04  0.50400001928E-02 0.  1.
       -1    1    3    3    0  502 -0.41543210673E+03 -0.12968210275E+04 -0.18455395921E+04  0.22935442003E+04  0.50400001928E-02 0. -1.
</event>
<event>
 5   0  0.1054384E-06  0.3017234E+04  0.7818609E-02  0.8238827E-01
       -1   -1    0    0    0  501  0.00000000000E+00  0.00000000000E+00  0.11466714311E+04  0.11466714311E+04  0.50400001928E-02 0. -1.
        1   -1    0    0  501    0  0.00000000000E+00  0.00000000000E+00 -0.19848109142E+04  0.19848109142E+04  0.50400001928E-02 0.  1.
    10030    2    1    2    0    0  0.00000000000E+00  0.00000000000E+00 -0.83813948311E+03  0.31314823453E+04  0.30172344765E+04 0.  0.
        2    1    3    3  502    0 -0.80633560609E+02 -0.91225523218E+03 -0.16633027395E+04  0.18987594326E+04  0.25500000920E-02 0.  1.
       -2    1    3    3    0  502  0.80633560609E+02  0.91225523218E+03  0.82516325642E+03  0.12327229127E+04  0.25500000920E-02 0. -1.
</event>
<event>
 5   0  0.1054384E-06  0.2993936E+04  0.7818609E-02  0.8245465E-01
       -1   -1    0    0    0  501  0.00000000000E+00  0.00000000000E+00  0.13553725914E+04  0.13553725914E+04  0.50400001928E-02 0.  1.
        1   -1    0    0  501    0  0.00000000000E+00  0.00000000000E+00 -0.16533559884E+04  0.16533559885E+04  0.50400001928E-02 0. -1.
    10030    2    1    2    0    0  0.00000000000E+00  0.00000000000E+00 -0.29798339709E+03  0.30087285798E+04  0.29939361319E+04 0.  0.
        2    1    3    3  502    0 -0.52746762696E+03  0.65461470608E+02  0.12573532424E+04  0.13650803925E+04  0.25500000920E-02 0.  1.
       -2    1    3    3    0  502  0.52746762696E+03 -0.65461470608E+02 -0.15553366395E+04  0.16436481874E+04  0.25500000920E-02 0. -1.
</event>
<event>
 5   0  0.2985941E-06  0.3096950E+04  0.7818609E-02  0.8216575E-01
       -2   -1    0    0    0  501  0.00000000000E+00  0.00000000000E+00  0.10708476019E+04  0.10708476019E+04  0.25500000920E-02 0.  1.
        2   -1    0    0  501    0  0.00000000000E+00  0.00000000000E+00 -0.22391370797E+04  0.22391370797E+04  0.25500000920E-02 0. -1.
    10030    2    1    2    0    0  0.00000000000E+00  0.00000000000E+00 -0.11682894778E+04  0.33099846816E+04  0.30969498363E+04 0.  0.
        3    1    3    3  502    0  0.84686472335E+03 -0.12130608016E+04 -0.10728490644E+04  0.18274850186E+04  0.10100000352E+00 0.  1.
       -3    1    3    3    0  502 -0.84686472335E+03  0.12130608016E+04 -0.95440413388E+02  0.14824996630E+04  0.10100000352E+00 0. -1.
</event>
<event>
 5   0  0.2862033E-06  0.2989383E+04  0.7818609E-02  0.8246769E-01
       -2   -1    0    0    0  501  0.00000000000E+00  0.00000000000E+00  0.10513337576E+04  0.10513337576E+04  0.25500000920E-02 0.  1.
        2   -1    0    0  501    0  0.00000000000E+00  0.00000000000E+00 -0.21250178458E+04  0.21250178458E+04  0.25500000920E-02 0. -1.
    10030    2    1    2    0    0  0.00000000000E+00  0.00000000000E+00 -0.10736840882E+04  0.31763516034E+04  0.29893832118E+04 0.  0.
        2    1    3    3  502    0  0.14551564518E+04  0.14288385797E+03 -0.86641387966E+03  0.16995790970E+04  0.25500000920E-02 0. -1.
       -2    1    3    3    0  502 -0.14551564518E+04 -0.14288385797E+03 -0.20727020849E+03  0.14767725064E+04  0.25500000920E-02 0.  1.
</event>
<event>
 5   0  0.2862033E-06  0.2986021E+04  0.7818609E-02  0.8247734E-01
       -2   -1    0    0    0  501  0.00000000000E+00  0.00000000000E+00  0.16364259902E+04  0.16364259902E+04  0.25500000920E-02 0.  1.
        2   -1    0    0  501    0  0.00000000000E+00  0.00000000000E+00 -0.13621640887E+04  0.13621640887E+04  0.25500000920E-02 0. -1.
    10030    2    1    2    0    0  0.00000000000E+00  0.00000000000E+00  0.27426190144E+03  0.29985900789E+04  0.29860212442E+04 0.  0.
        2    1    3    3  502    0 -0.25405385464E+03  0.42414566622E+03  0.15518325259E+04  0.16286887658E+04  0.25500000920E-02 0.  1.
       -2    1    3    3    0  502  0.25405385464E+03 -0.42414566622E+03 -0.12775706245E+04  0.13699013131E+04  0.25500000920E-02 0. -1.
</event>
<event>
 5   0  0.1097402E-06  0.3013850E+04  0.7818609E-02  0.8239787E-01
       -1   -1    0    0    0  501  0.00000000000E+00  0.00000000000E+00  0.98436125000E+03  0.98436125001E+03  0.50400001928E-02 0. -1.
        1   -1    0    0  501    0  0.00000000000E+00  0.00000000000E+00 -0.23068993539E+04  0.23068993539E+04  0.50400001928E-02 0.  1.
    10030    2    1    2    0    0  0.00000000000E+00  0.00000000000E+00 -0.13225381039E+04  0.32912606039E+04  0.30138495860E+04 0.  0.
        4    1    3    3  502    0  0.61381051654E+02  0.12432466342E+04 -0.15887949075E+04  0.20183410757E+04  0.12699999809E+01 0.  1.
       -4    1    3    3    0  502 -0.61381051654E+02 -0.12432466342E+04  0.26625680361E+03  0.12729195282E+04  0.12699999809E+01 0. -1.
</event>
<event>
 5   0  0.9749500E-07  0.3026015E+04  0.7818609E-02  0.8236341E-01
       -3   -1    0    0    0  501  0.00000000000E+00  0.00000000000E+00  0.11665432643E+04  0.11665432687E+04  0.10100000352E+00 0.  1.
        3   -1    0    0  501    0  0.00000000000E+00  0.00000000000E+00 -0.19623722102E+04  0.19623722128E+04  0.10100000352E+00 0. -1.
    10030    2    1    2    0    0  0.00000000000E+00  0.00000000000E+00 -0.79582894587E+03  0.31289154815E+04  0.30260152642E+04 0.  0.
        3    1    3    3  502    0  0.73858120836E+01 -0.12751146861E+04 -0.12399909744E+04  0.17786370174E+04  0.10100000352E+00 0. -1.
       -3    1    3    3    0  502 -0.73858120836E+01  0.12751146861E+04  0.44416202853E+03  0.13502784641E+04  0.10100000352E+00 0.  1.
</event>
<event>
 5   0  0.3113328E-06  0.3013303E+04  0.7818609E-02  0.8239942E-01
       -2   -1    0    0    0  501  0.00000000000E+00  0.00000000000E+00  0.20235759239E+04  0.20235759239E+04  0.25500000920E-02 0. -1.
        2   -1    0    0  501    0  0.00000000000E+00  0.00000000000E+00 -0.11217762203E+04  0.11217762203E+04  0.25500000920E-02 0.  1.
    10030    2    1    2    0    0  0.00000000000E+00  0.00000000000E+00  0.90179970362E+03  0.31453521442E+04  0.30133034041E+04 0.  0.
        1    1    3    3  502    0  0.49717550422E+03 -0.12550825854E+04  0.11492343261E+04  0.17728946146E+04  0.50400001928E-02 0. -1.
       -1    1    3    3    0  502 -0.49717550422E+03  0.12550825854E+04 -0.24743462252E+03  0.13724575296E+04  0.50400001928E-02 0.  1.
</event>
<event>
 5   0  0.2985941E-06  0.3027831E+04  0.7818609E-02  0.8235828E-01
        2   -1    0    0  501    0  0.00000000000E+00  0.00000000000E+00  0.18669299971E+04  0.18669299971E+04  0.25500000920E-02 0. -1.
       -2   -1    0    0    0  501  0.00000000000E+00  0.00000000000E+00 -0.12276515979E+04  0.12276515979E+04  0.25500000920E-02 0.  1.
    10030    2    1    2    0    0  0.00000000000E+00  0.00000000000E+00  0.63927839926E+03  0.30945815950E+04  0.30278306387E+04 0.  0.
        3    1    3    3  502    0  0.10889408607E+03 -0.14132959183E+04 -0.22375508373E+03  0.14350364533E+04  0.10100000352E+00 0.  1.
       -3    1    3    3    0  502 -0.10889408607E+03  0.14132959183E+04  0.86303348299E+03  0.16595451418E+04  0.10100000352E+00 0. -1.
</event>
<event>
 5   0  0.1054384E-06  0.2993598E+04  0.7818609E-02  0.8245562E-01
       -1   -1    0    0    0  501  0.00000000000E+00  0.00000000000E+00  0.22432326234E+04  0.22432326234E+04  0.50400001928E-02 0. -1.
        1   -1    0    0  501    0  0.00000000000E+00  0.00000000000E+00 -0.99874017867E+03  0.99874017868E+03  0.50400001928E-02 0.  1.
    10030    2    1    2    0    0  0.00000000000E+00  0.00000000000E+00  0.12444924447E+04  0.32419728020E+04  0.29935975355E+04 0.  0.
        2    1    3    3  502    0  0.89957817757E+03  0.55019254687E+03 -0.52817755430E+03  0.11793745228E+04  0.25500000920E-02 0.  1.
       -2    1    3    3    0  502 -0.89957817757E+03 -0.55019254687E+03  0.17726699990E+04  0.20625982792E+04  0.25500000920E-02 0. -1.
</event>
<event>
 5   0  0.2985941E-06  0.3020975E+04  0.7818609E-02  0.8237766E-01
       -2   -1    0    0    0  501  0.00000000000E+00  0.00000000000E+00  0.97510845621E+03  0.97510845621E+03  0.25500000920E-02 0.  1.
        2   -1    0    0  501    0  0.00000000000E+00  0.00000000000E+00 -0.23398146685E+04  0.23398146685E+04  0.25500000920E-02 0. -1.
    10030    2    1    2    0    0  0.00000000000E+00  0.00000000000E+00 -0.13647062123E+04  0.33149231247E+04  0.30209753850E+04 0.  0.
        3    1    3    3  502    0  0.11228946512E+04 -0.41992614493E+03  0.32593733409E+03  0.12423628781E+04  0.10100000352E+00 0.  1.
       -3    1    3    3    0  502 -0.11228946512E+04  0.41992614493E+03 -0.16906435464E+04  0.20725602467E+04  0.10100000352E+00 0. -1.
</event>
<event>
 5   0  0.2862033E-06  0.3012598E+04  0.7818609E-02  0.8240143E-01
       -2   -1    0    0    0  501  0.00000000000E+00  0.00000000000E+00  0.79273945556E+03  0.79273945556E+03  0.25500000920E-02 0. -1.
        2   -1    0    0  501    0  0.00000000000E+00  0.00000000000E+00 -0.28621460836E+04  0.28621460836E+04  0.25500000920E-02 0.  1.
    10030    2    1    2    0    0  0.00000000000E+00  0.00000000000E+00 -0.20694066280E+04  0.36548855391E+04  0.30125976353E+04 0.  0.
        2    1    3    3  502    0  0.23960358979E+03  0.66426296185E+03  0.57948333006E+03  0.91348568273E+03  0.25500000920E-02 0. -1.
       -2    1    3    3    0  502 -0.23960358979E+03 -0.66426296185E+03 -0.26488899581E+04  0.27413998564E+04  0.25500000920E-02 0.  1.
</event>
<event>
 5   0  0.2948711E-06  0.2958248E+04  0.7818609E-02  0.8255755E-01
       -2   -1    0    0    0  501  0.00000000000E+00  0.00000000000E+00  0.11895717422E+04  0.11895717422E+04  0.25500000920E-02 0. -1.
        2   -1    0    0  501    0  0.00000000000E+00  0.00000000000E+00 -0.18391563880E+04  0.18391563880E+04  0.25500000920E-02 0.  1.
    10030    2    1    2    0    0  0.00000000000E+00  0.00000000000E+00 -0.64958464575E+03  0.30287281302E+04  0.29582484470E+04 0.  0.
        5    1    3    3  502    0  0.13230812333E+04  0.54951145122E+03  0.51774271782E+02  0.14336001710E+04  0.46999998093E+01 0. -1.
       -5    1    3    3    0  502 -0.13230812333E+04 -0.54951145122E+03 -0.70135891753E+03  0.15951279592E+04  0.46999998093E+01 0.  1.
</event>
<event>
 5   0  0.1113245E-06  0.2959730E+04  0.7818609E-02  0.8255325E-01
        1   -1    0    0  501    0  0.00000000000E+00  0.00000000000E+00  0.21237597373E+04  0.21237597373E+04  0.50400001928E-02 0.  1.
       -1   -1    0    0    0  501  0.00000000000E+00  0.00000000000E+00 -0.10311904294E+04  0.10311904294E+04  0.50400001928E-02 0. -1.
    10030    2    1    2    0    0  0.00000000000E+00  0.00000000000E+00  0.10925693079E+04  0.31549501666E+04  0.29597302008E+04 0.  0.
        5    1    3    3  502    0  0.11565812974E+04  0.80819434104E+03  0.70623069752E+02  0.14127519592E+04  0.46999998093E+01 0. -1.
       -5    1    3    3    0  502 -0.11565812974E+04 -0.80819434104E+03  0.10219462381E+04  0.17421982074E+04  0.46999998093E+01 0.  1.
</event>
<event>
 5   0  0.1113245E-06  0.2927323E+04  0.7818609E-02  0.8264794E-01
       -1   -1    0    0    0  501  0.00000000000E+00  0.00000000000E+00  0.10094876536E+04  0.10094876536E+04  0.50400001928E-02 0.  1.
        1   -1    0    0  501    0  0.00000000000E+00  0.00000000000E+00 -0.21221708921E+04  0.21221708921E+04  0.50400001928E-02 0. -1.
    10030    2    1    2    0    0  0.00000000000E+00  0.00000000000E+00 -0.11126832385E+04  0.31316585457E+04  0.29273232240E+04 0.  0.
        5    1    3    3  502    0  0.53393399708E+03  0.69042212519E+03 -0.18133098181E+04  0.20124320636E+04  0.46999998093E+01 0. -1.
       -5    1    3    3    0  502 -0.53393399708E+03 -0.69042212519E+03  0.70062657958E+03  0.11192264821E+04  0.46999998093E+01 0.  1.
</event>
<event>
 5   0  0.3113328E-06  0.2995902E+04  0.7818609E-02  0.8244902E-01
        2   -1    0    0  501    0  0.00000000000E+00  0.00000000000E+00  0.12772955096E+04  0.12772955096E+04  0.25500000920E-02 0. -1.
       -2   -1    0    0    0  501  0.00000000000E+00  0.00000000000E+00 -0.17567248211E+04  0.17567248211E+04  0.25500000920E-02 0.  1.
    10030    2    1    2    0    0  0.00000000000E+00  0.00000000000E+00 -0.47942931148E+03  0.30340203307E+04  0.29959016843E+04 0.  0.
        1    1    3    3  502    0  0.53191377422E+03 -0.42863629429E+03 -0.15897915929E+04  0.17303463944E+04  0.50400001928E-02 0.  1.
       -1    1    3    3    0  502 -0.53191377422E+03  0.42863629429E+03  0.11103622814E+04  0.13036739362E+04  0.50400001928E-02 0. -1.
</event>
<event>
 5   0  0.1097402E-06  0.2997237E+04  0.7818609E-02  0.8244520E-01
        1   -1    0    0  501    0  0.00000000000E+00  0.00000000000E+00  0.17513729953E+04  0.17513729954E+04  0.50400001928E-02 0. -1.
       -1   -1    0    0    0  501  0.00000000000E+00  0.00000000000E+00 -0.12823406895E+04  0.12823406895E+04  0.50400001928E-02 0.  1.
    10030    2    1    2    0    0  0.00000000000E+00  0.00000000000E+00  0.46903230587E+03  0.30337136848E+04  0.29972366302E+04 0.  0.
        4    1    3    3  502    0  0.11067227633E+04 -0.90877881035E+03 -0.21260772905E+03  0.14477285175E+04  0.12699999809E+01 0.  1.
       -4    1    3    3    0  502 -0.11067227633E+04  0.90877881035E+03  0.68164003492E+03  0.15859851674E+04  0.12699999809E+01 0. -1.
</event>
<event>
 5   0  0.2862033E-06  0.2991656E+04  0.7818609E-02  0.8246117E-01
       -2   -1    0    0    0  501  0.00000000000E+00  0.00000000000E+00  0.11216850435E+04  0.11216850435E+04  0.25500000920E-02 0. -1.
        2   -1    0    0  501    0  0.00000000000E+00  0.00000000000E+00 -0.19947685643E+04  0.19947685643E+04  0.25500000920E-02 0.  1.
    10030    2    1    2    0    0  0.00000000000E+00  0.00000000000E+00 -0.87308352077E+03  0.31164536078E+04  0.29916564400E+04 0.  0.
        2    1    3    3  502    0  0.60329505967E+03  0.79492708307E+02  0.98692216745E+03  0.11594392543E+04  0.25500000920E-02 0. -1.
       -2    1    3    3    0  502 -0.60329505967E+03 -0.79492708307E+02 -0.18600056882E+04  0.19570143535E+04  0.25500000920E-02 0.  1.
</event>
<event>
 5   0  0.1091075E-06  0.2985754E+04  0.7818609E-02  0.8247811E-01
       -1   -1    0    0    0  501  0.00000000000E+00  0.00000000000E+00  0.10335971785E+04  0.10335971785E+04  0.50400001928E-02 0. -1.
        1   -1    0    0  501    0  0.00000000000E+00  0.00000000000E+00 -0.21562382696E+04  0.21562382696E+04  0.50400001928E-02 0.  1.
    10030    2    1    2    0    0  0.00000000000E+00  0.00000000000E+00 -0.11226410911E+04  0.31898354481E+04  0.29857540365E+04 0.  0.
        1    1    3    3  502    0  0.44354709323E+03 -0.93666022579E+03 -0.17092968470E+04  0.19989402476E+04  0.50400001928E-02 0.  1.
       -1    1    3    3    0  502 -0.44354709323E+03  0.93666022579E+03  0.58665575589E+03  0.11908952004E+04  0.50400001928E-02 0. -1.
</event>
<event>
 5   0  0.2970915E-06  0.2957536E+04  0.7818609E-02  0.8255962E-01
       -2   -1    0    0    0  501  0.00000000000E+00  0.00000000000E+00  0.92656890996E+03  0.92656890997E+03  0.25500000920E-02 0.  1.
        2   -1    0    0  501    0  0.00000000000E+00  0.00000000000E+00 -0.23600567172E+04  0.23600567172E+04  0.25500000920E-02 0. -1.
    10030    2    1    2    0    0  0.00000000000E+00  0.00000000000E+00 -0.14334878072E+04  0.32866256272E+04  0.29575362584E+04 0.  0.
        4    1    3    3  502    0 -0.91332491213E+03  0.11501604441E+04 -0.52515952885E+03  0.15597517706E+04  0.12699999809E+01 0.  1.
       -4    1    3    3    0  502  0.91332491213E+03 -0.11501604441E+04 -0.90832827839E+03  0.17268738566E+04  0.12699999809E+01 0. -1.
</event>
<event>
 5   0  0.1097402E-06  0.2998669E+04  0.7818609E-02  0.8244111E-01
       -1   -1    0    0    0  501  0.00000000000E+00  0.00000000000E+00  0.22813388162E+04  0.22813388162E+04  0.50400001928E-02 0.  1.
        1   -1    0    0  501    0  0.00000000000E+00  0.00000000000E+00 -0.98538797661E+03  0.98538797662E+03  0.50400001928E-02 0. -1.
    10030    2    1    2    0    0  0.00000000000E+00  0.00000000000E+00  0.12959508396E+04  0.32667267928E+04  0.29986689314E+04 0.  0.
        4    1    3    3  502    0 -0.13628867662E+04 -0.35907216365E+02 -0.31697605443E+02  0.13637287182E+04  0.12699999809E+01 0. -1.
       -4    1    3    3    0  502  0.13628867662E+04  0.35907216365E+02  0.13276484450E+04  0.19029980747E+04  0.12699999809E+01 0.  1.
</event>
<event>
 5   0  0.2948711E-06  0.2931142E+04  0.7818609E-02  0.8263672E-01
        2   -1    0    0  501    0  0.00000000000E+00  0.00000000000E+00  0.18674862812E+04  0.18674862812E+04  0.25500000920E-02 0. -1.
       -2   -1    0    0    0  501  0.00000000000E+00  0.00000000000E+00 -0.11501548426E+04  0.11501548426E+04  0.25500000920E-02 0.  1.
    10030    2    1    2    0    0  0.00000000000E+00  0.00000000000E+00  0.71733143860E+03  0.30176411237E+04  0.29311420230E+04 0.  0.
        5    1    3    3  502    0 -0.38763978096E+03  0.10541184392E+04 -0.61063129267E+03  0.12784064101E+04  0.46999998093E+01 0. -1.
       -5    1    3    3    0  502  0.38763978096E+03 -0.10541184392E+04  0.13279627313E+04  0.17392347137E+04  0.46999998093E+01 0.  1.
</event>
<event>
 5   0  0.1097402E-06  0.3022590E+04  0.7818609E-02  0.8237310E-01
       -1   -1    0    0    0  501  0.00000000000E+00  0.00000000000E+00  0.89720721116E+03  0.89720721117E+03  0.50400001928E-02 0.  1.
        1   -1    0    0  501    0  0.00000000000E+00  0.00000000000E+00 -0.25456906623E+04  0.25456906623E+04  0.50400001928E-02 0. -1.
    10030    2    1    2    0    0  0.00000000000E+00  0.00000000000E+00 -0.16484834512E+04  0.34428978735E+04  0.30225896312E+04 0.  0.
        4    1    3    3  502    0  0.66053415142E+03 -0.71037410895E+03 -0.21443053667E+04  0.23535045907E+04  0.12699999809E+01 0. -1.
       -4    1    3    3    0  502 -0.66053415142E+03  0.71037410895E+03  0.49582191552E+03  0.10893932828E+04  0.12699999809E+01 0.  1.
</event>
<event>
 5   0  0.1113245E-06  0.2987819E+04  0.7818609E-02  0.8247218E-01
       -1   -1    0    0    0  501  0.00000000000E+00  0.00000000000E+00  0.17261594726E+04  0.17261594726E+04  0.50400001928E-02 0.  1.
        1   -1    0    0  501    0  0.00000000000E+00  0.00000000000E+00 -0.12929078069E+04  0.12929078069E+04  0.50400001928E-02 0. -1.
    10030    2    1    2    0    0  0.00000000000E+00  0.00000000000E+00  0.43325166566E+03  0.30190672795E+04  0.29878186411E+04 0.  0.
        5    1    3    3  502    0 -0.96794771104E+03 -0.11032725456E+04  0.49812498033E+03  0.15499302137E+04  0.46999998093E+01 0.  1.
       -5    1    3    3    0  502  0.96794771104E+03  0.11032725456E+04 -0.64873314676E+02  0.14691370658E+04  0.46999998093E+01 0. -1.
</event>
<event>
 5   0  0.3113328E-06  0.2645481E+04  0.7818609E-02  0.8352914E-01
        2   -1    0    0  501    0  0.00000000000E+00  0.00000000000E+00  0.94295239989E+03  0.94295239989E+03  0.25500000920E-02 0. -1.
       -2   -1    0    0    0  501  0.00000000000E+00  0.00000000000E+00 -0.18554940380E+04  0.18554940380E+04  0.25500000920E-02 0.  1.
    10030    2    1    2    0    0  0.00000000000E+00  0.00000000000E+00 -0.91254163810E+03  0.27984464379E+04  0.26454810951E+04 0.  0.
        1    1    3    3  502    0  0.34800932098E+03  0.50980372017E+03  0.78125913289E+03  0.99567874003E+03  0.50400001928E-02 0. -1.
       -1    1    3    3    0  502 -0.34800932098E+03 -0.50980372017E+03 -0.16938007710E+04  0.18027676979E+04  0.50400001928E-02 0.  1.
</event>
<event>
 5   0  0.1113245E-06  0.2984084E+04  0.7818609E-02  0.8248291E-01
       -1   -1    0    0    0  501  0.00000000000E+00  0.00000000000E+00  0.10098464013E+04  0.10098464013E+04  0.50400001928E-02 0.  1.
        1   -1    0    0  501    0  0.00000000000E+00  0.00000000000E+00 -0.22044824708E+04  0.22044824708E+04  0.50400001928E-02 0. -1.
    10030    2    1    2    0    0  0.00000000000E+00  0.00000000000E+00 -0.11946360696E+04  0.32143288721E+04  0.29840835711E+04 0.  0.
        5    1    3    3  502    0 -0.12745438464E+04 -0.36513389819E+03  0.13987180748E+03  0.13331807801E+04  0.46999998093E+01 0.  1.
       -5    1    3    3    0  502  0.12745438464E+04  0.36513389819E+03 -0.13345078771E+04  0.18811480920E+04  0.46999998093E+01 0. -1.
</event>
<event>
 5   0  0.3113328E-06  0.3000841E+04  0.7818609E-02  0.8243491E-01
       -2   -1    0    0    0  501  0.00000000000E+00  0.00000000000E+00  0.87028094053E+03  0.87028094053E+03  0.25500000920E-02 0.  1.
        2   -1    0    0  501    0  0.00000000000E+00  0.00000000000E+00 -0.25868219791E+04  0.25868219791E+04  0.25500000920E-02 0. -1.
    10030    2    1    2    0    0  0.00000000000E+00  0.00000000000E+00 -0.17165410386E+04  0.34571029196E+04  0.30008411254E+04 0.  0.
        1    1    3    3  502    0 -0.10547457103E+04  0.85358445116E+03 -0.12045186674E+03  0.13622054107E+04  0.50400001928E-02 0.  1.
       -1    1    3    3    0  502  0.10547457103E+04 -0.85358445116E+03 -0.15960891718E+04  0.20948975090E+04  0.50400001928E-02 0. -1.
</event>
<event>
 5   0  0.1091076E-06  0.3001035E+04  0.7818609E-02  0.8243436E-01
       -1   -1    0    0    0  501  0.00000000000E+00  0.00000000000E+00  0.21792066172E+04  0.21792066172E+04  0.50400001928E-02 0. -1.
        1   -1    0    0  501    0  0.00000000000E+00  0.00000000000E+00 -0.10331980626E+04  0.10331980627E+04  0.50400001928E-02 0.  1.
    10030    2    1    2    0    0  0.00000000000E+00  0.00000000000E+00  0.11460085545E+04  0.32124046799E+04  0.30010345250E+04 0.  0.
        3    1    3    3  502    0 -0.29490823794E+02 -0.14423075232E+04  0.13109411046E+03  0.14485532010E+04  0.10100000352E+00 0. -1.
       -3    1    3    3    0  502  0.29490823794E+02  0.14423075232E+04  0.10149144441E+04  0.17638514788E+04  0.10100000352E+00 0.  1.
</event>
<event>
 5   0  0.1113245E-06  0.2817388E+04  0.7818609E-02  0.8297890E-01
        1   -1    0    0  501    0  0.00000000000E+00  0.00000000000E+00  0.13528609801E+04  0.13528609801E+04  0.50400001928E-02 0. -1.
       -1   -1    0    0    0  501  0.00000000000E+00  0.00000000000E+00 -0.14668311326E+04  0.14668311326E+04  0.50400001928E-02 0.  1.
    10030    2    1    2    0    0  0.00000000000E+00  0.00000000000E+00 -0.11397015248E+03  0.28196921127E+04  0.28173878709E+04 0.  0.
        5    1    3    3  502    0  0.46951827052E+03  0.48073308121E+03 -0.12960787597E+04  0.14599294309E+04  0.46999998093E+01 0.  1.
       -5    1    3    3    0  502 -0.46951827052E+03 -0.48073308121E+03  0.11821086072E+04  0.13597626819E+04  0.46999998093E+01 0. -1.
</event>
<event>
 5   0  0.2970915E-06  0.3003906E+04  0.7818609E-02  0.8242616E-01
        2   -1    0    0  501    0  0.00000000000E+00  0.00000000000E+00  0.17520418615E+04  0.17520418615E+04  0.25500000920E-02 0. -1.
       -2   -1    0    0    0  501  0.00000000000E+00  0.00000000000E+00 -0.12875622245E+04  0.12875622245E+04  0.25500000920E-02 0.  1.
    10030    2    1    2    0    0  0.00000000000E+00  0.00000000000E+00  0.46447963697E+03  0.30396040860E+04  0.30039060682E+04 0.  0.
        4    1    3    3  502    0  0.84904038210E+03  0.42670952136E+03  0.14092094035E+04  0.16996538889E+04  0.12699999809E+01 0. -1.
       -4    1    3    3    0  502 -0.84904038210E+03 -0.42670952136E+03 -0.94472976656E+03  0.13399501971E+04  0.12699999809E+01 0.  1.
</event>
<event>
 5   0  0.2862033E-06  0.3006206E+04  0.7818609E-02  0.8241961E-01
       -2   -1    0    0    0  501  0.00000000000E+00  0.00000000000E+00  0.12739970140E+04  0.12739970140E+04  0.25500000920E-02 0. -1.
        2   -1    0    0  501    0  0.00000000000E+00  0.00000000000E+00 -0.17734102344E+04  0.17734102344E+04  0.25500000920E-02 0.  1.
    10030    2    1    2    0    0  0.00000000000E+00  0.00000000000E+00 -0.49941322040E+03  0.30474072483E+04  0.30062064754E+04 0.  0.
        2    1    3    3  502    0 -0.10504937518E+04 -0.80562081142E+03 -0.97133184097E+03  0.16419645427E+04  0.25500000920E-02 0.  1.
       -2    1    3    3    0  502  0.10504937518E+04  0.80562081142E+03  0.47191862057E+03  0.14054427056E+04  0.25500000920E-02 0. -1.
</event>
<event>
 5   0  0.1097402E-06  0.3000095E+04  0.7818609E-02  0.8243704E-01
        1   -1    0    0  501    0  0.00000000000E+00  0.00000000000E+00  0.11719768954E+04  0.11719768954E+04  0.50400001928E-02 0. -1.
       -1   -1    0    0    0  501  0.00000000000E+00  0.00000000000E+00 -0.19199545159E+04  0.19199545159E+04  0.50400001928E-02 0.  1.
    10030    2    1    2    0    0  0.00000000000E+00  0.00000000000E+00 -0.74797762049E+03  0.30919314113E+04  0.30000948871E+04 0.  0.
        4    1    3    3  502    0  0.79326430614E+03  0.12402197457E+04 -0.77560512025E+02  0.14742559218E+04  0.12699999809E+01 0.  1.
       -4    1    3    3    0  502 -0.79326430614E+03 -0.12402197457E+04 -0.67041710847E+03  0.16176754895E+04  0.12699999809E+01 0. -1.
</event>
<event>
 5   0  0.2948711E-06  0.3018894E+04  0.7818609E-02  0.8238356E-01
        2   -1    0    0  501    0  0.00000000000E+00  0.00000000000E+00  0.22145210306E+04  0.22145210306E+04  0.25500000920E-02 0.  1.
       -2   -1    0    0    0  501  0.00000000000E+00  0.00000000000E+00 -0.10288588631E+04  0.10288588631E+04  0.25500000920E-02 0. -1.
    10030    2    1    2    0    0  0.00000000000E+00  0.00000000000E+00  0.11856621676E+04  0.32433798937E+04  0.30188935654E+04 0.  0.
        5    1    3    3  502    0 -0.67988641737E+03 -0.13410909657E+04  0.73551076882E+03  0.16738484698E+04  0.46999998093E+01 0. -1.
       -5    1    3    3    0  502  0.67988641737E+03  0.13410909657E+04  0.45015139875E+03  0.15695314239E+04  0.46999998093E+01 0.  1.
</event>
<event>
 5   0  0.1091075E-06  0.2999449E+04  0.7818609E-02  0.8243888E-01
        1   -1    0    0  501    0  0.00000000000E+00  0.00000000000E+00  0.15203566620E+04  0.15203566620E+04  0.50400001928E-02 0. -1.
       -1   -1    0    0    0  501  0.00000000000E+00  0.00000000000E+00 -0.14793719409E+04  0.14793719409E+04  0.50400001928E-02 0.  1.
    10030    2    1    2    0    0  0.00000000000E+00  0.00000000000E+00  0.40984721088E+02  0.29997286029E+04  0.29994486066E+04 0.  0.
        1    1    3    3  502    0  0.20306587945E+03 -0.78405599208E+03  0.12828278534E+04  0.15171113511E+04  0.50400001928E-02 0. -1.
       -1    1    3    3    0  502 -0.20306587945E+03  0.78405599208E+03 -0.12418431323E+04  0.14826172518E+04  0.50400001928E-02 0.  1.
</event>
<event>
 5   0  0.2970915E-06  0.3010822E+04  0.7818609E-02  0.8240647E-01
        2   -1    0    0  501    0  0.00000000000E+00  0.00000000000E+00  0.18546404465E+04  0.18546404465E+04  0.25500000920E-02 0. -1.
       -2   -1    0    0    0  501  0.00000000000E+00  0.00000000000E+00 -0.12219412333E+04  0.12219412333E+04  0.25500000920E-02 0.  1.
    10030    2    1    2    0    0  0.00000000000E+00  0.00000000000E+00  0.63269921319E+03  0.30765816798E+04  0.30108215719E+04 0.  0.
        4    1    3    3  502    0  0.31460830893E+03 -0.71874212526E+03 -0.99650421813E+03  0.12683023694E+04  0.12699999809E+01 0.  1.
       -4    1    3    3    0  502 -0.31460830893E+03  0.71874212526E+03  0.16292034313E+04  0.18082793103E+04  0.12699999809E+01 0. -1.
</event>
<event>
 5   0  0.1054384E-06  0.3003514E+04  0.7818609E-02  0.8242728E-01
       -1   -1    0    0    0  501  0.00000000000E+00  0.00000000000E+00  0.31432241082E+04  0.31432241082E+04  0.50400001928E-02 0.  1.
        1   -1    0    0  501    0  0.00000000000E+00  0.00000000000E+00 -0.71750358166E+03  0.71750358167E+03  0.50400001928E-02 0. -1.
    10030    2    1    2    0    0  0.00000000000E+00  0.00000000000E+00  0.24257205265E+04  0.38607276899E+04  0.30035143120E+04 0.  0.
        2    1    3    3  502    0 -0.11363153616E+04 -0.71586916709E+03  0.20766602738E+04  0.24730950564E+04  0.25500000920E-02 0.  1.
       -2    1    3    3    0  502  0.11363153616E+04  0.71586916709E+03  0.34906025277E+03  0.13876326335E+04  0.25500000920E-02 0. -1.
</event>
<event>
 5   0  0.1054384E-06  0.2999970E+04  0.7818609E-02  0.8243739E-01
        1   -1    0    0  501    0  0.00000000000E+00  0.00000000000E+00  0.92503100517E+03  0.92503100519E+03  0.50400001928E-02 0.  1.
       -1   -1    0    0    0  501  0.00000000000E+00  0.00000000000E+00 -0.24323020564E+04  0.24323020565E+04  0.50400001928E-02 0. -1.
    10030    2    1    2    0    0  0.00000000000E+00  0.00000000000E+00 -0.15072710513E+04  0.33573330616E+04  0.29999698773E+04 0.  0.
        2    1    3    3  502    0  0.43820684291E+03  0.47413663489E+03  0.76157667465E+03  0.99841365030E+03  0.25500000920E-02 0.  1.
       -2    1    3    3    0  502 -0.43820684291E+03 -0.47413663489E+03 -0.22688477259E+04  0.23589194113E+04  0.25500000920E-02 0. -1.
</event>
<event>
 5   0  0.2862033E-06  0.2990581E+04  0.7818609E-02  0.8246426E-01
        2   -1    0    0  501    0  0.00000000000E+00  0.00000000000E+00  0.16502099242E+04  0.16502099242E+04  0.25500000920E-02 0. -1.
       -2   -1    0    0    0  501  0.00000000000E+00  0.00000000000E+00 -0.13549150804E+04  0.13549150804E+04  0.25500000920E-02 0.  1.
    10030    2    1    2    0    0  0.00000000000E+00  0.00000000000E+00  0.29529484380E+03  0.30051250046E+04  0.29905814232E+04 0.  0.
        2    1    3    3  502    0 -0.56723088215E+03 -0.13693447148E+04 -0.50895047779E+02  0.14830529753E+04  0.25500000920E-02 0.  1.
       -2    1    3    3    0  502  0.56723088215E+03  0.13693447148E+04  0.34618989158E+03  0.15220720294E+04  0.25500000920E-02 0. -1.
</event>
<event>
 5   0  0.1113245E-06  0.2922976E+04  0.7818609E-02  0.8266074E-01
       -1   -1    0    0    0  501  0.00000000000E+00  0.00000000000E+00  0.69382300950E+03  0.69382300952E+03  0.50400001928E-02 0.  1.
        1   -1    0    0  501    0  0.00000000000E+00  0.00000000000E+00 -0.30785194473E+04  0.30785194473E+04  0.50400001928E-02 0. -1.
    10030    2    1    2    0    0  0.00000000000E+00  0.00000000000E+00 -0.23846964378E+04  0.37723424568E+04  0.29229763104E+04 0.  0.
        5    1    3    3  502    0 -0.11201581956E+04  0.63872199098E+03 -0.20801390378E+04  0.24473905842E+04  0.46999998093E+01 0. -1.
       -5    1    3    3    0  502  0.11201581956E+04 -0.63872199098E+03 -0.30455739993E+03  0.13249518726E+04  0.46999998093E+01 0.  1.
</event>
<event>
 5   0  0.1091075E-06  0.3007327E+04  0.7818609E-02  0.8241642E-01
       -1   -1    0    0    0  501  0.00000000000E+00  0.00000000000E+00  0.10426247781E+04  0.10426247781E+04  0.50400001928E-02 0.  1.
        1   -1    0    0  501    0  0.00000000000E+00  0.00000000000E+00 -0.21685687953E+04  0.21685687953E+04  0.50400001928E-02 0. -1.
    10030    2    1    2    0    0  0.00000000000E+00  0.00000000000E+00 -0.11259440172E+04  0.32111935734E+04  0.30073267590E+04 0.  0.
        1    1    3    3  502    0  0.14368454703E+03  0.10641074174E+04 -0.16869617690E+04  0.19997024415E+04  0.50400001928E-02 0. -1.
       -1    1    3    3    0  502 -0.14368454703E+03 -0.10641074174E+04  0.56101775173E+03  0.12114911318E+04  0.50400001928E-02 0.  1.
</event>
<event>
 5   0  0.1113245E-06  0.3042159E+04  0.7818609E-02  0.8231794E-01
       -1   -1    0    0    0  501  0.00000000000E+00  0.00000000000E+00  0.15775368710E+04  0.15775368710E+04  0.50400001928E-02 0. -1.
        1   -1    0    0  501    0  0.00000000000E+00  0.00000000000E+00 -0.14666427204E+04  0.14666427204E+04  0.50400001928E-02 0.  1.
    10030    2    1    2    0    0  0.00000000000E+00  0.00000000000E+00  0.11089415065E+03  0.30441795914E+04  0.30421590807E+04 0.  0.
        5    1    3    3  502    0  0.13968644266E+04  0.94042261158E+02  0.65047358253E+03  0.15437655731E+04  0.46999998093E+01 0.  1.
       -5    1    3    3    0  502 -0.13968644266E+04 -0.94042261158E+02 -0.53957943188E+03  0.15004140183E+04  0.46999998093E+01 0. -1.
</event>
<event>
 5   0  0.2862033E-06  0.3006616E+04  0.7818609E-02  0.8241844E-01
       -2   -1    0    0    0  501  0.00000000000E+00  0.00000000000E+00  0.12595213771E+04  0.12595213771E+04  0.25500000920E-02 0.  1.
        2   -1    0    0  501    0  0.00000000000E+00  0.00000000000E+00 -0.17942812371E+04  0.17942812371E+04  0.25500000920E-02 0. -1.
    10030    2    1    2    0    0  0.00000000000E+00  0.00000000000E+00 -0.53475985994E+03  0.30538026142E+04  0.30066164203E+04 0.  0.
        2    1    3    3  502    0 -0.11772480265E+04 -0.83123481220E+03  0.16720346142E+03  0.14508002021E+04  0.25500000920E-02 0.  1.
       -2    1    3    3    0  502  0.11772480265E+04  0.83123481220E+03 -0.70196332136E+03  0.16030024121E+04  0.25500000920E-02 0. -1.
</event>
<event>
 5   0  0.2862033E-06  0.2950221E+04  0.7818609E-02  0.8258090E-01
       -2   -1    0    0    0  501  0.00000000000E+00  0.00000000000E+00  0.98777457655E+03  0.98777457655E+03  0.25500000920E-02 0.  1.
        2   -1    0    0  501    0  0.00000000000E+00  0.00000000000E+00 -0.22028826353E+04  0.22028826353E+04  0.25500000920E-02 0. -1.
    10030    2    1    2    0    0  0.00000000000E+00  0.00000000000E+00 -0.12151080588E+04  0.31906572119E+04  0.29502213221E+04 0.  0.
        2    1    3    3  502    0 -0.12363153990E+04  0.13727293764E+03 -0.14650335113E+04  0.19218852241E+04  0.25500000920E-02 0. -1.
       -2    1    3    3    0  502  0.12363153990E+04 -0.13727293764E+03  0.24992545254E+03  0.12687719878E+04  0.25500000920E-02 0.  1.
</event>
<event>
 5   0  0.1091075E-06  0.3052954E+04  0.7818609E-02  0.8228769E-01
       -1   -1    0    0    0  501  0.00000000000E+00  0.00000000000E+00  0.21870975098E+04  0.21870975099E+04  0.50400001928E-02 0. -1.
        1   -1    0    0  501    0  0.00000000000E+00  0.00000000000E+00 -0.10653991160E+04  0.10653991161E+04  0.50400001928E-02 0.  1.
    10030    2    1    2    0    0  0.00000000000E+00  0.00000000000E+00  0.11216983938E+04  0.32524966259E+04  0.30529538180E+04 0.  0.
        1    1    3    3  502    0  0.45101215101E+03  0.33389698748E+03  0.20732232207E+04  0.21478253378E+04  0.50400001928E-02 0. -1.
       -1    1    3    3    0  502 -0.45101215101E+03 -0.33389698748E+03 -0.95152482690E+03  0.11046712881E+04  0.50400001928E-02 0.  1.
</event>
<event>
 5   0  0.2985941E-06  0.3004020E+04  0.7818609E-02  0.8242584E-01
       -2   -1    0    0    0  501  0.00000000000E+00  0.00000000000E+00  0.99960902630E+03  0.99960902630E+03  0.25500000920E-02 0. -1.
        2   -1    0    0  501    0  0.00000000000E+00  0.00000000000E+00 -0.22569159268E+04  0.22569159268E+04  0.25500000920E-02 0.  1.
    10030    2    1    2    0    0  0.00000000000E+00  0.00000000000E+00 -0.12573069005E+04  0.32565249532E+04  0.30040196618E+04 0.  0.
        3    1    3    3  502    0  0.27935522448E+03  0.39432452062E+03 -0.21703402617E+04  0.22234900564E+04  0.10100000352E+00 0.  1.
       -3    1    3    3    0  502 -0.27935522448E+03 -0.39432452062E+03  0.91303336120E+03  0.10330348967E+04  0.10100000352E+00 0. -1.
</event>
<event>
 5   0  0.2985941E-06  0.3007307E+04  0.7818609E-02  0.8241647E-01
       -2   -1    0    0    0  501  0.00000000000E+00  0.00000000000E+00  0.80010953539E+03  0.80010953540E+03  0.25500000920E-02 0.  1.
        2   -1    0    0  501    0  0.00000000000E+00  0.00000000000E+00 -0.28258313134E+04  0.28258313134E+04  0.25500000920E-02 0. -1.
    10030    2    1    2    0    0  0.00000000000E+00  0.00000000000E+00 -0.20257217780E+04  0.36259408488E+04  0.30073074863E+04 0.  0.
        3    1    3    3  502    0  0.31637133120E+03 -0.14613207565E+04 -0.12051154925E+04  0.19203782265E+04  0.10100000352E+00 0.  1.
       -3    1    3    3    0  502 -0.31637133120E+03  0.14613207565E+04 -0.82060628550E+03  0.17055626223E+04  0.10100000352E+00 0. -1.
</event>
<event>
 5   0  0.2970915E-06  0.2998841E+04  0.7818609E-02  0.8244062E-01
       -2   -1    0    0    0  501  0.00000000000E+00  0.00000000000E+00  0.16611714658E+04  0.16611714658E+04  0.25500000920E-02 0.  1.
        2   -1    0    0  501    0  0.00000000000E+00  0.00000000000E+00 -0.13534191818E+04  0.13534191818E+04  0.25500000920E-02 0. -1.
    10030    2    1    2    0    0  0.00000000000E+00  0.00000000000E+00  0.30775228398E+03  0.30145906475E+04  0.29988406600E+04 0.  0.
        4    1    3    3  502    0 -0.13871442728E+03  0.80839503149E+03 -0.11079115769E+04  0.13784824607E+04  0.12699999809E+01 0. -1.
       -4    1    3    3    0  502  0.13871442728E+03 -0.80839503149E+03  0.14156638609E+04  0.16361081869E+04  0.12699999809E+01 0.  1.
</event>
<event>
 5   0  0.1097402E-06  0.2996822E+04  0.7818609E-02  0.8244639E-01
       -1   -1    0    0    0  501  0.00000000000E+00  0.00000000000E+00  0.17310232962E+04  0.17310232962E+04  0.50400001928E-02 0. -1.
        1   -1    0    0  501    0  0.00000000000E+00  0.00000000000E+00 -0.12970568870E+04  0.12970568870E+04  0.50400001928E-02 0.  1.
    10030    2    1    2    0    0  0.00000000000E+00  0.00000000000E+00  0.43396640918E+03  0.30280801832E+04  0.29968221088E+04 0.  0.
        4    1    3    3  502    0 -0.54223401020E+03 -0.43931365343E+03  0.15567925371E+04  0.17060535819E+04  0.12699999809E+01 0. -1.
       -4    1    3    3    0  502  0.54223401020E+03  0.43931365343E+03 -0.11228261279E+04  0.13220266012E+04  0.12699999809E+01 0.  1.
</event>
<event>
 5   0  0.1097402E-06  0.2989563E+04  0.7818609E-02  0.8246717E-01
        1   -1    0    0  501    0  0.00000000000E+00  0.00000000000E+00  0.15806058128E+04  0.15806058128E+04  0.50400001928E-02 0. -1.
       -1   -1    0    0    0  501  0.00000000000E+00  0.00000000000E+00 -0.14136176819E+04  0.14136176819E+04  0.50400001928E-02 0.  1.
    10030    2    1    2    0    0  0.00000000000E+00  0.00000000000E+00  0.16698813090E+03  0.29942234946E+04  0.29895633962E+04 0.  0.
        4    1    3    3  502    0 -0.13815647210E+03 -0.13827866340E+04 -0.46798627371E+03  0.14663556360E+04  0.12699999809E+01 0.  1.
       -4    1    3    3    0  502  0.13815647210E+03  0.13827866340E+04  0.63497440461E+03  0.15278678586E+04  0.12699999809E+01 0. -1.
</event>
<event>
 5   0  0.2948711E-06  0.2998901E+04  0.7818609E-02  0.8244045E-01
        2   -1    0    0  501    0  0.00000000000E+00  0.00000000000E+00  0.18401914402E+04  0.18401914402E+04  0.25500000920E-02 0.  1.
       -2   -1    0    0    0  501  0.00000000000E+00  0.00000000000E+00 -0.12218029784E+04  0.12218029784E+04  0.25500000920E-02 0. -1.
    10030    2    1    2    0    0  0.00000000000E+00  0.00000000000E+00  0.61838846183E+03  0.30619944186E+04  0.29989007202E+04 0.  0.
        5    1    3    3  502    0 -0.79391438361E+03 -0.87150861906E+03  0.12552417572E+04  0.17220572814E+04  0.46999998093E+01 0.  1.
       -5    1    3    3    0  502  0.79391438361E+03  0.87150861906E+03 -0.63685329535E+03  0.13399371371E+04  0.46999998093E+01 0. -1.
</event>
<event>
 5   0  0.1097402E-06  0.2990140E+04  0.7818609E-02  0.8246552E-01
        1   -1    0    0  501    0  0.00000000000E+00  0.00000000000E+00  0.35582573194E+04  0.35582573194E+04  0.50400001928E-02 0. -1.
       -1   -1    0    0    0  501  0.00000000000E+00  0.00000000000E+00 -0.62818249612E+03  0.62818249614E+03  0.50400001928E-02 0.  1.
    10030    2    1    2    0    0  0.00000000000E+00  0.00000000000E+00  0.29300748233E+04  0.41864398155E+04  0.29901404414E+04 0.  0.
        4    1    3    3  502    0 -0.63110311706E+02 -0.62230514248E+01 -0.62629783041E+03  0.62950156719E+03  0.12699999809E+01 0.  1.
       -4    1    3    3    0  502  0.63110311706E+02  0.62230514248E+01  0.35563726537E+04  0.35569382483E+04  0.12699999809E+01 0. -1.
</event>
<event>
 5   0  0.2985941E-06  0.3010380E+04  0.7818609E-02  0.8240773E-01
       -2   -1    0    0    0  501  0.00000000000E+00  0.00000000000E+00  0.15723477315E+04  0.15723477315E+04  0.25500000920E-02 0.  1.
        2   -1    0    0  501    0  0.00000000000E+00  0.00000000000E+00 -0.14409007547E+04  0.14409007547E+04  0.25500000920E-02 0. -1.
    10030    2    1    2    0    0  0.00000000000E+00  0.00000000000E+00  0.13144697680E+03  0.30132484863E+04  0.30103800644E+04 0.  0.
        3    1    3    3  502    0  0.11999901592E+04  0.68095305096E+03  0.66789757038E+03  0.15328928907E+04  0.10100000352E+00 0.  1.
       -3    1    3    3    0  502 -0.11999901592E+04 -0.68095305096E+03 -0.53645059358E+03  0.14803555956E+04  0.10100000352E+00 0. -1.
</event>
<event>
 5   0  0.2985941E-06  0.3035572E+04  0.7818609E-02  0.8233645E-01
       -2   -1    0    0    0  501  0.00000000000E+00  0.00000000000E+00  0.89329084093E+03  0.89329084093E+03  0.25500000920E-02 0.  1.
        2   -1    0    0  501    0  0.00000000000E+00  0.00000000000E+00 -0.25788632134E+04  0.25788632135E+04  0.25500000920E-02 0. -1.
    10030    2    1    2    0    0  0.00000000000E+00  0.00000000000E+00 -0.16855723725E+04  0.34721540544E+04  0.30355723603E+04 0.  0.
        3    1    3    3  502    0  0.57889979784E+03  0.11921885143E+04 -0.16889333522E+04  0.21468428698E+04  0.10100000352E+00 0. -1.
       -3    1    3    3    0  502 -0.57889979784E+03 -0.11921885143E+04  0.33609796371E+01  0.13253111845E+04  0.10100000352E+00 0.  1.
</event>
<event>
 5   0  0.1097402E-06  0.3019074E+04  0.7818609E-02  0.8238305E-01
       -1   -1    0    0    0  501  0.00000000000E+00  0.00000000000E+00  0.10526834622E+04  0.10526834622E+04  0.50400001928E-02 0. -1.
        1   -1    0    0  501    0  0.00000000000E+00  0.00000000000E+00 -0.21646597704E+04  0.21646597705E+04  0.50400001928E-02 0.  1.
    10030    2    1    2    0    0  0.00000000000E+00  0.00000000000E+00 -0.11119763083E+04  0.32173432326E+04  0.30190737265E+04 0.  0.
        4    1    3    3  502    0  0.12863779457E+04  0.55638878643E+03  0.41514096730E+02  0.14021632338E+04  0.12699999809E+01 0.  1.
       -4    1    3    3    0  502 -0.12863779457E+04 -0.55638878643E+03 -0.11534904050E+04  0.18151799989E+04  0.12699999809E+01 0. -1.
</event>
<event>
 5   0  0.1091076E-06  0.2972431E+04  0.7818609E-02  0.8251647E-01
       -1   -1    0    0    0  501  0.00000000000E+00  0.00000000000E+00  0.12040600028E+04  0.12040600028E+04  0.50400001928E-02 0.  1.
        1   -1    0    0  501    0  0.00000000000E+00  0.00000000000E+00 -0.18344906034E+04  0.18344906034E+04  0.50400001928E-02 0. -1.
    10030    2    1    2    0    0  0.00000000000E+00  0.00000000000E+00 -0.63043060057E+03  0.30385506062E+04  0.29724311673E+04 0.  0.
        3    1    3    3  502    0 -0.19130700982E+03 -0.38176961987E+03  0.11399989398E+04  0.12173512261E+04  0.10100000352E+00 0.  1.
       -3    1    3    3    0  502  0.19130700982E+03  0.38176961987E+03 -0.17704295404E+04  0.18211993802E+04  0.10100000352E+00 0. -1.
</event>
<event>
 5   0  0.1097402E-06  0.2997100E+04  0.7818609E-02  0.8244560E-01
       -1   -1    0    0    0  501  0.00000000000E+00  0.00000000000E+00  0.32507562403E+04  0.32507562403E+04  0.50400001928E-02 0. -1.
        1   -1    0    0  501    0  0.00000000000E+00  0.00000000000E+00 -0.69080909541E+03  0.69080909543E+03  0.50400001928E-02 0.  1.
    10030    2    1    2    0    0  0.00000000000E+00  0.00000000000E+00  0.25599471449E+04  0.39415653358E+04  0.29970999168E+04 0.  0.
        4    1    3    3  502    0 -0.82295830511E+03  0.66437227508E+02 -0.36471078766E+03  0.90260171100E+03  0.12699999809E+01 0.  1.
       -4    1    3    3    0  502  0.82295830511E+03 -0.66437227508E+02  0.29246579326E+04  0.30389636248E+04  0.12699999809E+01 0. -1.
</event>
<event>
 5   0  0.2948711E-06  0.3004811E+04  0.7818609E-02  0.8242358E-01
        2   -1    0    0  501    0  0.00000000000E+00  0.00000000000E+00  0.20576401485E+04  0.20576401485E+04  0.25500000920E-02 0. -1.
       -2   -1    0    0    0  501  0.00000000000E+00  0.00000000000E+00 -0.10969954886E+04  0.10969954886E+04  0.25500000920E-02 0.  1.
    10030    2    1    2    0    0  0.00000000000E+00  0.00000000000E+00  0.96064465990E+03  0.31546356371E+04  0.30048107828E+04 0.  0.
        5    1    3    3  502    0 -0.10931244354E+04  0.10305935027E+04  0.49342968093E+03  0.15813092484E+04  0.46999998093E+01 0. -1.
       -5    1    3    3    0  502  0.10931244354E+04 -0.10305935027E+04  0.46721497897E+03  0.15733263887E+04  0.46999998093E+01 0.  1.
</event>
<event>
 5   0  0.1097402E-06  0.2995060E+04  0.7818609E-02  0.8245143E-01
       -1   -1    0    0    0  501  0.00000000000E+00  0.00000000000E+00  0.83942717126E+03  0.83942717127E+03  0.50400001928E-02 0. -1.
        1   -1    0    0  501    0  0.00000000000E+00  0.00000000000E+00 -0.26715788380E+04  0.26715788380E+04  0.50400001928E-02 0.  1.
    10030    2    1    2    0    0  0.00000000000E+00  0.00000000000E+00 -0.18321516668E+04  0.35110060093E+04  0.29950598437E+04 0.  0.
        4    1    3    3  502    0 -0.10187400636E+03  0.13824788145E+04 -0.15802119798E+04  0.21020698132E+04  0.12699999809E+01 0. -1.
       -4    1    3    3    0  502  0.10187400636E+03 -0.13824788145E+04 -0.25193968703E+03  0.14089361961E+04  0.12699999809E+01 0.  1.
</event>
<event>
 5   0  0.1054384E-06  0.2883793E+04  0.7818609E-02  0.8277716E-01
       -1   -1    0    0    0  501  0.00000000000E+00  0.00000000000E+00  0.11875563069E+04  0.11875563069E+04  0.50400001928E-02 0.  1.
        1   -1    0    0  501    0  0.00000000000E+00  0.00000000000E+00 -0.17507084804E+04  0.17507084805E+04  0.50400001928E-02 0. -1.
    10030    2    1    2    0    0  0.00000000000E+00  0.00000000000E+00 -0.56315217357E+03  0.29382647873E+04  0.28837925705E+04 0.  0.
        2    1    3    3  502    0 -0.24293146381E+03 -0.14417349800E+03  0.11590852408E+04  0.11930131135E+04  0.25500000920E-02 0.  1.
       -2    1    3    3    0  502  0.24293146381E+03  0.14417349800E+03 -0.17222374143E+04  0.17452516738E+04  0.25500000920E-02 0. -1.
</event>
<event>
 5   0  0.1113245E-06  0.3012827E+04  0.7818609E-02  0.8240078E-01
       -1   -1    0    0    0  501  0.00000000000E+00  0.00000000000E+00  0.74992311739E+03  0.74992311741E+03  0.50400001928E-02 0. -1.
        1   -1    0    0  501    0  0.00000000000E+00  0.00000000000E+00 -0.30260191629E+04  0.30260191629E+04  0.50400001928E-02 0.  1.
    10030    2    1    2    0    0  0.00000000000E+00  0.00000000000E+00 -0.22760960455E+04  0.37759422803E+04  0.30128270604E+04 0.  0.
        5    1    3    3  502    0  0.73889833028E+03 -0.92914407110E+03  0.24190768026E+02  0.11873865127E+04  0.46999998093E+01 0. -1.
       -5    1    3    3    0  502 -0.73889833028E+03  0.92914407110E+03 -0.23002868135E+04  0.25885557676E+04  0.46999998093E+01 0.  1.
</event>
<event>
 5   0  0.2862033E-06  0.2999996E+04  0.7818609E-02  0.8243732E-01
       -2   -1    0    0    0  501  0.00000000000E+00  0.00000000000E+00  0.13390714726E+04  0.13390714726E+04  0.25500000920E-02 0.  1.
        2   -1    0    0  501    0  0.00000000000E+00  0.00000000000E+00 -0.16802644151E+04  0.16802644151E+04  0.25500000920E-02 0. -1.
    10030    2    1    2    0    0  0.00000000000E+00  0.00000000000E+00 -0.34119294249E+03  0.30193358878E+04  0.29999960965E+04 0.  0.
        2    1    3    3  502    0  0.85161141533E+03  0.53552854537E+03 -0.12904063050E+04  0.16362094174E+04  0.25500000920E-02 0. -1.
       -2    1    3    3    0  502 -0.85161141533E+03 -0.53552854537E+03  0.94921336248E+03  0.13831264704E+04  0.25500000920E-02 0.  1.
</event>
<event>
 5   0  0.2970915E-06  0.2980916E+04  0.7818609E-02  0.8249201E-01
       -2   -1    0    0    0  501  0.00000000000E+00  0.00000000000E+00  0.21357011095E+04  0.21357011095E+04  0.25500000920E-02 0.  1.
        2   -1    0    0  501    0  0.00000000000E+00  0.00000000000E+00 -0.10401575245E+04  0.10401575245E+04  0.25500000920E-02 0. -1.
    10030    2    1    2    0    0  0.00000000000E+00  0.00000000000E+00  0.10955435851E+04  0.31758586340E+04  0.29809163551E+04 0.  0.
        4    1    3    3  502    0  0.13381482359E+04 -0.28851070065E+03  0.11758905838E+04  0.18046050547E+04  0.12699999809E+01 0.  1.
       -4    1    3    3    0  502 -0.13381482359E+04  0.28851070065E+03 -0.80346998776E+02  0.13712535793E+04  0.12699999809E+01 0. -1.
</event>
<event>
 5   0  0.2985941E-06  0.2962754E+04  0.7818609E-02  0.8254447E-01
       -2   -1    0    0    0  501  0.00000000000E+00  0.00000000000E+00  0.13188558558E+04  0.13188558558E+04  0.25500000920E-02 0.  1.
        2   -1    0    0  501    0  0.00000000000E+00  0.00000000000E+00 -0.16639257753E+04  0.16639257753E+04  0.25500000920E-02 0. -1.
    10030    2    1    2    0    0  0.00000000000E+00  0.00000000000E+00 -0.34506991955E+03  0.29827816311E+04  0.29627542945E+04 0.  0.
        3    1    3    3  502    0 -0.99615825802E+03  0.49121711857E+03  0.81432205652E+03  0.13772240030E+04  0.10100000352E+00 0.  1.
       -3    1    3    3    0  502  0.99615825802E+03 -0.49121711857E+03 -0.11593919761E+04  0.16055576280E+04  0.10100000352E+00 0. -1.
</event>
<event>
 5   0  0.1091075E-06  0.2994626E+04  0.7818609E-02  0.8245267E-01
       -1   -1    0    0    0  501  0.00000000000E+00  0.00000000000E+00  0.24552761751E+04  0.24552761751E+04  0.50400001928E-02 0. -1.
        1   -1    0    0  501    0  0.00000000000E+00  0.00000000000E+00 -0.91311338535E+03  0.91311338536E+03  0.50400001928E-02 0.  1.
    10030    2    1    2    0    0  0.00000000000E+00  0.00000000000E+00  0.15421627897E+04  0.33683895604E+04  0.29946255460E+04 0.  0.
        1    1    3    3  502    0 -0.22968052336E+03  0.51446287366E+03  0.23314997180E+04  0.23986071222E+04  0.50400001928E-02 0. -1.
       -1    1    3    3    0  502  0.22968052336E+03 -0.51446287366E+03 -0.78933692832E+03  0.96978243829E+03  0.50400001928E-02 0.  1.
</event>
<event>
 5   0  0.1091076E-06  0.2939174E+04  0.7818609E-02  0.8261317E-01
        1   -1    0    0  501    0  0.00000000000E+00  0.00000000000E+00  0.22327113081E+04  0.22327113081E+04  0.50400001928E-02 0. -1.
       -1   -1    0    0    0  501  0.00000000000E+00  0.00000000000E+00 -0.96729305806E+03  0.96729305807E+03  0.50400001928E-02 0.  1.
    10030    2    1    2    0    0  0.00000000000E+00  0.00000000000E+00  0.12654182500E+04  0.32000043662E+04  0.29391741350E+04 0.  0.
        3    1    3    3  502    0 -0.76185431947E+03  0.67608519583E+03  0.17860432714E+04  0.20560797099E+04  0.10100000352E+00 0. -1.
       -3    1    3    3    0  502  0.76185431947E+03 -0.67608519583E+03 -0.52062502135E+03  0.11439246562E+04  0.10100000352E+00 0.  1.
</event>
<event>
 5   0  0.1113245E-06  0.2908183E+04  0.7818609E-02  0.8270447E-01
       -1   -1    0    0    0  501  0.00000000000E+00  0.00000000000E+00  0.92823720934E+03  0.92823720936E+03  0.50400001928E-02 0.  1.
        1   -1    0    0  501    0  0.00000000000E+00  0.00000000000E+00 -0.22778473821E+04  0.22778473821E+04  0.50400001928E-02 0. -1.
    10030    2    1    2    0    0  0.00000000000E+00  0.00000000000E+00 -0.13496101728E+04  0.32060845915E+04  0.29081834174E+04 0.  0.
        5    1    3    3  502    0 -0.18697936118E+03  0.95469343860E+03 -0.18662312255E+04  0.21045764230E+04  0.46999998093E+01 0. -1.
       -5    1    3    3    0  502  0.18697936118E+03 -0.95469343860E+03  0.51662105270E+03  0.11015081685E+04  0.46999998093E+01 0.  1.
</event>
<event>
 5   0  0.1113245E-06  0.3031828E+04  0.7818609E-02  0.8234700E-01
       -1   -1    0    0    0  501  0.00000000000E+00  0.00000000000E+00  0.16075212571E+04  0.16075212571E+04  0.50400001928E-02 0. -1.
        1   -1    0    0  501    0  0.00000000000E+00  0.00000000000E+00 -0.14295271755E+04  0.14295271755E+04  0.50400001928E-02 0.  1.
    10030    2    1    2    0    0  0.00000000000E+00  0.00000000000E+00  0.17799408159E+03  0.30370484326E+04  0.30318280440E+04 0.  0.
        5    1    3    3  502    0 -0.11506109459E+04  0.68892287907E+03  0.79693376726E+03  0.15600146799E+04  0.46999998093E+01 0. -1.
       -5    1    3    3    0  502  0.11506109459E+04 -0.68892287907E+03 -0.61893968567E+03  0.14770337527E+04  0.46999998093E+01 0.  1.
</event>
<event>
 5   0  0.2862033E-06  0.2976530E+04  0.7818609E-02  0.8250465E-01
        2   -1    0    0  501    0  0.00000000000E+00  0.00000000000E+00  0.19881550999E+04  0.19881550999E+04  0.25500000920E-02 0. -1.
       -2   -1    0    0    0  501  0.00000000000E+00  0.00000000000E+00 -0.11140642033E+04  0.11140642033E+04  0.25500000920E-02 0.  1.
    10030    2    1    2    0    0  0.00000000000E+00  0.00000000000E+00  0.87409089661E+03  0.31022193032E+04  0.29765298100E+04 0.  0.
        2    1    3    3  502    0  0.90946238033E+03  0.10264950282E+04  0.10394837313E+04  0.17208545237E+04  0.25500000920E-02 0. -1.
       -2    1    3    3    0  502 -0.90946238033E+03 -0.10264950282E+04 -0.16539283470E+03  0.13813647795E+04  0.25500000920E-02 0.  1.
</event>
<event>
 5   0  0.2862033E-06  0.2982002E+04  0.7818609E-02  0.8248889E-01
        2   -1    0    0  501    0  0.00000000000E+00  0.00000000000E+00  0.14976416216E+04  0.14976416216E+04  0.25500000920E-02 0.  1.
       -2   -1    0    0    0  501  0.00000000000E+00  0.00000000000E+00 -0.14843895919E+04  0.14843895919E+04  0.25500000920E-02 0. -1.
    10030    2    1    2    0    0  0.00000000000E+00  0.00000000000E+00  0.13252029707E+02  0.29820312134E+04  0.29820017675E+04 0.  0.
        2    1    3    3  502    0 -0.13210384448E+04  0.42077913737E+03 -0.54191014850E+03  0.14885779335E+04  0.25500000920E-02 0. -1.
       -2    1    3    3    0  502  0.13210384448E+04 -0.42077913737E+03  0.55516217821E+03  0.14934532799E+04  0.25500000920E-02 0.  1.
</event>
<event>
 5   0  0.1091076E-06  0.2992506E+04  0.7818609E-02  0.8245874E-01
        1   -1    0    0  501    0  0.00000000000E+00  0.00000000000E+00  0.16023789993E+04  0.16023789993E+04  0.50400001928E-02 0. -1.
       -1   -1    0    0    0  501  0.00000000000E+00  0.00000000000E+00 -0.13971555648E+04  0.13971555648E+04  0.50400001928E-02 0.  1.
    10030    2    1    2    0    0  0.00000000000E+00  0.00000000000E+00  0.20522343458E+03  0.29995345641E+04  0.29925057967E+04 0.  0.
        3    1    3    3  502    0  0.54474497689E+03  0.13775769340E+04  0.31359941521E+03  0.15142027283E+04  0.10100000352E+00 0. -1.
       -3    1    3    3    0  502 -0.54474497689E+03 -0.13775769340E+04 -0.10837598062E+03  0.14853318358E+04  0.10100000352E+00 0.  1.
</event>
<event>
 5   0  0.1091075E-06  0.2976031E+04  0.7818609E-02  0.8250609E-01
       -1   -1    0    0    0  501  0.00000000000E+00  0.00000000000E+00  0.10082112361E+04  0.10082112361E+04  0.50400001928E-02 0.  1.
        1   -1    0    0  501    0  0.00000000000E+00  0.00000000000E+00 -0.21961570587E+04  0.21961570587E+04  0.50400001928E-02 0. -1.
    10030    2    1    2    0    0  0.00000000000E+00  0.00000000000E+00 -0.11879458226E+04  0.32043682948E+04  0.29760310636E+04 0.  0.
        1    1    3    3  502    0  0.84936271431E+03 -0.85871700427E+03 -0.15297819182E+04  0.19491138066E+04  0.50400001928E-02 0. -1.
       -1    1    3    3    0  502 -0.84936271431E+03  0.85871700427E+03  0.34183609559E+03  0.12552544882E+04  0.50400001928E-02 0.  1.
</event>
<event>
 5   0  0.3113328E-06  0.3094834E+04  0.7818609E-02  0.8217157E-01
       -2   -1    0    0    0  501  0.00000000000E+00  0.00000000000E+00  0.11155446881E+04  0.11155446881E+04  0.25500000920E-02 0.  1.
        2   -1    0    0  501    0  0.00000000000E+00  0.00000000000E+00 -0.21464846798E+04  0.21464846798E+04  0.25500000920E-02 0. -1.
    10030    2    1    2    0    0  0.00000000000E+00  0.00000000000E+00 -0.10309399917E+04  0.32620293679E+04  0.30948341362E+04 0.  0.
        1    1    3    3  502    0  0.19923509562E+03 -0.97904576452E+02 -0.21296139011E+04  0.21411527963E+04  0.50400001928E-02 0. -1.
       -1    1    3    3    0  502 -0.19923509562E+03  0.97904576452E+02  0.10986739094E+04  0.11208765716E+04  0.50400001928E-02 0.  1.
</event>
<event>
 5   0  0.2948711E-06  0.3007567E+04  0.7818609E-02  0.8241573E-01
       -2   -1    0    0    0  501  0.00000000000E+00  0.00000000000E+00  0.16849133891E+04  0.16849133891E+04  0.25500000920E-02 0.  1.
        2   -1    0    0  501    0  0.00000000000E+00  0.00000000000E+00 -0.13421249710E+04  0.13421249710E+04  0.25500000920E-02 0. -1.
    10030    2    1    2    0    0  0.00000000000E+00  0.00000000000E+00  0.34278841807E+03  0.30270383601E+04  0.30075666799E+04 0.  0.
        5    1    3    3  502    0  0.13175539124E+04  0.48190778110E+03 -0.37355263734E+03  0.14518082120E+04  0.46999998093E+01 0. -1.
       -5    1    3    3    0  502 -0.13175539124E+04 -0.48190778110E+03  0.71634105541E+03  0.15752301480E+04  0.46999998093E+01 0.  1.
</event>
<event>
 5   0  0.1054384E-06  0.3004539E+04  0.7818609E-02  0.8242436E-01
        1   -1    0    0  501    0  0.00000000000E+00  0.00000000000E+00  0.17826401743E+04  0.17826401743E+04  0.50400001928E-02 0.  1.
       -1   -1    0    0    0  501  0.00000000000E+00  0.00000000000E+00 -0.12659947466E+04  0.12659947466E+04  0.50400001928E-02 0. -1.
    10030    2    1    2    0    0  0.00000000000E+00  0.00000000000E+00  0.51664542774E+03  0.30486349209E+04  0.30045386306E+04 0.  0.
        2    1    3    3  502    0 -0.11231939492E+04 -0.48568180747E+03  0.11425256487E+04  0.16741613792E+04  0.25500000920E-02 0.  1.
       -2    1    3    3    0  502  0.11231939492E+04  0.48568180747E+03 -0.62588022099E+03  0.13744735417E+04  0.25500000920E-02 0. -1.
</event>
<event>
 5   0  0.1054384E-06  0.3028392E+04  0.7818609E-02  0.8235669E-01
        1   -1    0    0  501    0  0.00000000000E+00  0.00000000000E+00  0.22338286381E+04  0.22338286381E+04  0.50400001928E-02 0. -1.
       -1   -1    0    0    0  501  0.00000000000E+00  0.00000000000E+00 -0.10263947696E+04  0.10263947696E+04  0.50400001928E-02 0.  1.
    10030    2    1    2    0    0  0.00000000000E+00  0.00000000000E+00  0.12074338685E+04  0.32602234078E+04  0.30283923329E+04 0.  0.
        2    1    3    3  502    0 -0.77236587312E+03 -0.49903624148E+03 -0.69137343280E+03  0.11504709626E+04  0.25500000920E-02 0.  1.
       -2    1    3    3    0  502  0.77236587312E+03  0.49903624148E+03  0.18988073013E+04  0.21097524452E+04  0.25500000920E-02 0. -1.
</event>
<event>
 5   0  0.1091076E-06  0.3000700E+04  0.7818609E-02  0.8243531E-01
       -1   -1    0    0    0  501  0.00000000000E+00  0.00000000000E+00  0.16439934730E+04  0.16439934730E+04  0.50400001928E-02 0. -1.
        1   -1    0    0  501    0  0.00000000000E+00  0.00000000000E+00 -0.13692571429E+04  0.13692571429E+04  0.50400001928E-02 0.  1.
    10030    2    1    2    0    0  0.00000000000E+00  0.00000000000E+00  0.27473633007E+03  0.30132506159E+04  0.30006997889E+04 0.  0.
        3    1    3    3  502    0  0.77002577823E+03  0.81802649456E+03  0.11359836173E+04  0.15976751340E+04  0.10100000352E+00 0. -1.
       -3    1    3    3    0  502 -0.77002577823E+03 -0.81802649456E+03 -0.86124728721E+03  0.14155754819E+04  0.10100000352E+00 0.  1.
</event>
<event>
 5   0  0.2985941E-06  0.2989048E+04  0.7818609E-02  0.8246865E-01
       -2   -1    0    0    0  501  0.00000000000E+00  0.00000000000E+00  0.97070276209E+03  0.97070276210E+03  0.25500000920E-02 0. -1.
        2   -1    0    0  501    0  0.00000000000E+00  0.00000000000E+00 -0.23010148004E+04  0.23010148004E+04  0.25500000920E-02 0.  1.
    10030    2    1    2    0    0  0.00000000000E+00  0.00000000000E+00 -0.13303120383E+04  0.32717175625E+04  0.29890476225E+04 0.  0.
        3    1    3    3  502    0  0.90443858985E+03  0.11191675191E+04 -0.22316669385E+03  0.14561416422E+04  0.10100000352E+00 0.  1.
       -3    1    3    3    0  502 -0.90443858985E+03 -0.11191675191E+04 -0.11071453444E+04  0.18155759203E+04  0.10100000352E+00 0. -1.
</event>
<event>
 5   0  0.1113245E-06  0.3084510E+04  0.7818609E-02  0.8220002E-01
       -1   -1    0    0    0  501  0.00000000000E+00  0.00000000000E+00  0.15846084202E+04  0.15846084202E+04  0.50400001928E-02 0. -1.
        1   -1    0    0  501    0  0.00000000000E+00  0.00000000000E+00 -0.15010340612E+04  0.15010340612E+04  0.50400001928E-02 0.  1.
    10030    2    1    2    0    0  0.00000000000E+00  0.00000000000E+00  0.83574359020E+02  0.30856424814E+04  0.30845104716E+04 0.  0.
        5    1    3    3  502    0 -0.47440975652E+03 -0.64762539283E+03 -0.12755278446E+04  0.15071418775E+04  0.46999998093E+01 0.  1.
       -5    1    3    3    0  502  0.47440975652E+03  0.64762539283E+03  0.13591022037E+04  0.15785006039E+04  0.46999998093E+01 0. -1.
</event>
<event>
 5   0  0.1054384E-06  0.2959471E+04  0.7818609E-02  0.8255400E-01
       -1   -1    0    0    0  501  0.00000000000E+00  0.00000000000E+00  0.16804454380E+04  0.16804454380E+04  0.50400001928E-02 0.  1.
        1   -1    0    0  501    0  0.00000000000E+00  0.00000000000E+00 -0.13029979330E+04  0.13029979330E+04  0.50400001928E-02 0. -1.
    10030    2    1    2    0    0  0.00000000000E+00  0.00000000000E+00  0.37744750504E+03  0.29834433710E+04  0.29594708529E+04 0.  0.
        2    1    3    3  502    0  0.27035786458E+02  0.21323228592E+03  0.16646245507E+04  0.16784438735E+04  0.25500000920E-02 0.  1.
       -2    1    3    3    0  502 -0.27035786458E+02 -0.21323228592E+03 -0.12871770457E+04  0.13049994975E+04  0.25500000920E-02 0. -1.
</event>
<event>
 5   0  0.2985941E-06  0.3000510E+04  0.7818609E-02  0.8243585E-01
        2   -1    0    0  501    0  0.00000000000E+00  0.00000000000E+00  0.17563530618E+04  0.17563530618E+04  0.25500000920E-02 0.  1.
       -2   -1    0    0    0  501  0.00000000000E+00  0.00000000000E+00 -0.12814990184E+04  0.12814990184E+04  0.25500000920E-02 0. -1.
    10030    2    1    2    0    0  0.00000000000E+00  0.00000000000E+00  0.47485404333E+03  0.30378520802E+04  0.30005097731E+04 0.  0.
        3    1    3    3  502    0  0.96252709723E+03  0.16619551044E+03 -0.91546565463E+03  0.13387145833E+04  0.10100000352E+00 0. -1.
       -3    1    3    3    0  502 -0.96252709723E+03 -0.16619551044E+03  0.13903196980E+04  0.16991374969E+04  0.10100000352E+00 0.  1.
</event>
<event>
 5   0  0.2948711E-06  0.3015999E+04  0.7818609E-02  0.8239177E-01
       -2   -1    0    0    0  501  0.00000000000E+00  0.00000000000E+00  0.16370736191E+04  0.16370736191E+04  0.25500000920E-02 0.  1.
        2   -1    0    0  501    0  0.00000000000E+00  0.00000000000E+00 -0.13891024795E+04  0.13891024795E+04  0.25500000920E-02 0. -1.
    10030    2    1    2    0    0  0.00000000000E+00  0.00000000000E+00  0.24797113965E+03  0.30261760986E+04  0.30159993524E+04 0.  0.
        5    1    3    3  502    0 -0.65355759012E+03  0.13585727332E+04  0.89466893451E+02  0.15102595175E+04  0.46999998093E+01 0. -1.
       -5    1    3    3    0  502  0.65355759012E+03 -0.13585727332E+04  0.15850424620E+03  0.15159165812E+04  0.46999998093E+01 0.  1.
</event>
<event>
 5   0  0.2948711E-06  0.2982845E+04  0.7818609E-02  0.8248647E-01
        2   -1    0    0  501    0  0.00000000000E+00  0.00000000000E+00  0.27638668160E+04  0.27638668160E+04  0.25500000920E-02 0. -1.
       -2   -1    0    0    0  501  0.00000000000E+00  0.00000000000E+00 -0.80479332276E+03  0.80479332276E+03  0.25500000920E-02 0.  1.
    10030    2    1    2    0    0  0.00000000000E+00  0.00000000000E+00  0.19590734932E+04  0.35686601387E+04  0.29828453252E+04 0.  0.
        5    1    3    3  502    0  0.10161145410E+04  0.10906386942E+04  0.92168828989E+03  0.17525732268E+04  0.46999998093E+01 0.  1.
       -5    1    3    3    0  502 -0.10161145410E+04 -0.10906386942E+04  0.10373852033E+04  0.18160869119E+04  0.46999998093E+01 0. -1.
</event>
<event>
 5   0  0.2948711E-06  0.3015000E+04  0.7818609E-02  0.8239460E-01
        2   -1    0    0  501    0  0.00000000000E+00  0.00000000000E+00  0.19447796318E+04  0.19447796318E+04  0.25500000920E-02 0. -1.
       -2   -1    0    0    0  501  0.00000000000E+00  0.00000000000E+00 -0.11685418297E+04  0.11685418297E+04  0.25500000920E-02 0.  1.
    10030    2    1    2    0    0  0.00000000000E+00  0.00000000000E+00  0.77623780216E+03  0.31133214615E+04  0.30150000658E+04 0.  0.
        5    1    3    3  502    0  0.11635803763E+04 -0.46880817490E+03 -0.47510530449E+03  0.13414348800E+04  0.46999998093E+01 0.  1.
       -5    1    3    3    0  502 -0.11635803763E+04  0.46880817490E+03  0.12513431066E+04  0.17718865815E+04  0.46999998093E+01 0. -1.
</event>
<event>
 5   0  0.2862033E-06  0.3038709E+04  0.7818609E-02  0.8232763E-01
        2   -1    0    0  501    0  0.00000000000E+00  0.00000000000E+00  0.15119263635E+04  0.15119263635E+04  0.25500000920E-02 0. -1.
       -2   -1    0    0    0  501  0.00000000000E+00  0.00000000000E+00 -0.15268191234E+04  0.15268191234E+04  0.25500000920E-02 0.  1.
    10030    2    1    2    0    0  0.00000000000E+00  0.00000000000E+00 -0.14892759897E+02  0.30387454869E+04  0.30387089923E+04 0.  0.
        2    1    3    3  502    0  0.13988141611E+04 -0.12405076737E+03 -0.58742613333E+03  0.15222151991E+04  0.25500000920E-02 0.  1.
       -2    1    3    3    0  502 -0.13988141611E+04  0.12405076737E+03  0.57253337343E+03  0.15165302878E+04  0.25500000920E-02 0. -1.
</event>
<event>
 5   0  0.2970915E-06  0.2995595E+04  0.7818609E-02  0.8244990E-01
       -2   -1    0    0    0  501  0.00000000000E+00  0.00000000000E+00  0.14056718792E+04  0.14056718792E+04  0.25500000920E-02 0. -1.
        2   -1    0    0  501    0  0.00000000000E+00  0.00000000000E+00 -0.15959611516E+04  0.15959611516E+04  0.25500000920E-02 0.  1.
    10030    2    1    2    0    0  0.00000000000E+00  0.00000000000E+00 -0.19028927243E+03  0.30016330307E+04  0.29955952404E+04 0.  0.
        4    1    3    3  502    0 -0.24786919084E+03  0.37911398693E+03 -0.15256879455E+04  0.15915061642E+04  0.12699999809E+01 0.  1.
       -4    1    3    3    0  502  0.24786919084E+03 -0.37911398693E+03  0.13353986730E+04  0.14101268665E+04  0.12699999809E+01 0. -1.
</event>
<event>
 5   0  0.2985941E-06  0.3003265E+04  0.7818609E-02  0.8242799E-01
        2   -1    0    0  501    0  0.00000000000E+00  0.00000000000E+00  0.23037233834E+04  0.23037233834E+04  0.25500000920E-02 0. -1.
       -2   -1    0    0    0  501  0.00000000000E+00  0.00000000000E+00 -0.97880673534E+03  0.97880673534E+03  0.25500000920E-02 0.  1.
    10030    2    1    2    0    0  0.00000000000E+00  0.00000000000E+00  0.13249166480E+04  0.32825301187E+04  0.30032648661E+04 0.  0.
        3    1    3    3  502    0 -0.37165277650E+03  0.11183907875E+04 -0.35465200753E+03  0.12307322196E+04  0.10100000352E+00 0.  1.
       -3    1    3    3    0  502  0.37165277650E+03 -0.11183907875E+04  0.16795686556E+04  0.20517978991E+04  0.10100000352E+00 0. -1.
</event>
<event>
 5   0  0.2948711E-06  0.2985221E+04  0.7818609E-02  0.8247964E-01
        2   -1    0    0  501    0  0.00000000000E+00  0.00000000000E+00  0.20865196598E+04  0.20865196598E+04  0.25500000920E-02 0.  1.
       -2   -1    0    0    0  501  0.00000000000E+00  0.00000000000E+00 -0.10677520961E+04  0.10677520961E+04  0.25500000920E-02 0. -1.
    10030    2    1    2    0    0  0.00000000000E+00  0.00000000000E+00  0.10187675637E+04  0.31542717559E+04  0.29852207559E+04 0.  0.
        5    1    3    3  502    0 -0.14478186680E+04  0.31221043464E+03  0.31395191523E+03  0.15140152397E+04  0.46999998093E+01 0.  1.
       -5    1    3    3    0  502  0.14478186680E+04 -0.31221043464E+03  0.70481564844E+03  0.16402565163E+04  0.46999998093E+01 0. -1.
</event>
<event>
 5   0  0.2970915E-06  0.2971960E+04  0.7818609E-02  0.8251783E-01
        2   -1    0    0  501    0  0.00000000000E+00  0.00000000000E+00  0.26840325002E+04  0.26840325002E+04  0.25500000920E-02 0.  1.
       -2   -1    0    0    0  501  0.00000000000E+00  0.00000000000E+00 -0.82269381944E+03  0.82269381944E+03  0.25500000920E-02 0. -1.
    10030    2    1    2    0    0  0.00000000000E+00  0.00000000000E+00  0.18613386808E+04  0.35067263197E+04  0.29719602616E+04 0.  0.
        4    1    3    3  502    0  0.77479758690E+03  0.76819846887E+03  0.21210002928E+04  0.23851800861E+04  0.12699999809E+01 0.  1.
       -4    1    3    3    0  502 -0.77479758690E+03 -0.76819846887E+03 -0.25966161205E+03  0.11215462335E+04  0.12699999809E+01 0. -1.
</event>
<event>
 5   0  0.3113328E-06  0.2953151E+04  0.7818609E-02  0.8257237E-01
        2   -1    0    0  501    0  0.00000000000E+00  0.00000000000E+00  0.13519896129E+04  0.13519896129E+04  0.25500000920E-02 0. -1.
       -2   -1    0    0    0  501  0.00000000000E+00  0.00000000000E+00 -0.16126419481E+04  0.16126419481E+04  0.25500000920E-02 0.  1.
    10030    2    1    2    0    0  0.00000000000E+00  0.00000000000E+00 -0.26065233520E+03  0.29646315609E+04  0.29531509701E+04 0.  0.
        1    1    3    3  502    0  0.38063670735E+03  0.40820736968E+03 -0.15026656703E+04  0.16029727622E+04  0.50400001928E-02 0.  1.
       -1    1    3    3    0  502 -0.38063670735E+03 -0.40820736968E+03  0.12420133351E+04  0.13616587987E+04  0.50400001928E-02 0. -1.
</event>
<event>
 5   0  0.1054384E-06  0.2997256E+04  0.7818609E-02  0.8244515E-01
       -1   -1    0    0    0  501  0.00000000000E+00  0.00000000000E+00  0.13974728994E+04  0.13974728994E+04  0.50400001928E-02 0.  1.
        1   -1    0    0  501    0  0.00000000000E+00  0.00000000000E+00 -0.16071047630E+04  0.16071047630E+04  0.50400001928E-02 0. -1.
    10030    2    1    2    0    0  0.00000000000E+00  0.00000000000E+00 -0.20963186360E+03  0.30045776624E+04  0.29972556466E+04 0.  0.
        2    1    3    3  502    0  0.11259355116E+04 -0.73415586256E+03  0.55950181462E+03  0.14559388337E+04  0.25500000920E-02 0.  1.
       -2    1    3    3    0  502 -0.11259355116E+04  0.73415586256E+03 -0.76913367822E+03  0.15486388287E+04  0.25500000920E-02 0. -1.
</event>
<event>
 5   0  0.2985941E-06  0.2982442E+04  0.7818609E-02  0.8248762E-01
       -2   -1    0    0    0  501  0.00000000000E+00  0.00000000000E+00  0.99347711508E+03  0.99347711508E+03  0.25500000920E-02 0.  1.
        2   -1    0    0  501    0  0.00000000000E+00  0.00000000000E+00 -0.22383412481E+04  0.22383412481E+04  0.25500000920E-02 0. -1.
    10030    2    1    2    0    0  0.00000000000E+00  0.00000000000E+00 -0.12448641330E+04  0.32318183632E+04  0.29824424928E+04 0.  0.
        3    1    3    3  502    0  0.10052352829E+04 -0.62389576628E+03 -0.16060754008E+04  0.19947987629E+04  0.10100000352E+00 0. -1.
       -3    1    3    3    0  502 -0.10052352829E+04  0.62389576628E+03  0.36121126778E+03  0.12370196003E+04  0.10100000352E+00 0.  1.
</event>
<event>
 5   0  0.1097402E-06  0.2977663E+04  0.7818609E-02  0.8250138E-01
        1   -1    0    0  501    0  0.00000000000E+00  0.00000000000E+00  0.21232673776E+04  0.21232673776E+04  0.50400001928E-02 0. -1.
       -1   -1    0    0    0  501  0.00000000000E+00  0.00000000000E+00 -0.10439661080E+04  0.10439661080E+04  0.50400001928E-02 0.  1.
    10030    2    1    2    0    0  0.00000000000E+00  0.00000000000E+00  0.10793012696E+04  0.31672334855E+04  0.29776629630E+04 0.  0.
        4    1    3    3  502    0 -0.20687140329E+02 -0.28381508954E+02  0.21228261274E+04  0.21231170123E+04  0.12699999809E+01 0. -1.
       -4    1    3    3    0  502  0.20687140329E+02  0.28381508954E+02 -0.10435248578E+04  0.10441164732E+04  0.12699999809E+01 0.  1.
</event>
<event>
 5   0  0.1091075E-06  0.2983732E+04  0.7818609E-02  0.8248392E-01
        1   -1    0    0  501    0  0.00000000000E+00  0.00000000000E+00  0.15399359829E+04  0.15399359829E+04  0.50400001928E-02 0.  1.
       -1   -1    0    0    0  501  0.00000000000E+00  0.00000000000E+00 -0.14452964900E+04  0.14452964900E+04  0.50400001928E-02 0. -1.
    10030    2    1    2    0    0  0.00000000000E+00  0.00000000000E+00  0.94639492862E+02  0.29852324729E+04  0.29837319389E+04 0.  0.
        1    1    3    3  502    0 -0.39151890686E+03 -0.53505842402E+03  0.13844384465E+04  0.15350063139E+04  0.50400001928E-02 0.  1.
       -1    1    3    3    0  502  0.39151890686E+03  0.53505842402E+03 -0.12897989536E+04  0.14502261590E+04  0.50400001928E-02 0. -1.
</event>
<event>
 5   0  0.1113245E-06  0.2987376E+04  0.7818609E-02  0.8247345E-01
        1   -1    0    0  501    0  0.00000000000E+00  0.00000000000E+00  0.11749236553E+04  0.11749236553E+04  0.50400001928E-02 0. -1.
       -1   -1    0    0    0  501  0.00000000000E+00  0.00000000000E+00 -0.18989352820E+04  0.18989352820E+04  0.50400001928E-02 0.  1.
    10030    2    1    2    0    0  0.00000000000E+00  0.00000000000E+00 -0.72401162674E+03  0.30738589374E+04  0.29873760947E+04 0.  0.
        5    1    3    3  502    0 -0.21640287761E+02 -0.39566160958E+03  0.11198476646E+04  0.11878961627E+04  0.46999998093E+01 0. -1.
       -5    1    3    3    0  502  0.21640287761E+02  0.39566160958E+03 -0.18438592913E+04  0.18859627747E+04  0.46999998093E+01 0.  1.
</event>
<event>
 5   0  0.2970915E-06  0.2984219E+04  0.7818609E-02  0.8248252E-01
       -2   -1    0    0    0  501  0.00000000000E+00  0.00000000000E+00  0.16375912375E+04  0.16375912375E+04  0.25500000920E-02 0.  1.
        2   -1    0    0  501    0  0.00000000000E+00  0.00000000000E+00 -0.13595524821E+04  0.13595524821E+04  0.25500000920E-02 0. -1.
    10030    2    1    2    0    0  0.00000000000E+00  0.00000000000E+00  0.27803875537E+03  0.29971437196E+04  0.29842193161E+04 0.  0.
        4    1    3    3  502    0  0.14142085501E+04  0.33015694048E+03  0.48314042183E+03  0.15304952495E+04  0.12699999809E+01 0.  1.
       -4    1    3    3    0  502 -0.14142085501E+04 -0.33015694048E+03 -0.20510166646E+03  0.14666484701E+04  0.12699999809E+01 0. -1.
</event>
<event>
 5   0  0.1054384E-06  0.3023741E+04  0.7818609E-02  0.8236984E-01
       -1   -1    0    0    0  501  0.00000000000E+00  0.00000000000E+00  0.16028541944E+04  0.16028541944E+04  0.50400001928E-02 0. -1.
        1   -1    0    0  501    0  0.00000000000E+00  0.00000000000E+00 -0.14260517255E+04  0.14260517255E+04  0.50400001928E-02 0.  1.
    10030    2    1    2    0    0  0.00000000000E+00  0.00000000000E+00  0.17680246889E+03  0.30289059199E+04  0.30237413842E+04 0.  0.
        2    1    3    3  502    0 -0.98544066754E+03  0.98377267647E+03  0.67834771762E+03  0.15488891549E+04  0.25500000920E-02 0. -1.
       -2    1    3    3    0  502  0.98544066754E+03 -0.98377267647E+03 -0.50154524873E+03  0.14800167650E+04  0.25500000920E-02 0.  1.
</event>
<event>
 5   0  0.2862033E-06  0.2979304E+04  0.7818609E-02  0.8249665E-01
       -2   -1    0    0    0  501  0.00000000000E+00  0.00000000000E+00  0.12568980323E+04  0.12568980323E+04  0.25500000920E-02 0. -1.
        2   -1    0    0  501    0  0.00000000000E+00  0.00000000000E+00 -0.17655081241E+04  0.17655081241E+04  0.25500000920E-02 0.  1.
    10030    2    1    2    0    0  0.00000000000E+00  0.00000000000E+00 -0.50861009178E+03  0.30224061565E+04  0.29793044069E+04 0.  0.
        2    1    3    3  502    0 -0.13524024272E+04  0.29255658616E+03  0.30547673864E+03  0.14170030766E+04  0.25500000920E-02 0. -1.
       -2    1    3    3    0  502  0.13524024272E+04 -0.29255658616E+03 -0.81408683042E+03  0.16054030798E+04  0.25500000920E-02 0.  1.
</event>
<event>
 5   0  0.3113328E-06  0.3001012E+04  0.7818609E-02  0.8243442E-01
        2   -1    0    0  501    0  0.00000000000E+00  0.00000000000E+00  0.21670927031E+04  0.21670927031E+04  0.25500000920E-02 0.  1.
       -2   -1    0    0    0  501  0.00000000000E+00  0.00000000000E+00 -0.10389579402E+04  0.10389579402E+04  0.25500000920E-02 0. -1.
    10030    2    1    2    0    0  0.00000000000E+00  0.00000000000E+00  0.11281347629E+04  0.32060506433E+04  0.30010119433E+04 0.  0.
        1    1    3    3  502    0  0.14693940681E+04  0.21791344639E+03  0.33766105496E+03  0.15233581935E+04  0.50400001928E-02 0. -1.
       -1    1    3    3    0  502 -0.14693940681E+04 -0.21791344639E+03  0.79047370789E+03  0.16826924498E+04  0.50400001928E-02 0.  1.
</event>
<event>
 5   0  0.2948711E-06  0.3019670E+04  0.7818609E-02  0.8238136E-01
        2   -1    0    0  501    0  0.00000000000E+00  0.00000000000E+00  0.19164529536E+04  0.19164529536E+04  0.25500000920E-02 0.  1.
       -2   -1    0    0    0  501  0.00000000000E+00  0.00000000000E+00 -0.11894900213E+04  0.11894900213E+04  0.25500000920E-02 0. -1.
    10030    2    1    2    0    0  0.00000000000E+00  0.00000000000E+00  0.72696293225E+03  0.31059429749E+04  0.30196699585E+04 0.  0.
        5    1    3    3  502    0  0.24909097027E+03  0.90585839480E+03  0.15791775734E+04  0.18375118071E+04  0.46999998093E+01 0.  1.
       -5    1    3    3    0  502 -0.24909097027E+03 -0.90585839480E+03 -0.85221464112E+03  0.12684311678E+04  0.46999998093E+01 0. -1.
</event>
<event>
 5   0  0.1054384E-06  0.2991471E+04  0.7818609E-02  0.8246170E-01
       -1   -1    0    0    0  501  0.00000000000E+00  0.00000000000E+00  0.87451380834E+03  0.87451380836E+03  0.50400001928E-02 0.  1.
        1   -1    0    0  501    0  0.00000000000E+00  0.00000000000E+00 -0.25582503486E+04  0.25582503486E+04  0.50400001928E-02 0. -1.
    10030    2    1    2    0    0  0.00000000000E+00  0.00000000000E+00 -0.16837365403E+04  0.34327641570E+04  0.29914713805E+04 0.  0.
        2    1    3    3  502    0  0.14890717246E+04 -0.60901454408E+02 -0.69589587202E+03  0.16447840749E+04  0.25500000920E-02 0. -1.
       -2    1    3    3    0  502 -0.14890717246E+04  0.60901454408E+02 -0.98784066826E+03  0.17879800821E+04  0.25500000920E-02 0.  1.
</event>
<event>
 5   0  0.1097402E-06  0.3011594E+04  0.7818609E-02  0.8240428E-01
        1   -1    0    0  501    0  0.00000000000E+00  0.00000000000E+00  0.17006112492E+04  0.17006112492E+04  0.50400001928E-02 0.  1.
       -1   -1    0    0    0  501  0.00000000000E+00  0.00000000000E+00 -0.13332997379E+04  0.13332997379E+04  0.50400001928E-02 0. -1.
    10030    2    1    2    0    0  0.00000000000E+00  0.00000000000E+00  0.36731151127E+03  0.30339109871E+04  0.30115939519E+04 0.  0.
        4    1    3    3  502    0 -0.12387786202E+04 -0.37313758036E+03 -0.59252029881E+03  0.14229849055E+04  0.12699999809E+01 0. -1.
       -4    1    3    3    0  502  0.12387786202E+04  0.37313758036E+03  0.95983181008E+03  0.16109260816E+04  0.12699999809E+01 0.  1.
</event>
<event>
 5   0  0.2970915E-06  0.3025457E+04  0.7818609E-02  0.8236499E-01
        2   -1    0    0  501    0  0.00000000000E+00  0.00000000000E+00  0.24970404575E+04  0.24970404575E+04  0.25500000920E-02 0.  1.
       -2   -1    0    0    0  501  0.00000000000E+00  0.00000000000E+00 -0.91642393193E+03  0.91642393194E+03  0.25500000920E-02 0. -1.
    10030    2    1    2    0    0  0.00000000000E+00  0.00000000000E+00  0.15806165255E+04  0.34134643894E+04  0.30254570790E+04 0.  0.
        4    1    3    3  502    0 -0.38031572362E+03 -0.11925068677E+04  0.17487432871E+04  0.21505388572E+04  0.12699999809E+01 0.  1.
       -4    1    3    3    0  502  0.38031572362E+03  0.11925068677E+04 -0.16812676152E+03  0.12629255323E+04  0.12699999809E+01 0. -1.
</event>
<event>
 5   0  0.2985941E-06  0.2991914E+04  0.7818609E-02  0.8246044E-01
        2   -1    0    0  501    0  0.00000000000E+00  0.00000000000E+00  0.13742068945E+04  0.13742068945E+04  0.25500000920E-02 0.  1.
       -2   -1    0    0    0  501  0.00000000000E+00  0.00000000000E+00 -0.16284936919E+04  0.16284936919E+04  0.25500000920E-02 0. -1.
    10030    2    1    2    0    0  0.00000000000E+00  0.00000000000E+00 -0.25428679744E+03  0.30027005864E+04  0.29919139419E+04 0.  0.
        3    1    3    3  502    0 -0.20577291523E+03  0.11866487913E+04 -0.10177034905E+04  0.15767682935E+04  0.10100000352E+00 0. -1.
       -3    1    3    3    0  502  0.20577291523E+03 -0.11866487913E+04  0.76341669301E+03  0.14259322929E+04  0.10100000352E+00 0.  1.
</event>
<event>
 5   0  0.1091075E-06  0.2994236E+04  0.7818609E-02  0.8245379E-01
       -1   -1    0    0    0  501  0.00000000000E+00  0.00000000000E+00  0.11536921863E+04  0.11536921863E+04  0.50400001928E-02 0.  1.
        1   -1    0    0  501    0  0.00000000000E+00  0.00000000000E+00 -0.19427731564E+04  0.19427731564E+04  0.50400001928E-02 0. -1.
    10030    2    1    2    0    0  0.00000000000E+00  0.00000000000E+00 -0.78908097011E+03  0.30964653428E+04  0.29942359362E+04 0.  0.
        1    1    3    3  502    0  0.93995310891E+03  0.11119189612E+04 -0.75498993817E+03  0.16400870191E+04  0.50400001928E-02 0. -1.
       -1    1    3    3    0  502 -0.93995310891E+03 -0.11119189612E+04 -0.34091031934E+02  0.14563783237E+04  0.50400001928E-02 0.  1.
</event>
<event>
 5   0  0.1091076E-06  0.2768929E+04  0.7818609E-02  0.8312980E-01
        1   -1    0    0  501    0  0.00000000000E+00  0.00000000000E+00  0.14877833980E+04  0.14877833980E+04  0.50400001928E-02 0.  1.
       -1   -1    0    0    0  501  0.00000000000E+00  0.00000000000E+00 -0.12883204298E+04  0.12883204298E+04  0.50400001928E-02 0. -1.
    10030    2    1    2    0    0  0.00000000000E+00  0.00000000000E+00  0.19946296819E+03  0.27761038279E+04  0.27689288520E+04 0.  0.
        3    1    3    3  502    0  0.89107853938E+03  0.10383366462E+04 -0.11195013001E+03  0.13728425970E+04  0.10100000352E+00 0.  1.
       -3    1    3    3    0  502 -0.89107853938E+03 -0.10383366462E+04  0.31141309820E+03  0.14032612309E+04  0.10100000352E+00 0. -1.
</event>
<event>
 5   0  0.1054384E-06  0.3020156E+04  0.7818609E-02  0.8237999E-01
        1   -1    0    0  501    0  0.00000000000E+00  0.00000000000E+00  0.12131582708E+04  0.12131582708E+04  0.50400001928E-02 0. -1.
       -1   -1    0    0    0  501  0.00000000000E+00  0.00000000000E+00 -0.18796687339E+04  0.18796687339E+04  0.50400001928E-02 0.  1.
    10030    2    1    2    0    0  0.00000000000E+00  0.00000000000E+00 -0.66651046312E+03  0.30928270047E+04  0.30201560694E+04 0.  0.
        2    1    3    3  502    0 -0.88829214292E+03 -0.47666623505E+03  0.81810291285E+03  0.12982934980E+04  0.25500000920E-02 0. -1.
       -2    1    3    3    0  502  0.88829214292E+03  0.47666623505E+03 -0.14846133760E+04  0.17945335068E+04  0.25500000920E-02 0.  1.
</event>
<event>
 5   0  0.1054384E-06  0.3003683E+04  0.7818609E-02  0.8242680E-01
        1   -1    0    0  501    0  0.00000000000E+00  0.00000000000E+00  0.20842323160E+04  0.20842323160E+04  0.50400001928E-02 0. -1.
       -1   -1    0    0    0  501  0.00000000000E+00  0.00000000000E+00 -0.10821862624E+04  0.10821862624E+04  0.50400001928E-02 0.  1.
    10030    2    1    2    0    0  0.00000000000E+00  0.00000000000E+00  0.10020460536E+04  0.31664185785E+04  0.30036827929E+04 0.  0.
        2    1    3    3  502    0 -0.23863145947E+03  0.81810830932E+03  0.18046638797E+04  0.19957599801E+04  0.25500000920E-02 0. -1.
       -2    1    3    3    0  502  0.23863145947E+03 -0.81810830932E+03 -0.80261782613E+03  0.11706585984E+04  0.25500000920E-02 0.  1.
</event>
<event>
 5   0  0.2948711E-06  0.2996934E+04  0.7818609E-02  0.8244607E-01
       -2   -1    0    0    0  501  0.00000000000E+00  0.00000000000E+00  0.10305433018E+04  0.10305433018E+04  0.25500000920E-02 0. -1.
        2   -1    0    0  501    0  0.00000000000E+00  0.00000000000E+00 -0.21788537572E+04  0.21788537572E+04  0.25500000920E-02 0.  1.
    10030    2    1    2    0    0  0.00000000000E+00  0.00000000000E+00 -0.11483104554E+04  0.32093970590E+04  0.29969338633E+04 0.  0.
        5    1    3    3  502    0 -0.19818382372E+03  0.14850165716E+04 -0.54330291152E+03  0.15936596844E+04  0.46999998093E+01 0. -1.
       -5    1    3    3    0  502  0.19818382372E+03 -0.14850165716E+04 -0.60500754384E+03  0.16157373747E+04  0.46999998093E+01 0.  1.
</event>
<event>
 5   0  0.1113245E-06  0.2989945E+04  0.7818609E-02  0.8246608E-01
       -1   -1    0    0    0  501  0.00000000000E+00  0.00000000000E+00  0.10517056657E+04  0.10517056658E+04  0.50400001928E-02 0. -1.
        1   -1    0    0  501    0  0.00000000000E+00  0.00000000000E+00 -0.21250642102E+04  0.21250642102E+04  0.50400001928E-02 0.  1.
    10030    2    1    2    0    0  0.00000000000E+00  0.00000000000E+00 -0.10733585444E+04  0.31767698760E+04  0.29899445279E+04 0.  0.
        5    1    3    3  502    0 -0.20932623593E+03  0.15035557046E+03  0.10279156212E+04  0.10597437827E+04  0.46999998093E+01 0. -1.
       -5    1    3    3    0  502  0.20932623593E+03 -0.15035557046E+03 -0.21012741656E+04  0.21170260933E+04  0.46999998093E+01 0.  1.
</event>
<event>
 5   0  0.1091076E-06  0.2996384E+04  0.7818609E-02  0.8244764E-01
       -1   -1    0    0    0  501  0.00000000000E+00  0.00000000000E+00  0.19481032186E+04  0.19481032186E+04  0.50400001928E-02 0.  1.
        1   -1    0    0  501    0  0.00000000000E+00  0.00000000000E+00 -0.11521870937E+04  0.11521870937E+04  0.50400001928E-02 0. -1.
    10030    2    1    2    0    0  0.00000000000E+00  0.00000000000E+00  0.79591612488E+03  0.31002903123E+04  0.29963840780E+04 0.  0.
        3    1    3    3  502    0 -0.10437378444E+03 -0.44741632208E+03  0.18734179641E+04  0.19289297889E+04  0.10100000352E+00 0.  1.
       -3    1    3    3    0  502  0.10437378444E+03  0.44741632208E+03 -0.10775018392E+04  0.11713605234E+04  0.10100000352E+00 0. -1.
</event>
<event>
 5   0  0.1113245E-06  0.2996718E+04  0.7818609E-02  0.8244669E-01
        1   -1    0    0  501    0  0.00000000000E+00  0.00000000000E+00  0.22354085621E+04  0.22354085621E+04  0.50400001928E-02 0. -1.
       -1   -1    0    0    0  501  0.00000000000E+00  0.00000000000E+00 -0.10043262223E+04  0.10043262223E+04  0.50400001928E-02 0.  1.
    10030    2    1    2    0    0  0.00000000000E+00  0.00000000000E+00  0.12310823398E+04  0.32397347844E+04  0.29967178288E+04 0.  0.
        5    1    3    3  502    0  0.12037223490E+04 -0.72955230917E+03  0.11708736645E+04  0.18308908470E+04  0.46999998093E+01 0. -1.
       -5    1    3    3    0  502 -0.12037223490E+04  0.72955230917E+03  0.60208675314E+02  0.14088439374E+04  0.46999998093E+01 0.  1.
</event>
<event>
 5   0  0.1091075E-06  0.2999979E+04  0.7818609E-02  0.8243737E-01
       -1   -1    0    0    0  501  0.00000000000E+00  0.00000000000E+00  0.17503272093E+04  0.17503272093E+04  0.50400001928E-02 0. -1.
        1   -1    0    0  501    0  0.00000000000E+00  0.00000000000E+00 -0.12854557222E+04  0.12854557222E+04  0.50400001928E-02 0.  1.
    10030    2    1    2    0    0  0.00000000000E+00  0.00000000000E+00  0.46487148710E+03  0.30357829315E+04  0.29999787512E+04 0.  0.
        1    1    3    3  502    0 -0.68568430876E+03  0.11526955988E+03 -0.11125311061E+04  0.13119357853E+04  0.50400001928E-02 0.  1.
       -1    1    3    3    0  502  0.68568430876E+03 -0.11526955988E+03  0.15774025932E+04  0.17238471463E+04  0.50400001928E-02 0. -1.
</event>
<event>
 5   0  0.2862033E-06  0.2987370E+04  0.7818609E-02  0.8247347E-01
        2   -1    0    0  501    0  0.00000000000E+00  0.00000000000E+00  0.20016143371E+04  0.20016143371E+04  0.25500000920E-02 0.  1.
       -2   -1    0    0    0  501  0.00000000000E+00  0.00000000000E+00 -0.11146479729E+04  0.11146479729E+04  0.25500000920E-02 0. -1.
    10030    2    1    2    0    0  0.00000000000E+00  0.00000000000E+00  0.88696636423E+03  0.31162623101E+04  0.29873703242E+04 0.  0.
        2    1    3    3  502    0 -0.14312253844E+03 -0.57018764573E+03 -0.98889569475E+03  0.11504402233E+04  0.25500000920E-02 0. -1.
       -2    1    3    3    0  502  0.14312253844E+03  0.57018764573E+03  0.18758620590E+04  0.19658220867E+04  0.25500000920E-02 0.  1.
</event>
<event>
 5   0  0.3113328E-06  0.2996014E+04  0.7818609E-02  0.8244870E-01
       -2   -1    0    0    0  501  0.00000000000E+00  0.00000000000E+00  0.12235254151E+04  0.12235254151E+04  0.25500000920E-02 0.  1.
        2   -1    0    0  501    0  0.00000000000E+00  0.00000000000E+00 -0.18340646461E+04  0.18340646461E+04  0.25500000920E-02 0. -1.
    10030    2    1    2    0    0  0.00000000000E+00  0.00000000000E+00 -0.61053923096E+03  0.30575900612E+04  0.29960138233E+04 0.  0.
        1    1    3    3  502    0 -0.46584660806E+03 -0.10169261796E+04  0.71163975616E+03  0.13257386845E+04  0.50400001928E-02 0.  1.
       -1    1    3    3    0  502  0.46584660806E+03  0.10169261796E+04 -0.13221789871E+04  0.17318513767E+04  0.50400001928E-02 0. -1.
</event>
<event>
 5   0  0.9749500E-07  0.3017036E+04  0.7818609E-02  0.8238883E-01
        3   -1    0    0  501    0  0.00000000000E+00  0.00000000000E+00  0.15425121200E+04  0.15425121233E+04  0.10100000352E+00 0.  1.
       -3   -1    0    0    0  501  0.00000000000E+00  0.00000000000E+00 -0.14752732199E+04  0.14752732234E+04  0.10100000352E+00 0. -1.
    10030    2    1    2    0    0  0.00000000000E+00  0.00000000000E+00  0.67238900084E+02  0.30177853467E+04  0.30170361829E+04 0.  0.
        4    1    3    3  502    0 -0.12290982347E+04  0.11094997909E+03 -0.83414012009E+03  0.14895582302E+04  0.12699999809E+01 0. -1.
       -4    1    3    3    0  502  0.12290982347E+04 -0.11094997909E+03  0.90137902017E+03  0.15282271164E+04  0.12699999809E+01 0.  1.
</event>
<event>
 5   0  0.1054384E-06  0.2997838E+04  0.7818609E-02  0.8244348E-01
        1   -1    0    0  501    0  0.00000000000E+00  0.00000000000E+00  0.15920475284E+04  0.15920475284E+04  0.50400001928E-02 0. -1.
       -1   -1    0    0    0  501  0.00000000000E+00  0.00000000000E+00 -0.14112382913E+04  0.14112382913E+04  0.50400001928E-02 0.  1.
    10030    2    1    2    0    0  0.00000000000E+00  0.00000000000E+00  0.18080923712E+03  0.30032858197E+04  0.29978381769E+04 0.  0.
        2    1    3    3  502    0  0.96975007667E+02  0.14046579869E+04 -0.42462123083E+03  0.14706363935E+04  0.25500000920E-02 0. -1.
       -2    1    3    3    0  502 -0.96975007667E+02 -0.14046579869E+04  0.60543046794E+03  0.15326494262E+04  0.25500000920E-02 0.  1.
</event>
<event>
 5   0  0.1091076E-06  0.2994844E+04  0.7818609E-02  0.8245205E-01
        1   -1    0    0  501    0  0.00000000000E+00  0.00000000000E+00  0.17075703556E+04  0.17075703556E+04  0.50400001928E-02 0. -1.
       -1   -1    0    0    0  501  0.00000000000E+00  0.00000000000E+00 -0.13131366903E+04  0.13131366904E+04  0.50400001928E-02 0.  1.
    10030    2    1    2    0    0  0.00000000000E+00  0.00000000000E+00  0.39443366529E+03  0.30207070460E+04  0.29948444269E+04 0.  0.
        3    1    3    3  502    0 -0.45589770348E+03  0.78560051755E+03  0.13979858460E+04  0.16671458620E+04  0.10100000352E+00 0. -1.
       -3    1    3    3    0  502  0.45589770348E+03 -0.78560051755E+03 -0.10035521807E+04  0.13535611840E+04  0.10100000352E+00 0.  1.
</event>
<event>
 5   0  0.2862033E-06  0.3078255E+04  0.7818609E-02  0.8221731E-01
       -2   -1    0    0    0  501  0.00000000000E+00  0.00000000000E+00  0.97240800727E+03  0.97240800727E+03  0.25500000920E-02 0. -1.
        2   -1    0    0  501    0  0.00000000000E+00  0.00000000000E+00 -0.24361315594E+04  0.24361315594E+04  0.25500000920E-02 0.  1.
    10030    2    1    2    0    0  0.00000000000E+00  0.00000000000E+00 -0.14637235521E+04  0.34085395667E+04  0.30782552429E+04 0.  0.
        2    1    3    3  502    0 -0.84921783048E+03  0.47973431463E+03 -0.20502406716E+04  0.22704190688E+04  0.25500000920E-02 0.  1.
       -2    1    3    3    0  502  0.84921783048E+03 -0.47973431463E+03  0.58651711951E+03  0.11381204979E+04  0.25500000920E-02 0. -1.
</event>
<event>
 5   0  0.3113328E-06  0.2982672E+04  0.7818609E-02  0.8248696E-01
        2   -1    0    0  501    0  0.00000000000E+00  0.00000000000E+00  0.19019540829E+04  0.19019540829E+04  0.25500000920E-02 0. -1.
       -2   -1    0    0    0  501  0.00000000000E+00  0.00000000000E+00 -0.11693677130E+04  0.11693677130E+04  0.25500000920E-02 0.  1.
    10030    2    1    2    0    0  0.00000000000E+00  0.00000000000E+00  0.73258636990E+03  0.30713217959E+04  0.29826724233E+04 0.  0.
        1    1    3    3  502    0 -0.63345347231E+03  0.24790719732E+03  0.17329017096E+04  0.18616309020E+04  0.50400001928E-02 0. -1.
       -1    1    3    3    0  502  0.63345347231E+03 -0.24790719732E+03 -0.10003153397E+04  0.12096908939E+04  0.50400001928E-02 0.  1.
</event>
<event>
 5   0  0.1091075E-06  0.3008745E+04  0.7818609E-02  0.8241238E-01
        1   -1    0    0  501    0  0.00000000000E+00  0.00000000000E+00  0.11088572088E+04  0.11088572088E+04  0.50400001928E-02 0.  1.
       -1   -1    0    0    0  501  0.00000000000E+00  0.00000000000E+00 -0.20409629417E+04  0.20409629417E+04  0.50400001928E-02 0. -1.
    10030    2    1    2    0    0  0.00000000000E+00  0.00000000000E+00 -0.93210573294E+03  0.31498201505E+04  0.30087449017E+04 0.  0.
        1    1    3    3  502    0 -0.69911047958E+03  0.66313899215E+03  0.74337634625E+03  0.12170115767E+04  0.50400001928E-02 0.  1.
       -1    1    3    3    0  502  0.69911047958E+03 -0.66313899215E+03 -0.16754820792E+04  0.19328085739E+04  0.50400001928E-02 0. -1.
</event>
<event>
 5   0  0.2862033E-06  0.3005645E+04  0.7818609E-02  0.8242121E-01
        2   -1    0    0  501    0  0.00000000000E+00  0.00000000000E+00  0.11952237726E+04  0.11952237726E+04  0.25500000920E-02 0.  1.
       -2   -1    0    0    0  501  0.00000000000E+00  0.00000000000E+00 -0.18895835765E+04  0.18895835765E+04  0.25500000920E-02 0. -1.
    10030    2    1    2    0    0  0.00000000000E+00  0.00000000000E+00 -0.69435980388E+03  0.30848073491E+04  0.30056448299E+04 0.  0.
        2    1    3    3  502    0  0.13567540858E+04 -0.38523362383E+03 -0.87977772242E+03  0.16622862073E+04  0.25500000920E-02 0. -1.
       -2    1    3    3    0  502 -0.13567540858E+04  0.38523362383E+03  0.18541791854E+03  0.14225211418E+04  0.25500000920E-02 0.  1.
</event>
<event>
 5   0  0.1097402E-06  0.3007544E+04  0.7818609E-02  0.8241580E-01
       -1   -1    0    0    0  501  0.00000000000E+00  0.00000000000E+00  0.14124397133E+04  0.14124397133E+04  0.50400001928E-02 0.  1.
        1   -1    0    0  501    0  0.00000000000E+00  0.00000000000E+00 -0.16010095971E+04  0.16010095971E+04  0.50400001928E-02 0. -1.
    10030    2    1    2    0    0  0.00000000000E+00  0.00000000000E+00 -0.18856988384E+03  0.30134493104E+04  0.30075435401E+04 0.  0.
        4    1    3    3  502    0  0.13312633685E+04  0.63632136476E+02  0.60351402428E+03  0.14630591223E+04  0.12699999809E+01 0.  1.
       -4    1    3    3    0  502 -0.13312633685E+04 -0.63632136476E+02 -0.79208390812E+03  0.15503901881E+04  0.12699999809E+01 0. -1.
</event>
<event>
 5   0  0.1091076E-06  0.2972717E+04  0.7818609E-02  0.8251565E-01
       -1   -1    0    0    0  501  0.00000000000E+00  0.00000000000E+00  0.90783578502E+03  0.90783578503E+03  0.50400001928E-02 0.  1.
        1   -1    0    0  501    0  0.00000000000E+00  0.00000000000E+00 -0.24335483614E+04  0.24335483614E+04  0.50400001928E-02 0. -1.
    10030    2    1    2    0    0  0.00000000000E+00  0.00000000000E+00 -0.15257125764E+04  0.33413841465E+04  0.29727174687E+04 0.  0.
        3    1    3    3  502    0  0.10052237334E+03 -0.14692470748E+04 -0.53673450968E+03  0.15674423940E+04  0.10100000352E+00 0. -1.
       -3    1    3    3    0  502 -0.10052237334E+03  0.14692470748E+04 -0.98897806673E+03  0.17739417525E+04  0.10100000352E+00 0.  1.
</event>
<event>
 5   0  0.2948711E-06  0.2845980E+04  0.7818609E-02  0.8289134E-01
        2   -1    0    0  501    0  0.00000000000E+00  0.00000000000E+00  0.72884492489E+03  0.72884492489E+03  0.25500000920E-02 0. -1.
       -2   -1    0    0    0  501  0.00000000000E+00  0.00000000000E+00 -0.27782322470E+04  0.27782322470E+04  0.25500000920E-02 0.  1.
    10030    2    1    2    0    0  0.00000000000E+00  0.00000000000E+00 -0.20493873221E+04  0.35070771719E+04  0.28459799531E+04 0.  0.
        5    1    3    3  502    0  0.80801957915E+03  0.10302823792E+04 -0.17113587394E+04  0.21547965672E+04  0.46999998093E+01 0.  1.
       -5    1    3    3    0  502 -0.80801957915E+03 -0.10302823792E+04 -0.33802858269E+03  0.13522806047E+04  0.46999998093E+01 0. -1.
</event>
<event>
 5   0  0.2862033E-06  0.3008015E+04  0.7818609E-02  0.8241446E-01
       -2   -1    0    0    0  501  0.00000000000E+00  0.00000000000E+00  0.12939133371E+04  0.12939133371E+04  0.25500000920E-02 0. -1.
        2   -1    0    0  501    0  0.00000000000E+00  0.00000000000E+00 -0.17482148749E+04  0.17482148749E+04  0.25500000920E-02 0.  1.
    10030    2    1    2    0    0  0.00000000000E+00  0.00000000000E+00 -0.45430153783E+03  0.30421282120E+04  0.30080149884E+04 0.  0.
        2    1    3    3  502    0  0.18363016247E+03  0.14256507025E+04  0.22040446876E+03  0.14542276617E+04  0.25500000920E-02 0. -1.
       -2    1    3    3    0  502 -0.18363016247E+03 -0.14256507025E+04 -0.67470600659E+03  0.15879005503E+04  0.25500000920E-02 0.  1.
</event>
<event>
 5   0  0.9749500E-07  0.3053893E+04  0.7818609E-02  0.8228507E-01
        3   -1    0    0  501    0  0.00000000000E+00  0.00000000000E+00  0.16861196253E+04  0.16861196284E+04  0.10100000352E+00 0. -1.
       -3   -1    0    0    0  501  0.00000000000E+00  0.00000000000E+00 -0.13828000174E+04  0.13828000210E+04  0.10100000352E+00 0.  1.
    10030    2    1    2    0    0  0.00000000000E+00  0.00000000000E+00  0.30331960798E+03  0.30689196494E+04  0.30538934215E+04 0.  0.
        5    1    3    3  502    0  0.82089428651E+03  0.71165341588E+03  0.12298911791E+04  0.16410278537E+04  0.46999998093E+01 0. -1.
       -5    1    3    3    0  502 -0.82089428651E+03 -0.71165341588E+03 -0.92657157115E+03  0.14278917958E+04  0.46999998093E+01 0.  1.
</event>
<event>
 5   0  0.1113245E-06  0.2974245E+04  0.7818609E-02  0.8251124E-01
        1   -1    0    0  501    0  0.00000000000E+00  0.00000000000E+00  0.12810346026E+04  0.12810346026E+04  0.50400001928E-02 0. -1.
       -1   -1    0    0    0  501  0.00000000000E+00  0.00000000000E+00 -0.17263645201E+04  0.17263645201E+04  0.50400001928E-02 0.  1.
    10030    2    1    2    0    0  0.00000000000E+00  0.00000000000E+00 -0.44532991747E+03  0.30073991227E+04  0.29742445675E+04 0.  0.
        5    1    3    3  502    0  0.90910326330E+03  0.42623358645E+03 -0.13318740013E+04  0.16679491176E+04  0.46999998093E+01 0.  1.
       -5    1    3    3    0  502 -0.90910326330E+03 -0.42623358645E+03  0.88654408381E+03  0.13394500051E+04  0.46999998093E+01 0. -1.
</event>
<event>
 5   0  0.1054384E-06  0.3003654E+04  0.7818609E-02  0.8242688E-01
       -1   -1    0    0    0  501  0.00000000000E+00  0.00000000000E+00  0.96231743646E+03  0.96231743647E+03  0.50400001928E-02 0.  1.
        1   -1    0    0  501    0  0.00000000000E+00  0.00000000000E+00 -0.23438049669E+04  0.23438049669E+04  0.50400001928E-02 0. -1.
    10030    2    1    2    0    0  0.00000000000E+00  0.00000000000E+00 -0.13814875305E+04  0.33061224034E+04  0.30036540329E+04 0.  0.
        2    1    3    3  502    0  0.32485220252E+03  0.10115374414E+04  0.47763138077E+03  0.11648470650E+04  0.25500000920E-02 0.  1.
       -2    1    3    3    0  502 -0.32485220252E+03 -0.10115374414E+04 -0.18591189112E+04  0.21412753384E+04  0.25500000920E-02 0. -1.
</event>
<event>
 5   0  0.1091075E-06  0.2978030E+04  0.7818609E-02  0.8250032E-01
        1   -1    0    0  501    0  0.00000000000E+00  0.00000000000E+00  0.17160052138E+04  0.17160052138E+04  0.50400001928E-02 0. -1.
       -1   -1    0    0    0  501  0.00000000000E+00  0.00000000000E+00 -0.12920509269E+04  0.12920509269E+04  0.50400001928E-02 0.  1.
    10030    2    1    2    0    0  0.00000000000E+00  0.00000000000E+00  0.42395428690E+03  0.30080561407E+04  0.29780303068E+04 0.  0.
        1    1    3    3  502    0  0.85124975626E+03 -0.31423024050E+03 -0.98051891109E+03  0.13359581306E+04  0.50400001928E-02 0.  1.
       -1    1    3    3    0  502 -0.85124975626E+03  0.31423024050E+03  0.14044731980E+04  0.16720980101E+04  0.50400001928E-02 0. -1.
</event>
<event>
 5   0  0.2862033E-06  0.3028273E+04  0.7818609E-02  0.8235703E-01
        2   -1    0    0  501    0  0.00000000000E+00  0.00000000000E+00  0.16469514033E+04  0.16469514033E+04  0.25500000920E-02 0. -1.
       -2   -1    0    0    0  501  0.00000000000E+00  0.00000000000E+00 -0.13920317932E+04  0.13920317932E+04  0.25500000920E-02 0.  1.
    10030    2    1    2    0    0  0.00000000000E+00  0.00000000000E+00  0.25491961011E+03  0.30389831964E+04  0.30282725869E+04 0.  0.
        2    1    3    3  502    0 -0.98053497059E+03  0.11202249934E+04  0.40458111223E+03  0.15427374179E+04  0.25500000920E-02 0.  1.
       -2    1    3    3    0  502  0.98053497059E+03 -0.11202249934E+04 -0.14966150212E+03  0.14962457785E+04  0.25500000920E-02 0. -1.
</event>
<event>
 5   0  0.1091075E-06  0.2985197E+04  0.7818609E-02  0.8247971E-01
        1   -1    0    0  501    0  0.00000000000E+00  0.00000000000E+00  0.17102465223E+04  0.17102465223E+04  0.50400001928E-02 0.  1.
       -1   -1    0    0    0  501  0.00000000000E+00  0.00000000000E+00 -0.13026488112E+04  0.13026488112E+04  0.50400001928E-02 0. -1.
    10030    2    1    2    0    0  0.00000000000E+00  0.00000000000E+00  0.40759771110E+03  0.30128953335E+04  0.29851972123E+04 0.  0.
        1    1    3    3  502    0 -0.64636599820E+03  0.43290817615E+03  0.14894517334E+04  0.16803764337E+04  0.50400001928E-02 0.  1.
       -1    1    3    3    0  502  0.64636599820E+03 -0.43290817615E+03 -0.10818540223E+04  0.13325188998E+04  0.50400001928E-02 0. -1.
</event>
<event>
 5   0  0.2948711E-06  0.3025342E+04  0.7818609E-02  0.8236531E-01
        2   -1    0    0  501    0  0.00000000000E+00  0.00000000000E+00  0.26037541037E+04  0.26037541037E+04  0.25500000920E-02 0.  1.
       -2   -1    0    0    0  501  0.00000000000E+00  0.00000000000E+00 -0.87879804262E+03  0.87879804262E+03  0.25500000920E-02 0. -1.
    10030    2    1    2    0    0  0.00000000000E+00  0.00000000000E+00  0.17249560611E+04  0.34825521463E+04  0.30253423012E+04 0.  0.
        5    1    3    3  502    0 -0.14466479001E+04  0.40577557066E+03  0.66075820451E+03  0.16413614640E+04  0.46999998093E+01 0. -1.
       -5    1    3    3    0  502  0.14466479001E+04 -0.40577557066E+03  0.10641978566E+04  0.18411906823E+04  0.46999998093E+01 0.  1.
</event>
<event>
 5   0  0.1091076E-06  0.2989632E+04  0.7818609E-02  0.8246698E-01
        1   -1    0    0  501    0  0.00000000000E+00  0.00000000000E+00  0.19539084002E+04  0.19539084002E+04  0.50400001928E-02 0. -1.
       -1   -1    0    0    0  501  0.00000000000E+00  0.00000000000E+00 -0.11435921379E+04  0.11435921379E+04  0.50400001928E-02 0.  1.
    10030    2    1    2    0    0  0.00000000000E+00  0.00000000000E+00  0.81031626225E+03  0.30975005381E+04  0.29896316058E+04 0.  0.
        3    1    3    3  502    0 -0.12245692821E+04  0.58860493304E+03 -0.24058602388E+03  0.13798214880E+04  0.10100000352E+00 0.  1.
       -3    1    3    3    0  502  0.12245692821E+04 -0.58860493304E+03  0.10509022861E+04  0.17176790500E+04  0.10100000352E+00 0. -1.
</event>
<event>
 5   0  0.9749500E-07  0.3017878E+04  0.7818609E-02  0.8238644E-01
        3   -1    0    0  501    0  0.00000000000E+00  0.00000000000E+00  0.24203875518E+04  0.24203875540E+04  0.10100000352E+00 0.  1.
       -3   -1    0    0    0  501  0.00000000000E+00  0.00000000000E+00 -0.94071579227E+03  0.94071579770E+03  0.10100000352E+00 0. -1.
    10030    2    1    2    0    0  0.00000000000E+00  0.00000000000E+00  0.14796717596E+04  0.33611033517E+04  0.30178779340E+04 0.  0.
        3    1    3    3  502    0  0.15100585407E+03  0.57144943841E+01 -0.93226727258E+03  0.94443512278E+03  0.10100000352E+00 0. -1.
       -3    1    3    3    0  502 -0.15100585407E+03 -0.57144943841E+01  0.24119390322E+04  0.24166682289E+04  0.10100000352E+00 0.  1.
</event>
<event>
 5   0  0.1113245E-06  0.3001587E+04  0.7818609E-02  0.8243278E-01
        1   -1    0    0  501    0  0.00000000000E+00  0.00000000000E+00  0.14072253597E+04  0.14072253597E+04  0.50400001928E-02 0. -1.
       -1   -1    0    0    0  501  0.00000000000E+00  0.00000000000E+00 -0.16005827626E+04  0.16005827626E+04  0.50400001928E-02 0.  1.
    10030    2    1    2    0    0  0.00000000000E+00  0.00000000000E+00 -0.19335740291E+03  0.30078081223E+04  0.30015866829E+04 0.  0.
        5    1    3    3  502    0  0.67727733841E+03  0.87371027301E+03 -0.11138117956E+04  0.15692906169E+04  0.46999998093E+01 0.  1.
       -5    1    3    3    0  502 -0.67727733841E+03 -0.87371027301E+03  0.92045439269E+03  0.14385175054E+04  0.46999998093E+01 0. -1.
</event>
<event>
 5   0  0.2862033E-06  0.3004577E+04  0.7818609E-02  0.8242425E-01
       -2   -1    0    0    0  501  0.00000000000E+00  0.00000000000E+00  0.12732136730E+04  0.12732136730E+04  0.25500000920E-02 0.  1.
        2   -1    0    0  501    0  0.00000000000E+00  0.00000000000E+00 -0.17725783540E+04  0.17725783540E+04  0.25500000920E-02 0. -1.
    10030    2    1    2    0    0  0.00000000000E+00  0.00000000000E+00 -0.49936468106E+03  0.30457920270E+04  0.30045771727E+04 0.  0.
        2    1    3    3  502    0  0.21250522986E+03  0.12545717184E+04  0.55987257310E+03  0.13901676041E+04  0.25500000920E-02 0.  1.
       -2    1    3    3    0  502 -0.21250522986E+03 -0.12545717184E+04 -0.10592372542E+04  0.16556244229E+04  0.25500000920E-02 0. -1.
</event>
<event>
 5   0  0.9749500E-07  0.2789346E+04  0.7818609E-02  0.8306584E-01
       -3   -1    0    0    0  501  0.00000000000E+00  0.00000000000E+00  0.13999514744E+04  0.13999514780E+04  0.10100000352E+00 0. -1.
        3   -1    0    0  501    0  0.00000000000E+00  0.00000000000E+00 -0.13894140853E+04  0.13894140890E+04  0.10100000352E+00 0.  1.
    10030    2    1    2    0    0  0.00000000000E+00  0.00000000000E+00  0.10537389063E+02  0.27893655670E+04  0.27893456633E+04 0.  0.
        5    1    3    3  502    0 -0.75654340806E+03 -0.10148540555E+03  0.11725100771E+04  0.13990922724E+04  0.46999998093E+01 0. -1.
       -5    1    3    3    0  502  0.75654340806E+03  0.10148540555E+03 -0.11619726880E+04  0.13902732946E+04  0.46999998093E+01 0.  1.
</event>
<event>
 5   0  0.1091075E-06  0.3015994E+04  0.7818609E-02  0.8239178E-01
        1   -1    0    0  501    0  0.00000000000E+00  0.00000000000E+00  0.18557232456E+04  0.18557232456E+04  0.50400001928E-02 0. -1.
       -1   -1    0    0    0  501  0.00000000000E+00  0.00000000000E+00 -0.12254279380E+04  0.12254279380E+04  0.50400001928E-02 0.  1.
    10030    2    1    2    0    0  0.00000000000E+00  0.00000000000E+00  0.63029530761E+03  0.30811511835E+04  0.30159941049E+04 0.  0.
        1    1    3    3  502    0 -0.42729802466E+02 -0.13918129930E+04  0.90651940518E+03  0.16615494803E+04  0.50400001928E-02 0. -1.
       -1    1    3    3    0  502  0.42729802466E+02  0.13918129930E+04 -0.27622409757E+03  0.14196017032E+04  0.50400001928E-02 0.  1.
</event>
<event>
 5   0  0.2862033E-06  0.3100250E+04  0.7818609E-02  0.8215669E-01
       -2   -1    0    0    0  501  0.00000000000E+00  0.00000000000E+00  0.12155070356E+04  0.12155070356E+04  0.25500000920E-02 0.  1.
        2   -1    0    0  501    0  0.00000000000E+00  0.00000000000E+00 -0.19768597645E+04  0.19768597645E+04  0.25500000920E-02 0. -1.
    10030    2    1    2    0    0  0.00000000000E+00  0.00000000000E+00 -0.76135272896E+03  0.31923668001E+04  0.31002496365E+04 0.  0.
        2    1    3    3  502    0  0.11627391608E+04 -0.33296522236E+03 -0.13790511865E+04  0.18342874285E+04  0.25500000920E-02 0. -1.
       -2    1    3    3    0  502 -0.11627391608E+04  0.33296522236E+03  0.61769845750E+03  0.13580793716E+04  0.25500000920E-02 0.  1.
</event>
<event>
 5   0  0.1054384E-06  0.2841312E+04  0.7818609E-02  0.8290556E-01
        1   -1    0    0  501    0  0.00000000000E+00  0.00000000000E+00  0.25111944309E+04  0.25111944309E+04  0.50400001928E-02 0.  1.
       -1   -1    0    0    0  501  0.00000000000E+00  0.00000000000E+00 -0.80370681480E+03  0.80370681481E+03  0.50400001928E-02 0. -1.
    10030    2    1    2    0    0  0.00000000000E+00  0.00000000000E+00  0.17074876161E+04  0.33149012457E+04  0.28413124273E+04 0.  0.
        2    1    3    3  502    0  0.14206386185E+04  0.66207711156E+01  0.85663907741E+03  0.16589419604E+04  0.25500000920E-02 0. -1.
       -2    1    3    3    0  502 -0.14206386185E+04 -0.66207711156E+01  0.85084853867E+03  0.16559592853E+04  0.25500000920E-02 0.  1.
</event>
<event>
 5   0  0.1054384E-06  0.3005902E+04  0.7818609E-02  0.8242048E-01
        1   -1    0    0  501    0  0.00000000000E+00  0.00000000000E+00  0.15381196140E+04  0.15381196140E+04  0.50400001928E-02 0.  1.
       -1   -1    0    0    0  501  0.00000000000E+00  0.00000000000E+00 -0.14685861562E+04  0.14685861562E+04  0.50400001928E-02 0. -1.
    10030    2    1    2    0    0  0.00000000000E+00  0.00000000000E+00  0.69533457824E+02  0.30067057701E+04  0.30059016428E+04 0.  0.
        2    1    3    3  502    0 -0.24227316758E+03  0.14418585199E+04  0.38301053984E+03  0.15114064155E+04  0.25500000920E-02 0.  1.
       -2    1    3    3    0  502  0.24227316758E+03 -0.14418585199E+04 -0.31347708202E+03  0.14952993547E+04  0.25500000920E-02 0. -1.
</event>
<event>
 5   0  0.1097402E-06  0.2966917E+04  0.7818609E-02  0.8253242E-01
       -1   -1    0    0    0  501  0.00000000000E+00  0.00000000000E+00  0.21437395392E+04  0.21437395393E+04  0.50400001928E-02 0.  1.
        1   -1    0    0  501    0  0.00000000000E+00  0.00000000000E+00 -0.10265467407E+04  0.10265467407E+04  0.50400001928E-02 0. -1.
    10030    2    1    2    0    0  0.00000000000E+00  0.00000000000E+00  0.11171927986E+04  0.31702862800E+04  0.29669168084E+04 0.  0.
        4    1    3    3  502    0  0.14299268518E+04 -0.38697619326E+03  0.64277344661E+03  0.16148067043E+04  0.12699999809E+01 0.  1.
       -4    1    3    3    0  502 -0.14299268518E+04  0.38697619326E+03  0.47441935195E+03  0.15554795756E+04  0.12699999809E+01 0. -1.
</event>
<event>
 5   0  0.1097402E-06  0.3008690E+04  0.7818609E-02  0.8241254E-01
       -1   -1    0    0    0  501  0.00000000000E+00  0.00000000000E+00  0.13746392142E+04  0.13746392143E+04  0.50400001928E-02 0. -1.
        1   -1    0    0  501    0  0.00000000000E+00  0.00000000000E+00 -0.16462892357E+04  0.16462892357E+04  0.50400001928E-02 0.  1.
    10030    2    1    2    0    0  0.00000000000E+00  0.00000000000E+00 -0.27165002142E+03  0.30209284499E+04  0.30086899085E+04 0.  0.
        4    1    3    3  502    0  0.99109658573E+03  0.77757647644E+02 -0.12694585813E+04  0.16124036084E+04  0.12699999809E+01 0.  1.
       -4    1    3    3    0  502 -0.99109658573E+03 -0.77757647644E+02  0.99780855987E+03  0.14085248415E+04  0.12699999809E+01 0. -1.
</event>
<event>
 5   0  0.1113245E-06  0.3010359E+04  0.7818609E-02  0.8240779E-01
        1   -1    0    0  501    0  0.00000000000E+00  0.00000000000E+00  0.15118557281E+04  0.15118557281E+04  0.50400001928E-02 0. -1.
       -1   -1    0    0    0  501  0.00000000000E+00  0.00000000000E+00 -0.14985323095E+04  0.14985323095E+04  0.50400001928E-02 0.  1.
    10030    2    1    2    0    0  0.00000000000E+00  0.00000000000E+00  0.13323418648E+02  0.30103880376E+04  0.30103585540E+04 0.  0.
        5    1    3    3  502    0 -0.14796861087E+03  0.11333940524E+04 -0.97266692014E+03  0.15008596921E+04  0.46999998093E+01 0.  1.
       -5    1    3    3    0  502  0.14796861087E+03 -0.11333940524E+04  0.98599033879E+03  0.15095283455E+04  0.46999998093E+01 0. -1.
</event>
<event>
 5   0  0.1091076E-06  0.3003384E+04  0.7818609E-02  0.8242765E-01
       -1   -1    0    0    0  501  0.00000000000E+00  0.00000000000E+00  0.78346185725E+03  0.78346185727E+03  0.50400001928E-02 0. -1.
        1   -1    0    0  501    0  0.00000000000E+00  0.00000000000E+00 -0.28783522484E+04  0.28783522484E+04  0.50400001928E-02 0.  1.
    10030    2    1    2    0    0  0.00000000000E+00  0.00000000000E+00 -0.20948903911E+04  0.36618141057E+04  0.30033842234E+04 0.  0.
        3    1    3    3  502    0 -0.46109218109E+03  0.73388376919E+03 -0.25426239473E+04  0.26862851550E+04  0.10100000352E+00 0.  1.
       -3    1    3    3    0  502  0.46109218109E+03 -0.73388376919E+03  0.44773355617E+03  0.97552895070E+03  0.10100000352E+00 0. -1.
</event>
<event>
 5   0  0.2948711E-06  0.3003722E+04  0.7818609E-02  0.8242669E-01
        2   -1    0    0  501    0  0.00000000000E+00  0.00000000000E+00  0.24063587142E+04  0.24063587142E+04  0.25500000920E-02 0.  1.
       -2   -1    0    0    0  501  0.00000000000E+00  0.00000000000E+00 -0.93734392930E+03  0.93734392930E+03  0.25500000920E-02 0. -1.
    10030    2    1    2    0    0  0.00000000000E+00  0.00000000000E+00  0.14690147849E+04  0.33437026435E+04  0.30037215134E+04 0.  0.
        5    1    3    3  502    0 -0.16513249842E+03 -0.13720499785E+03 -0.92016494868E+03  0.94489130393E+03  0.46999998093E+01 0. -1.
       -5    1    3    3    0  502  0.16513249842E+03  0.13720499785E+03  0.23891797336E+04  0.23988113396E+04  0.46999998093E+01 0.  1.
</event>
<event>
 5   0  0.1113245E-06  0.2914627E+04  0.7818609E-02  0.8268539E-01
        1   -1    0    0  501    0  0.00000000000E+00  0.00000000000E+00  0.25170559637E+04  0.25170559637E+04  0.50400001928E-02 0. -1.
       -1   -1    0    0    0  501  0.00000000000E+00  0.00000000000E+00 -0.84374852820E+03  0.84374852821E+03  0.50400001928E-02 0.  1.
    10030    2    1    2    0    0  0.00000000000E+00  0.00000000000E+00  0.16733074355E+04  0.33608044919E+04  0.29146267444E+04 0.  0.
        5    1    3    3  502    0  0.98553610857E+03  0.80208283958E+03  0.13897485389E+02  0.12707610054E+04  0.46999998093E+01 0.  1.
       -5    1    3    3    0  502 -0.98553610857E+03 -0.80208283958E+03  0.16594099501E+04  0.20900434865E+04  0.46999998093E+01 0. -1.
</event>
<event>
 5   0  0.3113328E-06  0.3004624E+04  0.7818609E-02  0.8242412E-01
       -2   -1    0    0    0  501  0.00000000000E+00  0.00000000000E+00  0.11016730540E+04  0.11016730540E+04  0.25500000920E-02 0. -1.
        2   -1    0    0  501    0  0.00000000000E+00  0.00000000000E+00 -0.20486492624E+04  0.20486492624E+04  0.25500000920E-02 0.  1.
    10030    2    1    2    0    0  0.00000000000E+00  0.00000000000E+00 -0.94697620832E+03  0.31503223164E+04  0.30046242291E+04 0.  0.
        1    1    3    3  502    0 -0.12686865217E+04 -0.42559365807E+03  0.24244508292E+03  0.13599540693E+04  0.50400001928E-02 0. -1.
       -1    1    3    3    0  502  0.12686865217E+04  0.42559365807E+03 -0.11894212912E+04  0.17903682471E+04  0.50400001928E-02 0.  1.
</event>
<event>
 5   0  0.1091076E-06  0.2980209E+04  0.7818609E-02  0.8249405E-01
       -1   -1    0    0    0  501  0.00000000000E+00  0.00000000000E+00  0.18207137701E+04  0.18207137701E+04  0.50400001928E-02 0.  1.
        1   -1    0    0  501    0  0.00000000000E+00  0.00000000000E+00 -0.12195277342E+04  0.12195277342E+04  0.50400001928E-02 0. -1.
    10030    2    1    2    0    0  0.00000000000E+00  0.00000000000E+00  0.60118603585E+03  0.30402415043E+04  0.29802086764E+04 0.  0.
        3    1    3    3  502    0  0.12520166368E+04 -0.43655524087E+03  0.99420440073E+03  0.16572774475E+04  0.10100000352E+00 0. -1.
       -3    1    3    3    0  502 -0.12520166368E+04  0.43655524087E+03 -0.39301836489E+03  0.13829640569E+04  0.10100000352E+00 0.  1.
</event>
<event>
 5   0  0.1097402E-06  0.3008373E+04  0.7818609E-02  0.8241344E-01
       -1   -1    0    0    0  501  0.00000000000E+00  0.00000000000E+00  0.98734577499E+03  0.98734577500E+03  0.50400001928E-02 0. -1.
        1   -1    0    0  501    0  0.00000000000E+00  0.00000000000E+00 -0.22915752038E+04  0.22915752038E+04  0.50400001928E-02 0.  1.
    10030    2    1    2    0    0  0.00000000000E+00  0.00000000000E+00 -0.13042294288E+04  0.32789209788E+04  0.30083730457E+04 0.  0.
        4    1    3    3  502    0 -0.33185326270E+03  0.87184237961E+03  0.63397680390E+03  0.11279024442E+04  0.12699999809E+01 0. -1.
       -4    1    3    3    0  502  0.33185326270E+03 -0.87184237961E+03 -0.19382062327E+04  0.21510185346E+04  0.12699999809E+01 0.  1.
</event>
<event>
 5   0  0.3113328E-06  0.3018101E+04  0.7818609E-02  0.8238581E-01
       -2   -1    0    0    0  501  0.00000000000E+00  0.00000000000E+00  0.87618244143E+03  0.87618244143E+03  0.25500000920E-02 0.  1.
        2   -1    0    0  501    0  0.00000000000E+00  0.00000000000E+00 -0.25990393968E+04  0.25990393968E+04  0.25500000920E-02 0. -1.
    10030    2    1    2    0    0  0.00000000000E+00  0.00000000000E+00 -0.17228569554E+04  0.34752218382E+04  0.30181005179E+04 0.  0.
        1    1    3    3  502    0  0.17567667031E+03 -0.11623962042E+04 -0.19508857269E+04  0.22777142813E+04  0.50400001928E-02 0. -1.
       -1    1    3    3    0  502 -0.17567667031E+03  0.11623962042E+04  0.22802877150E+03  0.11975075569E+04  0.50400001928E-02 0.  1.
</event>
<event>
 5   0  0.2985941E-06  0.2980512E+04  0.7818609E-02  0.8249318E-01
        2   -1    0    0  501    0  0.00000000000E+00  0.00000000000E+00  0.17859109328E+04  0.17859109328E+04  0.25500000920E-02 0. -1.
       -2   -1    0    0    0  501  0.00000000000E+00  0.00000000000E+00 -0.12435465509E+04  0.12435465509E+04  0.25500000920E-02 0.  1.
    10030    2    1    2    0    0  0.00000000000E+00  0.00000000000E+00  0.54236438182E+03  0.30294574837E+04  0.29805122920E+04 0.  0.
        3    1    3    3  502    0 -0.12474373143E+04 -0.33676618919E+03 -0.48354229794E+03  0.13796102650E+04  0.10100000352E+00 0.  1.
       -3    1    3    3    0  502  0.12474373143E+04  0.33676618919E+03  0.10259066798E+04  0.16498472187E+04  0.10100000352E+00 0. -1.
</event>
<event>
 5   0  0.3113328E-06  0.3008968E+04  0.7818609E-02  0.8241175E-01
       -2   -1    0    0    0  501  0.00000000000E+00  0.00000000000E+00  0.13696225539E+04  0.13696225539E+04  0.25500000920E-02 0. -1.
        2   -1    0    0  501    0  0.00000000000E+00  0.00000000000E+00 -0.16526245364E+04  0.16526245364E+04  0.25500000920E-02 0.  1.
    10030    2    1    2    0    0  0.00000000000E+00  0.00000000000E+00 -0.28300198258E+03  0.30222470903E+04  0.30089678218E+04 0.  0.
        1    1    3    3  502    0 -0.93251615986E+03  0.54922915236E+03 -0.11912126712E+04  0.16094181179E+04  0.50400001928E-02 0.  1.
       -1    1    3    3    0  502  0.93251615986E+03 -0.54922915236E+03  0.90821068864E+03  0.14128289724E+04  0.50400001928E-02 0. -1.
</event>
<event>
 5   0  0.2985941E-06  0.3000944E+04  0.7818609E-02  0.8243461E-01
        2   -1    0    0  501    0  0.00000000000E+00  0.00000000000E+00  0.20729550669E+04  0.20729550669E+04  0.25500000920E-02 0.  1.
       -2   -1    0    0    0  501  0.00000000000E+00  0.00000000000E+00 -0.10860899356E+04  0.10860899356E+04  0.25500000920E-02 0. -1.
    10030    2    1    2    0    0  0.00000000000E+00  0.00000000000E+00  0.98686513135E+03  0.31590450025E+04  0.30009436084E+04 0.  0.
        3    1    3    3  502    0 -0.42147226902E+02 -0.62225864699E+03  0.19300408132E+04  0.20283095827E+04  0.10100000352E+00 0.  1.
       -3    1    3    3    0  502  0.42147226902E+02  0.62225864699E+03 -0.94317568189E+03  0.11307354198E+04  0.10100000352E+00 0. -1.
</event>
<event>
 5   0  0.2862033E-06  0.3003174E+04  0.7818609E-02  0.8242825E-01
        2   -1    0    0  501    0  0.00000000000E+00  0.00000000000E+00  0.22667638439E+04  0.22667638439E+04  0.25500000920E-02 0.  1.
       -2   -1    0    0    0  501  0.00000000000E+00  0.00000000000E+00 -0.99470623541E+03  0.99470623541E+03  0.25500000920E-02 0. -1.
    10030    2    1    2    0    0  0.00000000000E+00  0.00000000000E+00  0.12720576085E+04  0.32614700793E+04  0.30031744070E+04 0.  0.
        2    1    3    3  502    0 -0.33141563596E+03 -0.91639883301E+03 -0.60465627218E+03  0.11468358001E+04  0.25500000920E-02 0. -1.
       -2    1    3    3    0  502  0.33141563596E+03  0.91639883301E+03  0.18767138806E+04  0.21146342792E+04  0.25500000920E-02 0.  1.
</event>
<event>
 5   0  0.3113328E-06  0.2966107E+04  0.7818609E-02  0.8253476E-01
       -2   -1    0    0    0  501  0.00000000000E+00  0.00000000000E+00  0.96985682957E+03  0.96985682957E+03  0.25500000920E-02 0.  1.
        2   -1    0    0  501    0  0.00000000000E+00  0.00000000000E+00 -0.22678060347E+04  0.22678060347E+04  0.25500000920E-02 0. -1.
    10030    2    1    2    0    0  0.00000000000E+00  0.00000000000E+00 -0.12979492051E+04  0.32376628643E+04  0.29661066541E+04 0.  0.
        1    1    3    3  502    0 -0.10040301411E+04 -0.83428975016E+02  0.53896931959E+03  0.11425956614E+04  0.50400001928E-02 0.  1.
       -1    1    3    3    0  502  0.10040301411E+04  0.83428975016E+02 -0.18369185247E+04  0.20950672028E+04  0.50400001928E-02 0. -1.
</event>
<event>
 5   0  0.1113245E-06  0.2943349E+04  0.7818609E-02  0.8260095E-01
       -1   -1    0    0    0  501  0.00000000000E+00  0.00000000000E+00  0.11295616013E+04  0.11295616013E+04  0.50400001928E-02 0.  1.
        1   -1    0    0  501    0  0.00000000000E+00  0.00000000000E+00 -0.19174042873E+04  0.19174042873E+04  0.50400001928E-02 0. -1.
    10030    2    1    2    0    0  0.00000000000E+00  0.00000000000E+00 -0.78784268602E+03  0.30469658886E+04  0.29433492875E+04 0.  0.
        5    1    3    3  502    0  0.94182938734E+03  0.12074566983E+03 -0.15578613607E+04  0.18244386043E+04  0.46999998093E+01 0.  1.
       -5    1    3    3    0  502 -0.94182938734E+03 -0.12074566983E+03  0.77001867466E+03  0.12225272843E+04  0.46999998093E+01 0. -1.
</event>
<event>
 5   0  0.1113245E-06  0.3000519E+04  0.7818609E-02  0.8243583E-01
        1   -1    0    0  501    0  0.00000000000E+00  0.00000000000E+00  0.15911279784E+04  0.15911279784E+04  0.50400001928E-02 0.  1.
       -1   -1    0    0    0  501  0.00000000000E+00  0.00000000000E+00 -0.14145803856E+04  0.14145803856E+04  0.50400001928E-02 0. -1.
    10030    2    1    2    0    0  0.00000000000E+00  0.00000000000E+00  0.17654759274E+03  0.30057083640E+04  0.30005189080E+04 0.  0.
        5    1    3    3  502    0 -0.67891381372E+03 -0.80937734435E+03 -0.97881063978E+03  0.14401763818E+04  0.46999998093E+01 0. -1.
       -5    1    3    3    0  502  0.67891381372E+03  0.80937734435E+03  0.11553582325E+04  0.15655319823E+04  0.46999998093E+01 0.  1.
</event>
<event>
 5   0  0.2862033E-06  0.3013210E+04  0.7818609E-02  0.8239969E-01
       -2   -1    0    0    0  501  0.00000000000E+00  0.00000000000E+00  0.20528055926E+04  0.20528055926E+04  0.25500000920E-02 0. -1.
        2   -1    0    0  501    0  0.00000000000E+00  0.00000000000E+00 -0.11057348616E+04  0.11057348616E+04  0.25500000920E-02 0.  1.
    10030    2    1    2    0    0  0.00000000000E+00  0.00000000000E+00  0.94707073104E+03  0.31585404542E+04  0.30132100543E+04 0.  0.
        2    1    3    3  502    0 -0.11492513146E+03  0.98652240753E+03 -0.71398807798E+03  0.12231979488E+04  0.25500000920E-02 0.  1.
       -2    1    3    3    0  502  0.11492513146E+03 -0.98652240753E+03  0.16610588090E+04  0.19353425055E+04  0.25500000920E-02 0. -1.
</event>
<event>
 5   0  0.1091076E-06  0.2993242E+04  0.7818609E-02  0.8245663E-01
       -1   -1    0    0    0  501  0.00000000000E+00  0.00000000000E+00  0.13453602707E+04  0.13453602707E+04  0.50400001928E-02 0.  1.
        1   -1    0    0  501    0  0.00000000000E+00  0.00000000000E+00 -0.16648886263E+04  0.16648886263E+04  0.50400001928E-02 0. -1.
    10030    2    1    2    0    0  0.00000000000E+00  0.00000000000E+00 -0.31952835564E+03  0.30102488970E+04  0.29932423978E+04 0.  0.
        3    1    3    3  502    0 -0.14554105799E+04  0.21248084057E+02  0.19035686728E+03  0.14679602120E+04  0.10100000352E+00 0.  1.
       -3    1    3    3    0  502  0.14554105799E+04 -0.21248084057E+02 -0.50988522292E+03  0.15422886850E+04  0.10100000352E+00 0. -1.
</event>
<event>
 5   0  0.1113245E-06  0.2993195E+04  0.7818609E-02  0.8245677E-01
       -1   -1    0    0    0  501  0.00000000000E+00  0.00000000000E+00  0.83253132419E+03  0.83253132421E+03  0.50400001928E-02 0. -1.
        1   -1    0    0  501    0  0.00000000000E+00  0.00000000000E+00 -0.26903549756E+04  0.26903549756E+04  0.50400001928E-02 0.  1.
    10030    2    1    2    0    0  0.00000000000E+00  0.00000000000E+00 -0.18578236514E+04  0.35228862998E+04  0.29931954767E+04 0.  0.
        5    1    3    3  502    0 -0.27988458932E+02 -0.64073268914E+03 -0.25204109110E+04  0.26007335471E+04  0.46999998093E+01 0.  1.
       -5    1    3    3    0  502  0.27988458932E+02  0.64073268914E+03  0.66258725958E+03  0.92215275271E+03  0.46999998093E+01 0. -1.
</event>
<event>
 5   0  0.9749500E-07  0.2883295E+04  0.7818609E-02  0.8277865E-01
       -4   -1    0    0    0  501  0.00000000000E+00  0.00000000000E+00  0.10580814723E+04  0.10580822345E+04  0.12699999809E+01 0.  1.
        4   -1    0    0  501    0  0.00000000000E+00  0.00000000000E+00 -0.19642587349E+04  0.19642591455E+04  0.12699999809E+01 0. -1.
    10030    2    1    2    0    0  0.00000000000E+00  0.00000000000E+00 -0.90617726260E+03  0.30223413800E+04  0.28832950224E+04 0.  0.
        2    1    3    3  502    0 -0.69734154944E+03  0.89886627360E+03 -0.13812866599E+04  0.17894688181E+04  0.25500000920E-02 0. -1.
       -2    1    3    3    0  502  0.69734154944E+03 -0.89886627360E+03  0.47510939726E+03  0.12328725618E+04  0.25500000920E-02 0.  1.
</event>
<event>
 5   0  0.2985941E-06  0.2999020E+04  0.7818609E-02  0.8244011E-01
       -2   -1    0    0    0  501  0.00000000000E+00  0.00000000000E+00  0.12718797640E+04  0.12718797640E+04  0.25500000920E-02 0.  1.
        2   -1    0    0  501    0  0.00000000000E+00  0.00000000000E+00 -0.17678792881E+04  0.17678792881E+04  0.25500000920E-02 0. -1.
    10030    2    1    2    0    0  0.00000000000E+00  0.00000000000E+00 -0.49599952407E+03  0.30397590521E+04  0.29990197676E+04 0.  0.
        3    1    3    3  502    0 -0.26128246140E+03  0.13942552251E+04 -0.74072442859E+03  0.16002777405E+04  0.10100000352E+00 0. -1.
       -3    1    3    3    0  502  0.26128246140E+03 -0.13942552251E+04  0.24472490451E+03  0.14394813116E+04  0.10100000352E+00 0.  1.
</event>
<event>
 5   0  0.9749500E-07  0.2963593E+04  0.7818609E-02  0.8254204E-01
        3   -1    0    0  501    0  0.00000000000E+00  0.00000000000E+00  0.13509955325E+04  0.13509955363E+04  0.10100000352E+00 0. -1.
       -3   -1    0    0    0  501  0.00000000000E+00  0.00000000000E+00 -0.16252611279E+04  0.16252611310E+04  0.10100000352E+00 0.  1.
    10030    2    1    2    0    0  0.00000000000E+00  0.00000000000E+00 -0.27426559532E+03  0.29762566673E+04  0.29635927745E+04 0.  0.
        2    1    3    3  502    0 -0.10268513089E+04  0.67703803015E+03  0.69278606262E+03  0.14116503226E+04  0.25500000920E-02 0. -1.
       -2    1    3    3    0  502  0.10268513089E+04 -0.67703803015E+03 -0.96705165794E+03  0.15646063447E+04  0.25500000920E-02 0.  1.
</event>
<event>
 5   0  0.2862033E-06  0.3017369E+04  0.7818609E-02  0.8238789E-01
       -2   -1    0    0    0  501  0.00000000000E+00  0.00000000000E+00  0.16063100203E+04  0.16063100203E+04  0.25500000920E-02 0. -1.
        2   -1    0    0  501    0  0.00000000000E+00  0.00000000000E+00 -0.14169918457E+04  0.14169918457E+04  0.25500000920E-02 0.  1.
    10030    2    1    2    0    0  0.00000000000E+00  0.00000000000E+00  0.18931817467E+03  0.30233018660E+04  0.30173685227E+04 0.  0.
        2    1    3    3  502    0  0.11929650238E+04  0.28179539356E+03 -0.78658958801E+03  0.14564674290E+04  0.25500000920E-02 0.  1.
       -2    1    3    3    0  502 -0.11929650238E+04 -0.28179539356E+03  0.97590776268E+03  0.15668344370E+04  0.25500000920E-02 0. -1.
</event>
<event>
 5   0  0.1091075E-06  0.3065316E+04  0.7818609E-02  0.8225322E-01
       -1   -1    0    0    0  501  0.00000000000E+00  0.00000000000E+00  0.97000642869E+03  0.97000642871E+03  0.50400001928E-02 0.  1.
        1   -1    0    0  501    0  0.00000000000E+00  0.00000000000E+00 -0.24216748496E+04  0.24216748496E+04  0.50400001928E-02 0. -1.
    10030    2    1    2    0    0  0.00000000000E+00  0.00000000000E+00 -0.14516684209E+04  0.33916812783E+04  0.30653157569E+04 0.  0.
        1    1    3    3  502    0 -0.57179008214E+03 -0.11365213010E+04 -0.16714720423E+04  0.21005816704E+04  0.50400001928E-02 0. -1.
       -1    1    3    3    0  502  0.57179008214E+03  0.11365213010E+04  0.21980362145E+03  0.12910996079E+04  0.50400001928E-02 0.  1.
</event>
<event>
 5   0  0.2985941E-06  0.2997108E+04  0.7818609E-02  0.8244557E-01
       -2   -1    0    0    0  501  0.00000000000E+00  0.00000000000E+00  0.18700833716E+04  0.18700833716E+04  0.25500000920E-02 0.  1.
        2   -1    0    0  501    0  0.00000000000E+00  0.00000000000E+00 -0.12008365064E+04  0.12008365064E+04  0.25500000920E-02 0. -1.
    10030    2    1    2    0    0  0.00000000000E+00  0.00000000000E+00  0.66924686518E+03  0.30709198780E+04  0.29971081947E+04 0.  0.
        3    1    3    3  502    0 -0.12459726581E+04  0.77989940300E+03  0.35942405416E+02  0.14703682567E+04  0.10100000352E+00 0.  1.
       -3    1    3    3    0  502  0.12459726581E+04 -0.77989940300E+03  0.63330445976E+03  0.16005516213E+04  0.10100000352E+00 0. -1.
</event>
<event>
 5   0  0.1054384E-06  0.2992563E+04  0.7818609E-02  0.8245858E-01
        1   -1    0    0  501    0  0.00000000000E+00  0.00000000000E+00  0.15743620770E+04  0.15743620770E+04  0.50400001928E-02 0.  1.
       -1   -1    0    0    0  501  0.00000000000E+00  0.00000000000E+00 -0.14220733773E+04  0.14220733773E+04  0.50400001928E-02 0. -1.
    10030    2    1    2    0    0  0.00000000000E+00  0.00000000000E+00  0.15228869974E+03  0.29964354543E+04  0.29925630459E+04 0.  0.
        2    1    3    3  502    0 -0.81397454576E+03  0.12554812482E+04  0.84561788458E+02  0.14986455290E+04  0.25500000920E-02 0.  1.
       -2    1    3    3    0  502  0.81397454576E+03 -0.12554812482E+04  0.67726911277E+02  0.14977899252E+04  0.25500000920E-02 0. -1.
</event>
<event>
 5   0  0.1091076E-06  0.2996088E+04  0.7818609E-02  0.8244849E-01
        1   -1    0    0  501    0  0.00000000000E+00  0.00000000000E+00  0.18782715019E+04  0.18782715019E+04  0.50400001928E-02 0.  1.
       -1   -1    0    0    0  501  0.00000000000E+00  0.00000000000E+00 -0.11947874447E+04  0.11947874447E+04  0.50400001928E-02 0. -1.
    10030    2    1    2    0    0  0.00000000000E+00  0.00000000000E+00  0.68348405724E+03  0.30730589466E+04  0.29960875876E+04 0.  0.
        3    1    3    3  502    0 -0.12636682241E+03  0.22906864430E+03  0.18546597519E+04  0.18730199741E+04  0.10100000352E+00 0.  1.
       -3    1    3    3    0  502  0.12636682241E+03 -0.22906864430E+03 -0.11711756947E+04  0.12000389725E+04  0.10100000352E+00 0. -1.
</event>
<event>
 5   0  0.1113245E-06  0.2985377E+04  0.7818609E-02  0.8247919E-01
       -1   -1    0    0    0  501  0.00000000000E+00  0.00000000000E+00  0.99088289967E+03  0.99088289968E+03  0.50400001928E-02 0. -1.
        1   -1    0    0  501    0  0.00000000000E+00  0.00000000000E+00 -0.22486197508E+04  0.22486197508E+04  0.50400001928E-02 0.  1.
    10030    2    1    2    0    0  0.00000000000E+00  0.00000000000E+00 -0.12577368512E+04  0.32395026505E+04  0.29853769337E+04 0.  0.
        5    1    3    3  502    0 -0.16984796148E+03  0.85612646892E+03 -0.19428521261E+04  0.21299054755E+04  0.46999998093E+01 0.  1.
       -5    1    3    3    0  502  0.16984796148E+03 -0.85612646892E+03  0.68511527494E+03  0.11095971750E+04  0.46999998093E+01 0. -1.
</event>
<event>
 5   0  0.1054384E-06  0.3000277E+04  0.7818609E-02  0.8243652E-01
       -1   -1    0    0    0  501  0.00000000000E+00  0.00000000000E+00  0.74853218677E+03  0.74853218679E+03  0.50400001928E-02 0.  1.
        1   -1    0    0  501    0  0.00000000000E+00  0.00000000000E+00 -0.30064382226E+04  0.30064382226E+04  0.50400001928E-02 0. -1.
    10030    2    1    2    0    0  0.00000000000E+00  0.00000000000E+00 -0.22579060359E+04  0.37549704094E+04  0.30002771720E+04 0.  0.
        2    1    3    3  502    0 -0.14255325796E+03  0.11486296807E+04  0.65429255050E+02  0.11592896800E+04  0.25500000920E-02 0.  1.
       -2    1    3    3    0  502  0.14255325796E+03 -0.11486296807E+04 -0.23233352909E+04  0.25956807294E+04  0.25500000920E-02 0. -1.
</event>
<event>
 5   0  0.2970915E-06  0.2997676E+04  0.7818609E-02  0.8244395E-01
       -2   -1    0    0    0  501  0.00000000000E+00  0.00000000000E+00  0.13125872527E+04  0.13125872527E+04  0.25500000920E-02 0.  1.
        2   -1    0    0  501    0  0.00000000000E+00  0.00000000000E+00 -0.17115174800E+04  0.17115174800E+04  0.25500000920E-02 0. -1.
    10030    2    1    2    0    0  0.00000000000E+00  0.00000000000E+00 -0.39893022728E+03  0.30241047326E+04  0.29976764515E+04 0.  0.
        4    1    3    3  502    0  0.14291736091E+04 -0.43694532044E+03 -0.84194906102E+02  0.14968462891E+04  0.12699999809E+01 0. -1.
       -4    1    3    3    0  502 -0.14291736091E+04  0.43694532044E+03 -0.31473532118E+03  0.15272584435E+04  0.12699999809E+01 0.  1.
</event>
<event>
 5   0  0.1097402E-06  0.3024769E+04  0.7818609E-02  0.8236693E-01
       -1   -1    0    0    0  501  0.00000000000E+00  0.00000000000E+00  0.15834333119E+04  0.15834333119E+04  0.50400001928E-02 0.  1.
        1   -1    0    0  501    0  0.00000000000E+00  0.00000000000E+00 -0.14445240001E+04  0.14445240001E+04  0.50400001928E-02 0. -1.
    10030    2    1    2    0    0  0.00000000000E+00  0.00000000000E+00  0.13890931183E+03  0.30279573120E+04  0.30247693608E+04 0.  0.
        4    1    3    3  502    0  0.46321960537E+03 -0.97771438989E+02  0.15073438735E+04  0.15799426644E+04  0.12699999809E+01 0.  1.
       -4    1    3    3    0  502 -0.46321960537E+03  0.97771438989E+02 -0.13684345616E+04  0.14480146475E+04  0.12699999809E+01 0. -1.
</event>
<event>
 5   0  0.1113245E-06  0.3042327E+04  0.7818609E-02  0.8231746E-01
        1   -1    0    0  501    0  0.00000000000E+00  0.00000000000E+00  0.13252900475E+04  0.13252900475E+04  0.50400001928E-02 0.  1.
       -1   -1    0    0    0  501  0.00000000000E+00  0.00000000000E+00 -0.17459866340E+04  0.17459866340E+04  0.50400001928E-02 0. -1.
    10030    2    1    2    0    0  0.00000000000E+00  0.00000000000E+00 -0.42069658645E+03  0.30712766815E+04  0.30423272073E+04 0.  0.
        5    1    3    3  502    0  0.12460550543E+04 -0.54118576357E+03  0.48054795862E+03  0.14410009228E+04  0.46999998093E+01 0. -1.
       -5    1    3    3    0  502 -0.12460550543E+04  0.54118576357E+03 -0.90124454507E+03  0.16302757586E+04  0.46999998093E+01 0.  1.
</event>
<event>
 5   0  0.1054384E-06  0.3036169E+04  0.7818609E-02  0.8233477E-01
        1   -1    0    0  501    0  0.00000000000E+00  0.00000000000E+00  0.18739951887E+04  0.18739951887E+04  0.50400001928E-02 0.  1.
       -1   -1    0    0    0  501  0.00000000000E+00  0.00000000000E+00 -0.12297690089E+04  0.12297690089E+04  0.50400001928E-02 0. -1.
    10030    2    1    2    0    0  0.00000000000E+00  0.00000000000E+00  0.64422617980E+03  0.31037641976E+04  0.30361694326E+04 0.  0.
        2    1    3    3  502    0 -0.81326249248E+03  0.22929160587E+03 -0.96715924337E+03  0.12842770434E+04  0.25500000920E-02 0. -1.
       -2    1    3    3    0  502  0.81326249248E+03 -0.22929160587E+03  0.16113854232E+04  0.18194871542E+04  0.25500000920E-02 0.  1.
</event>
<event>
 5   0  0.3113328E-06  0.3013436E+04  0.7818609E-02  0.8239905E-01
        2   -1    0    0  501    0  0.00000000000E+00  0.00000000000E+00  0.15436262313E+04  0.15436262313E+04  0.25500000920E-02 0.  1.
       -2   -1    0    0    0  501  0.00000000000E+00  0.00000000000E+00 -0.14706923704E+04  0.14706923704E+04  0.25500000920E-02 0. -1.
    10030    2    1    2    0    0  0.00000000000E+00  0.00000000000E+00  0.72933860850E+02  0.30143186017E+04  0.30134361259E+04 0.  0.
        1    1    3    3  502    0  0.76622757914E+03 -0.11622346032E+04  0.61309506276E+03  0.15211112819E+04  0.50400001928E-02 0.  1.
       -1    1    3    3    0  502 -0.76622757914E+03  0.11622346032E+04 -0.54016120191E+03  0.14932073198E+04  0.50400001928E-02 0. -1.
</event>
<event>
 5   0  0.2985941E-06  0.3007953E+04  0.7818609E-02  0.8241464E-01
       -2   -1    0    0    0  501  0.00000000000E+00  0.00000000000E+00  0.16720709149E+04  0.16720709149E+04  0.25500000920E-02 0.  1.
        2   -1    0    0  501    0  0.00000000000E+00  0.00000000000E+00 -0.13527807091E+04  0.13527807091E+04  0.25500000920E-02 0. -1.
    10030    2    1    2    0    0  0.00000000000E+00  0.00000000000E+00  0.31929020581E+03  0.30248516240E+04  0.30079529770E+04 0.  0.
        3    1    3    3  502    0  0.58011726278E+02 -0.88665855798E+03  0.13798938565E+04  0.16412299730E+04  0.10100000352E+00 0.  1.
       -3    1    3    3    0  502 -0.58011726278E+02  0.88665855798E+03 -0.10606036507E+04  0.13836216510E+04  0.10100000352E+00 0. -1.
</event>
<event>
 5   0  0.2985941E-06  0.3016766E+04  0.7818609E-02  0.8238959E-01
        2   -1    0    0  501    0  0.00000000000E+00  0.00000000000E+00  0.22919078434E+04  0.22919078434E+04  0.25500000920E-02 0.  1.
       -2   -1    0    0    0  501  0.00000000000E+00  0.00000000000E+00 -0.99271841441E+03  0.99271841441E+03  0.25500000920E-02 0. -1.
    10030    2    1    2    0    0  0.00000000000E+00  0.00000000000E+00  0.12991894290E+04  0.32846262578E+04  0.30167658976E+04 0.  0.
        3    1    3    3  502    0 -0.80996240075E+03 -0.45759017455E+03  0.19423661750E+04  0.21536513707E+04  0.10100000352E+00 0.  1.
       -3    1    3    3    0  502  0.80996240075E+03  0.45759017455E+03 -0.64317674602E+03  0.11309748871E+04  0.10100000352E+00 0. -1.
</event>
<event>
 5   0  0.1097402E-06  0.2961337E+04  0.7818609E-02  0.8254858E-01
       -1   -1    0    0    0  501  0.00000000000E+00  0.00000000000E+00  0.10435955779E+04  0.10435955779E+04  0.50400001928E-02 0. -1.
        1   -1    0    0  501    0  0.00000000000E+00  0.00000000000E+00 -0.21007945598E+04  0.21007945598E+04  0.50400001928E-02 0.  1.
    10030    2    1    2    0    0  0.00000000000E+00  0.00000000000E+00 -0.10571989819E+04  0.31443901377E+04  0.29613374767E+04 0.  0.
        4    1    3    3  502    0  0.25649891296E+03 -0.14419609898E+04 -0.75961451445E+03  0.16498663619E+04  0.12699999809E+01 0. -1.
       -4    1    3    3    0  502 -0.25649891296E+03  0.14419609898E+04 -0.29758446747E+03  0.14945237759E+04  0.12699999809E+01 0.  1.
</event>
<event>
 5   0  0.3113328E-06  0.2944104E+04  0.7818609E-02  0.8259875E-01
       -2   -1    0    0    0  501  0.00000000000E+00  0.00000000000E+00  0.16570063073E+04  0.16570063073E+04  0.25500000920E-02 0. -1.
        2   -1    0    0  501    0  0.00000000000E+00  0.00000000000E+00 -0.13077420621E+04  0.13077420621E+04  0.25500000920E-02 0.  1.
    10030    2    1    2    0    0  0.00000000000E+00  0.00000000000E+00  0.34926424522E+03  0.29647483693E+04  0.29441038332E+04 0.  0.
        1    1    3    3  502    0 -0.20689384095E+03  0.33420828564E+03  0.16031833556E+04  0.16506656570E+04  0.50400001928E-02 0. -1.
       -1    1    3    3    0  502  0.20689384095E+03 -0.33420828564E+03 -0.12539191103E+04  0.13140827123E+04  0.50400001928E-02 0.  1.
</event>
<event>
 5   0  0.1054384E-06  0.2993616E+04  0.7818609E-02  0.8245556E-01
       -1   -1    0    0    0  501  0.00000000000E+00  0.00000000000E+00  0.80900823523E+03  0.80900823524E+03  0.50400001928E-02 0. -1.
        1   -1    0    0  501    0  0.00000000000E+00  0.00000000000E+00 -0.27693585881E+04  0.27693585881E+04  0.50400001928E-02 0.  1.
    10030    2    1    2    0    0  0.00000000000E+00  0.00000000000E+00 -0.19603503529E+04  0.35783668234E+04  0.29936158098E+04 0.  0.
        2    1    3    3  502    0  0.25867174744E+03 -0.98428282702E+01 -0.27423996117E+04  0.27545895492E+04  0.25500000920E-02 0.  1.
       -2    1    3    3    0  502 -0.25867174744E+03  0.98428282702E+01  0.78204925883E+03  0.82377727417E+03  0.25500000920E-02 0. -1.
</event>
<event>
 5   0  0.1091075E-06  0.2972585E+04  0.7818609E-02  0.8251603E-01
       -1   -1    0    0    0  501  0.00000000000E+00  0.00000000000E+00  0.11915021881E+04  0.11915021881E+04  0.50400001928E-02 0.  1.
        1   -1    0    0  501    0  0.00000000000E+00  0.00000000000E+00 -0.18540164538E+04  0.18540164538E+04  0.50400001928E-02 0. -1.
    10030    2    1    2    0    0  0.00000000000E+00  0.00000000000E+00 -0.66251426571E+03  0.30455186419E+04  0.29725845061E+04 0.  0.
        1    1    3    3  502    0  0.12034511626E+04  0.37805149477E+03  0.47406110281E+03  0.13475724703E+04  0.50400001928E-02 0.  1.
       -1    1    3    3    0  502 -0.12034511626E+04 -0.37805149477E+03 -0.11365753685E+04  0.16979461716E+04  0.50400001928E-02 0. -1.
</event>
<event>
 5   0  0.1113245E-06  0.2967289E+04  0.7818609E-02  0.8253134E-01
       -1   -1    0    0    0  501  0.00000000000E+00  0.00000000000E+00  0.19929045803E+04  0.19929045803E+04  0.50400001928E-02 0.  1.
        1   -1    0    0  501    0  0.00000000000E+00  0.00000000000E+00 -0.11045192128E+04  0.11045192129E+04  0.50400001928E-02 0. -1.
    10030    2    1    2    0    0  0.00000000000E+00  0.00000000000E+00  0.88838536746E+03  0.30974237932E+04  0.29672892669E+04 0.  0.
        5    1    3    3  502    0 -0.92932591590E+03  0.91448067934E+03 -0.29485300726E+03  0.13367430407E+04  0.46999998093E+01 0. -1.
       -5    1    3    3    0  502  0.92932591590E+03 -0.91448067934E+03  0.11832383747E+04  0.17606807525E+04  0.46999998093E+01 0.  1.
</event>
<event>
 5   0  0.2862033E-06  0.2994023E+04  0.7818609E-02  0.8245440E-01
        2   -1    0    0  501    0  0.00000000000E+00  0.00000000000E+00  0.15925167301E+04  0.15925167301E+04  0.25500000920E-02 0.  1.
       -2   -1    0    0    0  501  0.00000000000E+00  0.00000000000E+00 -0.14072341323E+04  0.14072341323E+04  0.25500000920E-02 0. -1.
    10030    2    1    2    0    0  0.00000000000E+00  0.00000000000E+00  0.18528259783E+03  0.29997508624E+04  0.29940233124E+04 0.  0.
        2    1    3    3  502    0  0.92623945506E+03  0.10375392391E+04 -0.46216588276E+03  0.14656072134E+04  0.25500000920E-02 0.  1.
       -2    1    3    3    0  502 -0.92623945506E+03 -0.10375392391E+04  0.64744848058E+03  0.15341436490E+04  0.25500000920E-02 0. -1.
</event>
<event>
 5   0  0.3113328E-06  0.2876573E+04  0.7818609E-02  0.8279882E-01
        2   -1    0    0  501    0  0.00000000000E+00  0.00000000000E+00  0.15827601467E+04  0.15827601467E+04  0.25500000920E-02 0. -1.
       -2   -1    0    0    0  501  0.00000000000E+00  0.00000000000E+00 -0.13070001436E+04  0.13070001436E+04  0.25500000920E-02 0.  1.
    10030    2    1    2    0    0  0.00000000000E+00  0.00000000000E+00  0.27576000308E+03  0.28897602903E+04  0.28765727795E+04 0.  0.
        1    1    3    3  502    0 -0.31702714464E+03  0.55914163153E+03  0.14304496452E+04  0.15682256732E+04  0.50400001928E-02 0. -1.
       -1    1    3    3    0  502  0.31702714464E+03 -0.55914163153E+03 -0.11546896421E+04  0.13215346171E+04  0.50400001928E-02 0.  1.
</event>
<event>
 5   0  0.2948711E-06  0.2987303E+04  0.7818609E-02  0.8247366E-01
       -2   -1    0    0    0  501  0.00000000000E+00  0.00000000000E+00  0.14368768130E+04  0.14368768130E+04  0.25500000920E-02 0.  1.
        2   -1    0    0  501    0  0.00000000000E+00  0.00000000000E+00 -0.15526691527E+04  0.15526691527E+04  0.25500000920E-02 0. -1.
    10030    2    1    2    0    0  0.00000000000E+00  0.00000000000E+00 -0.11579233971E+03  0.29895459656E+04  0.29873026654E+04 0.  0.
        5    1    3    3  502    0  0.90827768898E+03 -0.49086168265E+03 -0.11380855556E+04  0.15366113281E+04  0.46999998093E+01 0. -1.
       -5    1    3    3    0  502 -0.90827768898E+03  0.49086168265E+03  0.10222932159E+04  0.14529346376E+04  0.46999998093E+01 0.  1.
</event>
<event>
 5   0  0.1054384E-06  0.2995517E+04  0.7818609E-02  0.8245012E-01
       -1   -1    0    0    0  501  0.00000000000E+00  0.00000000000E+00  0.23546772919E+04  0.23546772919E+04  0.50400001928E-02 0.  1.
        1   -1    0    0  501    0  0.00000000000E+00  0.00000000000E+00 -0.95269100918E+03  0.95269100919E+03  0.50400001928E-02 0. -1.
    10030    2    1    2    0    0  0.00000000000E+00  0.00000000000E+00  0.14019862827E+04  0.33073683011E+04  0.29955165735E+04 0.  0.
        2    1    3    3  502    0 -0.50297021585E+03  0.10230682447E+04  0.17735299658E+04  0.21083301950E+04  0.25500000920E-02 0.  1.
       -2    1    3    3    0  502  0.50297021585E+03 -0.10230682447E+04 -0.37154368311E+03  0.11990381061E+04  0.25500000920E-02 0. -1.
</event>
<event>
 5   0  0.2970915E-06  0.2970947E+04  0.7818609E-02  0.8252076E-01
       -2   -1    0    0    0  501  0.00000000000E+00  0.00000000000E+00  0.15114209264E+04  0.15114209264E+04  0.25500000920E-02 0. -1.
        2   -1    0    0  501    0  0.00000000000E+00  0.00000000000E+00 -0.14599715355E+04  0.14599715355E+04  0.25500000920E-02 0.  1.
    10030    2    1    2    0    0  0.00000000000E+00  0.00000000000E+00  0.51449390929E+02  0.29713924619E+04  0.29709470077E+04 0.  0.
        4    1    3    3  502    0  0.89737375066E+02  0.89543782995E+03  0.12077513869E+04  0.15061629159E+04  0.12699999809E+01 0. -1.
       -4    1    3    3    0  502 -0.89737375066E+02 -0.89543782995E+03 -0.11563019959E+04  0.14652295460E+04  0.12699999809E+01 0.  1.
</event>
<event>
 5   0  0.3113328E-06  0.2960655E+04  0.7818609E-02  0.8255056E-01
        2   -1    0    0  501    0  0.00000000000E+00  0.00000000000E+00  0.24151848094E+04  0.24151848094E+04  0.25500000920E-02 0. -1.
       -2   -1    0    0    0  501  0.00000000000E+00  0.00000000000E+00 -0.90733020387E+03  0.90733020387E+03  0.25500000920E-02 0.  1.
    10030    2    1    2    0    0  0.00000000000E+00  0.00000000000E+00  0.15078546055E+04  0.33225150133E+04  0.29606554176E+04 0.  0.
        1    1    3    3  502    0 -0.64940438297E+03 -0.74446965612E+03  0.19911284462E+04  0.22227356142E+04  0.50400001928E-02 0. -1.
       -1    1    3    3    0  502  0.64940438297E+03  0.74446965612E+03 -0.48327384065E+03  0.10997793990E+04  0.50400001928E-02 0.  1.
</event>
<event>
 5   0  0.1091075E-06  0.3003358E+04  0.7818609E-02  0.8242773E-01
       -1   -1    0    0    0  501  0.00000000000E+00  0.00000000000E+00  0.13915872868E+04  0.13915872868E+04  0.50400001928E-02 0.  1.
        1   -1    0    0  501    0  0.00000000000E+00  0.00000000000E+00 -0.16204800500E+04  0.16204800500E+04  0.50400001928E-02 0. -1.
    10030    2    1    2    0    0  0.00000000000E+00  0.00000000000E+00 -0.22889276328E+03  0.30120673368E+04  0.30033577450E+04 0.  0.
        1    1    3    3  502    0  0.63705608962E+03 -0.21181657442E+03  0.12327035143E+04  0.14036611688E+04  0.50400001928E-02 0.  1.
       -1    1    3    3    0  502 -0.63705608962E+03  0.21181657442E+03 -0.14615962776E+04  0.16084061680E+04  0.50400001928E-02 0. -1.
</event>
<event>
 5   0  0.1113245E-06  0.2985361E+04  0.7818609E-02  0.8247924E-01
       -1   -1    0    0    0  501  0.00000000000E+00  0.00000000000E+00  0.24231582450E+04  0.24231582450E+04  0.50400001928E-02 0.  1.
        1   -1    0    0  501    0  0.00000000000E+00  0.00000000000E+00 -0.91950037597E+03  0.91950037598E+03  0.50400001928E-02 0. -1.
    10030    2    1    2    0    0  0.00000000000E+00  0.00000000000E+00  0.15036578691E+04  0.33426586210E+04  0.29853608943E+04 0.  0.
        5    1    3    3  502    0  0.32994767887E+03 -0.35010545527E+03  0.23339669479E+04  0.23830365303E+04  0.46999998093E+01 0.  1.
       -5    1    3    3    0  502 -0.32994767887E+03  0.35010545527E+03 -0.83030907886E+03  0.95962209074E+03  0.46999998093E+01 0. -1.
</event>
<event>
 5   0  0.2948711E-06  0.3013245E+04  0.7818609E-02  0.8239959E-01
       -2   -1    0    0    0  501  0.00000000000E+00  0.00000000000E+00  0.12030656258E+04  0.12030656258E+04  0.25500000920E-02 0.  1.
        2   -1    0    0  501    0  0.00000000000E+00  0.00000000000E+00 -0.18867730646E+04  0.18867730646E+04  0.25500000920E-02 0. -1.
    10030    2    1    2    0    0  0.00000000000E+00  0.00000000000E+00 -0.68370743883E+03  0.30898386905E+04  0.30132453055E+04 0.  0.
        5    1    3    3  502    0 -0.13365577698E+04 -0.15287454906E+03  0.35371931814E+03  0.13910056599E+04  0.46999998093E+01 0.  1.
       -5    1    3    3    0  502  0.13365577698E+04  0.15287454906E+03 -0.10374267570E+04  0.16988330306E+04  0.46999998093E+01 0. -1.
</event>
<event>
 5   0  0.2948711E-06  0.3000375E+04  0.7818609E-02  0.8243624E-01
       -2   -1    0    0    0  501  0.00000000000E+00  0.00000000000E+00  0.16305686234E+04  0.16305686234E+04  0.25500000920E-02 0. -1.
        2   -1    0    0  501    0  0.00000000000E+00  0.00000000000E+00 -0.13802317482E+04  0.13802317482E+04  0.25500000920E-02 0.  1.
    10030    2    1    2    0    0  0.00000000000E+00  0.00000000000E+00  0.25033687518E+03  0.30108003716E+04  0.30003750310E+04 0.  0.
        5    1    3    3  502    0  0.36950082592E+03  0.11895071008E+04  0.96418518555E+03  0.15751613141E+04  0.46999998093E+01 0. -1.
       -5    1    3    3    0  502 -0.36950082592E+03 -0.11895071008E+04 -0.71384831037E+03  0.14356390575E+04  0.46999998093E+01 0.  1.
</event>
<event>
 5   0  0.2948711E-06  0.2988169E+04  0.7818609E-02  0.8247117E-01
       -2   -1    0    0    0  501  0.00000000000E+00  0.00000000000E+00  0.12296128291E+04  0.12296128291E+04  0.25500000920E-02 0.  1.
        2   -1    0    0  501    0  0.00000000000E+00  0.00000000000E+00 -0.18154399782E+04  0.18154399782E+04  0.25500000920E-02 0. -1.
    10030    2    1    2    0    0  0.00000000000E+00  0.00000000000E+00 -0.58582714913E+03  0.30450528073E+04  0.29881688624E+04 0.  0.
        5    1    3    3  502    0  0.27113252971E+03 -0.11404140164E+04 -0.12369446284E+04  0.17041452641E+04  0.46999998093E+01 0. -1.
       -5    1    3    3    0  502 -0.27113252971E+03  0.11404140164E+04  0.65111747925E+03  0.13409075432E+04  0.46999998093E+01 0.  1.
</event>
<event>
 5   0  0.2970915E-06  0.2634812E+04  0.7818609E-02  0.8356472E-01
        2   -1    0    0  501    0  0.00000000000E+00  0.00000000000E+00  0.21663328300E+04  0.21663328300E+04  0.25500000920E-02 0.  1.
       -2   -1    0    0    0  501  0.00000000000E+00  0.00000000000E+00 -0.80115031077E+03  0.80115031078E+03  0.25500000920E-02 0. -1.
    10030    2    1    2    0    0  0.00000000000E+00  0.00000000000E+00  0.13651825193E+04  0.29674831408E+04  0.26348117352E+04 0.  0.
        4    1    3    3  502    0  0.70345139228E+03 -0.48642609434E+03  0.18111591089E+04  0.20029361290E+04  0.12699999809E+01 0.  1.
       -4    1    3    3    0  502 -0.70345139228E+03  0.48642609434E+03 -0.44597658959E+03  0.96454701177E+03  0.12699999809E+01 0. -1.
</event>
<event>
 5   0  0.2970915E-06  0.2734277E+04  0.7818609E-02  0.8323968E-01
       -2   -1    0    0    0  501  0.00000000000E+00  0.00000000000E+00  0.10207968976E+04  0.10207968976E+04  0.25500000920E-02 0. -1.
        2   -1    0    0  501    0  0.00000000000E+00  0.00000000000E+00 -0.18309888853E+04  0.18309888853E+04  0.25500000920E-02 0.  1.
    10030    2    1    2    0    0  0.00000000000E+00  0.00000000000E+00 -0.81019198772E+03  0.28517857829E+04  0.27342770699E+04 0.  0.
        4    1    3    3  502    0 -0.53681158179E+03 -0.13841435078E+02  0.90619835998E+03  0.10533543279E+04  0.12699999809E+01 0. -1.
       -4    1    3    3    0  502  0.53681158179E+03  0.13841435078E+02 -0.17163903477E+04  0.17984314550E+04  0.12699999809E+01 0.  1.
</event>
<event>
 5   0  0.1113245E-06  0.2996757E+04  0.7818609E-02  0.8244657E-01
        1   -1    0    0  501    0  0.00000000000E+00  0.00000000000E+00  0.13709838231E+04  0.13709838231E+04  0.50400001928E-02 0. -1.
       -1   -1    0    0    0  501  0.00000000000E+00  0.00000000000E+00 -0.16376113942E+04  0.16376113942E+04  0.50400001928E-02 0.  1.
    10030    2    1    2    0    0  0.00000000000E+00  0.00000000000E+00 -0.26662757113E+03  0.30085952173E+04  0.29967574009E+04 0.  0.
        5    1    3    3  502    0 -0.75322213880E+03 -0.83564584004E+03 -0.11269045350E+04  0.15923515571E+04  0.46999998093E+01 0.  1.
       -5    1    3    3    0  502  0.75322213880E+03  0.83564584004E+03  0.86027696392E+03  0.14162436602E+04  0.46999998093E+01 0. -1.
</event>
<event>
 5   0  0.2985941E-06  0.3044086E+04  0.7818609E-02  0.8231253E-01
        2   -1    0    0  501    0  0.00000000000E+00  0.00000000000E+00  0.20313830964E+04  0.20313830964E+04  0.25500000920E-02 0.  1.
       -2   -1    0    0    0  501  0.00000000000E+00  0.00000000000E+00 -0.11404125508E+04  0.11404125508E+04  0.25500000920E-02 0. -1.
    10030    2    1    2    0    0  0.00000000000E+00  0.00000000000E+00  0.89097054560E+03  0.31717956472E+04  0.30440859243E+04 0.  0.
        3    1    3    3  502    0  0.68056862886E+03 -0.70801226946E+03 -0.76612317192E+03  0.12455519889E+04  0.10100000352E+00 0. -1.
       -3    1    3    3    0  502 -0.68056862886E+03  0.70801226946E+03  0.16570937175E+04  0.19262436583E+04  0.10100000352E+00 0.  1.
</event>
<event>
 5   0  0.2862033E-06  0.2977073E+04  0.7818609E-02  0.8250308E-01
       -2   -1    0    0    0  501  0.00000000000E+00  0.00000000000E+00  0.98477909372E+03  0.98477909373E+03  0.25500000920E-02 0. -1.
        2   -1    0    0  501    0  0.00000000000E+00  0.00000000000E+00 -0.22499882153E+04  0.22499882153E+04  0.25500000920E-02 0.  1.
    10030    2    1    2    0    0  0.00000000000E+00  0.00000000000E+00 -0.12652091215E+04  0.32347673090E+04  0.29770732981E+04 0.  0.
        2    1    3    3  502    0  0.41698310352E+03  0.14270992911E+04 -0.71136371399E+03  0.16481885902E+04  0.25500000920E-02 0. -1.
       -2    1    3    3    0  502 -0.41698310352E+03 -0.14270992911E+04 -0.55384540754E+03  0.15865787188E+04  0.25500000920E-02 0.  1.
</event>
<event>
 5   0  0.1091076E-06  0.2999106E+04  0.7818609E-02  0.8243986E-01
       -1   -1    0    0    0  501  0.00000000000E+00  0.00000000000E+00  0.13188847356E+04  0.13188847356E+04  0.50400001928E-02 0. -1.
        1   -1    0    0  501    0  0.00000000000E+00  0.00000000000E+00 -0.17049699539E+04  0.17049699539E+04  0.50400001928E-02 0.  1.
    10030    2    1    2    0    0  0.00000000000E+00  0.00000000000E+00 -0.38608521830E+03  0.30238546896E+04  0.29991057647E+04 0.  0.
        3    1    3    3  502    0 -0.11393454749E+04 -0.19479997871E+03 -0.11562287989E+04  0.16349067828E+04  0.10100000352E+00 0.  1.
       -3    1    3    3    0  502  0.11393454749E+04  0.19479997871E+03  0.77014358057E+03  0.13889479068E+04  0.10100000352E+00 0. -1.
</event>
<event>
 5   0  0.2948711E-06  0.3011904E+04  0.7818609E-02  0.8240340E-01
       -2   -1    0    0    0  501  0.00000000000E+00  0.00000000000E+00  0.13825456890E+04  0.13825456890E+04  0.25500000920E-02 0. -1.
        2   -1    0    0  501    0  0.00000000000E+00  0.00000000000E+00 -0.16403738206E+04  0.16403738206E+04  0.25500000920E-02 0.  1.
    10030    2    1    2    0    0  0.00000000000E+00  0.00000000000E+00 -0.25782813153E+03  0.30229195096E+04  0.30119042176E+04 0.  0.
        5    1    3    3  502    0 -0.63661437343E+03 -0.13268486753E+04  0.19172952462E+03  0.14841117101E+04  0.46999998093E+01 0.  1.
       -5    1    3    3    0  502  0.63661437343E+03  0.13268486753E+04 -0.44955765615E+03  0.15388077995E+04  0.46999998093E+01 0. -1.
</event>
<event>
 5   0  0.2862033E-06  0.3009715E+04  0.7818609E-02  0.8240962E-01
        2   -1    0    0  501    0  0.00000000000E+00  0.00000000000E+00  0.14347059255E+04  0.14347059255E+04  0.25500000920E-02 0.  1.
       -2   -1    0    0    0  501  0.00000000000E+00  0.00000000000E+00 -0.15784397146E+04  0.15784397146E+04  0.25500000920E-02 0. -1.
    10030    2    1    2    0    0  0.00000000000E+00  0.00000000000E+00 -0.14373378910E+03  0.30131456400E+04  0.30097154759E+04 0.  0.
        2    1    3    3  502    0 -0.39696282150E+03 -0.14300768971E+04  0.17720853022E+03  0.14946913649E+04  0.25500000920E-02 0. -1.
       -2    1    3    3    0  502  0.39696282150E+03  0.14300768971E+04 -0.32094231932E+03  0.15184542751E+04  0.25500000920E-02 0.  1.
</event>
<event>
 5   0  0.1091075E-06  0.2993286E+04  0.7818609E-02  0.8245651E-01
       -1   -1    0    0    0  501  0.00000000000E+00  0.00000000000E+00  0.91332387400E+03  0.91332387402E+03  0.50400001928E-02 0. -1.
        1   -1    0    0  501    0  0.00000000000E+00  0.00000000000E+00 -0.24525140761E+04  0.24525140761E+04  0.50400001928E-02 0.  1.
    10030    2    1    2    0    0  0.00000000000E+00  0.00000000000E+00 -0.15391902021E+04  0.33658379501E+04  0.29932855908E+04 0.  0.
        1    1    3    3  502    0  0.93514216573E+03 -0.66826249405E+03  0.30829140596E+03  0.11900038748E+04  0.50400001928E-02 0. -1.
       -1    1    3    3    0  502 -0.93514216573E+03  0.66826249405E+03 -0.18474816080E+04  0.21758340753E+04  0.50400001928E-02 0.  1.
</event>
<event>
 5   0  0.2948711E-06  0.3008007E+04  0.7818609E-02  0.8241448E-01
        2   -1    0    0  501    0  0.00000000000E+00  0.00000000000E+00  0.24892374869E+04  0.24892374869E+04  0.25500000920E-02 0. -1.
       -2   -1    0    0    0  501  0.00000000000E+00  0.00000000000E+00 -0.90872295717E+03  0.90872295717E+03  0.25500000920E-02 0.  1.
    10030    2    1    2    0    0  0.00000000000E+00  0.00000000000E+00  0.15805145297E+04  0.33979604441E+04  0.30080074802E+04 0.  0.
        5    1    3    3  502    0 -0.14553969183E+04 -0.35994259868E+03  0.65533145780E+03  0.16362213401E+04  0.46999998093E+01 0. -1.
       -5    1    3    3    0  502  0.14553969183E+04  0.35994259868E+03  0.92518307193E+03  0.17617391040E+04  0.46999998093E+01 0.  1.
</event>
<event>
 5   0  0.2948711E-06  0.3000394E+04  0.7818609E-02  0.8243619E-01
       -2   -1    0    0    0  501  0.00000000000E+00  0.00000000000E+00  0.10671343432E+04  0.10671343432E+04  0.25500000920E-02 0. -1.
        2   -1    0    0  501    0  0.00000000000E+00  0.00000000000E+00 -0.21090037579E+04  0.21090037579E+04  0.25500000920E-02 0.  1.
    10030    2    1    2    0    0  0.00000000000E+00  0.00000000000E+00 -0.10418694147E+04  0.31761381012E+04  0.30003935342E+04 0.  0.
        5    1    3    3  502    0  0.13442524577E+01 -0.13163919567E+04  0.24070799943E+03  0.13382271936E+04  0.46999998093E+01 0. -1.
       -5    1    3    3    0  502 -0.13442524577E+01  0.13163919567E+04 -0.12825774142E+04  0.18379109075E+04  0.46999998093E+01 0.  1.
</event>
<event>
 5   0  0.2985941E-06  0.2995339E+04  0.7818609E-02  0.8245063E-01
       -2   -1    0    0    0  501  0.00000000000E+00  0.00000000000E+00  0.10850762754E+04  0.10850762754E+04  0.25500000920E-02 0.  1.
        2   -1    0    0  501    0  0.00000000000E+00  0.00000000000E+00 -0.20671480196E+04  0.20671480196E+04  0.25500000920E-02 0. -1.
    10030    2    1    2    0    0  0.00000000000E+00  0.00000000000E+00 -0.98207174421E+03  0.31522242950E+04  0.29953385610E+04 0.  0.
        3    1    3    3  502    0  0.26823816967E+03 -0.23700294168E+03  0.10394002399E+04  0.10993065901E+04  0.10100000352E+00 0.  1.
       -3    1    3    3    0  502 -0.26823816967E+03  0.23700294168E+03 -0.20214719842E+04  0.20529177049E+04  0.10100000352E+00 0. -1.
</event>
<event>
 5   0  0.1054384E-06  0.3077398E+04  0.7818609E-02  0.8221968E-01
        1   -1    0    0  501    0  0.00000000000E+00  0.00000000000E+00  0.17195451948E+04  0.17195451948E+04  0.50400001928E-02 0.  1.
       -1   -1    0    0    0  501  0.00000000000E+00  0.00000000000E+00 -0.13768726408E+04  0.13768726408E+04  0.50400001928E-02 0. -1.
    10030    2    1    2    0    0  0.00000000000E+00  0.00000000000E+00  0.34267255400E+03  0.30964178357E+04  0.30773980785E+04 0.  0.
        2    1    3    3  502    0  0.11753282184E+04  0.51562114737E+03 -0.68263365840E+03  0.14537022736E+04  0.25500000920E-02 0. -1.
       -2    1    3    3    0  502 -0.11753282184E+04 -0.51562114737E+03  0.10253062124E+04  0.16427155621E+04  0.25500000920E-02 0.  1.
</event>
<event>
 5   0  0.1113245E-06  0.2999003E+04  0.7818609E-02  0.8244016E-01
       -1   -1    0    0    0  501  0.00000000000E+00  0.00000000000E+00  0.98018548358E+03  0.98018548359E+03  0.50400001928E-02 0.  1.
        1   -1    0    0  501    0  0.00000000000E+00  0.00000000000E+00 -0.22939583012E+04  0.22939583012E+04  0.50400001928E-02 0. -1.
    10030    2    1    2    0    0  0.00000000000E+00  0.00000000000E+00 -0.13137728176E+04  0.32741437848E+04  0.29990029188E+04 0.  0.
        5    1    3    3  502    0 -0.14778481829E+04 -0.36000492397E+02 -0.93124074831E+03  0.17471584669E+04  0.46999998093E+01 0. -1.
       -5    1    3    3    0  502  0.14778481829E+04  0.36000492397E+02 -0.38253206928E+03  0.15269853179E+04  0.46999998093E+01 0.  1.
</event>
<event>
 5   0  0.2862033E-06  0.3013024E+04  0.7818609E-02  0.8240022E-01
        2   -1    0    0  501    0  0.00000000000E+00  0.00000000000E+00  0.12128133082E+04  0.12128133082E+04  0.25500000920E-02 0. -1.
       -2   -1    0    0    0  501  0.00000000000E+00  0.00000000000E+00 -0.18713338858E+04  0.18713338858E+04  0.25500000920E-02 0.  1.
    10030    2    1    2    0    0  0.00000000000E+00  0.00000000000E+00 -0.65852057758E+03  0.30841471940E+04  0.30130241557E+04 0.  0.
        2    1    3    3  502    0  0.11229686295E+04  0.64438894281E+03  0.45917023840E+03  0.13737295805E+04  0.25500000920E-02 0. -1.
       -2    1    3    3    0  502 -0.11229686295E+04 -0.64438894281E+03 -0.11176908160E+04  0.17104176135E+04  0.25500000920E-02 0.  1.
</event>
<event>
 5   0  0.3113328E-06  0.2980407E+04  0.7818609E-02  0.8249348E-01
       -2   -1    0    0    0  501  0.00000000000E+00  0.00000000000E+00  0.15359315525E+04  0.15359315525E+04  0.25500000920E-02 0.  1.
        2   -1    0    0  501    0  0.00000000000E+00  0.00000000000E+00 -0.14458368983E+04  0.14458368983E+04  0.25500000920E-02 0. -1.
    10030    2    1    2    0    0  0.00000000000E+00  0.00000000000E+00  0.90094654223E+02  0.29817684508E+04  0.29804070271E+04 0.  0.
        1    1    3    3  502    0  0.71766802089E+03  0.48671272477E+03 -0.11674344236E+04  0.14542488776E+04  0.50400001928E-02 0. -1.
       -1    1    3    3    0  502 -0.71766802089E+03 -0.48671272477E+03  0.12575290778E+04  0.15275195731E+04  0.50400001928E-02 0.  1.
</event>
<event>
 5   0  0.1097402E-06  0.2978396E+04  0.7818609E-02  0.8249927E-01
        1   -1    0    0  501    0  0.00000000000E+00  0.00000000000E+00  0.17581255333E+04  0.17581255333E+04  0.50400001928E-02 0. -1.
       -1   -1    0    0    0  501  0.00000000000E+00  0.00000000000E+00 -0.12614067092E+04  0.12614067092E+04  0.50400001928E-02 0.  1.
    10030    2    1    2    0    0  0.00000000000E+00  0.00000000000E+00  0.49671882411E+03  0.30195322425E+04  0.29783964432E+04 0.  0.
        4    1    3    3  502    0 -0.67330923402E+03  0.98239824588E+03  0.11547193224E+04  0.16588640585E+04  0.12699999809E+01 0. -1.
       -4    1    3    3    0  502  0.67330923402E+03 -0.98239824588E+03 -0.65800049832E+03  0.13606681839E+04  0.12699999809E+01 0.  1.
</event>
<event>
 5   0  0.1091076E-06  0.2996645E+04  0.7818609E-02  0.8244690E-01
       -1   -1    0    0    0  501  0.00000000000E+00  0.00000000000E+00  0.11075377255E+04  0.11075377255E+04  0.50400001928E-02 0. -1.
        1   -1    0    0  501    0  0.00000000000E+00  0.00000000000E+00 -0.20269920145E+04  0.20269920145E+04  0.50400001928E-02 0.  1.
    10030    2    1    2    0    0  0.00000000000E+00  0.00000000000E+00 -0.91945428900E+03  0.31345297401E+04  0.29966448742E+04 0.  0.
        3    1    3    3  502    0  0.26576759234E+03  0.19496197464E+03  0.10691445304E+04  0.11187996343E+04  0.10100000352E+00 0. -1.
       -3    1    3    3    0  502 -0.26576759234E+03 -0.19496197464E+03 -0.19885988194E+04  0.20157301058E+04  0.10100000352E+00 0.  1.
</event>
<event>
 5   0  0.2862033E-06  0.2961919E+04  0.7818609E-02  0.8254690E-01
       -2   -1    0    0    0  501  0.00000000000E+00  0.00000000000E+00  0.98067712668E+03  0.98067712668E+03  0.25500000920E-02 0. -1.
        2   -1    0    0  501    0  0.00000000000E+00  0.00000000000E+00 -0.22364557079E+04  0.22364557079E+04  0.25500000920E-02 0.  1.
    10030    2    1    2    0    0  0.00000000000E+00  0.00000000000E+00 -0.12557785812E+04  0.32171328346E+04  0.29619189439E+04 0.  0.
        2    1    3    3  502    0  0.11388610099E+04  0.85314829735E+03 -0.10735804662E+04  0.17825379195E+04  0.25500000920E-02 0.  1.
       -2    1    3    3    0  502 -0.11388610099E+04 -0.85314829735E+03 -0.18219811497E+03  0.14345949150E+04  0.25500000920E-02 0. -1.
</event>
<event>
 5   0  0.1091075E-06  0.3002461E+04  0.7818609E-02  0.8243029E-01
        1   -1    0    0  501    0  0.00000000000E+00  0.00000000000E+00  0.20891863413E+04  0.20891863413E+04  0.50400001928E-02 0. -1.
       -1   -1    0    0    0  501  0.00000000000E+00  0.00000000000E+00 -0.10787418875E+04  0.10787418875E+04  0.50400001928E-02 0.  1.
    10030    2    1    2    0    0  0.00000000000E+00  0.00000000000E+00  0.10104444538E+04  0.31679282288E+04  0.30024608688E+04 0.  0.
        1    1    3    3  502    0 -0.86305288833E+03  0.12257105604E+04  0.42037827115E+03  0.15569022309E+04  0.50400001928E-02 0.  1.
       -1    1    3    3    0  502  0.86305288833E+03 -0.12257105604E+04  0.59006618263E+03  0.16110259978E+04  0.50400001928E-02 0. -1.
</event>
<event>
 5   0  0.1091075E-06  0.3066244E+04  0.7818609E-02  0.8225064E-01
        1   -1    0    0  501    0  0.00000000000E+00  0.00000000000E+00  0.17493661935E+04  0.17493661935E+04  0.50400001928E-02 0.  1.
       -1   -1    0    0    0  501  0.00000000000E+00  0.00000000000E+00 -0.13436081741E+04  0.13436081742E+04  0.50400001928E-02 0. -1.
    10030    2    1    2    0    0  0.00000000000E+00  0.00000000000E+00  0.40575801930E+03  0.30929743676E+04  0.30662437719E+04 0.  0.
        1    1    3    3  502    0  0.11013452122E+03  0.14117223093E+04  0.79568689968E+03  0.16242558707E+04  0.50400001928E-02 0.  1.
       -1    1    3    3    0  502 -0.11013452122E+03 -0.14117223093E+04 -0.38992888037E+03  0.14687184969E+04  0.50400001928E-02 0. -1.
</event>
<event>
 5   0  0.1054384E-06  0.3024120E+04  0.7818609E-02  0.8236877E-01
        1   -1    0    0  501    0  0.00000000000E+00  0.00000000000E+00  0.19654470232E+04  0.19654470232E+04  0.50400001928E-02 0.  1.
       -1   -1    0    0    0  501  0.00000000000E+00  0.00000000000E+00 -0.11632594468E+04  0.11632594468E+04  0.50400001928E-02 0. -1.
    10030    2    1    2    0    0  0.00000000000E+00  0.00000000000E+00  0.80218757642E+03  0.31287064700E+04  0.30241195855E+04 0.  0.
        2    1    3    3  502    0 -0.49740923702E+03  0.11634035426E+04 -0.45542766829E+03  0.13447446274E+04  0.25500000920E-02 0. -1.
       -2    1    3    3    0  502  0.49740923702E+03 -0.11634035426E+04  0.12576152447E+04  0.17839618426E+04  0.25500000920E-02 0.  1.
</event>
<event>
 5   0  0.2970915E-06  0.3035337E+04  0.7818609E-02  0.8233711E-01
       -2   -1    0    0    0  501  0.00000000000E+00  0.00000000000E+00  0.12071706630E+04  0.12071706630E+04  0.25500000920E-02 0. -1.
        2   -1    0    0  501    0  0.00000000000E+00  0.00000000000E+00 -0.19080303322E+04  0.19080303322E+04  0.25500000920E-02 0.  1.
    10030    2    1    2    0    0  0.00000000000E+00  0.00000000000E+00 -0.70085966924E+03  0.31152009952E+04  0.30353373725E+04 0.  0.
        4    1    3    3  502    0  0.13447187436E+04 -0.54725716242E+03 -0.80428428063E+03  0.16597089257E+04  0.12699999809E+01 0.  1.
       -4    1    3    3    0  502 -0.13447187436E+04  0.54725716242E+03  0.10342461139E+03  0.14554920695E+04  0.12699999809E+01 0. -1.
</event>
<event>
 5   0  0.9749500E-07  0.3023990E+04  0.7818609E-02  0.8236913E-01
       -4   -1    0    0    0  501  0.00000000000E+00  0.00000000000E+00  0.15934798915E+04  0.15934803976E+04  0.12699999809E+01 0.  1.
        4   -1    0    0  501    0  0.00000000000E+00  0.00000000000E+00 -0.14346763395E+04  0.14346769017E+04  0.12699999809E+01 0. -1.
    10030    2    1    2    0    0  0.00000000000E+00  0.00000000000E+00  0.15880355195E+03  0.30281572992E+04  0.30239904201E+04 0.  0.
        1    1    3    3  502    0  0.14601819904E+04  0.26039930414E+03 -0.21458456101E+03  0.14986613281E+04  0.50400001928E-02 0.  1.
       -1    1    3    3    0  502 -0.14601819904E+04 -0.26039930414E+03  0.37338811296E+03  0.15294959711E+04  0.50400001928E-02 0. -1.
</event>
<event>
 5   0  0.2970915E-06  0.2991567E+04  0.7818609E-02  0.8246143E-01
       -2   -1    0    0    0  501  0.00000000000E+00  0.00000000000E+00  0.14561426119E+04  0.14561426119E+04  0.25500000920E-02 0. -1.
        2   -1    0    0  501    0  0.00000000000E+00  0.00000000000E+00 -0.15365038580E+04  0.15365038580E+04  0.25500000920E-02 0.  1.
    10030    2    1    2    0    0  0.00000000000E+00  0.00000000000E+00 -0.80361246112E+02  0.29926464699E+04  0.29915673089E+04 0.  0.
        4    1    3    3  502    0  0.56471481215E+03  0.14845379693E+03 -0.14177851518E+04  0.15333159161E+04  0.12699999809E+01 0.  1.
       -4    1    3    3    0  502 -0.56471481215E+03 -0.14845379693E+03  0.13374239057E+04  0.14593305538E+04  0.12699999809E+01 0. -1.
</event>
<event>
 5   0  0.3113328E-06  0.2923826E+04  0.7818609E-02  0.8265824E-01
        2   -1    0    0  501    0  0.00000000000E+00  0.00000000000E+00  0.20017561256E+04  0.20017561256E+04  0.25500000920E-02 0. -1.
       -2   -1    0    0    0  501  0.00000000000E+00  0.00000000000E+00 -0.10676573134E+04  0.10676573134E+04  0.25500000920E-02 0.  1.
    10030    2    1    2    0    0  0.00000000000E+00  0.00000000000E+00  0.93409881218E+03  0.30694134389E+04  0.29238259641E+04 0.  0.
        1    1    3    3  502    0 -0.53432127008E+03  0.12951090430E+04  0.90543455917E+03  0.16681182194E+04  0.50400001928E-02 0.  1.
       -1    1    3    3    0  502  0.53432127008E+03 -0.12951090430E+04  0.28664253013E+02  0.14012952195E+04  0.50400001928E-02 0. -1.
</event>
<event>
 5   0  0.2948711E-06  0.2996128E+04  0.7818609E-02  0.8244837E-01
       -2   -1    0    0    0  501  0.00000000000E+00  0.00000000000E+00  0.10231726731E+04  0.10231726731E+04  0.25500000920E-02 0.  1.
        2   -1    0    0  501    0  0.00000000000E+00  0.00000000000E+00 -0.21933701190E+04  0.21933701190E+04  0.25500000920E-02 0. -1.
    10030    2    1    2    0    0  0.00000000000E+00  0.00000000000E+00 -0.11701974458E+04  0.32165427921E+04  0.29961284137E+04 0.  0.
        5    1    3    3  502    0 -0.11059086750E+04  0.80960063465E+03  0.64109072689E+02  0.13720857292E+04  0.46999998093E+01 0. -1.
       -5    1    3    3    0  502  0.11059086750E+04 -0.80960063465E+03 -0.12343065185E+04  0.18444570629E+04  0.46999998093E+01 0.  1.
</event>
<event>
 5   0  0.2985941E-06  0.3011513E+04  0.7818609E-02  0.8240451E-01
        2   -1    0    0  501    0  0.00000000000E+00  0.00000000000E+00  0.14574003334E+04  0.14574003334E+04  0.25500000920E-02 0. -1.
       -2   -1    0    0    0  501  0.00000000000E+00  0.00000000000E+00 -0.15557166845E+04  0.15557166845E+04  0.25500000920E-02 0.  1.
    10030    2    1    2    0    0  0.00000000000E+00  0.00000000000E+00 -0.98316351065E+02  0.30131170179E+04  0.30115125865E+04 0.  0.
        3    1    3    3  502    0 -0.10591106156E+02  0.14783991389E+04 -0.33483755946E+03  0.15158800701E+04  0.10100000352E+00 0.  1.
       -3    1    3    3    0  502  0.10591106156E+02 -0.14783991389E+04  0.23652120839E+03  0.14972369478E+04  0.10100000352E+00 0. -1.
</event>
<event>
 5   0  0.2970915E-06  0.2987558E+04  0.7818609E-02  0.8247293E-01
       -2   -1    0    0    0  501  0.00000000000E+00  0.00000000000E+00  0.11466975636E+04  0.11466975636E+04  0.25500000920E-02 0.  1.
        2   -1    0    0  501    0  0.00000000000E+00  0.00000000000E+00 -0.19459141859E+04  0.19459141859E+04  0.25500000920E-02 0. -1.
    10030    2    1    2    0    0  0.00000000000E+00  0.00000000000E+00 -0.79921662234E+03  0.30926117495E+04  0.29875575683E+04 0.  0.
        4    1    3    3  502    0 -0.74122322951E+03  0.81609382444E+03  0.64377961556E+03  0.12766655054E+04  0.12699999809E+01 0.  1.
       -4    1    3    3    0  502  0.74122322951E+03 -0.81609382444E+03 -0.14429962379E+04  0.18159462442E+04  0.12699999809E+01 0. -1.
</event>
<event>
 5   0  0.1091076E-06  0.3029421E+04  0.7818609E-02  0.8235379E-01
        1   -1    0    0  501    0  0.00000000000E+00  0.00000000000E+00  0.93972035312E+03  0.93972035313E+03  0.50400001928E-02 0.  1.
       -1   -1    0    0    0  501  0.00000000000E+00  0.00000000000E+00 -0.24415215239E+04  0.24415215239E+04  0.50400001928E-02 0. -1.
    10030    2    1    2    0    0  0.00000000000E+00  0.00000000000E+00 -0.15018011708E+04  0.33812418770E+04  0.30294207160E+04 0.  0.
        3    1    3    3  502    0 -0.24322249488E+03  0.18534994060E+03  0.90490924611E+03  0.95518193889E+03  0.10100000352E+00 0.  1.
       -3    1    3    3    0  502  0.24322249488E+03 -0.18534994060E+03 -0.24067104169E+04  0.24260599381E+04  0.10100000352E+00 0. -1.
</event>
<event>
 5   0  0.1054384E-06  0.3004018E+04  0.7818609E-02  0.8242584E-01
        1   -1    0    0  501    0  0.00000000000E+00  0.00000000000E+00  0.22090958651E+04  0.22090958651E+04  0.50400001928E-02 0.  1.
       -1   -1    0    0    0  501  0.00000000000E+00  0.00000000000E+00 -0.10212464509E+04  0.10212464509E+04  0.50400001928E-02 0. -1.
    10030    2    1    2    0    0  0.00000000000E+00  0.00000000000E+00  0.11878494142E+04  0.32303423160E+04  0.30040181836E+04 0.  0.
        2    1    3    3  502    0 -0.11159531267E+04 -0.10020486227E+04  0.68114329598E+03  0.16472428518E+04  0.25500000920E-02 0. -1.
       -2    1    3    3    0  502  0.11159531267E+04  0.10020486227E+04  0.50670611820E+03  0.15830994641E+04  0.25500000920E-02 0.  1.
</event>
<event>
 5   0  0.1113245E-06  0.3019613E+04  0.7818609E-02  0.8238152E-01
        1   -1    0    0  501    0  0.00000000000E+00  0.00000000000E+00  0.91470028874E+03  0.91470028875E+03  0.50400001928E-02 0. -1.
       -1   -1    0    0    0  501  0.00000000000E+00  0.00000000000E+00 -0.24920896379E+04  0.24920896379E+04  0.50400001928E-02 0.  1.
    10030    2    1    2    0    0  0.00000000000E+00  0.00000000000E+00 -0.15773893492E+04  0.34067899267E+04  0.30196126317E+04 0.  0.
        5    1    3    3  502    0 -0.49640964844E+02 -0.15028537256E+04 -0.63540821295E+03  0.16324212793E+04  0.46999998093E+01 0. -1.
       -5    1    3    3    0  502  0.49640964844E+02  0.15028537256E+04 -0.94198113623E+03  0.17743686474E+04  0.46999998093E+01 0.  1.
</event>
<event>
 5   0  0.2970915E-06  0.2995466E+04  0.7818609E-02  0.8245027E-01
        2   -1    0    0  501    0  0.00000000000E+00  0.00000000000E+00  0.22523352422E+04  0.22523352422E+04  0.25500000920E-02 0. -1.
       -2   -1    0    0    0  501  0.00000000000E+00  0.00000000000E+00 -0.99594614577E+03  0.99594614577E+03  0.25500000920E-02 0.  1.
    10030    2    1    2    0    0  0.00000000000E+00  0.00000000000E+00  0.12563890965E+04  0.32482813880E+04  0.29954663099E+04 0.  0.
        4    1    3    3  502    0  0.61391824069E+03 -0.88562631792E+03  0.17561644157E+04  0.20604234150E+04  0.12699999809E+01 0. -1.
       -4    1    3    3    0  502 -0.61391824069E+03  0.88562631792E+03 -0.49977531929E+03  0.11878579730E+04  0.12699999809E+01 0.  1.
</event>
<event>
 5   0  0.1091075E-06  0.2991784E+04  0.7818609E-02  0.8246081E-01
        1   -1    0    0  501    0  0.00000000000E+00  0.00000000000E+00  0.14941467700E+04  0.14941467700E+04  0.50400001928E-02 0. -1.
       -1   -1    0    0    0  501  0.00000000000E+00  0.00000000000E+00 -0.14976389576E+04  0.14976389576E+04  0.50400001928E-02 0.  1.
    10030    2    1    2    0    0  0.00000000000E+00  0.00000000000E+00 -0.34921875602E+01  0.29917857276E+04  0.29917836895E+04 0.  0.
        1    1    3    3  502    0  0.57886770828E+03 -0.13577111696E+04  0.24161587565E+03  0.14956087975E+04  0.50400001928E-02 0.  1.
       -1    1    3    3    0  502 -0.57886770828E+03  0.13577111696E+04 -0.24510806321E+03  0.14961769302E+04  0.50400001928E-02 0. -1.
</event>
<event>
 5   0  0.1113245E-06  0.3009287E+04  0.7818609E-02  0.8241084E-01
        1   -1    0    0  501    0  0.00000000000E+00  0.00000000000E+00  0.20954961195E+04  0.20954961195E+04  0.50400001928E-02 0.  1.
       -1   -1    0    0    0  501  0.00000000000E+00  0.00000000000E+00 -0.10803898453E+04  0.10803898453E+04  0.50400001928E-02 0. -1.
    10030    2    1    2    0    0  0.00000000000E+00  0.00000000000E+00  0.10151062742E+04  0.31758859648E+04  0.30092874428E+04 0.  0.
        5    1    3    3  502    0 -0.65578738486E+03  0.56742681838E+03 -0.79011251929E+03  0.11731709899E+04  0.46999998093E+01 0. -1.
       -5    1    3    3    0  502  0.65578738486E+03 -0.56742681838E+03  0.18052187935E+04  0.20027149749E+04  0.46999998093E+01 0.  1.
</event>
<event>
 5   0  0.1091075E-06  0.2898317E+04  0.7818609E-02  0.8273378E-01
       -1   -1    0    0    0  501  0.00000000000E+00  0.00000000000E+00  0.13011976381E+04  0.13011976381E+04  0.50400001928E-02 0. -1.
        1   -1    0    0  501    0  0.00000000000E+00  0.00000000000E+00 -0.16139439087E+04  0.16139439087E+04  0.50400001928E-02 0.  1.
    10030    2    1    2    0    0  0.00000000000E+00  0.00000000000E+00 -0.31274627060E+03  0.29151415468E+04  0.28983167543E+04 0.  0.
        1    1    3    3  502    0  0.41652781930E+03 -0.62599839654E+03  0.10896445720E+04  0.13238937684E+04  0.50400001928E-02 0. -1.
       -1    1    3    3    0  502 -0.41652781930E+03  0.62599839654E+03 -0.14023908426E+04  0.15912477784E+04  0.50400001928E-02 0.  1.
</event>
<event>
 5   0  0.1054384E-06  0.3015586E+04  0.7818609E-02  0.8239294E-01
       -1   -1    0    0    0  501  0.00000000000E+00  0.00000000000E+00  0.14441198396E+04  0.14441198396E+04  0.50400001928E-02 0. -1.
        1   -1    0    0  501    0  0.00000000000E+00  0.00000000000E+00 -0.15742739132E+04  0.15742739132E+04  0.50400001928E-02 0.  1.
    10030    2    1    2    0    0  0.00000000000E+00  0.00000000000E+00 -0.13015407369E+03  0.30183937528E+04  0.30155863052E+04 0.  0.
        2    1    3    3  502    0  0.33408855996E+03 -0.69810769370E+03  0.12301410601E+04  0.14533466708E+04  0.25500000920E-02 0. -1.
       -2    1    3    3    0  502 -0.33408855996E+03  0.69810769370E+03 -0.13602951338E+04  0.15650470820E+04  0.25500000920E-02 0.  1.
</event>
<event>
 5   0  0.2948711E-06  0.3029310E+04  0.7818609E-02  0.8235410E-01
       -2   -1    0    0    0  501  0.00000000000E+00  0.00000000000E+00  0.10297661791E+04  0.10297661791E+04  0.25500000920E-02 0.  1.
        2   -1    0    0  501    0  0.00000000000E+00  0.00000000000E+00 -0.22278649172E+04  0.22278649172E+04  0.25500000920E-02 0. -1.
    10030    2    1    2    0    0  0.00000000000E+00  0.00000000000E+00 -0.11980987381E+04  0.32576310964E+04  0.30293101151E+04 0.  0.
        5    1    3    3  502    0  0.10994153061E+04  0.94379021995E+03 -0.12453928478E+03  0.14542991845E+04  0.46999998093E+01 0.  1.
       -5    1    3    3    0  502 -0.10994153061E+04 -0.94379021995E+03 -0.10735594534E+04  0.18033319119E+04  0.46999998093E+01 0. -1.
</event>
<event>
 5   0  0.2970915E-06  0.3032713E+04  0.7818609E-02  0.8234451E-01
        2   -1    0    0  501    0  0.00000000000E+00  0.00000000000E+00  0.22940179206E+04  0.22940179206E+04  0.25500000920E-02 0.  1.
       -2   -1    0    0    0  501  0.00000000000E+00  0.00000000000E+00 -0.10023185188E+04  0.10023185188E+04  0.25500000920E-02 0. -1.
    10030    2    1    2    0    0  0.00000000000E+00  0.00000000000E+00  0.12916994017E+04  0.32963364394E+04  0.30327127423E+04 0.  0.
        4    1    3    3  502    0 -0.22470072184E+03  0.12150924951E+04  0.16011060630E+04  0.20224941097E+04  0.12699999809E+01 0.  1.
       -4    1    3    3    0  502  0.22470072184E+03 -0.12150924951E+04 -0.30940666124E+03  0.12738423297E+04  0.12699999809E+01 0. -1.
</event>
<event>
 5   0  0.1091076E-06  0.3001535E+04  0.7818609E-02  0.8243293E-01
       -1   -1    0    0    0  501  0.00000000000E+00  0.00000000000E+00  0.16708469719E+04  0.16708469719E+04  0.50400001928E-02 0.  1.
        1   -1    0    0  501    0  0.00000000000E+00  0.00000000000E+00 -0.13480011731E+04  0.13480011731E+04  0.50400001928E-02 0. -1.
    10030    2    1    2    0    0  0.00000000000E+00  0.00000000000E+00  0.32284579887E+03  0.30188481450E+04  0.30015353926E+04 0.  0.
        3    1    3    3  502    0 -0.54511490436E+03  0.99833906100E+03  0.11460859327E+04  0.16147272571E+04  0.10100000352E+00 0.  1.
       -3    1    3    3    0  502  0.54511490436E+03 -0.99833906100E+03 -0.82324013380E+03  0.14041208879E+04  0.10100000352E+00 0. -1.
</event>
<event>
 5   0  0.1054384E-06  0.2997852E+04  0.7818609E-02  0.8244344E-01
        1   -1    0    0  501    0  0.00000000000E+00  0.00000000000E+00  0.20471109562E+04  0.20471109562E+04  0.50400001928E-02 0.  1.
       -1   -1    0    0    0  501  0.00000000000E+00  0.00000000000E+00 -0.10975366842E+04  0.10975366842E+04  0.50400001928E-02 0. -1.
    10030    2    1    2    0    0  0.00000000000E+00  0.00000000000E+00  0.94957427202E+03  0.31446476404E+04  0.29978521452E+04 0.  0.
        2    1    3    3  502    0  0.10731066719E+04  0.69998890249E+03  0.12908516760E+04  0.18187469430E+04  0.25500000920E-02 0.  1.
       -2    1    3    3    0  502 -0.10731066719E+04 -0.69998890249E+03 -0.34127740401E+03  0.13259006974E+04  0.25500000920E-02 0. -1.
</event>
<event>
 5   0  0.2970915E-06  0.2980811E+04  0.7818609E-02  0.8249232E-01
       -2   -1    0    0    0  501  0.00000000000E+00  0.00000000000E+00  0.80483747121E+03  0.80483747121E+03  0.25500000920E-02 0.  1.
        2   -1    0    0  501    0  0.00000000000E+00  0.00000000000E+00 -0.27599459663E+04  0.27599459663E+04  0.25500000920E-02 0. -1.
    10030    2    1    2    0    0  0.00000000000E+00  0.00000000000E+00 -0.19551084951E+04  0.35647834375E+04  0.29808105825E+04 0.  0.
        4    1    3    3  502    0  0.82996672901E+03 -0.10092841785E+04 -0.12032145095E+03  0.13122416655E+04  0.12699999809E+01 0.  1.
       -4    1    3    3    0  502 -0.82996672901E+03  0.10092841785E+04 -0.18347870441E+04  0.22525417720E+04  0.12699999809E+01 0. -1.
</event>
<event>
 5   0  0.1091075E-06  0.3006654E+04  0.7818609E-02  0.8241833E-01
       -1   -1    0    0    0  501  0.00000000000E+00  0.00000000000E+00  0.84494577436E+03  0.84494577438E+03  0.50400001928E-02 0.  1.
        1   -1    0    0  501    0  0.00000000000E+00  0.00000000000E+00 -0.26747178078E+04  0.26747178078E+04  0.50400001928E-02 0. -1.
    10030    2    1    2    0    0  0.00000000000E+00  0.00000000000E+00 -0.18297720335E+04  0.35196635822E+04  0.30066536278E+04 0.  0.
        1    1    3    3  502    0  0.11753275530E+04  0.55664179006E+03 -0.17977161542E+04  0.22187898302E+04  0.50400001928E-02 0. -1.
       -1    1    3    3    0  502 -0.11753275530E+04 -0.55664179006E+03 -0.32055879284E+02  0.13008737521E+04  0.50400001928E-02 0.  1.
</event>
<event>
 5   0  0.2970915E-06  0.2982011E+04  0.7818609E-02  0.8248887E-01
        2   -1    0    0  501    0  0.00000000000E+00  0.00000000000E+00  0.23224568015E+04  0.23224568015E+04  0.25500000920E-02 0.  1.
       -2   -1    0    0    0  501  0.00000000000E+00  0.00000000000E+00 -0.95721772006E+03  0.95721772006E+03  0.25500000920E-02 0. -1.
    10030    2    1    2    0    0  0.00000000000E+00  0.00000000000E+00  0.13652390814E+04  0.32796745215E+04  0.29820105999E+04 0.  0.
        4    1    3    3  502    0  0.10162703476E+03 -0.96052831078E+03  0.19318486270E+04  0.21598572686E+04  0.12699999809E+01 0.  1.
       -4    1    3    3    0  502 -0.10162703476E+03  0.96052831078E+03 -0.56660954559E+03  0.11198172530E+04  0.12699999809E+01 0. -1.
</event>
<event>
 5   0  0.1091075E-06  0.3003453E+04  0.7818609E-02  0.8242745E-01
        1   -1    0    0  501    0  0.00000000000E+00  0.00000000000E+00  0.17610051083E+04  0.17610051084E+04  0.50400001928E-02 0.  1.
       -1   -1    0    0    0  501  0.00000000000E+00  0.00000000000E+00 -0.12806226313E+04  0.12806226313E+04  0.50400001928E-02 0. -1.
    10030    2    1    2    0    0  0.00000000000E+00  0.00000000000E+00  0.48038247705E+03  0.30416277397E+04  0.30034533428E+04 0.  0.
        1    1    3    3  502    0 -0.14903302301E+04 -0.18358336718E+03  0.26034259655E+03  0.15239964944E+04  0.50400001928E-02 0.  1.
       -1    1    3    3    0  502  0.14903302301E+04  0.18358336718E+03  0.22003988050E+03  0.15176312452E+04  0.50400001928E-02 0. -1.
</event>
<event>
 5   0  0.1091075E-06  0.3007939E+04  0.7818609E-02  0.8241467E-01
        1   -1    0    0  501    0  0.00000000000E+00  0.00000000000E+00  0.17844418773E+04  0.17844418773E+04  0.50400001928E-02 0. -1.
       -1   -1    0    0    0  501  0.00000000000E+00  0.00000000000E+00 -0.12675807699E+04  0.12675807699E+04  0.50400001928E-02 0.  1.
    10030    2    1    2    0    0  0.00000000000E+00  0.00000000000E+00  0.51686110733E+03  0.30520226472E+04  0.30079389679E+04 0.  0.
        1    1    3    3  502    0  0.11374248829E+04  0.46133163266E+02 -0.73885817687E+03  0.13571201268E+04  0.50400001928E-02 0.  1.
       -1    1    3    3    0  502 -0.11374248829E+04 -0.46133163266E+02  0.12557192842E+04  0.16949025204E+04  0.50400001928E-02 0. -1.
</event>
<event>
 5   0  0.2985941E-06  0.3014636E+04  0.7818609E-02  0.8239564E-01
        2   -1    0    0  501    0  0.00000000000E+00  0.00000000000E+00  0.16096416809E+04  0.16096416809E+04  0.25500000920E-02 0.  1.
       -2   -1    0    0    0  501  0.00000000000E+00  0.00000000000E+00 -0.14114990943E+04  0.14114990943E+04  0.25500000920E-02 0. -1.
    10030    2    1    2    0    0  0.00000000000E+00  0.00000000000E+00  0.19814258664E+03  0.30211407752E+04  0.30146361470E+04 0.  0.
        3    1    3    3  502    0  0.44108664229E+03 -0.14307672361E+04 -0.75532803691E+02  0.14991189161E+04  0.10100000352E+00 0. -1.
       -3    1    3    3    0  502 -0.44108664229E+03  0.14307672361E+04  0.27367539033E+03  0.15220218591E+04  0.10100000352E+00 0.  1.
</event>
<event>
 5   0  0.9749500E-07  0.3142071E+04  0.7818609E-02  0.8204286E-01
       -3   -1    0    0    0  501  0.00000000000E+00  0.00000000000E+00  0.17864072059E+04  0.17864072087E+04  0.10100000352E+00 0.  1.
        3   -1    0    0  501    0  0.00000000000E+00  0.00000000000E+00 -0.13816296236E+04  0.13816296273E+04  0.10100000352E+00 0. -1.
    10030    2    1    2    0    0  0.00000000000E+00  0.00000000000E+00  0.40477758228E+03  0.31680368360E+04  0.31420713714E+04 0.  0.
        2    1    3    3  502    0 -0.35662445707E+03 -0.10481304158E+04 -0.92144990422E+03  0.14404264292E+04  0.25500000920E-02 0. -1.
       -2    1    3    3    0  502  0.35662445707E+03  0.10481304158E+04  0.13262274865E+04  0.17276104068E+04  0.25500000920E-02 0.  1.
</event>
<event>
 5   0  0.2985941E-06  0.3015911E+04  0.7818609E-02  0.8239202E-01
       -2   -1    0    0    0  501  0.00000000000E+00  0.00000000000E+00  0.15115512554E+04  0.15115512554E+04  0.25500000920E-02 0. -1.
        2   -1    0    0  501    0  0.00000000000E+00  0.00000000000E+00 -0.15043685886E+04  0.15043685886E+04  0.25500000920E-02 0.  1.
    10030    2    1    2    0    0  0.00000000000E+00  0.00000000000E+00  0.71826668142E+01  0.30159198440E+04  0.30159112910E+04 0.  0.
        3    1    3    3  502    0  0.44853872995E+03  0.13416277758E+04 -0.51869181280E+03  0.15067160608E+04  0.10100000352E+00 0.  1.
       -3    1    3    3    0  502 -0.44853872995E+03 -0.13416277758E+04  0.52587447962E+03  0.15092037833E+04  0.10100000352E+00 0. -1.
</event>
<event>
 5   0  0.2970915E-06  0.3004731E+04  0.7818609E-02  0.8242381E-01
        2   -1    0    0  501    0  0.00000000000E+00  0.00000000000E+00  0.14806211007E+04  0.14806211007E+04  0.25500000920E-02 0. -1.
       -2   -1    0    0    0  501  0.00000000000E+00  0.00000000000E+00 -0.15244292647E+04  0.15244292647E+04  0.25500000920E-02 0.  1.
    10030    2    1    2    0    0  0.00000000000E+00  0.00000000000E+00 -0.43808163984E+02  0.30050503654E+04  0.30047310268E+04 0.  0.
        4    1    3    3  502    0 -0.74098646437E+03 -0.83472544428E+03  0.98382350537E+03  0.14878635053E+04  0.12699999809E+01 0. -1.
       -4    1    3    3    0  502  0.74098646437E+03  0.83472544428E+03 -0.10276316694E+04  0.15171868601E+04  0.12699999809E+01 0.  1.
</event>
<event>
 5   0  0.2985941E-06  0.2993929E+04  0.7818609E-02  0.8245467E-01
        2   -1    0    0  501    0  0.00000000000E+00  0.00000000000E+00  0.18927716677E+04  0.18927716677E+04  0.25500000920E-02 0. -1.
       -2   -1    0    0    0  501  0.00000000000E+00  0.00000000000E+00 -0.11839264398E+04  0.11839264398E+04  0.25500000920E-02 0.  1.
    10030    2    1    2    0    0  0.00000000000E+00  0.00000000000E+00  0.70884522784E+03  0.30766981075E+04  0.29939288047E+04 0.  0.
        3    1    3    3  502    0  0.13102385241E+04 -0.46072004224E+03  0.92835558294E+03  0.16705783567E+04  0.10100000352E+00 0. -1.
       -3    1    3    3    0  502 -0.13102385241E+04  0.46072004224E+03 -0.21951035510E+03  0.14061197508E+04  0.10100000352E+00 0.  1.
</event>
<event>
 5   0  0.3113328E-06  0.3005455E+04  0.7818609E-02  0.8242175E-01
       -2   -1    0    0    0  501  0.00000000000E+00  0.00000000000E+00  0.14992775243E+04  0.14992775243E+04  0.25500000920E-02 0. -1.
        2   -1    0    0  501    0  0.00000000000E+00  0.00000000000E+00 -0.15061851039E+04  0.15061851039E+04  0.25500000920E-02 0.  1.
    10030    2    1    2    0    0  0.00000000000E+00  0.00000000000E+00 -0.69075795734E+01  0.30054626282E+04  0.30054546902E+04 0.  0.
        1    1    3    3  502    0 -0.11050155234E+04  0.99757340459E+03  0.20143078964E+03  0.15022604193E+04  0.50400001928E-02 0.  1.
       -1    1    3    3    0  502  0.11050155234E+04 -0.99757340459E+03 -0.20833836922E+03  0.15032022088E+04  0.50400001928E-02 0. -1.
</event>
<event>
 5   0  0.1054384E-06  0.3007519E+04  0.7818609E-02  0.8241587E-01
        1   -1    0    0  501    0  0.00000000000E+00  0.00000000000E+00  0.15417629482E+04  0.15417629482E+04  0.50400001928E-02 0.  1.
       -1   -1    0    0    0  501  0.00000000000E+00  0.00000000000E+00 -0.14666929423E+04  0.14666929423E+04  0.50400001928E-02 0. -1.
    10030    2    1    2    0    0  0.00000000000E+00  0.00000000000E+00  0.75070005905E+02  0.30084558905E+04  0.30075191337E+04 0.  0.
        2    1    3    3  502    0 -0.23628498004E+03  0.80130768059E+03  0.12882717000E+04  0.15354375806E+04  0.25500000920E-02 0.  1.
       -2    1    3    3    0  502  0.23628498004E+03 -0.80130768059E+03 -0.12132016941E+04  0.14730183099E+04  0.25500000920E-02 0. -1.
</event>
<event>
 5   0  0.1097402E-06  0.2994441E+04  0.7818609E-02  0.8245320E-01
        1   -1    0    0  501    0  0.00000000000E+00  0.00000000000E+00  0.23107544804E+04  0.23107544804E+04  0.50400001928E-02 0.  1.
       -1   -1    0    0    0  501  0.00000000000E+00  0.00000000000E+00 -0.97010270422E+03  0.97010270423E+03  0.50400001928E-02 0. -1.
    10030    2    1    2    0    0  0.00000000000E+00  0.00000000000E+00  0.13406517761E+04  0.32808571846E+04  0.29944409630E+04 0.  0.
        4    1    3    3  502    0 -0.13077471706E+04  0.56045239266E+03  0.11811358944E+04  0.18491601230E+04  0.12699999809E+01 0.  1.
       -4    1    3    3    0  502  0.13077471706E+04 -0.56045239266E+03  0.15951588175E+03  0.14316970616E+04  0.12699999809E+01 0. -1.
</event>
<event>
 5   0  0.2948711E-06  0.2673954E+04  0.7818609E-02  0.8343506E-01
       -2   -1    0    0    0  501  0.00000000000E+00  0.00000000000E+00  0.92862972048E+03  0.92862972048E+03  0.25500000920E-02 0.  1.
        2   -1    0    0  501    0  0.00000000000E+00  0.00000000000E+00 -0.19248878428E+04  0.19248878428E+04  0.25500000920E-02 0. -1.
    10030    2    1    2    0    0  0.00000000000E+00  0.00000000000E+00 -0.99625812233E+03  0.28535175633E+04  0.26739544195E+04 0.  0.
        5    1    3    3  502    0  0.36469382828E+03 -0.11946166359E+04 -0.10069891144E+04  0.16044187925E+04  0.46999998093E+01 0. -1.
       -5    1    3    3    0  502 -0.36469382828E+03  0.11946166359E+04  0.10730992036E+02  0.12490987708E+04  0.46999998093E+01 0.  1.
</event>
<event>
 5   0  0.1091075E-06  0.3003540E+04  0.7818609E-02  0.8242721E-01
        1   -1    0    0  501    0  0.00000000000E+00  0.00000000000E+00  0.12048477759E+04  0.12048477759E+04  0.50400001928E-02 0. -1.
       -1   -1    0    0    0  501  0.00000000000E+00  0.00000000000E+00 -0.18718650581E+04  0.18718650581E+04  0.50400001928E-02 0.  1.
    10030    2    1    2    0    0  0.00000000000E+00  0.00000000000E+00 -0.66701728222E+03  0.30767128339E+04  0.30035395466E+04 0.  0.
        1    1    3    3  502    0 -0.70575797102E+03 -0.13213418623E+04 -0.44227364571E+03  0.15619361729E+04  0.50400001928E-02 0. -1.
       -1    1    3    3    0  502  0.70575797102E+03  0.13213418623E+04 -0.22474363651E+03  0.15147766610E+04  0.50400001928E-02 0.  1.
</event>
<event>
 5   0  0.1097402E-06  0.3001304E+04  0.7818609E-02  0.8243359E-01
        1   -1    0    0  501    0  0.00000000000E+00  0.00000000000E+00  0.28282837884E+04  0.28282837884E+04  0.50400001928E-02 0. -1.
       -1   -1    0    0    0  501  0.00000000000E+00  0.00000000000E+00 -0.79622727149E+03  0.79622727151E+03  0.50400001928E-02 0.  1.
    10030    2    1    2    0    0  0.00000000000E+00  0.00000000000E+00  0.20320565169E+04  0.36245110600E+04  0.30013041725E+04 0.  0.
        4    1    3    3  502    0  0.14480299588E+04 -0.39179107965E+03  0.96676492364E+03  0.17846363894E+04  0.12699999809E+01 0. -1.
       -4    1    3    3    0  502 -0.14480299588E+04  0.39179107965E+03  0.10652915933E+04  0.18398746706E+04  0.12699999809E+01 0.  1.
</event>
<event>
 5   0  0.1113245E-06  0.3002169E+04  0.7818609E-02  0.8243112E-01
        1   -1    0    0  501    0  0.00000000000E+00  0.00000000000E+00  0.28247673426E+04  0.28247673426E+04  0.50400001928E-02 0.  1.
       -1   -1    0    0    0  501  0.00000000000E+00  0.00000000000E+00 -0.79767802514E+03  0.79767802515E+03  0.50400001928E-02 0. -1.
    10030    2    1    2    0    0  0.00000000000E+00  0.00000000000E+00  0.20270893174E+04  0.36224453677E+04  0.30021691061E+04 0.  0.
        5    1    3    3  502    0 -0.42824141497E+03  0.25159269566E+03  0.27227370260E+04  0.27676720537E+04  0.46999998093E+01 0.  1.
       -5    1    3    3    0  502  0.42824141497E+03 -0.25159269566E+03 -0.69564770856E+03  0.85477331405E+03  0.46999998093E+01 0. -1.
</event>
<event>
 5   0  0.2970915E-06  0.2976980E+04  0.7818609E-02  0.8250335E-01
        2   -1    0    0  501    0  0.00000000000E+00  0.00000000000E+00  0.15549921571E+04  0.15549921571E+04  0.25500000920E-02 0. -1.
       -2   -1    0    0    0  501  0.00000000000E+00  0.00000000000E+00 -0.14248320048E+04  0.14248320048E+04  0.25500000920E-02 0.  1.
    10030    2    1    2    0    0  0.00000000000E+00  0.00000000000E+00  0.13016015234E+03  0.29798241619E+04  0.29769800757E+04 0.  0.
        4    1    3    3  502    0 -0.66503901263E+03 -0.87243880157E+03 -0.94194998008E+03  0.14459245239E+04  0.12699999809E+01 0.  1.
       -4    1    3    3    0  502  0.66503901263E+03  0.87243880157E+03  0.10721101324E+04  0.15338996381E+04  0.12699999809E+01 0. -1.
</event>
<event>
 5   0  0.1091075E-06  0.2977064E+04  0.7818609E-02  0.8250311E-01
        1   -1    0    0  501    0  0.00000000000E+00  0.00000000000E+00  0.22875181824E+04  0.22875181824E+04  0.50400001928E-02 0. -1.
       -1   -1    0    0    0  501  0.00000000000E+00  0.00000000000E+00 -0.96861644633E+03  0.96861644635E+03  0.50400001928E-02 0.  1.
    10030    2    1    2    0    0  0.00000000000E+00  0.00000000000E+00  0.13189017360E+04  0.32561346287E+04  0.29770641463E+04 0.  0.
        1    1    3    3  502    0  0.13974883249E+04  0.95614680722E+02  0.10864442098E+03  0.14049624179E+04  0.50400001928E-02 0.  1.
       -1    1    3    3    0  502 -0.13974883249E+04 -0.95614680722E+02  0.12102573151E+04  0.18511722108E+04  0.50400001928E-02 0. -1.
</event>
<event>
 5   0  0.2862033E-06  0.2999421E+04  0.7818609E-02  0.8243896E-01
        2   -1    0    0  501    0  0.00000000000E+00  0.00000000000E+00  0.19199265773E+04  0.19199265773E+04  0.25500000920E-02 0. -1.
       -2   -1    0    0    0  501  0.00000000000E+00  0.00000000000E+00 -0.11714674312E+04  0.11714674312E+04  0.25500000920E-02 0.  1.
    10030    2    1    2    0    0  0.00000000000E+00  0.00000000000E+00  0.74845914610E+03  0.30913940086E+04  0.29994209146E+04 0.  0.
        2    1    3    3  502    0  0.21708032750E+03  0.81173960121E+03 -0.90607137842E+03  0.12357226192E+04  0.25500000920E-02 0.  1.
       -2    1    3    3    0  502 -0.21708032750E+03 -0.81173960121E+03  0.16545305245E+04  0.18556713894E+04  0.25500000920E-02 0. -1.
</event>
<event>
 5   0  0.2948711E-06  0.2999427E+04  0.7818609E-02  0.8243895E-01
       -2   -1    0    0    0  501  0.00000000000E+00  0.00000000000E+00  0.26150152686E+04  0.26150152686E+04  0.25500000920E-02 0.  1.
        2   -1    0    0  501    0  0.00000000000E+00  0.00000000000E+00 -0.86008673767E+03  0.86008673767E+03  0.25500000920E-02 0. -1.
    10030    2    1    2    0    0  0.00000000000E+00  0.00000000000E+00  0.17549285309E+04  0.34751020063E+04  0.29994265794E+04 0.  0.
        5    1    3    3  502    0 -0.12842240168E+04  0.71635532527E+03  0.53627691405E+03  0.15652511926E+04  0.46999998093E+01 0. -1.
       -5    1    3    3    0  502  0.12842240168E+04 -0.71635532527E+03  0.12186516169E+04  0.19098508137E+04  0.46999998093E+01 0.  1.
</event>
<event>
 5   0  0.1091076E-06  0.2995166E+04  0.7818609E-02  0.8245112E-01
       -1   -1    0    0    0  501  0.00000000000E+00  0.00000000000E+00  0.16067081806E+04  0.16067081806E+04  0.50400001928E-02 0.  1.
        1   -1    0    0  501    0  0.00000000000E+00  0.00000000000E+00 -0.13958697765E+04  0.13958697765E+04  0.50400001928E-02 0. -1.
    10030    2    1    2    0    0  0.00000000000E+00  0.00000000000E+00  0.21083840405E+03  0.30025779571E+04  0.29951663653E+04 0.  0.
        3    1    3    3  502    0 -0.51199658887E+03  0.13240798354E+04 -0.37265443275E+03  0.14677190651E+04  0.10100000352E+00 0. -1.
       -3    1    3    3    0  502  0.51199658887E+03 -0.13240798354E+04  0.58349283680E+03  0.15348588920E+04  0.10100000352E+00 0.  1.
</event>
<event>
 5   0  0.1113245E-06  0.3007257E+04  0.7818609E-02  0.8241662E-01
        1   -1    0    0  501    0  0.00000000000E+00  0.00000000000E+00  0.18469735784E+04  0.18469735784E+04  0.50400001928E-02 0.  1.
       -1   -1    0    0    0  501  0.00000000000E+00  0.00000000000E+00 -0.12241096653E+04  0.12241096653E+04  0.50400001928E-02 0. -1.
    10030    2    1    2    0    0  0.00000000000E+00  0.00000000000E+00  0.62286391309E+03  0.30710832437E+04  0.30072566960E+04 0.  0.
        5    1    3    3  502    0  0.72066488963E+02  0.43239899973E+03  0.17802610881E+04  0.18334432377E+04  0.46999998093E+01 0.  1.
       -5    1    3    3    0  502 -0.72066488963E+02 -0.43239899973E+03 -0.11573971751E+04  0.12376400061E+04  0.46999998093E+01 0. -1.
</event>
<event>
 5   0  0.2862033E-06  0.2745983E+04  0.7818609E-02  0.8320237E-01
        2   -1    0    0  501    0  0.00000000000E+00  0.00000000000E+00  0.12892078225E+04  0.12892078225E+04  0.25500000920E-02 0.  1.
       -2   -1    0    0    0  501  0.00000000000E+00  0.00000000000E+00 -0.14622202624E+04  0.14622202624E+04  0.25500000920E-02 0. -1.
    10030    2    1    2    0    0  0.00000000000E+00  0.00000000000E+00 -0.17301243992E+03  0.27514280848E+04  0.27459831029E+04 0.  0.
        2    1    3    3  502    0 -0.35988271703E+03 -0.10346287783E+04  0.74286300058E+03  0.13235625095E+04  0.25500000920E-02 0.  1.
       -2    1    3    3    0  502  0.35988271703E+03  0.10346287783E+04 -0.91587544050E+03  0.14278655754E+04  0.25500000920E-02 0. -1.
</event>
<event>
 5   0  0.1097402E-06  0.2996926E+04  0.7818609E-02  0.8244609E-01
       -1   -1    0    0    0  501  0.00000000000E+00  0.00000000000E+00  0.97306549228E+03  0.97306549230E+03  0.50400001928E-02 0.  1.
        1   -1    0    0  501    0  0.00000000000E+00  0.00000000000E+00 -0.23075443412E+04  0.23075443412E+04  0.50400001928E-02 0. -1.
    10030    2    1    2    0    0  0.00000000000E+00  0.00000000000E+00 -0.13344788489E+04  0.32806098335E+04  0.29969262722E+04 0.  0.
        4    1    3    3  502    0 -0.11651256373E+04 -0.86396886512E+03 -0.10789097963E+04  0.18077632345E+04  0.12699999809E+01 0. -1.
       -4    1    3    3    0  502  0.11651256373E+04  0.86396886512E+03 -0.25556905255E+03  0.14728465990E+04  0.12699999809E+01 0.  1.
</event>
<event>
 5   0  0.2985941E-06  0.2994543E+04  0.7818609E-02  0.8245291E-01
       -2   -1    0    0    0  501  0.00000000000E+00  0.00000000000E+00  0.11952933036E+04  0.11952933036E+04  0.25500000920E-02 0.  1.
        2   -1    0    0  501    0  0.00000000000E+00  0.00000000000E+00 -0.18755411233E+04  0.18755411233E+04  0.25500000920E-02 0. -1.
    10030    2    1    2    0    0  0.00000000000E+00  0.00000000000E+00 -0.68024781964E+03  0.30708344269E+04  0.29945428669E+04 0.  0.
        3    1    3    3  502    0  0.11861696661E+04  0.60796318091E+03  0.35931147573E+03  0.13804790664E+04  0.10100000352E+00 0.  1.
       -3    1    3    3    0  502 -0.11861696661E+04 -0.60796318091E+03 -0.10395592954E+04  0.16903553605E+04  0.10100000352E+00 0. -1.
</event>
<event>
 5   0  0.2948711E-06  0.2997055E+04  0.7818609E-02  0.8244572E-01
        2   -1    0    0  501    0  0.00000000000E+00  0.00000000000E+00  0.31203073269E+04  0.31203073269E+04  0.25500000920E-02 0.  1.
       -2   -1    0    0    0  501  0.00000000000E+00  0.00000000000E+00 -0.71966754723E+03  0.71966754723E+03  0.25500000920E-02 0. -1.
    10030    2    1    2    0    0  0.00000000000E+00  0.00000000000E+00  0.24006397797E+04  0.38399748742E+04  0.29970545011E+04 0.  0.
        5    1    3    3  502    0 -0.11608657151E+04 -0.48270331262E+03  0.15553163682E+03  0.12668164337E+04  0.46999998093E+01 0. -1.
       -5    1    3    3    0  502  0.11608657151E+04  0.48270331262E+03  0.22451081429E+04  0.25731584405E+04  0.46999998093E+01 0.  1.
</event>
<event>
 5   0  0.2970915E-06  0.2977967E+04  0.7818609E-02  0.8250051E-01
       -2   -1    0    0    0  501  0.00000000000E+00  0.00000000000E+00  0.23218965222E+04  0.23218965222E+04  0.25500000920E-02 0. -1.
        2   -1    0    0  501    0  0.00000000000E+00  0.00000000000E+00 -0.95485355532E+03  0.95485355532E+03  0.25500000920E-02 0.  1.
    10030    2    1    2    0    0  0.00000000000E+00  0.00000000000E+00  0.13670429669E+04  0.32767500775E+04  0.29779665205E+04 0.  0.
        4    1    3    3  502    0  0.13008008635E+04 -0.60440280910E+03  0.24382391386E+03  0.14549355161E+04  0.12699999809E+01 0.  1.
       -4    1    3    3    0  502 -0.13008008635E+04  0.60440280910E+03  0.11232190530E+04  0.18218145614E+04  0.12699999809E+01 0. -1.
</event>
<event>
 5   0  0.1097402E-06  0.2963515E+04  0.7818609E-02  0.8254227E-01
        1   -1    0    0  501    0  0.00000000000E+00  0.00000000000E+00  0.19836982133E+04  0.19836982133E+04  0.50400001928E-02 0. -1.
       -1   -1    0    0    0  501  0.00000000000E+00  0.00000000000E+00 -0.11068240181E+04  0.11068240182E+04  0.50400001928E-02 0.  1.
    10030    2    1    2    0    0  0.00000000000E+00  0.00000000000E+00  0.87687419518E+03  0.30905222315E+04  0.29635146885E+04 0.  0.
        4    1    3    3  502    0  0.70111844458E+03  0.10272126178E+04 -0.40161024506E+03  0.13069143956E+04  0.12699999809E+01 0.  1.
       -4    1    3    3    0  502 -0.70111844458E+03 -0.10272126178E+04  0.12784844402E+04  0.17836078359E+04  0.12699999809E+01 0. -1.
</event>
<event>
 5   0  0.3113328E-06  0.3014211E+04  0.7818609E-02  0.8239684E-01
        2   -1    0    0  501    0  0.00000000000E+00  0.00000000000E+00  0.21134062885E+04  0.21134062885E+04  0.25500000920E-02 0. -1.
       -2   -1    0    0    0  501  0.00000000000E+00  0.00000000000E+00 -0.10747423057E+04  0.10747423058E+04  0.25500000920E-02 0.  1.
    10030    2    1    2    0    0  0.00000000000E+00  0.00000000000E+00  0.10386639827E+04  0.31881485942E+04  0.30142111057E+04 0.  0.
        1    1    3    3  502    0  0.92783497129E+03 -0.33093287716E+03 -0.68708933288E+03  0.12010354094E+04  0.50400001928E-02 0.  1.
       -1    1    3    3    0  502 -0.92783497129E+03  0.33093287716E+03  0.17257533156E+04  0.19871131849E+04  0.50400001928E-02 0. -1.
</event>
<event>
 5   0  0.1091075E-06  0.2977527E+04  0.7818609E-02  0.8250178E-01
        1   -1    0    0  501    0  0.00000000000E+00  0.00000000000E+00  0.28498771374E+04  0.28498771374E+04  0.50400001928E-02 0. -1.
       -1   -1    0    0    0  501  0.00000000000E+00  0.00000000000E+00 -0.77772344039E+03  0.77772344041E+03  0.50400001928E-02 0.  1.
    10030    2    1    2    0    0  0.00000000000E+00  0.00000000000E+00  0.20721536970E+04  0.36276005778E+04  0.29775266595E+04 0.  0.
        1    1    3    3  502    0 -0.13810278071E+04 -0.53793766776E+03  0.12075171796E+04  0.19117302314E+04  0.50400001928E-02 0. -1.
       -1    1    3    3    0  502  0.13810278071E+04  0.53793766776E+03  0.86463651741E+03  0.17158703464E+04  0.50400001928E-02 0.  1.
</event>
<event>
 5   0  0.2970915E-06  0.2944131E+04  0.7818609E-02  0.8259867E-01
        2   -1    0    0  501    0  0.00000000000E+00  0.00000000000E+00  0.16775338455E+04  0.16775338455E+04  0.25500000920E-02 0. -1.
       -2   -1    0    0    0  501  0.00000000000E+00  0.00000000000E+00 -0.12917632203E+04  0.12917632203E+04  0.25500000920E-02 0.  1.
    10030    2    1    2    0    0  0.00000000000E+00  0.00000000000E+00  0.38577062521E+03  0.29692970658E+04  0.29441307868E+04 0.  0.
        4    1    3    3  502    0 -0.35940320173E+03  0.80849485286E+03  0.13794368612E+04  0.16388051304E+04  0.12699999809E+01 0. -1.
       -4    1    3    3    0  502  0.35940320173E+03 -0.80849485286E+03 -0.99366623603E+03  0.13304919354E+04  0.12699999809E+01 0.  1.
</event>
<event>
 5   0  0.1091075E-06  0.2873535E+04  0.7818609E-02  0.8280795E-01
       -1   -1    0    0    0  501  0.00000000000E+00  0.00000000000E+00  0.11661094431E+04  0.11661094431E+04  0.50400001928E-02 0. -1.
        1   -1    0    0  501    0  0.00000000000E+00  0.00000000000E+00 -0.17702458326E+04  0.17702458326E+04  0.50400001928E-02 0.  1.
    10030    2    1    2    0    0  0.00000000000E+00  0.00000000000E+00 -0.60413638950E+03  0.29363552757E+04  0.28735346750E+04 0.  0.
        1    1    3    3  502    0 -0.28728440754E+03 -0.13223578412E+04 -0.79546745851E+03  0.15696913928E+04  0.50400001928E-02 0.  1.
       -1    1    3    3    0  502  0.28728440754E+03  0.13223578412E+04  0.19133106901E+03  0.13666638830E+04  0.50400001928E-02 0. -1.
</event>
<event>
 5   0  0.2948711E-06  0.3010221E+04  0.7818609E-02  0.8240818E-01
       -2   -1    0    0    0  501  0.00000000000E+00  0.00000000000E+00  0.14026349270E+04  0.14026349270E+04  0.25500000920E-02 0.  1.
        2   -1    0    0  501    0  0.00000000000E+00  0.00000000000E+00 -0.16150732846E+04  0.16150732846E+04  0.25500000920E-02 0. -1.
    10030    2    1    2    0    0  0.00000000000E+00  0.00000000000E+00 -0.21243835756E+03  0.30177082116E+04  0.30102213863E+04 0.  0.
        5    1    3    3  502    0 -0.75243473570E+03 -0.12744633934E+03  0.11942873733E+04  0.14173020217E+04  0.46999998093E+01 0.  1.
       -5    1    3    3    0  502  0.75243473570E+03  0.12744633934E+03 -0.14067257308E+04  0.16004061899E+04  0.46999998093E+01 0. -1.
</event>
<event>
 5   0  0.2948711E-06  0.2868644E+04  0.7818609E-02  0.8282268E-01
       -2   -1    0    0    0  501  0.00000000000E+00  0.00000000000E+00  0.11033272923E+04  0.11033272923E+04  0.25500000920E-02 0. -1.
        2   -1    0    0  501    0  0.00000000000E+00  0.00000000000E+00 -0.18646145462E+04  0.18646145462E+04  0.25500000920E-02 0.  1.
    10030    2    1    2    0    0  0.00000000000E+00  0.00000000000E+00 -0.76128725391E+03  0.29679418384E+04  0.28686443616E+04 0.  0.
        5    1    3    3  502    0  0.13814456653E+04 -0.34160243419E+03 -0.56622271574E+03  0.15315725915E+04  0.46999998093E+01 0.  1.
       -5    1    3    3    0  502 -0.13814456653E+04  0.34160243419E+03 -0.19506453816E+03  0.14363692469E+04  0.46999998093E+01 0. -1.
</event>
<event>
 5   0  0.2862033E-06  0.3065117E+04  0.7818609E-02  0.8225377E-01
       -2   -1    0    0    0  501  0.00000000000E+00  0.00000000000E+00  0.91215040286E+03  0.91215040286E+03  0.25500000920E-02 0. -1.
        2   -1    0    0  501    0  0.00000000000E+00  0.00000000000E+00 -0.25749433776E+04  0.25749433776E+04  0.25500000920E-02 0.  1.
    10030    2    1    2    0    0  0.00000000000E+00  0.00000000000E+00 -0.16627929748E+04  0.34870937805E+04  0.30651170544E+04 0.  0.
        2    1    3    3  502    0  0.11468754572E+04  0.82088789511E+03 -0.15135772427E+04  0.20688393656E+04  0.25500000920E-02 0.  1.
       -2    1    3    3    0  502 -0.11468754572E+04 -0.82088789511E+03 -0.14921573202E+03  0.14182544149E+04  0.25500000920E-02 0. -1.
</event>
<event>
 5   0  0.2862033E-06  0.3019781E+04  0.7818609E-02  0.8238105E-01
        2   -1    0    0  501    0  0.00000000000E+00  0.00000000000E+00  0.24969550615E+04  0.24969550615E+04  0.25500000920E-02 0. -1.
       -2   -1    0    0    0  501  0.00000000000E+00  0.00000000000E+00 -0.91301984595E+03  0.91301984595E+03  0.25500000920E-02 0.  1.
    10030    2    1    2    0    0  0.00000000000E+00  0.00000000000E+00  0.15839352155E+04  0.34099749074E+04  0.30197811348E+04 0.  0.
        2    1    3    3  502    0 -0.13906366287E+03  0.14452462302E+04  0.32406714579E+03  0.14876474324E+04  0.25500000920E-02 0. -1.
       -2    1    3    3    0  502  0.13906366287E+03 -0.14452462302E+04  0.12598680697E+04  0.19223274750E+04  0.25500000920E-02 0.  1.
</event>
<event>
 5   0  0.3113328E-06  0.3022109E+04  0.7818609E-02  0.8237446E-01
        2   -1    0    0  501    0  0.00000000000E+00  0.00000000000E+00  0.16163197653E+04  0.16163197653E+04  0.25500000920E-02 0.  1.
       -2   -1    0    0    0  501  0.00000000000E+00  0.00000000000E+00 -0.14126445894E+04  0.14126445894E+04  0.25500000920E-02 0. -1.
    10030    2    1    2    0    0  0.00000000000E+00  0.00000000000E+00  0.20367517593E+03  0.30289643546E+04  0.30221087810E+04 0.  0.
        1    1    3    3  502    0  0.43059390185E+03 -0.14271937949E+04 -0.14568850430E+03  0.14978379008E+04  0.50400001928E-02 0. -1.
       -1    1    3    3    0  502 -0.43059390185E+03  0.14271937949E+04  0.34936368023E+03  0.15311264539E+04  0.50400001928E-02 0.  1.
</event>
<event>
 5   0  0.1113245E-06  0.2990633E+04  0.7818609E-02  0.8246411E-01
       -1   -1    0    0    0  501  0.00000000000E+00  0.00000000000E+00  0.11543797970E+04  0.11543797970E+04  0.50400001928E-02 0. -1.
        1   -1    0    0  501    0  0.00000000000E+00  0.00000000000E+00 -0.19369461609E+04  0.19369461609E+04  0.50400001928E-02 0.  1.
    10030    2    1    2    0    0  0.00000000000E+00  0.00000000000E+00 -0.78256636392E+03  0.30913259580E+04  0.29906330541E+04 0.  0.
        5    1    3    3  502    0  0.89023067340E+03 -0.61742572591E+03  0.67406060395E+03  0.12759721653E+04  0.46999998093E+01 0. -1.
       -5    1    3    3    0  502 -0.89023067340E+03  0.61742572591E+03 -0.14566269679E+04  0.18153537926E+04  0.46999998093E+01 0.  1.
</event>
<event>
 5   0  0.1091076E-06  0.3013554E+04  0.7818609E-02  0.8239871E-01
        1   -1    0    0  501    0  0.00000000000E+00  0.00000000000E+00  0.14487501583E+04  0.14487501583E+04  0.50400001928E-02 0. -1.
       -1   -1    0    0    0  501  0.00000000000E+00  0.00000000000E+00 -0.15671277517E+04  0.15671277517E+04  0.50400001928E-02 0.  1.
    10030    2    1    2    0    0  0.00000000000E+00  0.00000000000E+00 -0.11837759341E+03  0.30158779101E+04  0.30135537682E+04 0.  0.
        3    1    3    3  502    0 -0.14664705887E+04 -0.28016238216E+03 -0.26269168355E+03  0.15159267393E+04  0.10100000352E+00 0.  1.
       -3    1    3    3    0  502  0.14664705887E+04  0.28016238216E+03  0.14431409014E+03  0.14999511708E+04  0.10100000352E+00 0. -1.
</event>
<event>
 5   0  0.2985941E-06  0.3011564E+04  0.7818609E-02  0.8240436E-01
       -2   -1    0    0    0  501  0.00000000000E+00  0.00000000000E+00  0.14982861728E+04  0.14982861728E+04  0.25500000920E-02 0.  1.
        2   -1    0    0  501    0  0.00000000000E+00  0.00000000000E+00 -0.15133151322E+04  0.15133151322E+04  0.25500000920E-02 0. -1.
    10030    2    1    2    0    0  0.00000000000E+00  0.00000000000E+00 -0.15028959350E+02  0.30116013050E+04  0.30115638049E+04 0.  0.
        3    1    3    3  502    0  0.26493056399E+03 -0.11576211930E+04  0.91829621522E+03  0.15011805286E+04  0.10100000352E+00 0.  1.
       -3    1    3    3    0  502 -0.26493056399E+03  0.11576211930E+04 -0.93332517457E+03  0.15104207765E+04  0.10100000352E+00 0. -1.
</event>
<event>
 5   0  0.1091075E-06  0.3000024E+04  0.7818609E-02  0.8243724E-01
       -1   -1    0    0    0  501  0.00000000000E+00  0.00000000000E+00  0.11490681892E+04  0.11490681892E+04  0.50400001928E-02 0. -1.
        1   -1    0    0  501    0  0.00000000000E+00  0.00000000000E+00 -0.19581396951E+04  0.19581396951E+04  0.50400001928E-02 0.  1.
    10030    2    1    2    0    0  0.00000000000E+00  0.00000000000E+00 -0.80907150586E+03  0.31072078843E+04  0.30000240224E+04 0.  0.
        1    1    3    3  502    0 -0.99426487698E+03 -0.17651921888E+03 -0.15533600796E+04  0.18527410011E+04  0.50400001928E-02 0.  1.
       -1    1    3    3    0  502  0.99426487698E+03  0.17651921888E+03  0.74428857371E+03  0.12544668833E+04  0.50400001928E-02 0. -1.
</event>
<event>
 5   0  0.2862033E-06  0.3003275E+04  0.7818609E-02  0.8242796E-01
       -2   -1    0    0    0  501  0.00000000000E+00  0.00000000000E+00  0.11189357803E+04  0.11189357803E+04  0.25500000920E-02 0.  1.
        2   -1    0    0  501    0  0.00000000000E+00  0.00000000000E+00 -0.20152317987E+04  0.20152317987E+04  0.25500000920E-02 0. -1.
    10030    2    1    2    0    0  0.00000000000E+00  0.00000000000E+00 -0.89629601839E+03  0.31341675789E+04  0.30032748559E+04 0.  0.
        2    1    3    3  502    0 -0.96777790734E+03  0.61146196695E+03  0.56602770097E+03  0.12770540996E+04  0.25500000920E-02 0.  1.
       -2    1    3    3    0  502  0.96777790734E+03 -0.61146196695E+03 -0.14623237194E+04  0.18571134793E+04  0.25500000920E-02 0. -1.
</event>
<event>
 5   0  0.1097402E-06  0.3032895E+04  0.7818609E-02  0.8234399E-01
       -1   -1    0    0    0  501  0.00000000000E+00  0.00000000000E+00  0.18229159746E+04  0.18229159746E+04  0.50400001928E-02 0.  1.
        1   -1    0    0  501    0  0.00000000000E+00  0.00000000000E+00 -0.12615023568E+04  0.12615023568E+04  0.50400001928E-02 0. -1.
    10030    2    1    2    0    0  0.00000000000E+00  0.00000000000E+00  0.56141361781E+03  0.30844183314E+04  0.30328948536E+04 0.  0.
        4    1    3    3  502    0  0.48143395639E+03 -0.14241349540E+04  0.78144394524E+02  0.15053395567E+04  0.12699999809E+01 0. -1.
       -4    1    3    3    0  502 -0.48143395639E+03  0.14241349540E+04  0.48326922329E+03  0.15790787747E+04  0.12699999809E+01 0.  1.
</event>
<event>
 5   0  0.1091075E-06  0.3017142E+04  0.7818609E-02  0.8238853E-01
       -1   -1    0    0    0  501  0.00000000000E+00  0.00000000000E+00  0.14440436794E+04  0.14440436794E+04  0.50400001928E-02 0. -1.
        1   -1    0    0  501    0  0.00000000000E+00  0.00000000000E+00 -0.15759821362E+04  0.15759821362E+04  0.50400001928E-02 0.  1.
    10030    2    1    2    0    0  0.00000000000E+00  0.00000000000E+00 -0.13193845679E+03  0.30200258156E+04  0.30171423848E+04 0.  0.
        1    1    3    3  502    0  0.13022276456E+04 -0.75641734408E+03  0.22563042894E+02  0.15061451226E+04  0.50400001928E-02 0.  1.
       -1    1    3    3    0  502 -0.13022276456E+04  0.75641734408E+03 -0.15450149969E+03  0.15138806930E+04  0.50400001928E-02 0. -1.
</event>
<event>
 5   0  0.1054384E-06  0.2993828E+04  0.7818609E-02  0.8245495E-01
        1   -1    0    0  501    0  0.00000000000E+00  0.00000000000E+00  0.14971655899E+04  0.14971655899E+04  0.50400001928E-02 0. -1.
       -1   -1    0    0    0  501  0.00000000000E+00  0.00000000000E+00 -0.14966628269E+04  0.14966628269E+04  0.50400001928E-02 0.  1.
    10030    2    1    2    0    0  0.00000000000E+00  0.00000000000E+00  0.50276298094E+00  0.29938284169E+04  0.29938283747E+04 0.  0.
        2    1    3    3  502    0  0.58605807864E+03 -0.42142042130E+03 -0.13111192334E+04  0.14966939859E+04  0.25500000920E-02 0.  1.
       -2    1    3    3    0  502 -0.58605807864E+03  0.42142042130E+03  0.13116219964E+04  0.14971344310E+04  0.25500000920E-02 0. -1.
</event>
<event>
 5   0  0.1113245E-06  0.2876943E+04  0.7818609E-02  0.8279771E-01
       -1   -1    0    0    0  501  0.00000000000E+00  0.00000000000E+00  0.10527046230E+04  0.10527046230E+04  0.50400001928E-02 0.  1.
        1   -1    0    0  501    0  0.00000000000E+00  0.00000000000E+00 -0.19656035878E+04  0.19656035879E+04  0.50400001928E-02 0. -1.
    10030    2    1    2    0    0  0.00000000000E+00  0.00000000000E+00 -0.91289896486E+03  0.30183082109E+04  0.28769428106E+04 0.  0.
        5    1    3    3  502    0  0.21586866202E+03  0.70582705378E+03 -0.17517780506E+04  0.19009312290E+04  0.46999998093E+01 0. -1.
       -5    1    3    3    0  502 -0.21586866202E+03 -0.70582705378E+03  0.83887908570E+03  0.11173769818E+04  0.46999998093E+01 0.  1.
</event>
<event>
 5   0  0.2970915E-06  0.2987849E+04  0.7818609E-02  0.8247209E-01
       -2   -1    0    0    0  501  0.00000000000E+00  0.00000000000E+00  0.14728269659E+04  0.14728269659E+04  0.25500000920E-02 0. -1.
        2   -1    0    0  501    0  0.00000000000E+00  0.00000000000E+00 -0.15153240497E+04  0.15153240497E+04  0.25500000920E-02 0.  1.
    10030    2    1    2    0    0  0.00000000000E+00  0.00000000000E+00 -0.42497083847E+02  0.29881510156E+04  0.29878488064E+04 0.  0.
        4    1    3    3  502    0  0.42452968739E+03  0.83361967853E+02  0.14088030204E+04  0.14737375059E+04  0.12699999809E+01 0. -1.
       -4    1    3    3    0  502 -0.42452968739E+03 -0.83361967853E+02 -0.14513001042E+04  0.15144135098E+04  0.12699999809E+01 0.  1.
</event>
<event>
 5   0  0.2970915E-06  0.3008103E+04  0.7818609E-02  0.8241421E-01
       -2   -1    0    0    0  501  0.00000000000E+00  0.00000000000E+00  0.80995735084E+03  0.80995735084E+03  0.25500000920E-02 0. -1.
        2   -1    0    0  501    0  0.00000000000E+00  0.00000000000E+00 -0.27929514968E+04  0.27929514968E+04  0.25500000920E-02 0.  1.
    10030    2    1    2    0    0  0.00000000000E+00  0.00000000000E+00 -0.19829941460E+04  0.36029088477E+04  0.30081034526E+04 0.  0.
        4    1    3    3  502    0  0.10376944920E+04 -0.62910430330E+03 -0.20557889529E+04  0.23872268252E+04  0.12699999809E+01 0.  1.
       -4    1    3    3    0  502 -0.10376944920E+04  0.62910430330E+03  0.72794806871E+02  0.12156820225E+04  0.12699999809E+01 0. -1.
</event>
<event>
 5   0  0.1054384E-06  0.3008357E+04  0.7818609E-02  0.8241349E-01
       -1   -1    0    0    0  501  0.00000000000E+00  0.00000000000E+00  0.17514265263E+04  0.17514265263E+04  0.50400001928E-02 0.  1.
        1   -1    0    0  501    0  0.00000000000E+00  0.00000000000E+00 -0.12918343258E+04  0.12918343258E+04  0.50400001928E-02 0. -1.
    10030    2    1    2    0    0  0.00000000000E+00  0.00000000000E+00  0.45959220055E+03  0.30432608521E+04  0.30083569640E+04 0.  0.
        2    1    3    3  502    0  0.65790245632E+03  0.13504965287E+04  0.15224908227E+03  0.15099193022E+04  0.25500000920E-02 0.  1.
       -2    1    3    3    0  502 -0.65790245632E+03 -0.13504965287E+04  0.30734311828E+03  0.15333415499E+04  0.25500000920E-02 0. -1.
</event>
<event>
 5   0  0.2970915E-06  0.2776179E+04  0.7818609E-02  0.8310702E-01
        2   -1    0    0  501    0  0.00000000000E+00  0.00000000000E+00  0.10551337619E+04  0.10551337619E+04  0.25500000920E-02 0.  1.
       -2   -1    0    0    0  501  0.00000000000E+00  0.00000000000E+00 -0.18261123874E+04  0.18261123874E+04  0.25500000920E-02 0. -1.
    10030    2    1    2    0    0  0.00000000000E+00  0.00000000000E+00 -0.77097862552E+03  0.28812461493E+04  0.27761792687E+04 0.  0.
        4    1    3    3  502    0  0.12576586376E+04  0.46312780320E+03 -0.76055050637E+03  0.15409838729E+04  0.12699999809E+01 0. -1.
       -4    1    3    3    0  502 -0.12576586376E+04 -0.46312780320E+03 -0.10428119148E+02  0.13402622764E+04  0.12699999809E+01 0.  1.
</event>
<event>
 5   0  0.3113328E-06  0.3007040E+04  0.7818609E-02  0.8241724E-01
       -2   -1    0    0    0  501  0.00000000000E+00  0.00000000000E+00  0.12664798594E+04  0.12664798594E+04  0.25500000920E-02 0. -1.
        2   -1    0    0  501    0  0.00000000000E+00  0.00000000000E+00 -0.17849252255E+04  0.17849252255E+04  0.25500000920E-02 0.  1.
    10030    2    1    2    0    0  0.00000000000E+00  0.00000000000E+00 -0.51844536611E+03  0.30514050848E+04  0.30070396396E+04 0.  0.
        1    1    3    3  502    0  0.50563070347E+03  0.34237177533E+02  0.11771961781E+04  0.12816494975E+04  0.50400001928E-02 0. -1.
       -1    1    3    3    0  502 -0.50563070347E+03 -0.34237177533E+02 -0.16956415442E+04  0.17697555874E+04  0.50400001928E-02 0.  1.
</event>
<event>
 5   0  0.2970915E-06  0.2983128E+04  0.7818609E-02  0.8248565E-01
        2   -1    0    0  501    0  0.00000000000E+00  0.00000000000E+00  0.17983787900E+04  0.17983787900E+04  0.25500000920E-02 0. -1.
       -2   -1    0    0    0  501  0.00000000000E+00  0.00000000000E+00 -0.12370936948E+04  0.12370936948E+04  0.25500000920E-02 0.  1.
    10030    2    1    2    0    0  0.00000000000E+00  0.00000000000E+00  0.56128509524E+03  0.30354724848E+04  0.29831279302E+04 0.  0.
        4    1    3    3  502    0  0.12816070257E+04 -0.61658417620E+03  0.73805089971E+03  0.16023149997E+04  0.12699999809E+01 0. -1.
       -4    1    3    3    0  502 -0.12816070257E+04  0.61658417620E+03 -0.17676580447E+03  0.14331574852E+04  0.12699999809E+01 0.  1.
</event>
<event>
 5   0  0.1113245E-06  0.3021278E+04  0.7818609E-02  0.8237681E-01
       -1   -1    0    0    0  501  0.00000000000E+00  0.00000000000E+00  0.15671310120E+04  0.15671310121E+04  0.50400001928E-02 0.  1.
        1   -1    0    0  501    0  0.00000000000E+00  0.00000000000E+00 -0.14561837153E+04  0.14561837153E+04  0.50400001928E-02 0. -1.
    10030    2    1    2    0    0  0.00000000000E+00  0.00000000000E+00  0.11094729673E+03  0.30233147274E+04  0.30212783119E+04 0.  0.
        5    1    3    3  502    0 -0.66383304761E+03  0.10477817343E+04  0.91831215419E+03  0.15433211527E+04  0.46999998093E+01 0.  1.
       -5    1    3    3    0  502  0.66383304761E+03 -0.10477817343E+04 -0.80736485746E+03  0.14799935746E+04  0.46999998093E+01 0. -1.
</event>
<event>
 5   0  0.2948711E-06  0.3000727E+04  0.7818609E-02  0.8243523E-01
       -2   -1    0    0    0  501  0.00000000000E+00  0.00000000000E+00  0.10153897228E+04  0.10153897228E+04  0.25500000920E-02 0. -1.
        2   -1    0    0  501    0  0.00000000000E+00  0.00000000000E+00 -0.22169720017E+04  0.22169720017E+04  0.25500000920E-02 0.  1.
    10030    2    1    2    0    0  0.00000000000E+00  0.00000000000E+00 -0.12015822789E+04  0.32323617245E+04  0.30007269694E+04 0.  0.
        5    1    3    3  502    0  0.72367399158E+03 -0.93195314439E+03 -0.15990576862E+04  0.19872715676E+04  0.46999998093E+01 0.  1.
       -5    1    3    3    0  502 -0.72367399158E+03  0.93195314439E+03  0.39747540731E+03  0.12450901569E+04  0.46999998093E+01 0. -1.
</event>
<event>
 5   0  0.1113245E-06  0.3005760E+04  0.7818609E-02  0.8242088E-01
        1   -1    0    0  501    0  0.00000000000E+00  0.00000000000E+00  0.11453593962E+04  0.11453593962E+04  0.50400001928E-02 0.  1.
       -1   -1    0    0    0  501  0.00000000000E+00  0.00000000000E+00 -0.19719995738E+04  0.19719995738E+04  0.50400001928E-02 0. -1.
    10030    2    1    2    0    0  0.00000000000E+00  0.00000000000E+00 -0.82664017754E+03  0.31173589700E+04  0.30057599646E+04 0.  0.
        5    1    3    3  502    0 -0.47459797791E+03 -0.17498232018E+02 -0.18921199579E+04  0.19508176372E+04  0.46999998093E+01 0. -1.
       -5    1    3    3    0  502  0.47459797791E+03  0.17498232018E+02  0.10654797803E+04  0.11665413328E+04  0.46999998093E+01 0.  1.
</event>
<event>
 5   0  0.1091076E-06  0.2983501E+04  0.7818609E-02  0.8248458E-01
        1   -1    0    0  501    0  0.00000000000E+00  0.00000000000E+00  0.18752522737E+04  0.18752522737E+04  0.50400001928E-02 0.  1.
       -1   -1    0    0    0  501  0.00000000000E+00  0.00000000000E+00 -0.11866771915E+04  0.11866771915E+04  0.50400001928E-02 0. -1.
    10030    2    1    2    0    0  0.00000000000E+00  0.00000000000E+00  0.68857508219E+03  0.30619294652E+04  0.29835006965E+04 0.  0.
        3    1    3    3  502    0 -0.44744258318E+03  0.35311562197E+03  0.17590849119E+04  0.18491282393E+04  0.10100000352E+00 0.  1.
       -3    1    3    3    0  502  0.44744258318E+03 -0.35311562197E+03 -0.10705098298E+04  0.12128012259E+04  0.10100000352E+00 0. -1.
</event>
<event>
 5   0  0.2985941E-06  0.3029634E+04  0.7818609E-02  0.8235319E-01
       -2   -1    0    0    0  501  0.00000000000E+00  0.00000000000E+00  0.13649878027E+04  0.13649878027E+04  0.25500000920E-02 0. -1.
        2   -1    0    0  501    0  0.00000000000E+00  0.00000000000E+00 -0.16810925239E+04  0.16810925239E+04  0.25500000920E-02 0.  1.
    10030    2    1    2    0    0  0.00000000000E+00  0.00000000000E+00 -0.31610472117E+03  0.30460803266E+04  0.30296341630E+04 0.  0.
        3    1    3    3  502    0  0.47850406040E+03 -0.44632750203E+03  0.12155617429E+04  0.13804943810E+04  0.10100000352E+00 0. -1.
       -3    1    3    3    0  502 -0.47850406040E+03  0.44632750203E+03 -0.15316664641E+04  0.16655859456E+04  0.10100000352E+00 0.  1.
</event>
<event>
 5   0  0.1091075E-06  0.3000075E+04  0.7818609E-02  0.8243710E-01
       -1   -1    0    0    0  501  0.00000000000E+00  0.00000000000E+00  0.20816471887E+04  0.20816471887E+04  0.50400001928E-02 0.  1.
        1   -1    0    0  501    0  0.00000000000E+00  0.00000000000E+00 -0.10809285476E+04  0.10809285476E+04  0.50400001928E-02 0. -1.
    10030    2    1    2    0    0  0.00000000000E+00  0.00000000000E+00  0.10007186411E+04  0.31625757363E+04  0.30000745806E+04 0.  0.
        1    1    3    3  502    0  0.17198922753E+03  0.93977117350E+03  0.17194424670E+04  0.19670364893E+04  0.50400001928E-02 0.  1.
       -1    1    3    3    0  502 -0.17198922753E+03 -0.93977117350E+03 -0.71872382597E+03  0.11955392469E+04  0.50400001928E-02 0. -1.
</event>
<event>
 5   0  0.1097402E-06  0.3010067E+04  0.7818609E-02  0.8240862E-01
       -1   -1    0    0    0  501  0.00000000000E+00  0.00000000000E+00  0.16061661334E+04  0.16061661334E+04  0.50400001928E-02 0. -1.
        1   -1    0    0  501    0  0.00000000000E+00  0.00000000000E+00 -0.14102684689E+04  0.14102684689E+04  0.50400001928E-02 0.  1.
    10030    2    1    2    0    0  0.00000000000E+00  0.00000000000E+00  0.19589766445E+03  0.30164346023E+04  0.30100667459E+04 0.  0.
        4    1    3    3  502    0  0.14596657767E+03  0.85200704613E+03 -0.11366890450E+04  0.14280356601E+04  0.12699999809E+01 0.  1.
       -4    1    3    3    0  502 -0.14596657767E+03 -0.85200704613E+03  0.13325867095E+04  0.15883989422E+04  0.12699999809E+01 0. -1.
</event>
<event>
 5   0  0.1113245E-06  0.2999973E+04  0.7818609E-02  0.8243739E-01
       -1   -1    0    0    0  501  0.00000000000E+00  0.00000000000E+00  0.11002250050E+04  0.11002250050E+04  0.50400001928E-02 0. -1.
        1   -1    0    0  501    0  0.00000000000E+00  0.00000000000E+00 -0.20449987735E+04  0.20449987735E+04  0.50400001928E-02 0.  1.
    10030    2    1    2    0    0  0.00000000000E+00  0.00000000000E+00 -0.94477376851E+03  0.31452237785E+04  0.29999725237E+04 0.  0.
        5    1    3    3  502    0 -0.11258381213E+04 -0.51788062403E+03 -0.13584236855E+04  0.18387628491E+04  0.46999998093E+01 0. -1.
       -5    1    3    3    0  502  0.11258381213E+04  0.51788062403E+03  0.41364991700E+03  0.13064609293E+04  0.46999998093E+01 0.  1.
</event>
<event>
 5   0  0.1091075E-06  0.3008309E+04  0.7818609E-02  0.8241362E-01
        1   -1    0    0  501    0  0.00000000000E+00  0.00000000000E+00  0.17151368868E+04  0.17151368869E+04  0.50400001928E-02 0.  1.
       -1   -1    0    0    0  501  0.00000000000E+00  0.00000000000E+00 -0.13191257798E+04  0.13191257798E+04  0.50400001928E-02 0. -1.
    10030    2    1    2    0    0  0.00000000000E+00  0.00000000000E+00  0.39601110702E+03  0.30342626667E+04  0.30083093480E+04 0.  0.
        1    1    3    3  502    0 -0.15904475759E+03  0.49511543630E+03 -0.12255697458E+04  0.13313360703E+04  0.50400001928E-02 0. -1.
       -1    1    3    3    0  502  0.15904475759E+03 -0.49511543630E+03  0.16215808529E+04  0.17029265964E+04  0.50400001928E-02 0.  1.
</event>
<event>
 5   0  0.1091075E-06  0.2994443E+04  0.7818609E-02  0.8245320E-01
       -1   -1    0    0    0  501  0.00000000000E+00  0.00000000000E+00  0.13967131884E+04  0.13967131884E+04  0.50400001928E-02 0. -1.
        1   -1    0    0  501    0  0.00000000000E+00  0.00000000000E+00 -0.16049620285E+04  0.16049620286E+04  0.50400001928E-02 0.  1.
    10030    2    1    2    0    0  0.00000000000E+00  0.00000000000E+00 -0.20824884015E+03  0.30016752170E+04  0.29944426073E+04 0.  0.
        1    1    3    3  502    0  0.20410794072E+03  0.35136851593E+03 -0.15486295379E+04  0.16010538190E+04  0.50400001928E-02 0.  1.
       -1    1    3    3    0  502 -0.20410794072E+03 -0.35136851593E+03  0.13403806978E+04  0.14006213980E+04  0.50400001928E-02 0. -1.
</event>
<event>
 5   0  0.2970915E-06  0.3323877E+04  0.7818609E-02  0.8156846E-01
        2   -1    0    0  501    0  0.00000000000E+00  0.00000000000E+00  0.22816510331E+04  0.22816510331E+04  0.25500000920E-02 0. -1.
       -2   -1    0    0    0  501  0.00000000000E+00  0.00000000000E+00 -0.12105444186E+04  0.12105444186E+04  0.25500000920E-02 0.  1.
    10030    2    1    2    0    0  0.00000000000E+00  0.00000000000E+00  0.10711066145E+04  0.34921954517E+04  0.33238772079E+04 0.  0.
        4    1    3    3  502    0  0.91999307280E+02  0.17313351144E+03 -0.11983511851E+04  0.12142842588E+04  0.12699999809E+01 0.  1.
       -4    1    3    3    0  502 -0.91999307280E+02 -0.17313351144E+03  0.22694577997E+04  0.22779111929E+04  0.12699999809E+01 0. -1.
</event>
<event>
 5   0  0.1097402E-06  0.2998891E+04  0.7818609E-02  0.8244048E-01
        1   -1    0    0  501    0  0.00000000000E+00  0.00000000000E+00  0.16392372853E+04  0.16392372853E+04  0.50400001928E-02 0. -1.
       -1   -1    0    0    0  501  0.00000000000E+00  0.00000000000E+00 -0.13715745326E+04  0.13715745326E+04  0.50400001928E-02 0.  1.
    10030    2    1    2    0    0  0.00000000000E+00  0.00000000000E+00  0.26766275271E+03  0.30108118178E+04  0.29988905371E+04 0.  0.
        4    1    3    3  502    0 -0.71475804797E+03  0.10049241065E+04  0.99020693116E+03  0.15815381457E+04  0.12699999809E+01 0. -1.
       -4    1    3    3    0  502  0.71475804797E+03 -0.10049241065E+04 -0.72254417845E+03  0.14292736721E+04  0.12699999809E+01 0.  1.
</event>
<event>
 5   0  0.1091075E-06  0.2993960E+04  0.7818609E-02  0.8245458E-01
       -1   -1    0    0    0  501  0.00000000000E+00  0.00000000000E+00  0.11610121803E+04  0.11610121803E+04  0.50400001928E-02 0. -1.
        1   -1    0    0  501    0  0.00000000000E+00  0.00000000000E+00 -0.19301684034E+04  0.19301684035E+04  0.50400001928E-02 0.  1.
    10030    2    1    2    0    0  0.00000000000E+00  0.00000000000E+00 -0.76915622318E+03  0.30911805837E+04  0.29939599372E+04 0.  0.
        1    1    3    3  502    0  0.34981889740E+01  0.27218712504E+03 -0.19044007611E+04  0.19237568264E+04  0.50400001928E-02 0.  1.
       -1    1    3    3    0  502 -0.34981889740E+01 -0.27218712504E+03  0.11352445379E+04  0.11674237573E+04  0.50400001928E-02 0. -1.
</event>
<event>
 5   0  0.1091076E-06  0.3011567E+04  0.7818609E-02  0.8240436E-01
       -1   -1    0    0    0  501  0.00000000000E+00  0.00000000000E+00  0.67350315002E+03  0.67350315004E+03  0.50400001928E-02 0. -1.
        1   -1    0    0  501    0  0.00000000000E+00  0.00000000000E+00 -0.33665531777E+04  0.33665531777E+04  0.50400001928E-02 0.  1.
    10030    2    1    2    0    0  0.00000000000E+00  0.00000000000E+00 -0.26930500276E+04  0.40400563277E+04  0.30115671468E+04 0.  0.
        3    1    3    3  502    0 -0.82995224626E+03  0.10207270771E+04 -0.23292962534E+04  0.26751309395E+04  0.10100000352E+00 0.  1.
       -3    1    3    3    0  502  0.82995224626E+03 -0.10207270771E+04 -0.36375377423E+03  0.13649253882E+04  0.10100000352E+00 0. -1.
</event>
<event>
 5   0  0.1091076E-06  0.2996751E+04  0.7818609E-02  0.8244659E-01
        1   -1    0    0  501    0  0.00000000000E+00  0.00000000000E+00  0.13330107183E+04  0.13330107184E+04  0.50400001928E-02 0.  1.
       -1   -1    0    0    0  501  0.00000000000E+00  0.00000000000E+00 -0.16842542367E+04  0.16842542367E+04  0.50400001928E-02 0. -1.
    10030    2    1    2    0    0  0.00000000000E+00  0.00000000000E+00 -0.35124351840E+03  0.30172649551E+04  0.29967508739E+04 0.  0.
        3    1    3    3  502    0  0.11905144773E+04  0.67570645848E+03  0.43783141293E+03  0.14372196405E+04  0.10100000352E+00 0.  1.
       -3    1    3    3    0  502 -0.11905144773E+04 -0.67570645848E+03 -0.78907493133E+03  0.15800453146E+04  0.10100000352E+00 0. -1.
</event>
<event>
 5   0  0.2970915E-06  0.2897225E+04  0.7818609E-02  0.8273704E-01
        2   -1    0    0  501    0  0.00000000000E+00  0.00000000000E+00  0.23668157048E+04  0.23668157048E+04  0.25500000920E-02 0.  1.
       -2   -1    0    0    0  501  0.00000000000E+00  0.00000000000E+00 -0.88662510625E+03  0.88662510625E+03  0.25500000920E-02 0. -1.
    10030    2    1    2    0    0  0.00000000000E+00  0.00000000000E+00  0.14801905986E+04  0.32534408111E+04  0.28972250349E+04 0.  0.
        4    1    3    3  502    0 -0.46707721881E+03  0.98946859870E+03  0.18061696792E+04  0.21117432986E+04  0.12699999809E+01 0.  1.
       -4    1    3    3    0  502  0.46707721881E+03 -0.98946859870E+03 -0.32597908062E+03  0.11416975125E+04  0.12699999809E+01 0. -1.
</event>
<event>
 5   0  0.1054384E-06  0.2984667E+04  0.7818609E-02  0.8248123E-01
        1   -1    0    0  501    0  0.00000000000E+00  0.00000000000E+00  0.17386290988E+04  0.17386290988E+04  0.50400001928E-02 0. -1.
       -1   -1    0    0    0  501  0.00000000000E+00  0.00000000000E+00 -0.12809286363E+04  0.12809286363E+04  0.50400001928E-02 0.  1.
    10030    2    1    2    0    0  0.00000000000E+00  0.00000000000E+00  0.45770046256E+03  0.30195577351E+04  0.29846673520E+04 0.  0.
        2    1    3    3  502    0 -0.34698466837E+03 -0.83906536893E+03  0.14270219937E+04  0.16913961168E+04  0.25500000920E-02 0. -1.
       -2    1    3    3    0  502  0.34698466837E+03  0.83906536893E+03 -0.96932153118E+03  0.13281616183E+04  0.25500000920E-02 0.  1.
</event>
<event>
 5   0  0.1097402E-06  0.3022159E+04  0.7818609E-02  0.8237431E-01
       -1   -1    0    0    0  501  0.00000000000E+00  0.00000000000E+00  0.12186662103E+04  0.12186662103E+04  0.50400001928E-02 0. -1.
        1   -1    0    0  501    0  0.00000000000E+00  0.00000000000E+00 -0.18736561632E+04  0.18736561632E+04  0.50400001928E-02 0.  1.
    10030    2    1    2    0    0  0.00000000000E+00  0.00000000000E+00 -0.65498995297E+03  0.30923223735E+04  0.30221591327E+04 0.  0.
        4    1    3    3  502    0 -0.14014802896E+03  0.10728408682E+04 -0.14068454776E+04  0.17747802143E+04  0.12699999809E+01 0.  1.
       -4    1    3    3    0  502  0.14014802896E+03 -0.10728408682E+04  0.75185552461E+03  0.13175421592E+04  0.12699999809E+01 0. -1.
</event>
<event>
 5   0  0.2970915E-06  0.2959174E+04  0.7818609E-02  0.8255486E-01
       -2   -1    0    0    0  501  0.00000000000E+00  0.00000000000E+00  0.11454447543E+04  0.11454447543E+04  0.25500000920E-02 0. -1.
        2   -1    0    0  501    0  0.00000000000E+00  0.00000000000E+00 -0.19112037426E+04  0.19112037426E+04  0.25500000920E-02 0.  1.
    10030    2    1    2    0    0  0.00000000000E+00  0.00000000000E+00 -0.76575898833E+03  0.30566484969E+04  0.29591744128E+04 0.  0.
        4    1    3    3  502    0  0.12227017910E+03 -0.97997264542E+03  0.75517450439E+03  0.12432162030E+04  0.12699999809E+01 0. -1.
       -4    1    3    3    0  502 -0.12227017910E+03  0.97997264542E+03 -0.15209334927E+04  0.18134322939E+04  0.12699999809E+01 0.  1.
</event>
<event>
 5   0  0.2948711E-06  0.2980224E+04  0.7818609E-02  0.8249401E-01
        2   -1    0    0  501    0  0.00000000000E+00  0.00000000000E+00  0.12039224149E+04  0.12039224149E+04  0.25500000920E-02 0.  1.
       -2   -1    0    0    0  501  0.00000000000E+00  0.00000000000E+00 -0.18443334007E+04  0.18443334007E+04  0.25500000920E-02 0. -1.
    10030    2    1    2    0    0  0.00000000000E+00  0.00000000000E+00 -0.64041098583E+03  0.30482558156E+04  0.29802243684E+04 0.  0.
        5    1    3    3  502    0 -0.91768017925E+03 -0.10596071230E+04  0.19681142704E+03  0.14155073275E+04  0.46999998093E+01 0. -1.
       -5    1    3    3    0  502  0.91768017925E+03  0.10596071230E+04 -0.83722241287E+03  0.16327484880E+04  0.46999998093E+01 0.  1.
</event>
<event>
 5   0  0.1097402E-06  0.3007759E+04  0.7818609E-02  0.8241519E-01
       -1   -1    0    0    0  501  0.00000000000E+00  0.00000000000E+00  0.10455320961E+04  0.10455320962E+04  0.50400001928E-02 0. -1.
        1   -1    0    0  501    0  0.00000000000E+00  0.00000000000E+00 -0.21631599898E+04  0.21631599898E+04  0.50400001928E-02 0.  1.
    10030    2    1    2    0    0  0.00000000000E+00  0.00000000000E+00 -0.11176278936E+04  0.32086920859E+04  0.30077587659E+04 0.  0.
        4    1    3    3  502    0 -0.64401413219E+03 -0.42171403074E+03  0.81941168228E+03  0.11242926862E+04  0.12699999809E+01 0. -1.
       -4    1    3    3    0  502  0.64401413219E+03  0.42171403074E+03 -0.19370395759E+04  0.20843993997E+04  0.12699999809E+01 0.  1.
</event>
<event>
 5   0  0.2970915E-06  0.2975562E+04  0.7818609E-02  0.8250744E-01
       -2   -1    0    0    0  501  0.00000000000E+00  0.00000000000E+00  0.23960615723E+04  0.23960615723E+04  0.25500000920E-02 0. -1.
        2   -1    0    0  501    0  0.00000000000E+00  0.00000000000E+00 -0.92380416971E+03  0.92380416972E+03  0.25500000920E-02 0.  1.
    10030    2    1    2    0    0  0.00000000000E+00  0.00000000000E+00  0.14722574026E+04  0.33198657420E+04  0.29755615748E+04 0.  0.
        4    1    3    3  502    0  0.92444012040E+03 -0.15850097409E+03 -0.55239777863E+03  0.10885113751E+04  0.12699999809E+01 0.  1.
       -4    1    3    3    0  502 -0.92444012040E+03  0.15850097409E+03  0.20246551812E+04  0.22313543669E+04  0.12699999809E+01 0. -1.
</event>
<event>
 5   0  0.2985941E-06  0.3005058E+04  0.7818609E-02  0.8242288E-01
        2   -1    0    0  501    0  0.00000000000E+00  0.00000000000E+00  0.94944802462E+03  0.94944802462E+03  0.25500000920E-02 0.  1.
       -2   -1    0    0    0  501  0.00000000000E+00  0.00000000000E+00 -0.23777948743E+04  0.23777948743E+04  0.25500000920E-02 0. -1.
    10030    2    1    2    0    0  0.00000000000E+00  0.00000000000E+00 -0.14283468497E+04  0.33272428990E+04  0.30050575012E+04 0.  0.
        3    1    3    3  502    0  0.13173080590E+04  0.16842159255E+03  0.63975618352E+02  0.13295710756E+04  0.10100000352E+00 0. -1.
       -3    1    3    3    0  502 -0.13173080590E+04 -0.16842159255E+03 -0.14923224681E+04  0.19976718234E+04  0.10100000352E+00 0.  1.
</event>
<event>
 5   0  0.1113245E-06  0.2997634E+04  0.7818609E-02  0.8244407E-01
        1   -1    0    0  501    0  0.00000000000E+00  0.00000000000E+00  0.17453328139E+04  0.17453328139E+04  0.50400001928E-02 0.  1.
       -1   -1    0    0    0  501  0.00000000000E+00  0.00000000000E+00 -0.12871195387E+04  0.12871195387E+04  0.50400001928E-02 0. -1.
    10030    2    1    2    0    0  0.00000000000E+00  0.00000000000E+00  0.45821327521E+03  0.30324523527E+04  0.29976337111E+04 0.  0.
        5    1    3    3  502    0  0.63728691839E+03 -0.91883028398E+02 -0.11400738594E+04  0.13093386124E+04  0.46999998093E+01 0. -1.
       -5    1    3    3    0  502 -0.63728691839E+03  0.91883028398E+02  0.15982871346E+04  0.17231137402E+04  0.46999998093E+01 0.  1.
</event>
<event>
 5   0  0.2862033E-06  0.3009570E+04  0.7818609E-02  0.8241003E-01
       -2   -1    0    0    0  501  0.00000000000E+00  0.00000000000E+00  0.12833803648E+04  0.12833803648E+04  0.25500000920E-02 0. -1.
        2   -1    0    0  501    0  0.00000000000E+00  0.00000000000E+00 -0.17643858235E+04  0.17643858235E+04  0.25500000920E-02 0.  1.
    10030    2    1    2    0    0  0.00000000000E+00  0.00000000000E+00 -0.48100545870E+03  0.30477661883E+04  0.30095701499E+04 0.  0.
        2    1    3    3  502    0  0.99210189594E+03 -0.88045853429E+03  0.47908192143E+03  0.14103165921E+04  0.25500000920E-02 0. -1.
       -2    1    3    3    0  502 -0.99210189594E+03  0.88045853429E+03 -0.96008738013E+03  0.16374495962E+04  0.25500000920E-02 0.  1.
</event>
<event>
 5   0  0.9749500E-07  0.3007522E+04  0.7818609E-02  0.8241586E-01
       -3   -1    0    0    0  501  0.00000000000E+00  0.00000000000E+00  0.17024835292E+04  0.17024835322E+04  0.10100000352E+00 0.  1.
        3   -1    0    0  501    0  0.00000000000E+00  0.00000000000E+00 -0.13282346758E+04  0.13282346796E+04  0.10100000352E+00 0. -1.
    10030    2    1    2    0    0  0.00000000000E+00  0.00000000000E+00  0.37424885337E+03  0.30307182118E+04  0.30075223482E+04 0.  0.
        1    1    3    3  502    0 -0.36201958603E+03 -0.70342308852E+03  0.14758290861E+04  0.16744950623E+04  0.50400001928E-02 0.  1.
       -1    1    3    3    0  502  0.36201958603E+03  0.70342308852E+03 -0.11015802327E+04  0.13562231495E+04  0.50400001928E-02 0. -1.
</event>
<event>
 5   0  0.2862033E-06  0.3004296E+04  0.7818609E-02  0.8242505E-01
        2   -1    0    0  501    0  0.00000000000E+00  0.00000000000E+00  0.15513874141E+04  0.15513874141E+04  0.25500000920E-02 0. -1.
       -2   -1    0    0    0  501  0.00000000000E+00  0.00000000000E+00 -0.14544709171E+04  0.14544709171E+04  0.25500000920E-02 0.  1.
    10030    2    1    2    0    0  0.00000000000E+00  0.00000000000E+00  0.96916497020E+02  0.30058583312E+04  0.30042955081E+04 0.  0.
        2    1    3    3  502    0 -0.41388756857E+03  0.51570264959E+02  0.14922908666E+04  0.15494819915E+04  0.25500000920E-02 0. -1.
       -2    1    3    3    0  502  0.41388756857E+03 -0.51570264959E+02 -0.13953743696E+04  0.14563763397E+04  0.25500000920E-02 0.  1.
</event>
<event>
 5   0  0.1091076E-06  0.2988470E+04  0.7818609E-02  0.8247031E-01
       -1   -1    0    0    0  501  0.00000000000E+00  0.00000000000E+00  0.12840673851E+04  0.12840673851E+04  0.50400001928E-02 0. -1.
        1   -1    0    0  501    0  0.00000000000E+00  0.00000000000E+00 -0.17388013176E+04  0.17388013177E+04  0.50400001928E-02 0.  1.
    10030    2    1    2    0    0  0.00000000000E+00  0.00000000000E+00 -0.45473393258E+03  0.30228687027E+04  0.29884698835E+04 0.  0.
        3    1    3    3  502    0 -0.11488667822E+04  0.28167869615E+02 -0.11933726068E+04  0.16567517922E+04  0.10100000352E+00 0.  1.
       -3    1    3    3    0  502  0.11488667822E+04 -0.28167869615E+02  0.73863867422E+03  0.13661169105E+04  0.10100000352E+00 0. -1.
</event>
<event>
 5   0  0.2985941E-06  0.2998131E+04  0.7818609E-02  0.8244265E-01
       -2   -1    0    0    0  501  0.00000000000E+00  0.00000000000E+00  0.14136624713E+04  0.14136624713E+04  0.25500000920E-02 0.  1.
        2   -1    0    0  501    0  0.00000000000E+00  0.00000000000E+00 -0.15896278109E+04  0.15896278109E+04  0.25500000920E-02 0. -1.
    10030    2    1    2    0    0  0.00000000000E+00  0.00000000000E+00 -0.17596533962E+03  0.30032902822E+04  0.29981308708E+04 0.  0.
        3    1    3    3  502    0  0.21027996977E+03 -0.97559401509E+03  0.10325108966E+04  0.14359944672E+04  0.10100000352E+00 0.  1.
       -3    1    3    3    0  502 -0.21027996977E+03  0.97559401509E+03 -0.12084762362E+04  0.15672958150E+04  0.10100000352E+00 0. -1.
</event>
<event>
 5   0  0.1097402E-06  0.2994823E+04  0.7818609E-02  0.8245211E-01
       -1   -1    0    0    0  501  0.00000000000E+00  0.00000000000E+00  0.11421835237E+04  0.11421835237E+04  0.50400001928E-02 0.  1.
        1   -1    0    0  501    0  0.00000000000E+00  0.00000000000E+00 -0.19631183113E+04  0.19631183113E+04  0.50400001928E-02 0. -1.
    10030    2    1    2    0    0  0.00000000000E+00  0.00000000000E+00 -0.82093478753E+03  0.31053018350E+04  0.29948231269E+04 0.  0.
        4    1    3    3  502    0  0.10738179343E+04 -0.10395265423E+04 -0.31464962604E+03  0.15273200019E+04  0.12699999809E+01 0.  1.
       -4    1    3    3    0  502 -0.10738179343E+04  0.10395265423E+04 -0.50628516149E+03  0.15779818331E+04  0.12699999809E+01 0. -1.
</event>
<event>
 5   0  0.1091075E-06  0.2994000E+04  0.7818609E-02  0.8245446E-01
        1   -1    0    0  501    0  0.00000000000E+00  0.00000000000E+00  0.17912359888E+04  0.17912359888E+04  0.50400001928E-02 0.  1.
       -1   -1    0    0    0  501  0.00000000000E+00  0.00000000000E+00 -0.12510960396E+04  0.12510960396E+04  0.50400001928E-02 0. -1.
    10030    2    1    2    0    0  0.00000000000E+00  0.00000000000E+00  0.54013994926E+03  0.30423320284E+04  0.29939995001E+04 0.  0.
        1    1    3    3  502    0  0.24524958003E+03  0.20010114767E+03 -0.12167041903E+04  0.12572020174E+04  0.50400001928E-02 0. -1.
       -1    1    3    3    0  502 -0.24524958003E+03 -0.20010114767E+03  0.17568441395E+04  0.17851300111E+04  0.50400001928E-02 0.  1.
</event>
<event>
 5   0  0.2862033E-06  0.2976846E+04  0.7818609E-02  0.8250374E-01
       -2   -1    0    0    0  501  0.00000000000E+00  0.00000000000E+00  0.14077167145E+04  0.14077167145E+04  0.25500000920E-02 0. -1.
        2   -1    0    0  501    0  0.00000000000E+00  0.00000000000E+00 -0.15737559647E+04  0.15737559647E+04  0.25500000920E-02 0.  1.
    10030    2    1    2    0    0  0.00000000000E+00  0.00000000000E+00 -0.16603925025E+03  0.29814726792E+04  0.29768456971E+04 0.  0.
        2    1    3    3  502    0  0.61759375114E+03  0.70141374023E+03 -0.12432671611E+04  0.15553509283E+04  0.25500000920E-02 0.  1.
       -2    1    3    3    0  502 -0.61759375114E+03 -0.70141374023E+03  0.10772279108E+04  0.14261217509E+04  0.25500000920E-02 0. -1.
</event>
<event>
 5   0  0.1091076E-06  0.3002850E+04  0.7818609E-02  0.8242917E-01
       -1   -1    0    0    0  501  0.00000000000E+00  0.00000000000E+00  0.11436700404E+04  0.11436700405E+04  0.50400001928E-02 0.  1.
        1   -1    0    0  501    0  0.00000000000E+00  0.00000000000E+00 -0.19710907711E+04  0.19710907711E+04  0.50400001928E-02 0. -1.
    10030    2    1    2    0    0  0.00000000000E+00  0.00000000000E+00 -0.82742073069E+03  0.31147608116E+04  0.30028502873E+04 0.  0.
        3    1    3    3  502    0 -0.94194622210E+03  0.10055647980E+04 -0.10324772628E+04  0.17217527571E+04  0.10100000352E+00 0. -1.
       -3    1    3    3    0  502  0.94194622210E+03 -0.10055647980E+04  0.20505653212E+03  0.13930080545E+04  0.10100000352E+00 0.  1.
</event>
<event>
 5   0  0.2970915E-06  0.2971306E+04  0.7818609E-02  0.8251973E-01
        2   -1    0    0  501    0  0.00000000000E+00  0.00000000000E+00  0.14642404764E+04  0.14642404764E+04  0.25500000920E-02 0. -1.
       -2   -1    0    0    0  501  0.00000000000E+00  0.00000000000E+00 -0.15073781634E+04  0.15073781634E+04  0.25500000920E-02 0.  1.
    10030    2    1    2    0    0  0.00000000000E+00  0.00000000000E+00 -0.43137686988E+02  0.29716186398E+04  0.29713055179E+04 0.  0.
        4    1    3    3  502    0  0.67946190745E+03 -0.61911879173E+03 -0.11888190566E+04  0.15027537803E+04  0.12699999809E+01 0.  1.
       -4    1    3    3    0  502 -0.67946190745E+03  0.61911879173E+03  0.11456813696E+04  0.14688648595E+04  0.12699999809E+01 0. -1.
</event>
<event>
 5   0  0.2985941E-06  0.2975647E+04  0.7818609E-02  0.8250719E-01
        2   -1    0    0  501    0  0.00000000000E+00  0.00000000000E+00  0.28582946174E+04  0.28582946174E+04  0.25500000920E-02 0.  1.
       -2   -1    0    0    0  501  0.00000000000E+00  0.00000000000E+00 -0.77445449660E+03  0.77445449661E+03  0.25500000920E-02 0. -1.
    10030    2    1    2    0    0  0.00000000000E+00  0.00000000000E+00  0.20838401208E+04  0.36327491140E+04  0.29756472365E+04 0.  0.
        3    1    3    3  502    0 -0.84900571219E+03 -0.60187949388E+03  0.23399919627E+04  0.25609826279E+04  0.10100000352E+00 0.  1.
       -3    1    3    3    0  502  0.84900571219E+03  0.60187949388E+03 -0.25615184192E+03  0.10717664861E+04  0.10100000352E+00 0. -1.
</event>
<event>
 5   0  0.2948711E-06  0.2990119E+04  0.7818609E-02  0.8246558E-01
       -2   -1    0    0    0  501  0.00000000000E+00  0.00000000000E+00  0.19132172778E+04  0.19132172778E+04  0.25500000920E-02 0. -1.
        2   -1    0    0  501    0  0.00000000000E+00  0.00000000000E+00 -0.11682952272E+04  0.11682952273E+04  0.25500000920E-02 0.  1.
    10030    2    1    2    0    0  0.00000000000E+00  0.00000000000E+00  0.74492205056E+03  0.30815125051E+04  0.29901188032E+04 0.  0.
        5    1    3    3  502    0 -0.35354035779E+03  0.12624858507E+04  0.11129773465E+04  0.17197679994E+04  0.46999998093E+01 0. -1.
       -5    1    3    3    0  502  0.35354035779E+03 -0.12624858507E+04 -0.36805529596E+03  0.13617445057E+04  0.46999998093E+01 0.  1.
</event>
<event>
 5   0  0.1097402E-06  0.2998510E+04  0.7818609E-02  0.8244157E-01
        1   -1    0    0  501    0  0.00000000000E+00  0.00000000000E+00  0.21982392482E+04  0.21982392482E+04  0.50400001928E-02 0.  1.
       -1   -1    0    0    0  501  0.00000000000E+00  0.00000000000E+00 -0.10225297823E+04  0.10225297823E+04  0.50400001928E-02 0. -1.
    10030    2    1    2    0    0  0.00000000000E+00  0.00000000000E+00  0.11757094659E+04  0.32207690306E+04  0.29985096965E+04 0.  0.
        4    1    3    3  502    0  0.60974617986E+03  0.12114027961E+04 -0.98640588522E+02  0.13597862761E+04  0.12699999809E+01 0. -1.
       -4    1    3    3    0  502 -0.60974617986E+03 -0.12114027961E+04  0.12743500544E+04  0.18609827544E+04  0.12699999809E+01 0.  1.
</event>
<event>
 5   0  0.1091076E-06  0.2982380E+04  0.7818609E-02  0.8248780E-01
       -1   -1    0    0    0  501  0.00000000000E+00  0.00000000000E+00  0.84801896517E+03  0.84801896518E+03  0.50400001928E-02 0.  1.
        1   -1    0    0  501    0  0.00000000000E+00  0.00000000000E+00 -0.26221671227E+04  0.26221671227E+04  0.50400001928E-02 0. -1.
    10030    2    1    2    0    0  0.00000000000E+00  0.00000000000E+00 -0.17741481575E+04  0.34701860878E+04  0.29823798885E+04 0.  0.
        3    1    3    3  502    0  0.24789055176E+03 -0.13307169327E+04 -0.16150126855E+04  0.21072549123E+04  0.10100000352E+00 0. -1.
       -3    1    3    3    0  502 -0.24789055176E+03  0.13307169327E+04 -0.15913547201E+03  0.13629311756E+04  0.10100000352E+00 0.  1.
</event>
<event>
 5   0  0.1113245E-06  0.3005488E+04  0.7818609E-02  0.8242165E-01
       -1   -1    0    0    0  501  0.00000000000E+00  0.00000000000E+00  0.12003003349E+04  0.12003003349E+04  0.50400001928E-02 0.  1.
        1   -1    0    0  501    0  0.00000000000E+00  0.00000000000E+00 -0.18813955263E+04  0.18813955263E+04  0.50400001928E-02 0. -1.
    10030    2    1    2    0    0  0.00000000000E+00  0.00000000000E+00 -0.68109519137E+03  0.30816958612E+04  0.30054881003E+04 0.  0.
        5    1    3    3  502    0 -0.11794607882E+04  0.91969004788E+03 -0.19104216931E+03  0.15078052711E+04  0.46999998093E+01 0. -1.
       -5    1    3    3    0  502  0.11794607882E+04 -0.91969004788E+03 -0.49005302206E+03  0.15738905901E+04  0.46999998093E+01 0.  1.
</event>
<event>
 5   0  0.2862033E-06  0.3017952E+04  0.7818609E-02  0.8238623E-01
       -2   -1    0    0    0  501  0.00000000000E+00  0.00000000000E+00  0.13470970430E+04  0.13470970430E+04  0.25500000920E-02 0.  1.
        2   -1    0    0  501    0  0.00000000000E+00  0.00000000000E+00 -0.16903072529E+04  0.16903072529E+04  0.25500000920E-02 0. -1.
    10030    2    1    2    0    0  0.00000000000E+00  0.00000000000E+00 -0.34321020997E+03  0.30374042959E+04  0.30179515584E+04 0.  0.
        2    1    3    3  502    0  0.19402829694E+03 -0.12447316618E+04 -0.10076241025E+04  0.16131677599E+04  0.25500000920E-02 0. -1.
       -2    1    3    3    0  502 -0.19402829694E+03  0.12447316618E+04  0.66441389253E+03  0.14242365360E+04  0.25500000920E-02 0.  1.
</event>
<event>
 5   0  0.2970915E-06  0.2985580E+04  0.7818609E-02  0.8247861E-01
        2   -1    0    0  501    0  0.00000000000E+00  0.00000000000E+00  0.18900022342E+04  0.18900022342E+04  0.25500000920E-02 0.  1.
       -2   -1    0    0    0  501  0.00000000000E+00  0.00000000000E+00 -0.11790575580E+04  0.11790575580E+04  0.25500000920E-02 0. -1.
    10030    2    1    2    0    0  0.00000000000E+00  0.00000000000E+00  0.71094467622E+03  0.30690597923E+04  0.29855796214E+04 0.  0.
        4    1    3    3  502    0 -0.14434902694E+04 -0.28425481653E+03  0.95508209227E+02  0.14743094619E+04  0.12699999809E+01 0.  1.
       -4    1    3    3    0  502  0.14434902694E+04  0.28425481653E+03  0.61543646700E+03  0.15947503304E+04  0.12699999809E+01 0. -1.
</event>
<event>
 5   0  0.2948711E-06  0.2996516E+04  0.7818609E-02  0.8244726E-01
       -2   -1    0    0    0  501  0.00000000000E+00  0.00000000000E+00  0.13132524672E+04  0.13132524672E+04  0.25500000920E-02 0. -1.
        2   -1    0    0  501    0  0.00000000000E+00  0.00000000000E+00 -0.17093267922E+04  0.17093267922E+04  0.25500000920E-02 0.  1.
    10030    2    1    2    0    0  0.00000000000E+00  0.00000000000E+00 -0.39607432495E+03  0.30225792594E+04  0.29965163955E+04 0.  0.
        5    1    3    3  502    0 -0.17721932444E+03 -0.14394620712E+04  0.18112826381E+03  0.14616043519E+04  0.46999998093E+01 0. -1.
       -5    1    3    3    0  502  0.17721932444E+03  0.14394620712E+04 -0.57720258877E+03  0.15609749075E+04  0.46999998093E+01 0.  1.
</event>
<event>
 5   0  0.2970915E-06  0.2993455E+04  0.7818609E-02  0.8245602E-01
       -2   -1    0    0    0  501  0.00000000000E+00  0.00000000000E+00  0.13292217340E+04  0.13292217340E+04  0.25500000920E-02 0. -1.
        2   -1    0    0  501    0  0.00000000000E+00  0.00000000000E+00 -0.16853421217E+04  0.16853421217E+04  0.25500000920E-02 0.  1.
    10030    2    1    2    0    0  0.00000000000E+00  0.00000000000E+00 -0.35612038773E+03  0.30145638557E+04  0.29934551123E+04 0.  0.
        4    1    3    3  502    0  0.10348809617E+04 -0.33651952528E+03  0.85678900725E+03  0.13850317728E+04  0.12699999809E+01 0. -1.
       -4    1    3    3    0  502 -0.10348809617E+04  0.33651952528E+03 -0.12129093950E+04  0.16295320829E+04  0.12699999809E+01 0.  1.
</event>
<event>
 5   0  0.2862033E-06  0.2991715E+04  0.7818609E-02  0.8246101E-01
        2   -1    0    0  501    0  0.00000000000E+00  0.00000000000E+00  0.11809171097E+04  0.11809171098E+04  0.25500000920E-02 0. -1.
       -2   -1    0    0    0  501  0.00000000000E+00  0.00000000000E+00 -0.18947895850E+04  0.18947895850E+04  0.25500000920E-02 0.  1.
    10030    2    1    2    0    0  0.00000000000E+00  0.00000000000E+00 -0.71387247524E+03  0.30757066947E+04  0.29917148529E+04 0.  0.
        2    1    3    3  502    0 -0.21187544856E+03 -0.11387604578E+03  0.11609042004E+04  0.11855621122E+04  0.25500000920E-02 0. -1.
       -2    1    3    3    0  502  0.21187544856E+03  0.11387604578E+03 -0.18747766756E+04  0.18901445825E+04  0.25500000920E-02 0.  1.
</event>
<event>
 5   0  0.2948711E-06  0.2995994E+04  0.7818609E-02  0.8244876E-01
       -2   -1    0    0    0  501  0.00000000000E+00  0.00000000000E+00  0.14154685106E+04  0.14154685106E+04  0.25500000920E-02 0. -1.
        2   -1    0    0  501    0  0.00000000000E+00  0.00000000000E+00 -0.15853374324E+04  0.15853374324E+04  0.25500000920E-02 0.  1.
    10030    2    1    2    0    0  0.00000000000E+00  0.00000000000E+00 -0.16986892185E+03  0.30008059430E+04  0.29959941350E+04 0.  0.
        5    1    3    3  502    0 -0.14569980652E+04  0.15192061276E+03  0.22869764010E+03  0.14826489588E+04  0.46999998093E+01 0. -1.
       -5    1    3    3    0  502  0.14569980652E+04 -0.15192061276E+03 -0.39856656195E+03  0.15181569842E+04  0.46999998093E+01 0.  1.
</event>
<event>
 5   0  0.2948711E-06  0.3031515E+04  0.7818609E-02  0.8234789E-01
        2   -1    0    0  501    0  0.00000000000E+00  0.00000000000E+00  0.19155034201E+04  0.19155034201E+04  0.25500000920E-02 0.  1.
       -2   -1    0    0    0  501  0.00000000000E+00  0.00000000000E+00 -0.11994342430E+04  0.11994342430E+04  0.25500000920E-02 0. -1.
    10030    2    1    2    0    0  0.00000000000E+00  0.00000000000E+00  0.71606917716E+03  0.31149376631E+04  0.30315147333E+04 0.  0.
        5    1    3    3  502    0  0.87008037982E+03  0.10554359717E+04 -0.31301712493E+03  0.14032058895E+04  0.46999998093E+01 0. -1.
       -5    1    3    3    0  502 -0.87008037982E+03 -0.10554359717E+04  0.10290863021E+04  0.17117317736E+04  0.46999998093E+01 0.  1.
</event>
<event>
 5   0  0.1054384E-06  0.3084317E+04  0.7818609E-02  0.8220055E-01
       -1   -1    0    0    0  501  0.00000000000E+00  0.00000000000E+00  0.11455148189E+04  0.11455148189E+04  0.50400001928E-02 0.  1.
        1   -1    0    0  501    0  0.00000000000E+00  0.00000000000E+00 -0.20761426279E+04  0.20761426279E+04  0.50400001928E-02 0. -1.
    10030    2    1    2    0    0  0.00000000000E+00  0.00000000000E+00 -0.93062780899E+03  0.32216574468E+04  0.30843165508E+04 0.  0.
        2    1    3    3  502    0 -0.10232832151E+04  0.86904877667E+03  0.32735740290E+03  0.13818528083E+04  0.25500000920E-02 0.  1.
       -2    1    3    3    0  502  0.10232832151E+04 -0.86904877667E+03 -0.12579852119E+04  0.18398046385E+04  0.25500000920E-02 0. -1.
</event>
<event>
 5   0  0.1054384E-06  0.2958715E+04  0.7818609E-02  0.8255619E-01
       -1   -1    0    0    0  501  0.00000000000E+00  0.00000000000E+00  0.19876968815E+04  0.19876968815E+04  0.50400001928E-02 0. -1.
        1   -1    0    0  501    0  0.00000000000E+00  0.00000000000E+00 -0.11010226343E+04  0.11010226343E+04  0.50400001928E-02 0.  1.
    10030    2    1    2    0    0  0.00000000000E+00  0.00000000000E+00  0.88667424719E+03  0.30887195158E+04  0.29587154352E+04 0.  0.
        2    1    3    3  502    0 -0.37559508627E+03  0.13049449525E+04  0.10561093092E+04  0.17202673836E+04  0.25500000920E-02 0. -1.
       -2    1    3    3    0  502  0.37559508627E+03 -0.13049449525E+04 -0.16943506200E+03  0.13684521322E+04  0.25500000920E-02 0.  1.
</event>
<event>
 5   0  0.1054384E-06  0.3022694E+04  0.7818609E-02  0.8237280E-01
       -1   -1    0    0    0  501  0.00000000000E+00  0.00000000000E+00  0.14601088580E+04  0.14601088580E+04  0.50400001928E-02 0.  1.
        1   -1    0    0  501    0  0.00000000000E+00  0.00000000000E+00 -0.15643831869E+04  0.15643831869E+04  0.50400001928E-02 0. -1.
    10030    2    1    2    0    0  0.00000000000E+00  0.00000000000E+00 -0.10427432892E+03  0.30244920450E+04  0.30226939962E+04 0.  0.
        2    1    3    3  502    0 -0.12546026258E+04  0.81627905030E+03 -0.26161907909E+03  0.15194682554E+04  0.25500000920E-02 0.  1.
       -2    1    3    3    0  502  0.12546026258E+04 -0.81627905030E+03  0.15734475018E+03  0.15050237896E+04  0.25500000920E-02 0. -1.
</event>
<event>
 5   0  0.1113245E-06  0.3130941E+04  0.7818609E-02  0.8207297E-01
       -1   -1    0    0    0  501  0.00000000000E+00  0.00000000000E+00  0.18749065853E+04  0.18749065853E+04  0.50400001928E-02 0.  1.
        1   -1    0    0  501    0  0.00000000000E+00  0.00000000000E+00 -0.13071043190E+04  0.13071043190E+04  0.50400001928E-02 0. -1.
    10030    2    1    2    0    0  0.00000000000E+00  0.00000000000E+00  0.56780226630E+03  0.31820109043E+04  0.31309413890E+04 0.  0.
        5    1    3    3  502    0 -0.36744313799E+03 -0.54587134433E+03  0.17275233646E+04  0.18486073270E+04  0.46999998093E+01 0.  1.
       -5    1    3    3    0  502  0.36744313799E+03  0.54587134433E+03 -0.11597210983E+04  0.13334035773E+04  0.46999998093E+01 0. -1.
</event>
<event>
 5   0  0.2985941E-06  0.2973044E+04  0.7818609E-02  0.8251470E-01
        2   -1    0    0  501    0  0.00000000000E+00  0.00000000000E+00  0.24239419626E+04  0.24239419626E+04  0.25500000920E-02 0.  1.
       -2   -1    0    0    0  501  0.00000000000E+00  0.00000000000E+00 -0.91163394639E+03  0.91163394639E+03  0.25500000920E-02 0. -1.
    10030    2    1    2    0    0  0.00000000000E+00  0.00000000000E+00  0.15123080162E+04  0.33355759090E+04  0.29730440812E+04 0.  0.
        3    1    3    3  502    0  0.95743121551E+03 -0.77239814049E+01 -0.51961198725E+03  0.10893717546E+04  0.10100000352E+00 0. -1.
       -3    1    3    3    0  502 -0.95743121551E+03  0.77239814049E+01  0.20319200034E+04  0.22462041543E+04  0.10100000352E+00 0.  1.
</event>
<event>
 5   0  0.1091076E-06  0.2958361E+04  0.7818609E-02  0.8255722E-01
        1   -1    0    0  501    0  0.00000000000E+00  0.00000000000E+00  0.21869043061E+04  0.21869043061E+04  0.50400001928E-02 0. -1.
       -1   -1    0    0    0  501  0.00000000000E+00  0.00000000000E+00 -0.10004893285E+04  0.10004893285E+04  0.50400001928E-02 0.  1.
    10030    2    1    2    0    0  0.00000000000E+00  0.00000000000E+00  0.11864149776E+04  0.31873936347E+04  0.29583606412E+04 0.  0.
        3    1    3    3  502    0  0.33788841107E+02 -0.42845896176E+03  0.21181475455E+04  0.21613115931E+04  0.10100000352E+00 0. -1.
       -3    1    3    3    0  502 -0.33788841107E+02  0.42845896176E+03 -0.93173256791E+03  0.10260820416E+04  0.10100000352E+00 0.  1.
</event>
<event>
 5   0  0.1054384E-06  0.3157096E+04  0.7818609E-02  0.8200241E-01
       -1   -1    0    0    0  501  0.00000000000E+00  0.00000000000E+00  0.14843618515E+04  0.14843618515E+04  0.50400001928E-02 0.  1.
        1   -1    0    0  501    0  0.00000000000E+00  0.00000000000E+00 -0.16787100956E+04  0.16787100956E+04  0.50400001928E-02 0. -1.
    10030    2    1    2    0    0  0.00000000000E+00  0.00000000000E+00 -0.19434824413E+03  0.31630719471E+04  0.31570956435E+04 0.  0.
        2    1    3    3  502    0  0.13516010839E+04 -0.76105158975E+03 -0.39062481763E+03  0.15995664288E+04  0.25500000920E-02 0. -1.
       -2    1    3    3    0  502 -0.13516010839E+04  0.76105158975E+03  0.19627657351E+03  0.15635055182E+04  0.25500000920E-02 0.  1.
</event>
<event>
 5   0  0.1113245E-06  0.2998269E+04  0.7818609E-02  0.8244225E-01
       -1   -1    0    0    0  501  0.00000000000E+00  0.00000000000E+00  0.85903319180E+03  0.85903319181E+03  0.50400001928E-02 0.  1.
        1   -1    0    0  501    0  0.00000000000E+00  0.00000000000E+00 -0.26162024817E+04  0.26162024817E+04  0.50400001928E-02 0. -1.
    10030    2    1    2    0    0  0.00000000000E+00  0.00000000000E+00 -0.17571692899E+04  0.34752356735E+04  0.29982693463E+04 0.  0.
        5    1    3    3  502    0  0.45592593218E+03  0.49029735129E+03 -0.24332753863E+04  0.25237097979E+04  0.46999998093E+01 0. -1.
       -5    1    3    3    0  502 -0.45592593218E+03 -0.49029735129E+03  0.67610609643E+03  0.95152587561E+03  0.46999998093E+01 0.  1.
</event>
<event>
 5   0  0.2862033E-06  0.2996630E+04  0.7818609E-02  0.8244694E-01
       -2   -1    0    0    0  501  0.00000000000E+00  0.00000000000E+00  0.19491228320E+04  0.19491228320E+04  0.25500000920E-02 0.  1.
        2   -1    0    0  501    0  0.00000000000E+00  0.00000000000E+00 -0.11517733544E+04  0.11517733544E+04  0.25500000920E-02 0. -1.
    10030    2    1    2    0    0  0.00000000000E+00  0.00000000000E+00  0.79734947754E+03  0.31008961864E+04  0.29966299354E+04 0.  0.
        2    1    3    3  502    0  0.13447519204E+03 -0.55443893086E+02 -0.11444499276E+04  0.11536564651E+04  0.25500000920E-02 0. -1.
       -2    1    3    3    0  502 -0.13447519204E+03  0.55443893086E+02  0.19417994052E+04  0.19472397214E+04  0.25500000920E-02 0.  1.
</event>
<event>
 5   0  0.2970915E-06  0.2998755E+04  0.7818609E-02  0.8244087E-01
        2   -1    0    0  501    0  0.00000000000E+00  0.00000000000E+00  0.10279255566E+04  0.10279255566E+04  0.25500000920E-02 0. -1.
       -2   -1    0    0    0  501  0.00000000000E+00  0.00000000000E+00 -0.21870574010E+04  0.21870574010E+04  0.25500000920E-02 0.  1.
    10030    2    1    2    0    0  0.00000000000E+00  0.00000000000E+00 -0.11591318445E+04  0.32149829576E+04  0.29987545389E+04 0.  0.
        4    1    3    3  502    0  0.80219023848E+03  0.10170735546E+04  0.22998618732E+03  0.13156150856E+04  0.12699999809E+01 0. -1.
       -4    1    3    3    0  502 -0.80219023848E+03 -0.10170735546E+04 -0.13891180318E+04  0.18993678720E+04  0.12699999809E+01 0.  1.
</event>
<event>
 5   0  0.1091076E-06  0.3021066E+04  0.7818609E-02  0.8237741E-01
       -1   -1    0    0    0  501  0.00000000000E+00  0.00000000000E+00  0.12853191012E+04  0.12853191012E+04  0.50400001928E-02 0. -1.
        1   -1    0    0  501    0  0.00000000000E+00  0.00000000000E+00 -0.17752094634E+04  0.17752094634E+04  0.50400001928E-02 0.  1.
    10030    2    1    2    0    0  0.00000000000E+00  0.00000000000E+00 -0.48989036216E+03  0.30605285646E+04  0.30210664554E+04 0.  0.
        3    1    3    3  502    0 -0.11479733524E+04 -0.48237106257E+03 -0.11112088110E+04  0.16689247112E+04  0.10100000352E+00 0.  1.
       -3    1    3    3    0  502  0.11479733524E+04  0.48237106257E+03  0.62131844880E+03  0.13916038534E+04  0.10100000352E+00 0. -1.
</event>
<event>
 5   0  0.2862033E-06  0.3004391E+04  0.7818609E-02  0.8242478E-01
       -2   -1    0    0    0  501  0.00000000000E+00  0.00000000000E+00  0.11684226776E+04  0.11684226776E+04  0.25500000920E-02 0.  1.
        2   -1    0    0  501    0  0.00000000000E+00  0.00000000000E+00 -0.19313147567E+04  0.19313147567E+04  0.25500000920E-02 0. -1.
    10030    2    1    2    0    0  0.00000000000E+00  0.00000000000E+00 -0.76289207902E+03  0.30997374343E+04  0.30043914255E+04 0.  0.
        2    1    3    3  502    0 -0.13251278365E+04 -0.66041733178E+03 -0.11946417802E+03  0.14853910344E+04  0.25500000920E-02 0. -1.
       -2    1    3    3    0  502  0.13251278365E+04  0.66041733178E+03 -0.64342790100E+03  0.16143463999E+04  0.25500000920E-02 0.  1.
</event>
<event>
 5   0  0.1113245E-06  0.3016853E+04  0.7818609E-02  0.8238935E-01
       -1   -1    0    0    0  501  0.00000000000E+00  0.00000000000E+00  0.14977065937E+04  0.14977065937E+04  0.50400001928E-02 0.  1.
        1   -1    0    0  501    0  0.00000000000E+00  0.00000000000E+00 -0.15192226497E+04  0.15192226497E+04  0.50400001928E-02 0. -1.
    10030    2    1    2    0    0  0.00000000000E+00  0.00000000000E+00 -0.21516056032E+02  0.30169292434E+04  0.30168525186E+04 0.  0.
        5    1    3    3  502    0  0.13295481085E+04 -0.49475223321E+03 -0.52345980717E+03  0.15121210947E+04  0.46999998093E+01 0. -1.
       -5    1    3    3    0  502 -0.13295481085E+04  0.49475223321E+03  0.50194375114E+03  0.15048081487E+04  0.46999998093E+01 0.  1.
</event>
<event>
 5   0  0.1097402E-06  0.3176440E+04  0.7818609E-02  0.8195067E-01
       -1   -1    0    0    0  501  0.00000000000E+00  0.00000000000E+00  0.11441579062E+04  0.11441579062E+04  0.50400001928E-02 0.  1.
        1   -1    0    0  501    0  0.00000000000E+00  0.00000000000E+00 -0.22046277624E+04  0.22046277624E+04  0.50400001928E-02 0. -1.
    10030    2    1    2    0    0  0.00000000000E+00  0.00000000000E+00 -0.10604698562E+04  0.33487856686E+04  0.31764396954E+04 0.  0.
        4    1    3    3  502    0 -0.49972338578E+03  0.52842867152E+03 -0.20187482200E+04  0.21457647383E+04  0.12699999809E+01 0. -1.
       -4    1    3    3    0  502  0.49972338578E+03 -0.52842867152E+03  0.95827836389E+03  0.12030209303E+04  0.12699999809E+01 0.  1.
</event>
<event>
 5   0  0.1054384E-06  0.3002588E+04  0.7818609E-02  0.8242992E-01
        1   -1    0    0  501    0  0.00000000000E+00  0.00000000000E+00  0.22209409226E+04  0.22209409226E+04  0.50400001928E-02 0. -1.
       -1   -1    0    0    0  501  0.00000000000E+00  0.00000000000E+00 -0.10148327886E+04  0.10148327886E+04  0.50400001928E-02 0.  1.
    10030    2    1    2    0    0  0.00000000000E+00  0.00000000000E+00  0.12061081340E+04  0.32357737112E+04  0.30025879969E+04 0.  0.
        2    1    3    3  502    0  0.12797946159E+04  0.43728389085E+03  0.13054316949E+04  0.18796923605E+04  0.25500000920E-02 0.  1.
       -2    1    3    3    0  502 -0.12797946159E+04 -0.43728389085E+03 -0.99323560915E+02  0.13560813507E+04  0.25500000920E-02 0. -1.
</event>
<event>
 5   0  0.1113245E-06  0.3001716E+04  0.7818609E-02  0.8243241E-01
        1   -1    0    0  501    0  0.00000000000E+00  0.00000000000E+00  0.20745372599E+04  0.20745372599E+04  0.50400001928E-02 0. -1.
       -1   -1    0    0    0  501  0.00000000000E+00  0.00000000000E+00 -0.10858204540E+04  0.10858204540E+04  0.50400001928E-02 0.  1.
    10030    2    1    2    0    0  0.00000000000E+00  0.00000000000E+00  0.98871680592E+03  0.31603577138E+04  0.30017161686E+04 0.  0.
        5    1    3    3  502    0  0.71688666832E+03 -0.11070175028E+04 -0.25983717617E+03  0.13442290337E+04  0.46999998093E+01 0.  1.
       -5    1    3    3    0  502 -0.71688666832E+03  0.11070175028E+04  0.12485539821E+04  0.18161286802E+04  0.46999998093E+01 0. -1.
</event>
<event>
 5   0  0.1091075E-06  0.2979598E+04  0.7818609E-02  0.8249581E-01
       -1   -1    0    0    0  501  0.00000000000E+00  0.00000000000E+00  0.18014271368E+04  0.18014271368E+04  0.50400001928E-02 0.  1.
        1   -1    0    0  501    0  0.00000000000E+00  0.00000000000E+00 -0.12320793276E+04  0.12320793277E+04  0.50400001928E-02 0. -1.
    10030    2    1    2    0    0  0.00000000000E+00  0.00000000000E+00  0.56934780916E+03  0.30335064645E+04  0.29795980504E+04 0.  0.
        1    1    3    3  502    0 -0.53720997794E+03 -0.13957144050E+03 -0.11228832285E+04  0.12525739468E+04  0.50400001928E-02 0. -1.
       -1    1    3    3    0  502  0.53720997794E+03  0.13957144050E+03  0.16922310377E+04  0.17809325176E+04  0.50400001928E-02 0.  1.
</event>
<event>
 5   0  0.2985941E-06  0.2999420E+04  0.7818609E-02  0.8243897E-01
        2   -1    0    0  501    0  0.00000000000E+00  0.00000000000E+00  0.87974132749E+03  0.87974132749E+03  0.25500000920E-02 0. -1.
       -2   -1    0    0    0  501  0.00000000000E+00  0.00000000000E+00 -0.25565812665E+04  0.25565812665E+04  0.25500000920E-02 0.  1.
    10030    2    1    2    0    0  0.00000000000E+00  0.00000000000E+00 -0.16768399390E+04  0.34363225940E+04  0.29994200754E+04 0.  0.
        3    1    3    3  502    0 -0.75833698036E+03 -0.84499799271E+03  0.28411492739E+03  0.11703921931E+04  0.10100000352E+00 0.  1.
       -3    1    3    3    0  502  0.75833698036E+03  0.84499799271E+03 -0.19609548664E+04  0.22659304009E+04  0.10100000352E+00 0. -1.
</event>
<event>
 5   0  0.2985941E-06  0.2987771E+04  0.7818609E-02  0.8247232E-01
        2   -1    0    0  501    0  0.00000000000E+00  0.00000000000E+00  0.20832592451E+04  0.20832592451E+04  0.25500000920E-02 0. -1.
       -2   -1    0    0    0  501  0.00000000000E+00  0.00000000000E+00 -0.10712510474E+04  0.10712510474E+04  0.25500000920E-02 0.  1.
    10030    2    1    2    0    0  0.00000000000E+00  0.00000000000E+00  0.10120081977E+04  0.31545102925E+04  0.29877708401E+04 0.  0.
        3    1    3    3  502    0  0.43920488440E+03 -0.96829048386E+03 -0.60194293080E+03  0.12218112349E+04  0.10100000352E+00 0.  1.
       -3    1    3    3    0  502 -0.43920488440E+03  0.96829048386E+03  0.16139511285E+04  0.19326990576E+04  0.10100000352E+00 0. -1.
</event>
<event>
 5   0  0.1113245E-06  0.3000578E+04  0.7818609E-02  0.8243566E-01
       -1   -1    0    0    0  501  0.00000000000E+00  0.00000000000E+00  0.89954459143E+03  0.89954459144E+03  0.50400001928E-02 0.  1.
        1   -1    0    0  501    0  0.00000000000E+00  0.00000000000E+00 -0.25022300465E+04  0.25022300465E+04  0.50400001928E-02 0. -1.
    10030    2    1    2    0    0  0.00000000000E+00  0.00000000000E+00 -0.16026854550E+04  0.34017746379E+04  0.30005782808E+04 0.  0.
        5    1    3    3  502    0  0.81165912225E+03 -0.25542648855E+03  0.59951292648E+03  0.10408991598E+04  0.46999998093E+01 0.  1.
       -5    1    3    3    0  502 -0.81165912225E+03  0.25542648855E+03 -0.22021983815E+04  0.23608754781E+04  0.46999998093E+01 0. -1.
</event>
<event>
 5   0  0.1091076E-06  0.3000952E+04  0.7818609E-02  0.8243459E-01
       -1   -1    0    0    0  501  0.00000000000E+00  0.00000000000E+00  0.13593019856E+04  0.13593019856E+04  0.50400001928E-02 0.  1.
        1   -1    0    0  501    0  0.00000000000E+00  0.00000000000E+00 -0.16563123981E+04  0.16563123981E+04  0.50400001928E-02 0. -1.
    10030    2    1    2    0    0  0.00000000000E+00  0.00000000000E+00 -0.29701041252E+03  0.30156143837E+04  0.30009523365E+04 0.  0.
        3    1    3    3  502    0  0.11403543526E+04 -0.84068555739E+03 -0.64515517273E+03  0.15567226673E+04  0.10100000352E+00 0.  1.
       -3    1    3    3    0  502 -0.11403543526E+04  0.84068555739E+03  0.34814476021E+03  0.14588917164E+04  0.10100000352E+00 0. -1.
</event>
<event>
 5   0  0.1091076E-06  0.3060353E+04  0.7818609E-02  0.8226704E-01
       -1   -1    0    0    0  501  0.00000000000E+00  0.00000000000E+00  0.10455876575E+04  0.10455876575E+04  0.50400001928E-02 0.  1.
        1   -1    0    0  501    0  0.00000000000E+00  0.00000000000E+00 -0.22393529650E+04  0.22393529650E+04  0.50400001928E-02 0. -1.
    10030    2    1    2    0    0  0.00000000000E+00  0.00000000000E+00 -0.11937653075E+04  0.32849406226E+04  0.30603528039E+04 0.  0.
        3    1    3    3  502    0 -0.17236860044E+03 -0.14541538903E+04 -0.10735016128E+04  0.18156762360E+04  0.10100000352E+00 0. -1.
       -3    1    3    3    0  502  0.17236860044E+03  0.14541538903E+04 -0.12026369473E+03  0.14692643866E+04  0.10100000352E+00 0.  1.
</event>
<event>
 5   0  0.2862033E-06  0.2994022E+04  0.7818609E-02  0.8245440E-01
       -2   -1    0    0    0  501  0.00000000000E+00  0.00000000000E+00  0.18713429801E+04  0.18713429801E+04  0.25500000920E-02 0. -1.
        2   -1    0    0  501    0  0.00000000000E+00  0.00000000000E+00 -0.11975582222E+04  0.11975582222E+04  0.25500000920E-02 0.  1.
    10030    2    1    2    0    0  0.00000000000E+00  0.00000000000E+00  0.67378475798E+03  0.30689012023E+04  0.29940221592E+04 0.  0.
        2    1    3    3  502    0 -0.10687491642E+04 -0.66597984704E+03 -0.49285155097E+03  0.13522782938E+04  0.25500000920E-02 0.  1.
       -2    1    3    3    0  502  0.10687491642E+04  0.66597984704E+03  0.11666363089E+04  0.17166229085E+04  0.25500000920E-02 0. -1.
</event>
<event>
 5   0  0.2862033E-06  0.3003143E+04  0.7818609E-02  0.8242834E-01
        2   -1    0    0  501    0  0.00000000000E+00  0.00000000000E+00  0.25492288698E+04  0.25492288698E+04  0.25500000920E-02 0.  1.
       -2   -1    0    0    0  501  0.00000000000E+00  0.00000000000E+00 -0.88447019255E+03  0.88447019255E+03  0.25500000920E-02 0. -1.
    10030    2    1    2    0    0  0.00000000000E+00  0.00000000000E+00  0.16647586773E+04  0.34336990624E+04  0.30031429865E+04 0.  0.
        2    1    3    3  502    0 -0.87704005595E+03  0.43592399188E+02 -0.56028731667E+03  0.10416436215E+04  0.25500000920E-02 0. -1.
       -2    1    3    3    0  502  0.87704005595E+03 -0.43592399188E+02  0.22250459940E+04  0.23920554409E+04  0.25500000920E-02 0.  1.
</event>
<event>
 5   0  0.1097402E-06  0.3082618E+04  0.7818609E-02  0.8220524E-01
        1   -1    0    0  501    0  0.00000000000E+00  0.00000000000E+00  0.73900117542E+03  0.73900117543E+03  0.50400001928E-02 0.  1.
       -1   -1    0    0    0  501  0.00000000000E+00  0.00000000000E+00 -0.32146545983E+04  0.32146545983E+04  0.50400001928E-02 0. -1.
    10030    2    1    2    0    0  0.00000000000E+00  0.00000000000E+00 -0.24756534229E+04  0.39536557738E+04  0.30826180605E+04 0.  0.
        4    1    3    3  502    0  0.44961190352E+03 -0.14740705235E+04 -0.12691680753E+04  0.19964528515E+04  0.12699999809E+01 0. -1.
       -4    1    3    3    0  502 -0.44961190352E+03  0.14740705235E+04 -0.12064853476E+04  0.19572029223E+04  0.12699999809E+01 0.  1.
</event>
<event>
 5   0  0.3113328E-06  0.2970447E+04  0.7818609E-02  0.8252220E-01
       -2   -1    0    0    0  501  0.00000000000E+00  0.00000000000E+00  0.82027826720E+03  0.82027826720E+03  0.25500000920E-02 0.  1.
        2   -1    0    0  501    0  0.00000000000E+00  0.00000000000E+00 -0.26891966088E+04  0.26891966088E+04  0.25500000920E-02 0. -1.
    10030    2    1    2    0    0  0.00000000000E+00  0.00000000000E+00 -0.18689183416E+04  0.35094748760E+04  0.29704474642E+04 0.  0.
        1    1    3    3  502    0 -0.13425169043E+04 -0.18715635859E+03 -0.16516671828E+04  0.21366758350E+04  0.50400001928E-02 0. -1.
       -1    1    3    3    0  502  0.13425169043E+04  0.18715635859E+03 -0.21725115875E+03  0.13727990410E+04  0.50400001928E-02 0.  1.
</event>
<event>
 5   0  0.2948711E-06  0.3132764E+04  0.7818609E-02  0.8206803E-01
        2   -1    0    0  501    0  0.00000000000E+00  0.00000000000E+00  0.19522377151E+04  0.19522377151E+04  0.25500000920E-02 0.  1.
       -2   -1    0    0    0  501  0.00000000000E+00  0.00000000000E+00 -0.12567900157E+04  0.12567900157E+04  0.25500000920E-02 0. -1.
    10030    2    1    2    0    0  0.00000000000E+00  0.00000000000E+00  0.69544769938E+03  0.32090277307E+04  0.31327641906E+04 0.  0.
        5    1    3    3  502    0  0.96448319280E+03 -0.11996393127E+04  0.50543234511E+02  0.15401100669E+04  0.46999998093E+01 0. -1.
       -5    1    3    3    0  502 -0.96448319280E+03  0.11996393127E+04  0.64490446487E+03  0.16689176638E+04  0.46999998093E+01 0.  1.
</event>
<event>
 5   0  0.2948711E-06  0.3001826E+04  0.7818609E-02  0.8243210E-01
        2   -1    0    0  501    0  0.00000000000E+00  0.00000000000E+00  0.11661698638E+04  0.11661698638E+04  0.25500000920E-02 0. -1.
       -2   -1    0    0    0  501  0.00000000000E+00  0.00000000000E+00 -0.19317419990E+04  0.19317419990E+04  0.25500000920E-02 0.  1.
    10030    2    1    2    0    0  0.00000000000E+00  0.00000000000E+00 -0.76557213515E+03  0.30979118628E+04  0.30018256471E+04 0.  0.
        5    1    3    3  502    0 -0.19130036194E+03 -0.14492714237E+04 -0.73387210750E+03  0.16357181445E+04  0.46999998093E+01 0.  1.
       -5    1    3    3    0  502  0.19130036194E+03  0.14492714237E+04 -0.31700027651E+02  0.14621937183E+04  0.46999998093E+01 0. -1.
</event>
<event>
 5   0  0.2862033E-06  0.2980533E+04  0.7818609E-02  0.8249312E-01
        2   -1    0    0  501    0  0.00000000000E+00  0.00000000000E+00  0.10869825325E+04  0.10869825325E+04  0.25500000920E-02 0.  1.
       -2   -1    0    0    0  501  0.00000000000E+00  0.00000000000E+00 -0.20431740528E+04  0.20431740528E+04  0.25500000920E-02 0. -1.
    10030    2    1    2    0    0  0.00000000000E+00  0.00000000000E+00 -0.95619152024E+03  0.31301565853E+04  0.29805331780E+04 0.  0.
        2    1    3    3  502    0  0.86238216627E+03 -0.84685666612E+03 -0.13936543164E+04  0.18447605718E+04  0.25500000920E-02 0. -1.
       -2    1    3    3    0  502 -0.86238216627E+03  0.84685666612E+03  0.43746279611E+03  0.12853960135E+04  0.25500000920E-02 0.  1.
</event>
<event>
 5   0  0.9749500E-07  0.2999632E+04  0.7818609E-02  0.8243836E-01
       -3   -1    0    0    0  501  0.00000000000E+00  0.00000000000E+00  0.21264932416E+04  0.21264932439E+04  0.10100000352E+00 0.  1.
        3   -1    0    0  501    0  0.00000000000E+00  0.00000000000E+00 -0.10578205357E+04  0.10578205406E+04  0.10100000352E+00 0. -1.
    10030    2    1    2    0    0  0.00000000000E+00  0.00000000000E+00  0.10686727058E+04  0.31843137845E+04  0.29996321318E+04 0.  0.
        2    1    3    3  502    0 -0.41616100727E+03  0.10607348947E+02  0.20639324867E+04  0.21054975206E+04  0.25500000920E-02 0.  1.
       -2    1    3    3    0  502  0.41616100727E+03 -0.10607348947E+02 -0.99525978085E+03  0.10788162639E+04  0.25500000920E-02 0. -1.
</event>
<event>
 5   0  0.2985941E-06  0.3026180E+04  0.7818609E-02  0.8236294E-01
       -2   -1    0    0    0  501  0.00000000000E+00  0.00000000000E+00  0.15009853051E+04  0.15009853051E+04  0.25500000920E-02 0.  1.
        2   -1    0    0  501    0  0.00000000000E+00  0.00000000000E+00 -0.15252925223E+04  0.15252925223E+04  0.25500000920E-02 0. -1.
    10030    2    1    2    0    0  0.00000000000E+00  0.00000000000E+00 -0.24307217215E+02  0.30262778274E+04  0.30261802074E+04 0.  0.
        3    1    3    3  502    0  0.13728364424E+04 -0.52083277903E+03 -0.37753503020E+03  0.15160736758E+04  0.10100000352E+00 0. -1.
       -3    1    3    3    0  502 -0.13728364424E+04  0.52083277903E+03  0.35322781298E+03  0.15102041516E+04  0.10100000352E+00 0.  1.
</event>
<event>
 5   0  0.1091076E-06  0.2998084E+04  0.7818609E-02  0.8244278E-01
        1   -1    0    0  501    0  0.00000000000E+00  0.00000000000E+00  0.20173605742E+04  0.20173605743E+04  0.50400001928E-02 0.  1.
       -1   -1    0    0    0  501  0.00000000000E+00  0.00000000000E+00 -0.11138943242E+04  0.11138943242E+04  0.50400001928E-02 0. -1.
    10030    2    1    2    0    0  0.00000000000E+00  0.00000000000E+00  0.90346625008E+03  0.31312548984E+04  0.29980837170E+04 0.  0.
        3    1    3    3  502    0 -0.11035998630E+04 -0.97110553999E+03  0.75828000718E+03  0.16540759375E+04  0.10100000352E+00 0.  1.
       -3    1    3    3    0  502  0.11035998630E+04  0.97110553999E+03  0.14518624289E+03  0.14771789610E+04  0.10100000352E+00 0. -1.
</event>
<event>
 5   0  0.2970915E-06  0.2993222E+04  0.7818609E-02  0.8245669E-01
        2   -1    0    0  501    0  0.00000000000E+00  0.00000000000E+00  0.19678630587E+04  0.19678630587E+04  0.25500000920E-02 0. -1.
       -2   -1    0    0    0  501  0.00000000000E+00  0.00000000000E+00 -0.11382117897E+04  0.11382117897E+04  0.25500000920E-02 0.  1.
    10030    2    1    2    0    0  0.00000000000E+00  0.00000000000E+00  0.82965126901E+03  0.31060748485E+04  0.29932222998E+04 0.  0.
        4    1    3    3  502    0 -0.79156737935E+03  0.92257973733E+03 -0.49107814038E+03  0.13110650787E+04  0.12699999809E+01 0.  1.
       -4    1    3    3    0  502  0.79156737935E+03 -0.92257973733E+03  0.13207294094E+04  0.17950097698E+04  0.12699999809E+01 0. -1.
</event>
<event>
 5   0  0.1054384E-06  0.2943737E+04  0.7818609E-02  0.8259982E-01
       -1   -1    0    0    0  501  0.00000000000E+00  0.00000000000E+00  0.27146802749E+04  0.27146802749E+04  0.50400001928E-02 0. -1.
        1   -1    0    0  501    0  0.00000000000E+00  0.00000000000E+00 -0.79803031857E+03  0.79803031859E+03  0.50400001928E-02 0.  1.
    10030    2    1    2    0    0  0.00000000000E+00  0.00000000000E+00  0.19166499563E+04  0.35127105935E+04  0.29437371925E+04 0.  0.
        2    1    3    3  502    0  0.63636932795E+03 -0.13261423442E+04  0.89543404574E+03  0.17220399441E+04  0.25500000920E-02 0.  1.
       -2    1    3    3    0  502 -0.63636932795E+03  0.13261423442E+04  0.10212159106E+04  0.17906706494E+04  0.25500000920E-02 0. -1.
</event>
<event>
 5   0  0.1091075E-06  0.3021622E+04  0.7818609E-02  0.8237583E-01
       -1   -1    0    0    0  501  0.00000000000E+00  0.00000000000E+00  0.86407842296E+03  0.86407842297E+03  0.50400001928E-02 0.  1.
        1   -1    0    0  501    0  0.00000000000E+00  0.00000000000E+00 -0.26416002949E+04  0.26416002949E+04  0.50400001928E-02 0. -1.
    10030    2    1    2    0    0  0.00000000000E+00  0.00000000000E+00 -0.17775218719E+04  0.35056787178E+04  0.30216219597E+04 0.  0.
        1    1    3    3  502    0 -0.10456850341E+03 -0.10448687698E+04 -0.21489858204E+04  0.23918246955E+04  0.50400001928E-02 0. -1.
       -1    1    3    3    0  502  0.10456850341E+03  0.10448687698E+04  0.37146394847E+03  0.11138540223E+04  0.50400001928E-02 0.  1.
</event>
<event>
 5   0  0.2948711E-06  0.3004705E+04  0.7818609E-02  0.8242389E-01
       -2   -1    0    0    0  501  0.00000000000E+00  0.00000000000E+00  0.13434957376E+04  0.13434957376E+04  0.25500000920E-02 0.  1.
        2   -1    0    0  501    0  0.00000000000E+00  0.00000000000E+00 -0.16799921560E+04  0.16799921560E+04  0.25500000920E-02 0. -1.
    10030    2    1    2    0    0  0.00000000000E+00  0.00000000000E+00 -0.33649641832E+03  0.30234878936E+04  0.30047045118E+04 0.  0.
        5    1    3    3  502    0 -0.67175778742E+03  0.11655546176E+04 -0.84120703683E+03  0.15866403060E+04  0.46999998093E+01 0. -1.
       -5    1    3    3    0  502  0.67175778742E+03 -0.11655546176E+04  0.50471061851E+03  0.14368475876E+04  0.46999998093E+01 0.  1.
</event>
<event>
 5   0  0.1113245E-06  0.3004712E+04  0.7818609E-02  0.8242387E-01
        1   -1    0    0  501    0  0.00000000000E+00  0.00000000000E+00  0.24653744467E+04  0.24653744467E+04  0.50400001928E-02 0. -1.
       -1   -1    0    0    0  501  0.00000000000E+00  0.00000000000E+00 -0.91550957862E+03  0.91550957864E+03  0.50400001928E-02 0.  1.
    10030    2    1    2    0    0  0.00000000000E+00  0.00000000000E+00  0.15498648680E+04  0.33808840253E+04  0.30047122464E+04 0.  0.
        5    1    3    3  502    0 -0.82638330159E+03 -0.10212716219E+04 -0.45106831811E+02  0.13145196092E+04  0.46999998093E+01 0.  1.
       -5    1    3    3    0  502  0.82638330159E+03  0.10212716219E+04  0.15949716999E+04  0.20663644161E+04  0.46999998093E+01 0. -1.
</event>
<event>
 5   0  0.2985941E-06  0.2990744E+04  0.7818609E-02  0.8246379E-01
        2   -1    0    0  501    0  0.00000000000E+00  0.00000000000E+00  0.17054336200E+04  0.17054336200E+04  0.25500000920E-02 0. -1.
       -2   -1    0    0    0  501  0.00000000000E+00  0.00000000000E+00 -0.13111838826E+04  0.13111838826E+04  0.25500000920E-02 0.  1.
    10030    2    1    2    0    0  0.00000000000E+00  0.00000000000E+00  0.39424973738E+03  0.30166175026E+04  0.29907437706E+04 0.  0.
        3    1    3    3  502    0  0.13174209908E+04  0.51906964700E+03 -0.28776863750E+03  0.14449367337E+04  0.10100000352E+00 0.  1.
       -3    1    3    3    0  502 -0.13174209908E+04 -0.51906964700E+03  0.68201837487E+03  0.15716807689E+04  0.10100000352E+00 0. -1.
</event>
<event>
 5   0  0.3113328E-06  0.2980567E+04  0.7818609E-02  0.8249302E-01
        2   -1    0    0  501    0  0.00000000000E+00  0.00000000000E+00  0.26452044864E+04  0.26452044864E+04  0.25500000920E-02 0. -1.
       -2   -1    0    0    0  501  0.00000000000E+00  0.00000000000E+00 -0.83961179420E+03  0.83961179420E+03  0.25500000920E-02 0.  1.
    10030    2    1    2    0    0  0.00000000000E+00  0.00000000000E+00  0.18055926922E+04  0.34848162806E+04  0.29805669829E+04 0.  0.
        1    1    3    3  502    0 -0.40254530151E+03  0.11762300234E+04 -0.58056182646E+02  0.12445602871E+04  0.50400001928E-02 0.  1.
       -1    1    3    3    0  502  0.40254530151E+03 -0.11762300234E+04  0.18636488748E+04  0.22402559935E+04  0.50400001928E-02 0. -1.
</event>
<event>
 5   0  0.1054384E-06  0.2989718E+04  0.7818609E-02  0.8246673E-01
        1   -1    0    0  501    0  0.00000000000E+00  0.00000000000E+00  0.14219501003E+04  0.14219501003E+04  0.50400001928E-02 0.  1.
       -1   -1    0    0    0  501  0.00000000000E+00  0.00000000000E+00 -0.15715062839E+04  0.15715062839E+04  0.50400001928E-02 0. -1.
    10030    2    1    2    0    0  0.00000000000E+00  0.00000000000E+00 -0.14955618365E+03  0.29934563842E+04  0.29897180590E+04 0.  0.
        2    1    3    3  502    0 -0.80036143250E+03 -0.24867749093E+02 -0.13386586059E+04  0.15598729726E+04  0.25500000920E-02 0. -1.
       -2    1    3    3    0  502  0.80036143250E+03  0.24867749093E+02  0.11891024222E+04  0.14335834116E+04  0.25500000920E-02 0.  1.
</event>
<event>
 5   0  0.1054384E-06  0.2993736E+04  0.7818609E-02  0.8245522E-01
        1   -1    0    0  501    0  0.00000000000E+00  0.00000000000E+00  0.13122231466E+04  0.13122231466E+04  0.50400001928E-02 0. -1.
       -1   -1    0    0    0  501  0.00000000000E+00  0.00000000000E+00 -0.17074949216E+04  0.17074949216E+04  0.50400001928E-02 0.  1.
    10030    2    1    2    0    0  0.00000000000E+00  0.00000000000E+00 -0.39527177501E+03  0.30197180683E+04  0.29937363671E+04 0.  0.
        2    1    3    3  502    0  0.14201113212E+04  0.36844370881E+03 -0.49710888271E+03  0.15490591249E+04  0.25500000920E-02 0. -1.
       -2    1    3    3    0  502 -0.14201113212E+04 -0.36844370881E+03  0.10183710770E+03  0.14706589434E+04  0.25500000920E-02 0.  1.
</event>
<event>
 5   0  0.2985941E-06  0.2763009E+04  0.7818609E-02  0.8314845E-01
        2   -1    0    0  501    0  0.00000000000E+00  0.00000000000E+00  0.22215010864E+04  0.22215010864E+04  0.25500000920E-02 0. -1.
       -2   -1    0    0    0  501  0.00000000000E+00  0.00000000000E+00 -0.85912845252E+03  0.85912845252E+03  0.25500000920E-02 0.  1.
    10030    2    1    2    0    0  0.00000000000E+00  0.00000000000E+00  0.13623726339E+04  0.30806295390E+04  0.27630090776E+04 0.  0.
        3    1    3    3  502    0 -0.54134009338E+03  0.62533483830E+03 -0.55257123411E+03  0.99469982188E+03  0.10100000352E+00 0.  1.
       -3    1    3    3    0  502  0.54134009338E+03 -0.62533483830E+03  0.19149438680E+04  0.20859297171E+04  0.10100000352E+00 0. -1.
</event>
<event>
 5   0  0.2948711E-06  0.2976435E+04  0.7818609E-02  0.8250492E-01
        2   -1    0    0  501    0  0.00000000000E+00  0.00000000000E+00  0.12929304520E+04  0.12929304520E+04  0.25500000920E-02 0.  1.
       -2   -1    0    0    0  501  0.00000000000E+00  0.00000000000E+00 -0.17130009030E+04  0.17130009030E+04  0.25500000920E-02 0. -1.
    10030    2    1    2    0    0  0.00000000000E+00  0.00000000000E+00 -0.42007045096E+03  0.30059313550E+04  0.29764348015E+04 0.  0.
        5    1    3    3  502    0 -0.86612937231E+03 -0.19833622651E+03 -0.14157052190E+04  0.16714546675E+04  0.46999998093E+01 0. -1.
       -5    1    3    3    0  502  0.86612937231E+03  0.19833622651E+03  0.99563476803E+03  0.13344766876E+04  0.46999998093E+01 0.  1.
</event>
<event>
 5   0  0.1097402E-06  0.2956298E+04  0.7818609E-02  0.8256321E-01
       -1   -1    0    0    0  501  0.00000000000E+00  0.00000000000E+00  0.19927277109E+04  0.19927277109E+04  0.50400001928E-02 0.  1.
        1   -1    0    0  501    0  0.00000000000E+00  0.00000000000E+00 -0.10964494008E+04  0.10964494008E+04  0.50400001928E-02 0. -1.
    10030    2    1    2    0    0  0.00000000000E+00  0.00000000000E+00  0.89627831013E+03  0.30891771117E+04  0.29562984319E+04 0.  0.
        4    1    3    3  502    0 -0.12629268337E+04 -0.48009544672E+02 -0.35288965564E+03  0.13121820855E+04  0.12699999809E+01 0. -1.
       -4    1    3    3    0  502  0.12629268337E+04  0.48009544672E+02  0.12491679658E+04  0.17769950262E+04  0.12699999809E+01 0.  1.
</event>
<event>
 5   0  0.1097402E-06  0.2997572E+04  0.7818609E-02  0.8244425E-01
        1   -1    0    0  501    0  0.00000000000E+00  0.00000000000E+00  0.89835503421E+03  0.89835503422E+03  0.50400001928E-02 0. -1.
       -1   -1    0    0    0  501  0.00000000000E+00  0.00000000000E+00 -0.25005251219E+04  0.25005251220E+04  0.50400001928E-02 0.  1.
    10030    2    1    2    0    0  0.00000000000E+00  0.00000000000E+00 -0.16021700877E+04  0.33988801562E+04  0.29975719051E+04 0.  0.
        4    1    3    3  502    0  0.33035884106E+03 -0.12538298624E+04 -0.16534802001E+04  0.21012436015E+04  0.12699999809E+01 0.  1.
       -4    1    3    3    0  502 -0.33035884106E+03  0.12538298624E+04  0.51310112362E+02  0.12976365547E+04  0.12699999809E+01 0. -1.
</event>
<event>
 5   0  0.1091075E-06  0.2993019E+04  0.7818609E-02  0.8245727E-01
        1   -1    0    0  501    0  0.00000000000E+00  0.00000000000E+00  0.15133269349E+04  0.15133269349E+04  0.50400001928E-02 0. -1.
       -1   -1    0    0    0  501  0.00000000000E+00  0.00000000000E+00 -0.14798789222E+04  0.14798789222E+04  0.50400001928E-02 0.  1.
    10030    2    1    2    0    0  0.00000000000E+00  0.00000000000E+00  0.33448012686E+02  0.29932058571E+04  0.29930189664E+04 0.  0.
        1    1    3    3  502    0 -0.62152130226E+03  0.13612088679E+04  0.35759951159E+02  0.14968156485E+04  0.50400001928E-02 0. -1.
       -1    1    3    3    0  502  0.62152130226E+03 -0.13612088679E+04 -0.23119384730E+01  0.14963902086E+04  0.50400001928E-02 0.  1.
</event>
<event>
 5   0  0.1091075E-06  0.3012812E+04  0.7818609E-02  0.8240082E-01
        1   -1    0    0  501    0  0.00000000000E+00  0.00000000000E+00  0.13270661889E+04  0.13270661889E+04  0.50400001928E-02 0. -1.
       -1   -1    0    0    0  501  0.00000000000E+00  0.00000000000E+00 -0.17099818332E+04  0.17099818332E+04  0.50400001928E-02 0.  1.
    10030    2    1    2    0    0  0.00000000000E+00  0.00000000000E+00 -0.38291564437E+03  0.30370480221E+04  0.30128120250E+04 0.  0.
        1    1    3    3  502    0 -0.25848855975E+02  0.65615217905E+03  0.11751971991E+04  0.13462140626E+04  0.50400001928E-02 0. -1.
       -1    1    3    3    0  502  0.25848855975E+02 -0.65615217905E+03 -0.15581128435E+04  0.16908339595E+04  0.50400001928E-02 0.  1.
</event>
<event>
 5   0  0.1054384E-06  0.3009717E+04  0.7818609E-02  0.8240962E-01
       -1   -1    0    0    0  501  0.00000000000E+00  0.00000000000E+00  0.14391585345E+04  0.14391585345E+04  0.50400001928E-02 0. -1.
        1   -1    0    0  501    0  0.00000000000E+00  0.00000000000E+00 -0.15735578868E+04  0.15735578868E+04  0.50400001928E-02 0.  1.
    10030    2    1    2    0    0  0.00000000000E+00  0.00000000000E+00 -0.13439935232E+03  0.30127164212E+04  0.30097171045E+04 0.  0.
        2    1    3    3  502    0 -0.12136007286E+04  0.68822623780E+03 -0.63178052168E+03  0.15315445506E+04  0.25500000920E-02 0.  1.
       -2    1    3    3    0  502  0.12136007286E+04 -0.68822623780E+03  0.49738116936E+03  0.14811718707E+04  0.25500000920E-02 0. -1.
</event>
<event>
 5   0  0.1113245E-06  0.2983091E+04  0.7818609E-02  0.8248576E-01
       -1   -1    0    0    0  501  0.00000000000E+00  0.00000000000E+00  0.15926564471E+04  0.15926564471E+04  0.50400001928E-02 0. -1.
        1   -1    0    0  501    0  0.00000000000E+00  0.00000000000E+00 -0.13968531922E+04  0.13968531922E+04  0.50400001928E-02 0.  1.
    10030    2    1    2    0    0  0.00000000000E+00  0.00000000000E+00  0.19580325495E+03  0.29895096393E+04  0.29830905063E+04 0.  0.
        5    1    3    3  502    0  0.14615136630E+04  0.24484931413E+03 -0.71908494708E+02  0.14836328035E+04  0.46999998093E+01 0.  1.
       -5    1    3    3    0  502 -0.14615136630E+04 -0.24484931413E+03  0.26771174966E+03  0.15058768359E+04  0.46999998093E+01 0. -1.
</event>
<event>
 5   0  0.1054384E-06  0.2960814E+04  0.7818609E-02  0.8255010E-01
        1   -1    0    0  501    0  0.00000000000E+00  0.00000000000E+00  0.17673821945E+04  0.17673821945E+04  0.50400001928E-02 0. -1.
       -1   -1    0    0    0  501  0.00000000000E+00  0.00000000000E+00 -0.12400291662E+04  0.12400291662E+04  0.50400001928E-02 0.  1.
    10030    2    1    2    0    0  0.00000000000E+00  0.00000000000E+00  0.52735302832E+03  0.30074113608E+04  0.29608143941E+04 0.  0.
        2    1    3    3  502    0  0.77461384333E+03 -0.12598510747E+04  0.33070084131E+03  0.15154584729E+04  0.25500000920E-02 0.  1.
       -2    1    3    3    0  502 -0.77461384333E+03  0.12598510747E+04  0.19665218701E+03  0.14919528878E+04  0.25500000920E-02 0. -1.
</event>
<event>
 5   0  0.3113328E-06  0.3025901E+04  0.7818609E-02  0.8236373E-01
       -2   -1    0    0    0  501  0.00000000000E+00  0.00000000000E+00  0.23663189565E+04  0.23663189565E+04  0.25500000920E-02 0.  1.
        2   -1    0    0  501    0  0.00000000000E+00  0.00000000000E+00 -0.96733341745E+03  0.96733341745E+03  0.25500000920E-02 0. -1.
    10030    2    1    2    0    0  0.00000000000E+00  0.00000000000E+00  0.13989855390E+04  0.33336523739E+04  0.30259011239E+04 0.  0.
        1    1    3    3  502    0  0.59476622717E+03 -0.54172554390E+03  0.21111410178E+04  0.22592321322E+04  0.50400001928E-02 0.  1.
       -1    1    3    3    0  502 -0.59476622717E+03  0.54172554390E+03 -0.71215547879E+03  0.10744202418E+04  0.50400001928E-02 0. -1.
</event>
<event>
 5   0  0.3113328E-06  0.2946252E+04  0.7818609E-02  0.8259248E-01
       -2   -1    0    0    0  501  0.00000000000E+00  0.00000000000E+00  0.92535691535E+03  0.92535691535E+03  0.25500000920E-02 0.  1.
        2   -1    0    0  501    0  0.00000000000E+00  0.00000000000E+00 -0.23451489607E+04  0.23451489607E+04  0.25500000920E-02 0. -1.
    10030    2    1    2    0    0  0.00000000000E+00  0.00000000000E+00 -0.14197920454E+04  0.32705058761E+04  0.29462517261E+04 0.  0.
        1    1    3    3  502    0 -0.66430187700E+03 -0.12407246939E+04 -0.22679175884E+03  0.14255277099E+04  0.50400001928E-02 0.  1.
       -1    1    3    3    0  502  0.66430187700E+03  0.12407246939E+04 -0.11930002865E+04  0.18449781661E+04  0.50400001928E-02 0. -1.
</event>
<event>
 5   0  0.2862033E-06  0.2971125E+04  0.7818609E-02  0.8252025E-01
       -2   -1    0    0    0  501  0.00000000000E+00  0.00000000000E+00  0.15258017544E+04  0.15258017544E+04  0.25500000920E-02 0.  1.
        2   -1    0    0  501    0  0.00000000000E+00  0.00000000000E+00 -0.14463847874E+04  0.14463847874E+04  0.25500000920E-02 0. -1.
    10030    2    1    2    0    0  0.00000000000E+00  0.00000000000E+00  0.79416966961E+02  0.29721865419E+04  0.29711253398E+04 0.  0.
        2    1    3    3  502    0  0.10795928771E+04 -0.10150250109E+04 -0.65685178061E+02  0.14832771472E+04  0.25500000920E-02 0. -1.
       -2    1    3    3    0  502 -0.10795928771E+04  0.10150250109E+04  0.14510214502E+03  0.14889093946E+04  0.25500000920E-02 0.  1.
</event>
<event>
 5   0  0.1097402E-06  0.2951466E+04  0.7818609E-02  0.8257727E-01
       -1   -1    0    0    0  501  0.00000000000E+00  0.00000000000E+00  0.17197667330E+04  0.17197667330E+04  0.50400001928E-02 0.  1.
        1   -1    0    0  501    0  0.00000000000E+00  0.00000000000E+00 -0.12663276846E+04  0.12663276846E+04  0.50400001928E-02 0. -1.
    10030    2    1    2    0    0  0.00000000000E+00  0.00000000000E+00  0.45343904840E+03  0.29860944176E+04  0.29514662289E+04 0.  0.
        4    1    3    3  502    0 -0.10489684912E+04  0.30295132105E+03 -0.77773892026E+03  0.13405199885E+04  0.12699999809E+01 0. -1.
       -4    1    3    3    0  502  0.10489684912E+04 -0.30295132105E+03  0.12311779687E+04  0.16455744292E+04  0.12699999809E+01 0.  1.
</event>
<event>
 5   0  0.1097402E-06  0.2992377E+04  0.7818609E-02  0.8245911E-01
        1   -1    0    0  501    0  0.00000000000E+00  0.00000000000E+00  0.21825392293E+04  0.21825392293E+04  0.50400001928E-02 0. -1.
       -1   -1    0    0    0  501  0.00000000000E+00  0.00000000000E+00 -0.10256771532E+04  0.10256771533E+04  0.50400001928E-02 0.  1.
    10030    2    1    2    0    0  0.00000000000E+00  0.00000000000E+00  0.11568620761E+04  0.32082163826E+04  0.29923773984E+04 0.  0.
        4    1    3    3  502    0  0.60289459944E+03 -0.92710092140E+03  0.16588807767E+04  0.19937113785E+04  0.12699999809E+01 0. -1.
       -4    1    3    3    0  502 -0.60289459944E+03  0.92710092140E+03 -0.50201870057E+03  0.12145050042E+04  0.12699999809E+01 0.  1.
</event>
<event>
 5   0  0.1091075E-06  0.3004302E+04  0.7818609E-02  0.8242503E-01
       -1   -1    0    0    0  501  0.00000000000E+00  0.00000000000E+00  0.10357695652E+04  0.10357695652E+04  0.50400001928E-02 0.  1.
        1   -1    0    0  501    0  0.00000000000E+00  0.00000000000E+00 -0.21785324698E+04  0.21785324698E+04  0.50400001928E-02 0. -1.
    10030    2    1    2    0    0  0.00000000000E+00  0.00000000000E+00 -0.11427629046E+04  0.32143020350E+04  0.30043020015E+04 0.  0.
        1    1    3    3  502    0  0.10436893131E+03 -0.10770785774E+04  0.54330136635E+03  0.12108540418E+04  0.50400001928E-02 0.  1.
       -1    1    3    3    0  502 -0.10436893131E+03  0.10770785774E+04 -0.16860642709E+04  0.20034479932E+04  0.50400001928E-02 0. -1.
</event>
<event>
 5   0  0.1054384E-06  0.3017385E+04  0.7818609E-02  0.8238784E-01
        1   -1    0    0  501    0  0.00000000000E+00  0.00000000000E+00  0.17434143022E+04  0.17434143022E+04  0.50400001928E-02 0. -1.
       -1   -1    0    0    0  501  0.00000000000E+00  0.00000000000E+00 -0.13055718655E+04  0.13055718655E+04  0.50400001928E-02 0.  1.
    10030    2    1    2    0    0  0.00000000000E+00  0.00000000000E+00  0.43784243671E+03  0.30489861678E+04  0.30173847371E+04 0.  0.
        2    1    3    3  502    0  0.77274990728E+03 -0.46626696749E+03 -0.10027091724E+04  0.13490637452E+04  0.25500000920E-02 0.  1.
       -2    1    3    3    0  502 -0.77274990728E+03  0.46626696749E+03  0.14405516091E+04  0.16999224226E+04  0.25500000920E-02 0. -1.
</event>
<event>
 5   0  0.1054384E-06  0.3002144E+04  0.7818609E-02  0.8243119E-01
        1   -1    0    0  501    0  0.00000000000E+00  0.00000000000E+00  0.11356816332E+04  0.11356816332E+04  0.50400001928E-02 0.  1.
       -1   -1    0    0    0  501  0.00000000000E+00  0.00000000000E+00 -0.19840214982E+04  0.19840214982E+04  0.50400001928E-02 0. -1.
    10030    2    1    2    0    0  0.00000000000E+00  0.00000000000E+00 -0.84833986501E+03  0.31197031314E+04  0.30021437510E+04 0.  0.
        2    1    3    3  502    0 -0.10642356804E+04  0.41334114188E+02  0.67503709275E+03  0.12609445543E+04  0.25500000920E-02 0.  1.
       -2    1    3    3    0  502  0.10642356804E+04 -0.41334114188E+02 -0.15233769578E+04  0.18587585771E+04  0.25500000920E-02 0. -1.
</event>
<event>
 5   0  0.2985941E-06  0.2996117E+04  0.7818609E-02  0.8244841E-01
        2   -1    0    0  501    0  0.00000000000E+00  0.00000000000E+00  0.30333963975E+04  0.30333963975E+04  0.25500000920E-02 0.  1.
       -2   -1    0    0    0  501  0.00000000000E+00  0.00000000000E+00 -0.73982369947E+03  0.73982369948E+03  0.25500000920E-02 0. -1.
    10030    2    1    2    0    0  0.00000000000E+00  0.00000000000E+00  0.22935726980E+04  0.37732200969E+04  0.29961165163E+04 0.  0.
        3    1    3    3  502    0 -0.10047628725E+04  0.65429736586E+03  0.22777857469E+04  0.25740942858E+04  0.10100000352E+00 0.  1.
       -3    1    3    3    0  502  0.10047628725E+04 -0.65429736586E+03  0.15786951053E+02  0.11991258112E+04  0.10100000352E+00 0. -1.
</event>
<event>
 5   0  0.3113328E-06  0.3015421E+04  0.7818609E-02  0.8239341E-01
       -2   -1    0    0    0  501  0.00000000000E+00  0.00000000000E+00  0.10769394959E+04  0.10769394959E+04  0.25500000920E-02 0.  1.
        2   -1    0    0  501    0  0.00000000000E+00  0.00000000000E+00 -0.21107883126E+04  0.21107883126E+04  0.25500000920E-02 0. -1.
    10030    2    1    2    0    0  0.00000000000E+00  0.00000000000E+00 -0.10338488167E+04  0.31877278086E+04  0.30154212319E+04 0.  0.
        1    1    3    3  502    0  0.73659802672E+03  0.66372596055E+03 -0.17176450711E+04  0.19832834880E+04  0.50400001928E-02 0. -1.
       -1    1    3    3    0  502 -0.73659802672E+03 -0.66372596055E+03  0.68379625440E+03  0.12044443205E+04  0.50400001928E-02 0.  1.
</event>
<event>
 5   0  0.2985941E-06  0.3004665E+04  0.7818609E-02  0.8242400E-01
        2   -1    0    0  501    0  0.00000000000E+00  0.00000000000E+00  0.18267845476E+04  0.18267845476E+04  0.25500000920E-02 0.  1.
       -2   -1    0    0    0  501  0.00000000000E+00  0.00000000000E+00 -0.12355060210E+04  0.12355060211E+04  0.25500000920E-02 0. -1.
    10030    2    1    2    0    0  0.00000000000E+00  0.00000000000E+00  0.59127852657E+03  0.30622905687E+04  0.30046652444E+04 0.  0.
        3    1    3    3  502    0  0.10170933430E+04 -0.11931853155E+03 -0.82466360471E+03  0.13148330128E+04  0.10100000352E+00 0. -1.
       -3    1    3    3    0  502 -0.10170933430E+04  0.11931853155E+03  0.14159421313E+04  0.17474575559E+04  0.10100000352E+00 0.  1.
</event>
<event>
 5   0  0.1091075E-06  0.3005854E+04  0.7818609E-02  0.8242061E-01
       -1   -1    0    0    0  501  0.00000000000E+00  0.00000000000E+00  0.14625309456E+04  0.14625309456E+04  0.50400001928E-02 0. -1.
        1   -1    0    0  501    0  0.00000000000E+00  0.00000000000E+00 -0.15444392529E+04  0.15444392529E+04  0.50400001928E-02 0.  1.
    10030    2    1    2    0    0  0.00000000000E+00  0.00000000000E+00 -0.81908307256E+02  0.30069701985E+04  0.30058544216E+04 0.  0.
        1    1    3    3  502    0  0.10524375577E+04 -0.70656747966E+03  0.76676601293E+03  0.14814832212E+04  0.50400001928E-02 0. -1.
       -1    1    3    3    0  502 -0.10524375577E+04  0.70656747966E+03 -0.84867432019E+03  0.15254869773E+04  0.50400001928E-02 0.  1.
</event>
<event>
 5   0  0.2862033E-06  0.3026815E+04  0.7818609E-02  0.8236115E-01
       -2   -1    0    0    0  501  0.00000000000E+00  0.00000000000E+00  0.91006784444E+03  0.91006784444E+03  0.25500000920E-02 0.  1.
        2   -1    0    0  501    0  0.00000000000E+00  0.00000000000E+00 -0.25167377851E+04  0.25167377851E+04  0.25500000920E-02 0. -1.
    10030    2    1    2    0    0  0.00000000000E+00  0.00000000000E+00 -0.16066699406E+04  0.34268056295E+04  0.30268149141E+04 0.  0.
        2    1    3    3  502    0 -0.61492433715E+03  0.12571425979E+04 -0.14555380031E+04  0.20191905136E+04  0.25500000920E-02 0. -1.
       -2    1    3    3    0  502  0.61492433715E+03 -0.12571425979E+04 -0.15113193753E+03  0.14076151159E+04  0.25500000920E-02 0.  1.
</event>
<event>
 5   0  0.2862033E-06  0.2971765E+04  0.7818609E-02  0.8251840E-01
       -2   -1    0    0    0  501  0.00000000000E+00  0.00000000000E+00  0.14664302084E+04  0.14664302084E+04  0.25500000920E-02 0. -1.
        2   -1    0    0  501    0  0.00000000000E+00  0.00000000000E+00 -0.15055931274E+04  0.15055931274E+04  0.25500000920E-02 0.  1.
    10030    2    1    2    0    0  0.00000000000E+00  0.00000000000E+00 -0.39162919019E+02  0.29720233358E+04  0.29717652960E+04 0.  0.
        2    1    3    3  502    0 -0.10425710539E+04 -0.10573799111E+04  0.33720117058E+02  0.14853093029E+04  0.25500000920E-02 0. -1.
       -2    1    3    3    0  502  0.10425710539E+04  0.10573799111E+04 -0.72883036078E+02  0.14867140330E+04  0.25500000920E-02 0.  1.
</event>
<event>
 5   0  0.1091075E-06  0.3018137E+04  0.7818609E-02  0.8238571E-01
       -1   -1    0    0    0  501  0.00000000000E+00  0.00000000000E+00  0.14952236581E+04  0.14952236581E+04  0.50400001928E-02 0. -1.
        1   -1    0    0  501    0  0.00000000000E+00  0.00000000000E+00 -0.15230420280E+04  0.15230420280E+04  0.50400001928E-02 0.  1.
    10030    2    1    2    0    0  0.00000000000E+00  0.00000000000E+00 -0.27818369921E+02  0.30182656861E+04  0.30181374870E+04 0.  0.
        1    1    3    3  502    0 -0.81302649744E+03  0.11592452543E+04  0.50805821933E+03  0.15043220398E+04  0.50400001928E-02 0. -1.
       -1    1    3    3    0  502  0.81302649744E+03 -0.11592452543E+04 -0.53587658925E+03  0.15139436463E+04  0.50400001928E-02 0.  1.
</event>
<event>
 5   0  0.1097402E-06  0.3030646E+04  0.7818609E-02  0.8235034E-01
       -1   -1    0    0    0  501  0.00000000000E+00  0.00000000000E+00  0.17983479187E+04  0.17983479187E+04  0.50400001928E-02 0.  1.
        1   -1    0    0  501    0  0.00000000000E+00  0.00000000000E+00 -0.12768406709E+04  0.12768406709E+04  0.50400001928E-02 0. -1.
    10030    2    1    2    0    0  0.00000000000E+00  0.00000000000E+00  0.52150724779E+03  0.30751885897E+04  0.30306459794E+04 0.  0.
        4    1    3    3  502    0 -0.79587218148E+03 -0.41802849071E+03 -0.97702823263E+03  0.13276844989E+04  0.12699999809E+01 0. -1.
       -4    1    3    3    0  502  0.79587218148E+03  0.41802849071E+03  0.14985354804E+04  0.17475040908E+04  0.12699999809E+01 0.  1.
</event>
<event>
 5   0  0.1113245E-06  0.3015715E+04  0.7818609E-02  0.8239258E-01
       -1   -1    0    0    0  501  0.00000000000E+00  0.00000000000E+00  0.15225639268E+04  0.15225639268E+04  0.50400001928E-02 0. -1.
        1   -1    0    0  501    0  0.00000000000E+00  0.00000000000E+00 -0.14932928702E+04  0.14932928702E+04  0.50400001928E-02 0.  1.
    10030    2    1    2    0    0  0.00000000000E+00  0.00000000000E+00  0.29271056550E+02  0.30158567970E+04  0.30157147454E+04 0.  0.
        5    1    3    3  502    0 -0.12535292072E+04  0.18217899812E+03  0.83265150635E+03  0.15158678312E+04  0.46999998093E+01 0. -1.
       -5    1    3    3    0  502  0.12535292072E+04 -0.18217899812E+03 -0.80338044980E+03  0.14999889658E+04  0.46999998093E+01 0.  1.
</event>
<event>
 5   0  0.2970915E-06  0.2975127E+04  0.7818609E-02  0.8250870E-01
        2   -1    0    0  501    0  0.00000000000E+00  0.00000000000E+00  0.18174299315E+04  0.18174299315E+04  0.25500000920E-02 0.  1.
       -2   -1    0    0    0  501  0.00000000000E+00  0.00000000000E+00 -0.12175679868E+04  0.12175679868E+04  0.25500000920E-02 0. -1.
    10030    2    1    2    0    0  0.00000000000E+00  0.00000000000E+00  0.59986194469E+03  0.30349979183E+04  0.29751265539E+04 0.  0.
        4    1    3    3  502    0  0.10450113313E+03  0.10032226354E+04  0.14153080206E+04  0.17379512505E+04  0.12699999809E+01 0.  1.
       -4    1    3    3    0  502 -0.10450113313E+03 -0.10032226354E+04 -0.81544607591E+03  0.12970466678E+04  0.12699999809E+01 0. -1.
</event>
<event>
 5   0  0.1113245E-06  0.2970512E+04  0.7818609E-02  0.8252202E-01
        1   -1    0    0  501    0  0.00000000000E+00  0.00000000000E+00  0.13877133243E+04  0.13877133243E+04  0.50400001928E-02 0. -1.
       -1   -1    0    0    0  501  0.00000000000E+00  0.00000000000E+00 -0.15896552274E+04  0.15896552274E+04  0.50400001928E-02 0.  1.
    10030    2    1    2    0    0  0.00000000000E+00  0.00000000000E+00 -0.20194190317E+03  0.29773685517E+04  0.29705122387E+04 0.  0.
        5    1    3    3  502    0  0.91336330354E+03  0.46642301050E+03  0.97583675464E+03  0.14156491128E+04  0.46999998093E+01 0. -1.
       -5    1    3    3    0  502 -0.91336330354E+03 -0.46642301050E+03 -0.11777786578E+04  0.15617194389E+04  0.46999998093E+01 0.  1.
</event>
<event>
 5   0  0.3113328E-06  0.2999580E+04  0.7818609E-02  0.8243851E-01
       -2   -1    0    0    0  501  0.00000000000E+00  0.00000000000E+00  0.14860346859E+04  0.14860346859E+04  0.25500000920E-02 0.  1.
        2   -1    0    0  501    0  0.00000000000E+00  0.00000000000E+00 -0.15136727795E+04  0.15136727795E+04  0.25500000920E-02 0. -1.
    10030    2    1    2    0    0  0.00000000000E+00  0.00000000000E+00 -0.27638093656E+02  0.29997074654E+04  0.29995801396E+04 0.  0.
        1    1    3    3  502    0  0.12497683255E+04 -0.70199481796E+03  0.42739426564E+03  0.14957885713E+04  0.50400001928E-02 0.  1.
       -1    1    3    3    0  502 -0.12497683255E+04  0.70199481796E+03 -0.45503235930E+03  0.15039188940E+04  0.50400001928E-02 0. -1.
</event>
<event>
 5   0  0.1113245E-06  0.2916277E+04  0.7818609E-02  0.8268051E-01
        1   -1    0    0  501    0  0.00000000000E+00  0.00000000000E+00  0.16346141782E+04  0.16346141782E+04  0.50400001928E-02 0. -1.
       -1   -1    0    0    0  501  0.00000000000E+00  0.00000000000E+00 -0.13007152612E+04  0.13007152612E+04  0.50400001928E-02 0.  1.
    10030    2    1    2    0    0  0.00000000000E+00  0.00000000000E+00  0.33389891695E+03  0.29353294394E+04  0.29162768097E+04 0.  0.
        5    1    3    3  502    0 -0.24545864108E+03  0.11181252988E+04  0.10760063109E+04  0.15710715450E+04  0.46999998093E+01 0. -1.
       -5    1    3    3    0  502  0.24545864108E+03 -0.11181252988E+04 -0.74210739390E+03  0.13642578944E+04  0.46999998093E+01 0.  1.
</event>
<event>
 5   0  0.1091076E-06  0.2985408E+04  0.7818609E-02  0.8247910E-01
       -1   -1    0    0    0  501  0.00000000000E+00  0.00000000000E+00  0.93491151556E+03  0.93491151558E+03  0.50400001928E-02 0. -1.
        1   -1    0    0  501    0  0.00000000000E+00  0.00000000000E+00 -0.23832896500E+04  0.23832896500E+04  0.50400001928E-02 0.  1.
    10030    2    1    2    0    0  0.00000000000E+00  0.00000000000E+00 -0.14483781345E+04  0.33182011656E+04  0.29854078038E+04 0.  0.
        3    1    3    3  502    0 -0.87041670180E+03  0.12115407463E+04 -0.66634209776E+03  0.16338506713E+04  0.10100000352E+00 0.  1.
       -3    1    3    3    0  502  0.87041670180E+03 -0.12115407463E+04 -0.78203603672E+03  0.16843504943E+04  0.10100000352E+00 0. -1.
</event>
<event>
 5   0  0.1091076E-06  0.3005975E+04  0.7818609E-02  0.8242027E-01
       -1   -1    0    0    0  501  0.00000000000E+00  0.00000000000E+00  0.10085591239E+04  0.10085591239E+04  0.50400001928E-02 0. -1.
        1   -1    0    0  501    0  0.00000000000E+00  0.00000000000E+00 -0.22398009887E+04  0.22398009887E+04  0.50400001928E-02 0.  1.
    10030    2    1    2    0    0  0.00000000000E+00  0.00000000000E+00 -0.12312418648E+04  0.32483601127E+04  0.30059751982E+04 0.  0.
        3    1    3    3  502    0 -0.82569874056E+03  0.84202111649E+03 -0.16225226962E+04  0.20058309702E+04  0.10100000352E+00 0. -1.
       -3    1    3    3    0  502  0.82569874056E+03 -0.84202111649E+03  0.39128083145E+03  0.12425291425E+04  0.10100000352E+00 0.  1.
</event>
<event>
 5   0  0.1113245E-06  0.2775004E+04  0.7818609E-02  0.8311071E-01
       -1   -1    0    0    0  501  0.00000000000E+00  0.00000000000E+00  0.82147312172E+03  0.82147312173E+03  0.50400001928E-02 0.  1.
        1   -1    0    0  501    0  0.00000000000E+00  0.00000000000E+00 -0.23435482967E+04  0.23435482967E+04  0.50400001928E-02 0. -1.
    10030    2    1    2    0    0  0.00000000000E+00  0.00000000000E+00 -0.15220751750E+04  0.31650214185E+04  0.27750040975E+04 0.  0.
        5    1    3    3  502    0 -0.20447118572E+03  0.12286154484E+04 -0.14583915470E+04  0.19178718363E+04  0.46999998093E+01 0. -1.
       -5    1    3    3    0  502  0.20447118572E+03 -0.12286154484E+04 -0.63683628011E+02  0.12471495822E+04  0.46999998093E+01 0.  1.
</event>
<event>
 5   0  0.2970915E-06  0.2995032E+04  0.7818609E-02  0.8245151E-01
        2   -1    0    0  501    0  0.00000000000E+00  0.00000000000E+00  0.12058520047E+04  0.12058520047E+04  0.25500000920E-02 0. -1.
       -2   -1    0    0    0  501  0.00000000000E+00  0.00000000000E+00 -0.18597254199E+04  0.18597254199E+04  0.25500000920E-02 0.  1.
    10030    2    1    2    0    0  0.00000000000E+00  0.00000000000E+00 -0.65387341518E+03  0.30655774246E+04  0.29950316364E+04 0.  0.
        4    1    3    3  502    0 -0.55434582985E+03  0.54946532115E+03 -0.16350617217E+04  0.18118056973E+04  0.12699999809E+01 0.  1.
       -4    1    3    3    0  502  0.55434582985E+03 -0.54946532115E+03  0.98118830653E+03  0.12537717272E+04  0.12699999809E+01 0. -1.
</event>
<event>
 5   0  0.2985941E-06  0.2938260E+04  0.7818609E-02  0.8261584E-01
        2   -1    0    0  501    0  0.00000000000E+00  0.00000000000E+00  0.28849516510E+04  0.28849516510E+04  0.25500000920E-02 0. -1.
       -2   -1    0    0    0  501  0.00000000000E+00  0.00000000000E+00 -0.74813837737E+03  0.74813837737E+03  0.25500000920E-02 0.  1.
    10030    2    1    2    0    0  0.00000000000E+00  0.00000000000E+00  0.21368132736E+04  0.36330900283E+04  0.29382600613E+04 0.  0.
        3    1    3    3  502    0 -0.41831438585E+03 -0.11500781718E+02  0.28096994014E+04  0.28406918048E+04  0.10100000352E+00 0. -1.
       -3    1    3    3    0  502  0.41831438585E+03  0.11500781718E+02 -0.67288612784E+03  0.79239822351E+03  0.10100000352E+00 0.  1.
</event>
<event>
 5   0  0.2862033E-06  0.3000803E+04  0.7818609E-02  0.8243502E-01
       -2   -1    0    0    0  501  0.00000000000E+00  0.00000000000E+00  0.13670938997E+04  0.13670938997E+04  0.25500000920E-02 0.  1.
        2   -1    0    0  501    0  0.00000000000E+00  0.00000000000E+00 -0.16467085605E+04  0.16467085605E+04  0.25500000920E-02 0. -1.
    10030    2    1    2    0    0  0.00000000000E+00  0.00000000000E+00 -0.27961466081E+03  0.30138024603E+04  0.30008033776E+04 0.  0.
        2    1    3    3  502    0 -0.16699002733E+03 -0.14331508374E+04 -0.55317041056E+03  0.15452522432E+04  0.25500000920E-02 0. -1.
       -2    1    3    3    0  502  0.16699002733E+03  0.14331508374E+04  0.27355574975E+03  0.14685502171E+04  0.25500000920E-02 0.  1.
</event>
<event>
 5   0  0.3113328E-06  0.2978797E+04  0.7818609E-02  0.8249811E-01
       -2   -1    0    0    0  501  0.00000000000E+00  0.00000000000E+00  0.86115110694E+03  0.86115110694E+03  0.25500000920E-02 0.  1.
        2   -1    0    0  501    0  0.00000000000E+00  0.00000000000E+00 -0.25759805402E+04  0.25759805402E+04  0.25500000920E-02 0. -1.
    10030    2    1    2    0    0  0.00000000000E+00  0.00000000000E+00 -0.17148294333E+04  0.34371316472E+04  0.29787974041E+04 0.  0.
        1    1    3    3  502    0 -0.27921741096E+03  0.14112178283E+04 -0.13025292774E+04  0.19406392349E+04  0.50400001928E-02 0. -1.
       -1    1    3    3    0  502  0.27921741096E+03 -0.14112178283E+04 -0.41230015585E+03  0.14964924123E+04  0.50400001928E-02 0.  1.
</event>
<event>
 5   0  0.2948711E-06  0.2998770E+04  0.7818609E-02  0.8244082E-01
       -2   -1    0    0    0  501  0.00000000000E+00  0.00000000000E+00  0.95962966417E+03  0.95962966417E+03  0.25500000920E-02 0. -1.
        2   -1    0    0  501    0  0.00000000000E+00  0.00000000000E+00 -0.23427326545E+04  0.23427326546E+04  0.25500000920E-02 0.  1.
    10030    2    1    2    0    0  0.00000000000E+00  0.00000000000E+00 -0.13831029904E+04  0.33023623187E+04  0.29987702483E+04 0.  0.
        5    1    3    3  502    0 -0.70009895216E+03  0.45294162781E+03  0.68073484901E+03  0.10764370328E+04  0.46999998093E+01 0. -1.
       -5    1    3    3    0  502  0.70009895216E+03 -0.45294162781E+03 -0.20638378394E+04  0.22259252859E+04  0.46999998093E+01 0.  1.
</event>
<event>
 5   0  0.2985941E-06  0.2962700E+04  0.7818609E-02  0.8254463E-01
        2   -1    0    0  501    0  0.00000000000E+00  0.00000000000E+00  0.17977184075E+04  0.17977184075E+04  0.25500000920E-02 0. -1.
       -2   -1    0    0    0  501  0.00000000000E+00  0.00000000000E+00 -0.12206573617E+04  0.12206573617E+04  0.25500000920E-02 0.  1.
    10030    2    1    2    0    0  0.00000000000E+00  0.00000000000E+00  0.57706104583E+03  0.30183757692E+04  0.29627002605E+04 0.  0.
        3    1    3    3  502    0  0.97524701428E+03 -0.40514705303E+02  0.14237640002E+04  0.17262248170E+04  0.10100000352E+00 0. -1.
       -3    1    3    3    0  502 -0.97524701428E+03  0.40514705303E+02 -0.84670295438E+03  0.12921509522E+04  0.10100000352E+00 0.  1.
</event>
<event>
 5   0  0.1091075E-06  0.3027869E+04  0.7818609E-02  0.8235817E-01
        1   -1    0    0  501    0  0.00000000000E+00  0.00000000000E+00  0.21609310332E+04  0.21609310332E+04  0.50400001928E-02 0.  1.
       -1   -1    0    0    0  501  0.00000000000E+00  0.00000000000E+00 -0.10606530191E+04  0.10606530192E+04  0.50400001928E-02 0. -1.
    10030    2    1    2    0    0  0.00000000000E+00  0.00000000000E+00  0.11002780141E+04  0.32215840524E+04  0.30278692340E+04 0.  0.
        1    1    3    3  502    0  0.25106061420E+03  0.95942467920E+03  0.17672057132E+04  0.20264607521E+04  0.50400001928E-02 0.  1.
       -1    1    3    3    0  502 -0.25106061420E+03 -0.95942467920E+03 -0.66692769909E+03  0.11951233003E+04  0.50400001928E-02 0. -1.
</event>
<event>
 5   0  0.1091076E-06  0.2892321E+04  0.7818609E-02  0.8275166E-01
        1   -1    0    0  501    0  0.00000000000E+00  0.00000000000E+00  0.14455128792E+04  0.14455128792E+04  0.50400001928E-02 0.  1.
       -1   -1    0    0    0  501  0.00000000000E+00  0.00000000000E+00 -0.14468085659E+04  0.14468085660E+04  0.50400001928E-02 0. -1.
    10030    2    1    2    0    0  0.00000000000E+00  0.00000000000E+00 -0.12956867105E+01  0.28923214452E+04  0.28923211550E+04 0.  0.
        3    1    3    3  502    0  0.93191032391E+03  0.10986177486E+04  0.12569533821E+03  0.14461041241E+04  0.10100000352E+00 0.  1.
       -3    1    3    3    0  502 -0.93191032391E+03 -0.10986177486E+04 -0.12699102492E+03  0.14462173211E+04  0.10100000352E+00 0. -1.
</event>
<event>
 5   0  0.1113245E-06  0.2980291E+04  0.7818609E-02  0.8249381E-01
        1   -1    0    0  501    0  0.00000000000E+00  0.00000000000E+00  0.17129744047E+04  0.17129744047E+04  0.50400001928E-02 0.  1.
       -1   -1    0    0    0  501  0.00000000000E+00  0.00000000000E+00 -0.12963028471E+04  0.12963028471E+04  0.50400001928E-02 0. -1.
    10030    2    1    2    0    0  0.00000000000E+00  0.00000000000E+00  0.41667155764E+03  0.30092772518E+04  0.29802909910E+04 0.  0.
        5    1    3    3  502    0  0.12843507752E+04  0.74704362962E+03  0.93740067238E+02  0.14887714360E+04  0.46999998093E+01 0. -1.
       -5    1    3    3    0  502 -0.12843507752E+04 -0.74704362962E+03  0.32293149040E+03  0.15205058158E+04  0.46999998093E+01 0.  1.
</event>
<event>
 5   0  0.1091076E-06  0.2762205E+04  0.7818609E-02  0.8315099E-01
        1   -1    0    0  501    0  0.00000000000E+00  0.00000000000E+00  0.16672757317E+04  0.16672757317E+04  0.50400001928E-02 0. -1.
       -1   -1    0    0    0  501  0.00000000000E+00  0.00000000000E+00 -0.11440481140E+04  0.11440481140E+04  0.50400001928E-02 0.  1.
    10030    2    1    2    0    0  0.00000000000E+00  0.00000000000E+00  0.52322761764E+03  0.28113238457E+04  0.27622046676E+04 0.  0.
        3    1    3    3  502    0 -0.10434621782E+04  0.33632618922E+02 -0.65862105585E+03  0.12343930394E+04  0.10100000352E+00 0.  1.
       -3    1    3    3    0  502  0.10434621782E+04 -0.33632618922E+02  0.11818486735E+04  0.15769308062E+04  0.10100000352E+00 0. -1.
</event>
<event>
 5   0  0.2862033E-06  0.3023174E+04  0.7818609E-02  0.8237144E-01
       -2   -1    0    0    0  501  0.00000000000E+00  0.00000000000E+00  0.11512914059E+04  0.11512914059E+04  0.25500000920E-02 0.  1.
        2   -1    0    0  501    0  0.00000000000E+00  0.00000000000E+00 -0.19846365005E+04  0.19846365005E+04  0.25500000920E-02 0. -1.
    10030    2    1    2    0    0  0.00000000000E+00  0.00000000000E+00 -0.83334509465E+03  0.31359279064E+04  0.30231737938E+04 0.  0.
        2    1    3    3  502    0 -0.10750889839E+03 -0.65706669474E+03 -0.18243418033E+04  0.19420396030E+04  0.25500000920E-02 0. -1.
       -2    1    3    3    0  502  0.10750889839E+03  0.65706669474E+03  0.99099670861E+03  0.11938883034E+04  0.25500000920E-02 0.  1.
</event>
<event>
 5   0  0.2985941E-06  0.3010128E+04  0.7818609E-02  0.8240845E-01
       -2   -1    0    0    0  501  0.00000000000E+00  0.00000000000E+00  0.80287947864E+03  0.80287947865E+03  0.25500000920E-02 0. -1.
        2   -1    0    0  501    0  0.00000000000E+00  0.00000000000E+00 -0.28213677196E+04  0.28213677196E+04  0.25500000920E-02 0.  1.
    10030    2    1    2    0    0  0.00000000000E+00  0.00000000000E+00 -0.20184882410E+04  0.36242471983E+04  0.30101283984E+04 0.  0.
        3    1    3    3  502    0  0.92827720045E+03  0.30949733120E+03 -0.23861111888E+04  0.25789559466E+04  0.10100000352E+00 0.  1.
       -3    1    3    3    0  502 -0.92827720045E+03 -0.30949733120E+03  0.36762294782E+03  0.10452912517E+04  0.10100000352E+00 0. -1.
</event>
<event>
 5   0  0.1091076E-06  0.3143551E+04  0.7818609E-02  0.8203886E-01
       -1   -1    0    0    0  501  0.00000000000E+00  0.00000000000E+00  0.17189785524E+04  0.17189785524E+04  0.50400001928E-02 0. -1.
        1   -1    0    0  501    0  0.00000000000E+00  0.00000000000E+00 -0.14371784141E+04  0.14371784141E+04  0.50400001928E-02 0.  1.
    10030    2    1    2    0    0  0.00000000000E+00  0.00000000000E+00  0.28180013834E+03  0.31561569665E+04  0.31435514119E+04 0.  0.
        3    1    3    3  502    0 -0.11055114544E+04 -0.57584627621E+03  0.11021966777E+04  0.16639086622E+04  0.10100000352E+00 0. -1.
       -3    1    3    3    0  502  0.11055114544E+04  0.57584627621E+03 -0.82039653937E+03  0.14922483043E+04  0.10100000352E+00 0.  1.
</event>
<event>
 5   0  0.1054384E-06  0.2990966E+04  0.7818609E-02  0.8246315E-01
        1   -1    0    0  501    0  0.00000000000E+00  0.00000000000E+00  0.12254195589E+04  0.12254195589E+04  0.50400001928E-02 0.  1.
       -1   -1    0    0    0  501  0.00000000000E+00  0.00000000000E+00 -0.18250641775E+04  0.18250641775E+04  0.50400001928E-02 0. -1.
    10030    2    1    2    0    0  0.00000000000E+00  0.00000000000E+00 -0.59964461865E+03  0.30504837364E+04  0.29909659572E+04 0.  0.
        2    1    3    3  502    0 -0.99055381244E+02  0.26832138821E+02 -0.18214686218E+04  0.18243573861E+04  0.25500000920E-02 0. -1.
       -2    1    3    3    0  502  0.99055381244E+02 -0.26832138821E+02  0.12218240031E+04  0.12261263503E+04  0.25500000920E-02 0.  1.
</event>
<event>
 5   0  0.2862033E-06  0.2960924E+04  0.7818609E-02  0.8254978E-01
       -2   -1    0    0    0  501  0.00000000000E+00  0.00000000000E+00  0.11910635340E+04  0.11910635340E+04  0.25500000920E-02 0. -1.
        2   -1    0    0  501    0  0.00000000000E+00  0.00000000000E+00 -0.18401767740E+04  0.18401767740E+04  0.25500000920E-02 0.  1.
    10030    2    1    2    0    0  0.00000000000E+00  0.00000000000E+00 -0.64911323999E+03  0.30312403080E+04  0.29609238096E+04 0.  0.
        2    1    3    3  502    0  0.13246177228E+04  0.45689025925E+03  0.16471214254E+03  0.14108475859E+04  0.25500000920E-02 0. -1.
       -2    1    3    3    0  502 -0.13246177228E+04 -0.45689025925E+03 -0.81382538253E+03  0.16203927221E+04  0.25500000920E-02 0.  1.
</event>
<event>
 5   0  0.1097402E-06  0.2935307E+04  0.7818609E-02  0.8262449E-01
       -1   -1    0    0    0  501  0.00000000000E+00  0.00000000000E+00  0.13273529247E+04  0.13273529247E+04  0.50400001928E-02 0. -1.
        1   -1    0    0  501    0  0.00000000000E+00  0.00000000000E+00 -0.16227840844E+04  0.16227840844E+04  0.50400001928E-02 0.  1.
    10030    2    1    2    0    0  0.00000000000E+00  0.00000000000E+00 -0.29543115968E+03  0.29501370091E+04  0.29353072756E+04 0.  0.
        4    1    3    3  502    0  0.14447821738E+04 -0.65075980456E+02 -0.39872759054E+03  0.15002052250E+04  0.12699999809E+01 0.  1.
       -4    1    3    3    0  502 -0.14447821738E+04  0.65075980456E+02  0.10329643085E+03  0.14499317841E+04  0.12699999809E+01 0. -1.
</event>
<event>
 5   0  0.3113328E-06  0.3020801E+04  0.7818609E-02  0.8237816E-01
       -2   -1    0    0    0  501  0.00000000000E+00  0.00000000000E+00  0.19002838420E+04  0.19002838420E+04  0.25500000920E-02 0.  1.
        2   -1    0    0  501    0  0.00000000000E+00  0.00000000000E+00 -0.12005099684E+04  0.12005099684E+04  0.25500000920E-02 0. -1.
    10030    2    1    2    0    0  0.00000000000E+00  0.00000000000E+00  0.69977387352E+03  0.31007938104E+04  0.30208010164E+04 0.  0.
        1    1    3    3  502    0 -0.28665643250E+03  0.13829094311E+04  0.89950889948E+03  0.16744332370E+04  0.50400001928E-02 0.  1.
       -1    1    3    3    0  502  0.28665643250E+03 -0.13829094311E+04 -0.19973502596E+03  0.14263605734E+04  0.50400001928E-02 0. -1.
</event>
<event>
 5   0  0.1097402E-06  0.3012661E+04  0.7818609E-02  0.8240125E-01
       -1   -1    0    0    0  501  0.00000000000E+00  0.00000000000E+00  0.11581279480E+04  0.11581279480E+04  0.50400001928E-02 0. -1.
        1   -1    0    0  501    0  0.00000000000E+00  0.00000000000E+00 -0.19592232452E+04  0.19592232452E+04  0.50400001928E-02 0.  1.
    10030    2    1    2    0    0  0.00000000000E+00  0.00000000000E+00 -0.80109529723E+03  0.31173511933E+04  0.30126607487E+04 0.  0.
        4    1    3    3  502    0 -0.14494397231E+04  0.27456144439E+03 -0.85381559490E+02  0.14776843781E+04  0.12699999809E+01 0. -1.
       -4    1    3    3    0  502  0.14494397231E+04 -0.27456144439E+03 -0.71571373774E+03  0.16396668152E+04  0.12699999809E+01 0.  1.
</event>
<event>
 5   0  0.1091076E-06  0.3003588E+04  0.7818609E-02  0.8242707E-01
        1   -1    0    0  501    0  0.00000000000E+00  0.00000000000E+00  0.25258389964E+04  0.25258389964E+04  0.50400001928E-02 0. -1.
       -1   -1    0    0    0  501  0.00000000000E+00  0.00000000000E+00 -0.89292518694E+03  0.89292518696E+03  0.50400001928E-02 0.  1.
    10030    2    1    2    0    0  0.00000000000E+00  0.00000000000E+00  0.16329138094E+04  0.34187641833E+04  0.30035880264E+04 0.  0.
        3    1    3    3  502    0  0.10084005150E+04  0.11128103092E+04  0.83116009136E+03  0.17164048154E+04  0.10100000352E+00 0.  1.
       -3    1    3    3    0  502 -0.10084005150E+04 -0.11128103092E+04  0.80175371805E+03  0.17023593679E+04  0.10100000352E+00 0. -1.
</event>
<event>
 5   0  0.1054384E-06  0.2997095E+04  0.7818609E-02  0.8244561E-01
        1   -1    0    0  501    0  0.00000000000E+00  0.00000000000E+00  0.20643492094E+04  0.20643492095E+04  0.50400001928E-02 0.  1.
       -1   -1    0    0    0  501  0.00000000000E+00  0.00000000000E+00 -0.10878217395E+04  0.10878217395E+04  0.50400001928E-02 0. -1.
    10030    2    1    2    0    0  0.00000000000E+00  0.00000000000E+00  0.97652746991E+03  0.31521709490E+04  0.29970945584E+04 0.  0.
        2    1    3    3  502    0 -0.82990938146E+03 -0.11330320326E+04  0.10379263874E+04  0.17463683329E+04  0.25500000920E-02 0.  1.
       -2    1    3    3    0  502  0.82990938146E+03  0.11330320326E+04 -0.61398917498E+02  0.14058026161E+04  0.25500000920E-02 0. -1.
</event>
<event>
 5   0  0.3113328E-06  0.2998773E+04  0.7818609E-02  0.8244081E-01
        2   -1    0    0  501    0  0.00000000000E+00  0.00000000000E+00  0.19780213746E+04  0.19780213746E+04  0.25500000920E-02 0.  1.
       -2   -1    0    0    0  501  0.00000000000E+00  0.00000000000E+00 -0.11365698146E+04  0.11365698146E+04  0.25500000920E-02 0. -1.
    10030    2    1    2    0    0  0.00000000000E+00  0.00000000000E+00  0.84145156000E+03  0.31145911892E+04  0.29987726736E+04 0.  0.
        1    1    3    3  502    0 -0.13021677912E+04 -0.48916420646E+03  0.10020171857E+04  0.17143398198E+04  0.50400001928E-02 0. -1.
       -1    1    3    3    0  502  0.13021677912E+04  0.48916420646E+03 -0.16056562568E+03  0.14002513694E+04  0.50400001928E-02 0.  1.
</event>
<event>
 5   0  0.2948711E-06  0.3029527E+04  0.7818609E-02  0.8235349E-01
        2   -1    0    0  501    0  0.00000000000E+00  0.00000000000E+00  0.15605318553E+04  0.15605318553E+04  0.25500000920E-02 0. -1.
       -2   -1    0    0    0  501  0.00000000000E+00  0.00000000000E+00 -0.14703369883E+04  0.14703369883E+04  0.25500000920E-02 0.  1.
    10030    2    1    2    0    0  0.00000000000E+00  0.00000000000E+00  0.90194866998E+02  0.30308688436E+04  0.30295265031E+04 0.  0.
        5    1    3    3  502    0  0.80420855749E+03 -0.55804245411E+02 -0.12378982171E+04  0.14772540755E+04  0.46999998093E+01 0.  1.
       -5    1    3    3    0  502 -0.80420855749E+03  0.55804245411E+02  0.13280930841E+04  0.15536147681E+04  0.46999998093E+01 0. -1.
</event>
<event>
 5   0  0.1113245E-06  0.3018069E+04  0.7818609E-02  0.8238590E-01
        1   -1    0    0  501    0  0.00000000000E+00  0.00000000000E+00  0.18107555942E+04  0.18107555942E+04  0.50400001928E-02 0.  1.
       -1   -1    0    0    0  501  0.00000000000E+00  0.00000000000E+00 -0.12575885199E+04  0.12575885199E+04  0.50400001928E-02 0. -1.
    10030    2    1    2    0    0  0.00000000000E+00  0.00000000000E+00  0.55316707432E+03  0.30683441142E+04  0.30180692157E+04 0.  0.
        5    1    3    3  502    0 -0.33860915641E+03  0.40093301964E+03  0.17149874711E+04  0.17934903298E+04  0.46999998093E+01 0.  1.
       -5    1    3    3    0  502  0.33860915641E+03 -0.40093301964E+03 -0.11618203968E+04  0.12748537844E+04  0.46999998093E+01 0. -1.
</event>
<event>
 5   0  0.2970915E-06  0.2970263E+04  0.7818609E-02  0.8252274E-01
       -2   -1    0    0    0  501  0.00000000000E+00  0.00000000000E+00  0.10268843967E+04  0.10268843967E+04  0.25500000920E-02 0.  1.
        2   -1    0    0  501    0  0.00000000000E+00  0.00000000000E+00 -0.21478713619E+04  0.21478713619E+04  0.25500000920E-02 0. -1.
    10030    2    1    2    0    0  0.00000000000E+00  0.00000000000E+00 -0.11209869652E+04  0.31747557586E+04  0.29702630104E+04 0.  0.
        4    1    3    3  502    0 -0.75154297903E+03  0.30987529115E+03 -0.18889518505E+04  0.20564484559E+04  0.12699999809E+01 0. -1.
       -4    1    3    3    0  502  0.75154297903E+03 -0.30987529115E+03  0.76796488531E+03  0.11183073027E+04  0.12699999809E+01 0.  1.
</event>
<event>
 5   0  0.1091075E-06  0.2986333E+04  0.7818609E-02  0.8247644E-01
        1   -1    0    0  501    0  0.00000000000E+00  0.00000000000E+00  0.17218444968E+04  0.17218444968E+04  0.50400001928E-02 0. -1.
       -1   -1    0    0    0  501  0.00000000000E+00  0.00000000000E+00 -0.12948588109E+04  0.12948588109E+04  0.50400001928E-02 0.  1.
    10030    2    1    2    0    0  0.00000000000E+00  0.00000000000E+00  0.42698568596E+03  0.30167033077E+04  0.29863325452E+04 0.  0.
        1    1    3    3  502    0  0.12349516536E+04 -0.48652395307E+03  0.90435925018E+03  0.16061372286E+04  0.50400001928E-02 0. -1.
       -1    1    3    3    0  502 -0.12349516536E+04  0.48652395307E+03 -0.47737356421E+03  0.14105660791E+04  0.50400001928E-02 0.  1.
</event>
<event>
 5   0  0.1113245E-06  0.2708484E+04  0.7818609E-02  0.8332257E-01
       -1   -1    0    0    0  501  0.00000000000E+00  0.00000000000E+00  0.11427550188E+04  0.11427550188E+04  0.50400001928E-02 0.  1.
        1   -1    0    0  501    0  0.00000000000E+00  0.00000000000E+00 -0.16048685115E+04  0.16048685115E+04  0.50400001928E-02 0. -1.
    10030    2    1    2    0    0  0.00000000000E+00  0.00000000000E+00 -0.46211349269E+03  0.27476235303E+04  0.27084841119E+04 0.  0.
        5    1    3    3  502    0  0.64042337942E+03 -0.12273141253E+03  0.97300020267E+03  0.11713055062E+04  0.46999998093E+01 0.  1.
       -5    1    3    3    0  502 -0.64042337942E+03  0.12273141253E+03 -0.14351136954E+04  0.15763180241E+04  0.46999998093E+01 0. -1.
</event>
<event>
 5   0  0.1054384E-06  0.3011925E+04  0.7818609E-02  0.8240334E-01
        1   -1    0    0  501    0  0.00000000000E+00  0.00000000000E+00  0.25686560749E+04  0.25686560749E+04  0.50400001928E-02 0.  1.
       -1   -1    0    0    0  501  0.00000000000E+00  0.00000000000E+00 -0.88292192194E+03  0.88292192195E+03  0.50400001928E-02 0. -1.
    10030    2    1    2    0    0  0.00000000000E+00  0.00000000000E+00  0.16857341529E+04  0.34515779968E+04  0.30119248055E+04 0.  0.
        2    1    3    3  502    0 -0.10001007223E+04 -0.77478366567E+03 -0.93350824603E+02  0.12685446621E+04  0.25500000920E-02 0. -1.
       -2    1    3    3    0  502  0.10001007223E+04  0.77478366567E+03  0.17790849775E+04  0.21830333347E+04  0.25500000920E-02 0.  1.
</event>
<event>
 5   0  0.1054384E-06  0.3025555E+04  0.7818609E-02  0.8236471E-01
        1   -1    0    0  501    0  0.00000000000E+00  0.00000000000E+00  0.15858913975E+04  0.15858913975E+04  0.50400001928E-02 0. -1.
       -1   -1    0    0    0  501  0.00000000000E+00  0.00000000000E+00 -0.14430346024E+04  0.14430346024E+04  0.50400001928E-02 0.  1.
    10030    2    1    2    0    0  0.00000000000E+00  0.00000000000E+00  0.14285679511E+03  0.30289259999E+04  0.30255552629E+04 0.  0.
        2    1    3    3  502    0 -0.51220897463E+03  0.11956250759E+04  0.84469996657E+03  0.15509337154E+04  0.25500000920E-02 0. -1.
       -2    1    3    3    0  502  0.51220897463E+03 -0.11956250759E+04 -0.70184317146E+03  0.14779922846E+04  0.25500000920E-02 0.  1.
</event>
<event>
 5   0  0.1113245E-06  0.2993975E+04  0.7818609E-02  0.8245453E-01
        1   -1    0    0  501    0  0.00000000000E+00  0.00000000000E+00  0.21089288037E+04  0.21089288037E+04  0.50400001928E-02 0. -1.
       -1   -1    0    0    0  501  0.00000000000E+00  0.00000000000E+00 -0.10626116170E+04  0.10626116170E+04  0.50400001928E-02 0.  1.
    10030    2    1    2    0    0  0.00000000000E+00  0.00000000000E+00  0.10463171867E+04  0.31715404207E+04  0.29939754482E+04 0.  0.
        5    1    3    3  502    0 -0.14177367712E+03  0.84715594410E+03  0.18219132095E+04  0.20142400060E+04  0.46999998093E+01 0. -1.
       -5    1    3    3    0  502  0.14177367712E+03 -0.84715594410E+03 -0.77559602275E+03  0.11573004146E+04  0.46999998093E+01 0.  1.
</event>
<event>
 5   0  0.1113245E-06  0.3057945E+04  0.7818609E-02  0.8227375E-01
        1   -1    0    0  501    0  0.00000000000E+00  0.00000000000E+00  0.22089346221E+04  0.22089346221E+04  0.50400001928E-02 0.  1.
       -1   -1    0    0    0  501  0.00000000000E+00  0.00000000000E+00 -0.10583184937E+04  0.10583184937E+04  0.50400001928E-02 0. -1.
    10030    2    1    2    0    0  0.00000000000E+00  0.00000000000E+00  0.11506161284E+04  0.32672531158E+04  0.30579446443E+04 0.  0.
        5    1    3    3  502    0  0.84164583662E+03  0.39931295253E+03  0.18706946013E+04  0.20898179178E+04  0.46999998093E+01 0. -1.
       -5    1    3    3    0  502 -0.84164583662E+03 -0.39931295253E+03 -0.72007847291E+03  0.11774351980E+04  0.46999998093E+01 0.  1.
</event>
<event>
 5   0  0.1054384E-06  0.2998839E+04  0.7818609E-02  0.8244063E-01
       -1   -1    0    0    0  501  0.00000000000E+00  0.00000000000E+00  0.14844928521E+04  0.14844928521E+04  0.50400001928E-02 0. -1.
        1   -1    0    0  501    0  0.00000000000E+00  0.00000000000E+00 -0.15144960099E+04  0.15144960100E+04  0.50400001928E-02 0.  1.
    10030    2    1    2    0    0  0.00000000000E+00  0.00000000000E+00 -0.30003157834E+02  0.29989888621E+04  0.29988387762E+04 0.  0.
        2    1    3    3  502    0  0.13262463946E+04 -0.37794548736E+03  0.57365867405E+03  0.14936052239E+04  0.25500000920E-02 0. -1.
       -2    1    3    3    0  502 -0.13262463946E+04  0.37794548736E+03 -0.60366183189E+03  0.15053836381E+04  0.25500000920E-02 0.  1.
</event>
<event>
 5   0  0.1054384E-06  0.3014180E+04  0.7818609E-02  0.8239693E-01
        1   -1    0    0  501    0  0.00000000000E+00  0.00000000000E+00  0.15687009097E+04  0.15687009097E+04  0.50400001928E-02 0.  1.
       -1   -1    0    0    0  501  0.00000000000E+00  0.00000000000E+00 -0.14478986891E+04  0.14478986891E+04  0.50400001928E-02 0. -1.
    10030    2    1    2    0    0  0.00000000000E+00  0.00000000000E+00  0.12080222054E+03  0.30165995988E+04  0.30141798160E+04 0.  0.
        2    1    3    3  502    0  0.12980538894E+03  0.12291620227E+04 -0.80263175520E+03  0.14737389360E+04  0.25500000920E-02 0. -1.
       -2    1    3    3    0  502 -0.12980538894E+03 -0.12291620227E+04  0.92343397575E+03  0.15428606628E+04  0.25500000920E-02 0.  1.
</event>
<event>
 5   0  0.1054384E-06  0.2995944E+04  0.7818609E-02  0.8244890E-01
        1   -1    0    0  501    0  0.00000000000E+00  0.00000000000E+00  0.13798814245E+04  0.13798814245E+04  0.50400001928E-02 0.  1.
       -1   -1    0    0    0  501  0.00000000000E+00  0.00000000000E+00 -0.16261688777E+04  0.16261688778E+04  0.50400001928E-02 0. -1.
    10030    2    1    2    0    0  0.00000000000E+00  0.00000000000E+00 -0.24628745325E+03  0.30060503023E+04  0.29959440766E+04 0.  0.
        2    1    3    3  502    0 -0.11527380494E+04  0.30106385584E+03  0.78792573612E+03  0.14283806991E+04  0.25500000920E-02 0.  1.
       -2    1    3    3    0  502  0.11527380494E+04 -0.30106385584E+03 -0.10342131894E+04  0.15776696032E+04  0.25500000920E-02 0. -1.
</event>
<event>
 5   0  0.3113328E-06  0.2975835E+04  0.7818609E-02  0.8250665E-01
       -2   -1    0    0    0  501  0.00000000000E+00  0.00000000000E+00  0.84227693008E+03  0.84227693008E+03  0.25500000920E-02 0.  1.
        2   -1    0    0  501    0  0.00000000000E+00  0.00000000000E+00 -0.26284692971E+04  0.26284692971E+04  0.25500000920E-02 0. -1.
    10030    2    1    2    0    0  0.00000000000E+00  0.00000000000E+00 -0.17861923670E+04  0.34707462272E+04  0.29758353787E+04 0.  0.
        1    1    3    3  502    0 -0.10835511939E+03  0.12063226542E+04 -0.19010901718E+04  0.22541293262E+04  0.50400001928E-02 0. -1.
       -1    1    3    3    0  502  0.10835511939E+03 -0.12063226542E+04  0.11489780482E+03  0.12166169009E+04  0.50400001928E-02 0.  1.
</event>
<event>
 5   0  0.1113245E-06  0.2991142E+04  0.7818609E-02  0.8246265E-01
        1   -1    0    0  501    0  0.00000000000E+00  0.00000000000E+00  0.17811791320E+04  0.17811791320E+04  0.50400001928E-02 0.  1.
       -1   -1    0    0    0  501  0.00000000000E+00  0.00000000000E+00 -0.12557591474E+04  0.12557591474E+04  0.50400001928E-02 0. -1.
    10030    2    1    2    0    0  0.00000000000E+00  0.00000000000E+00  0.52541998454E+03  0.30369382794E+04  0.29911415802E+04 0.  0.
        5    1    3    3  502    0  0.90466483195E+03 -0.11893776323E+04  0.20118276496E+03  0.15078243284E+04  0.46999998093E+01 0. -1.
       -5    1    3    3    0  502 -0.90466483195E+03  0.11893776323E+04  0.32423721957E+03  0.15291139510E+04  0.46999998093E+01 0.  1.
</event>
<event>
 5   0  0.1054384E-06  0.2983557E+04  0.7818609E-02  0.8248442E-01
        1   -1    0    0  501    0  0.00000000000E+00  0.00000000000E+00  0.15963666630E+04  0.15963666630E+04  0.50400001928E-02 0. -1.
       -1   -1    0    0    0  501  0.00000000000E+00  0.00000000000E+00 -0.13940427323E+04  0.13940427323E+04  0.50400001928E-02 0.  1.
    10030    2    1    2    0    0  0.00000000000E+00  0.00000000000E+00  0.20232393068E+03  0.29904093953E+04  0.29835571687E+04 0.  0.
        2    1    3    3  502    0 -0.59902096333E+03  0.13571293201E+04  0.25893135164E+03  0.15058789961E+04  0.25500000920E-02 0.  1.
       -2    1    3    3    0  502  0.59902096333E+03 -0.13571293201E+04 -0.56607420961E+02  0.14845303992E+04  0.25500000920E-02 0. -1.
</event>
<event>
 5   0  0.1091075E-06  0.2991249E+04  0.7818609E-02  0.8246234E-01
       -1   -1    0    0    0  501  0.00000000000E+00  0.00000000000E+00  0.10954244257E+04  0.10954244257E+04  0.50400001928E-02 0.  1.
        1   -1    0    0  501    0  0.00000000000E+00  0.00000000000E+00 -0.20420325816E+04  0.20420325816E+04  0.50400001928E-02 0. -1.
    10030    2    1    2    0    0  0.00000000000E+00  0.00000000000E+00 -0.94660815596E+03  0.31374570073E+04  0.29912488148E+04 0.  0.
        1    1    3    3  502    0 -0.47015777133E+03 -0.30763458887E+03  0.98052080478E+03  0.11300922170E+04  0.50400001928E-02 0.  1.
       -1    1    3    3    0  502  0.47015777133E+03  0.30763458887E+03 -0.19271289607E+04  0.20073647904E+04  0.50400001928E-02 0. -1.
</event>
<event>
 5   0  0.2948711E-06  0.2989727E+04  0.7818609E-02  0.8246671E-01
        2   -1    0    0  501    0  0.00000000000E+00  0.00000000000E+00  0.17416117515E+04  0.17416117515E+04  0.25500000920E-02 0. -1.
       -2   -1    0    0    0  501  0.00000000000E+00  0.00000000000E+00 -0.12830739510E+04  0.12830739510E+04  0.25500000920E-02 0.  1.
    10030    2    1    2    0    0  0.00000000000E+00  0.00000000000E+00  0.45853780051E+03  0.30246857025E+04  0.29897268579E+04 0.  0.
        5    1    3    3  502    0  0.58455815993E+03  0.48047533390E+03  0.15335408155E+04  0.17100685108E+04  0.46999998093E+01 0. -1.
       -5    1    3    3    0  502 -0.58455815993E+03 -0.48047533390E+03 -0.10750030149E+04  0.13146171918E+04  0.46999998093E+01 0.  1.
</event>
<event>
 5   0  0.2948711E-06  0.2976822E+04  0.7818609E-02  0.8250381E-01
       -2   -1    0    0    0  501  0.00000000000E+00  0.00000000000E+00  0.97972414572E+03  0.97972414572E+03  0.25500000920E-02 0. -1.
        2   -1    0    0  501    0  0.00000000000E+00  0.00000000000E+00 -0.22612157820E+04  0.22612157820E+04  0.25500000920E-02 0.  1.
    10030    2    1    2    0    0  0.00000000000E+00  0.00000000000E+00 -0.12814916363E+04  0.32409399277E+04  0.29768222657E+04 0.  0.
        5    1    3    3  502    0  0.11030905435E+04  0.82839087830E+02  0.44343734718E+03  0.11917759154E+04  0.46999998093E+01 0. -1.
       -5    1    3    3    0  502 -0.11030905435E+04 -0.82839087830E+02 -0.17249289835E+04  0.20491640124E+04  0.46999998093E+01 0.  1.
</event>
<event>
 5   0  0.2970915E-06  0.3003869E+04  0.7818609E-02  0.8242627E-01
        2   -1    0    0  501    0  0.00000000000E+00  0.00000000000E+00  0.15120063082E+04  0.15120063083E+04  0.25500000920E-02 0.  1.
       -2   -1    0    0    0  501  0.00000000000E+00  0.00000000000E+00 -0.14919299431E+04  0.14919299431E+04  0.25500000920E-02 0. -1.
    10030    2    1    2    0    0  0.00000000000E+00  0.00000000000E+00  0.20076365126E+02  0.30039362514E+04  0.30038691619E+04 0.  0.
        4    1    3    3  502    0 -0.21792676474E+03 -0.74009553174E+03 -0.12786225867E+04  0.14933555514E+04  0.12699999809E+01 0. -1.
       -4    1    3    3    0  502  0.21792676474E+03  0.74009553174E+03  0.12986989518E+04  0.15105807000E+04  0.12699999809E+01 0.  1.
</event>
<event>
 5   0  0.1113245E-06  0.2999892E+04  0.7818609E-02  0.8243762E-01
        1   -1    0    0  501    0  0.00000000000E+00  0.00000000000E+00  0.14618491145E+04  0.14618491145E+04  0.50400001928E-02 0.  1.
       -1   -1    0    0    0  501  0.00000000000E+00  0.00000000000E+00 -0.15390354464E+04  0.15390354464E+04  0.50400001928E-02 0. -1.
    10030    2    1    2    0    0  0.00000000000E+00  0.00000000000E+00 -0.77186331936E+02  0.30008845609E+04  0.29998917344E+04 0.  0.
        5    1    3    3  502    0 -0.24382463661E+03  0.13641091797E+04  0.53567975601E+03  0.14856712956E+04  0.46999998093E+01 0.  1.
       -5    1    3    3    0  502  0.24382463661E+03 -0.13641091797E+04 -0.61286608794E+03  0.15152132653E+04  0.46999998093E+01 0. -1.
</event>
<event>
 5   0  0.2862033E-06  0.2999181E+04  0.7818609E-02  0.8243965E-01
        2   -1    0    0  501    0  0.00000000000E+00  0.00000000000E+00  0.98476813357E+03  0.98476813358E+03  0.25500000920E-02 0.  1.
       -2   -1    0    0    0  501  0.00000000000E+00  0.00000000000E+00 -0.22835547696E+04  0.22835547696E+04  0.25500000920E-02 0. -1.
    10030    2    1    2    0    0  0.00000000000E+00  0.00000000000E+00 -0.12987866360E+04  0.32683229032E+04  0.29991812005E+04 0.  0.
        2    1    3    3  502    0  0.95179172348E+03  0.11086706106E+04 -0.10168694574E+04  0.17801914226E+04  0.25500000920E-02 0. -1.
       -2    1    3    3    0  502 -0.95179172348E+03 -0.11086706106E+04 -0.28191717863E+03  0.14881314805E+04  0.25500000920E-02 0.  1.
</event>
<event>
 5   0  0.1054384E-06  0.2980282E+04  0.7818609E-02  0.8249384E-01
       -1   -1    0    0    0  501  0.00000000000E+00  0.00000000000E+00  0.16935961421E+04  0.16935961421E+04  0.50400001928E-02 0. -1.
        1   -1    0    0  501    0  0.00000000000E+00  0.00000000000E+00 -0.13111275293E+04  0.13111275294E+04  0.50400001928E-02 0.  1.
    10030    2    1    2    0    0  0.00000000000E+00  0.00000000000E+00  0.38246861275E+03  0.30047236715E+04  0.29802822185E+04 0.  0.
        2    1    3    3  502    0  0.10373963782E+04 -0.59226894979E+03 -0.70688371563E+03  0.13880411888E+04  0.25500000920E-02 0.  1.
       -2    1    3    3    0  502 -0.10373963782E+04  0.59226894979E+03  0.10893523284E+04  0.16166824827E+04  0.25500000920E-02 0. -1.
</event>
<event>
 5   0  0.2862033E-06  0.2991538E+04  0.7818609E-02  0.8246151E-01
        2   -1    0    0  501    0  0.00000000000E+00  0.00000000000E+00  0.25429684488E+04  0.25429684488E+04  0.25500000920E-02 0. -1.
       -2   -1    0    0    0  501  0.00000000000E+00  0.00000000000E+00 -0.87980865137E+03  0.87980865137E+03  0.25500000920E-02 0.  1.
    10030    2    1    2    0    0  0.00000000000E+00  0.00000000000E+00  0.16631597974E+04  0.34227771002E+04  0.29915384948E+04 0.  0.
        2    1    3    3  502    0 -0.68106082613E+03  0.12846353783E+04  0.12331656890E+04  0.19065228875E+04  0.25500000920E-02 0. -1.
       -2    1    3    3    0  502  0.68106082613E+03 -0.12846353783E+04  0.42999410845E+03  0.15162542127E+04  0.25500000920E-02 0.  1.
</event>
<event>
 5   0  0.1113245E-06  0.2962510E+04  0.7818609E-02  0.8254518E-01
        1   -1    0    0  501    0  0.00000000000E+00  0.00000000000E+00  0.14787452753E+04  0.14787452753E+04  0.50400001928E-02 0. -1.
       -1   -1    0    0    0  501  0.00000000000E+00  0.00000000000E+00 -0.14837686662E+04  0.14837686662E+04  0.50400001928E-02 0.  1.
    10030    2    1    2    0    0  0.00000000000E+00  0.00000000000E+00 -0.50233909116E+01  0.29625139416E+04  0.29625096826E+04 0.  0.
        5    1    3    3  502    0 -0.32350099185E+02 -0.14750576134E+04 -0.13385998370E+03  0.14814796917E+04  0.46999998093E+01 0. -1.
       -5    1    3    3    0  502  0.32350099185E+02  0.14750576134E+04  0.12883659279E+03  0.14810342499E+04  0.46999998093E+01 0.  1.
</event>
<event>
 5   0  0.2970915E-06  0.3007760E+04  0.7818609E-02  0.8241518E-01
       -2   -1    0    0    0  501  0.00000000000E+00  0.00000000000E+00  0.87001455707E+03  0.87001455708E+03  0.25500000920E-02 0. -1.
        2   -1    0    0  501    0  0.00000000000E+00  0.00000000000E+00 -0.25995606935E+04  0.25995606935E+04  0.25500000920E-02 0.  1.
    10030    2    1    2    0    0  0.00000000000E+00  0.00000000000E+00 -0.17295461365E+04  0.34695752506E+04  0.30077603930E+04 0.  0.
        4    1    3    3  502    0  0.92163711356E+03  0.74397417208E+02  0.50337924736E+03  0.10527783358E+04  0.12699999809E+01 0. -1.
       -4    1    3    3    0  502 -0.92163711356E+03 -0.74397417208E+02 -0.22329253838E+04  0.24167969148E+04  0.12699999809E+01 0.  1.
</event>
<event>
 5   0  0.1091075E-06  0.2957214E+04  0.7818609E-02  0.8256055E-01
        1   -1    0    0  501    0  0.00000000000E+00  0.00000000000E+00  0.11205876382E+04  0.11205876382E+04  0.50400001928E-02 0. -1.
       -1   -1    0    0    0  501  0.00000000000E+00  0.00000000000E+00 -0.19510109880E+04  0.19510109880E+04  0.50400001928E-02 0.  1.
    10030    2    1    2    0    0  0.00000000000E+00  0.00000000000E+00 -0.83042334988E+03  0.30715986262E+04  0.29572140911E+04 0.  0.
        1    1    3    3  502    0  0.10935605909E+04 -0.92424932160E+03 -0.79849328668E+03  0.16394215759E+04  0.50400001928E-02 0.  1.
       -1    1    3    3    0  502 -0.10935605909E+04  0.92424932160E+03 -0.31930063200E+02  0.14321770503E+04  0.50400001928E-02 0. -1.
</event>
<event>
 5   0  0.1113245E-06  0.3002660E+04  0.7818609E-02  0.8242972E-01
        1   -1    0    0  501    0  0.00000000000E+00  0.00000000000E+00  0.80546244834E+03  0.80546244836E+03  0.50400001928E-02 0.  1.
       -1   -1    0    0    0  501  0.00000000000E+00  0.00000000000E+00 -0.27983815884E+04  0.27983815884E+04  0.50400001928E-02 0. -1.
    10030    2    1    2    0    0  0.00000000000E+00  0.00000000000E+00 -0.19929191400E+04  0.36038440367E+04  0.30026596781E+04 0.  0.
        5    1    3    3  502    0 -0.11199175934E+03  0.68737779372E+03 -0.25927660661E+04  0.26846765818E+04  0.46999998093E+01 0. -1.
       -5    1    3    3    0  502  0.11199175934E+03 -0.68737779372E+03  0.59984692607E+03  0.91916745491E+03  0.46999998093E+01 0.  1.
</event>
<event>
 5   0  0.1091075E-06  0.3001007E+04  0.7818609E-02  0.8243443E-01
        1   -1    0    0  501    0  0.00000000000E+00  0.00000000000E+00  0.16422551649E+04  0.16422551649E+04  0.50400001928E-02 0. -1.
       -1   -1    0    0    0  501  0.00000000000E+00  0.00000000000E+00 -0.13709869085E+04  0.13709869085E+04  0.50400001928E-02 0.  1.
    10030    2    1    2    0    0  0.00000000000E+00  0.00000000000E+00  0.27126825641E+03  0.30132420735E+04  0.30010067188E+04 0.  0.
        1    1    3    3  502    0 -0.51762403804E+03  0.10234065119E+04 -0.83589271767E+03  0.14191589653E+04  0.50400001928E-02 0.  1.
       -1    1    3    3    0  502  0.51762403804E+03 -0.10234065119E+04  0.11071609741E+04  0.15940831082E+04  0.50400001928E-02 0. -1.
</event>
<event>
 5   0  0.2862033E-06  0.2992681E+04  0.7818609E-02  0.8245824E-01
       -2   -1    0    0    0  501  0.00000000000E+00  0.00000000000E+00  0.13355786602E+04  0.13355786602E+04  0.25500000920E-02 0. -1.
        2   -1    0    0  501    0  0.00000000000E+00  0.00000000000E+00 -0.16764527497E+04  0.16764527497E+04  0.25500000920E-02 0.  1.
    10030    2    1    2    0    0  0.00000000000E+00  0.00000000000E+00 -0.34087408951E+03  0.30120314099E+04  0.29926807496E+04 0.  0.
        2    1    3    3  502    0 -0.13902312572E+04  0.54231421249E+03 -0.28154498103E+03  0.15185898821E+04  0.25500000920E-02 0.  1.
       -2    1    3    3    0  502  0.13902312572E+04 -0.54231421249E+03 -0.59329108471E+02  0.14934415278E+04  0.25500000920E-02 0. -1.
</event>
<event>
 5   0  0.2985941E-06  0.2959114E+04  0.7818609E-02  0.8255503E-01
       -2   -1    0    0    0  501  0.00000000000E+00  0.00000000000E+00  0.68539697763E+03  0.68539697763E+03  0.25500000920E-02 0. -1.
        2   -1    0    0  501    0  0.00000000000E+00  0.00000000000E+00 -0.31938988095E+04  0.31938988095E+04  0.25500000920E-02 0.  1.
    10030    2    1    2    0    0  0.00000000000E+00  0.00000000000E+00 -0.25085018319E+04  0.38792957871E+04  0.29591137801E+04 0.  0.
        3    1    3    3  502    0 -0.65443198691E+03 -0.68774562017E+03 -0.27419588743E+04  0.29016570684E+04  0.10100000352E+00 0.  1.
       -3    1    3    3    0  502  0.65443198691E+03  0.68774562017E+03  0.23345704248E+03  0.97763871877E+03  0.10100000352E+00 0. -1.
</event>
<event>
 5   0  0.1113245E-06  0.3006510E+04  0.7818609E-02  0.8241874E-01
       -1   -1    0    0    0  501  0.00000000000E+00  0.00000000000E+00  0.11314569179E+04  0.11314569180E+04  0.50400001928E-02 0. -1.
        1   -1    0    0  501    0  0.00000000000E+00  0.00000000000E+00 -0.19972260223E+04  0.19972260223E+04  0.50400001928E-02 0.  1.
    10030    2    1    2    0    0  0.00000000000E+00  0.00000000000E+00 -0.86576910433E+03  0.31286829402E+04  0.30065097370E+04 0.  0.
        5    1    3    3  502    0 -0.12235805182E+04 -0.83663521526E+03 -0.69334592813E+03  0.16364163388E+04  0.46999998093E+01 0.  1.
       -5    1    3    3    0  502  0.12235805182E+04  0.83663521526E+03 -0.17242317620E+03  0.14922666014E+04  0.46999998093E+01 0. -1.
</event>
<event>
 5   0  0.2948711E-06  0.2988860E+04  0.7818609E-02  0.8246919E-01
        2   -1    0    0  501    0  0.00000000000E+00  0.00000000000E+00  0.13075921310E+04  0.13075921310E+04  0.25500000920E-02 0.  1.
       -2   -1    0    0    0  501  0.00000000000E+00  0.00000000000E+00 -0.17079643304E+04  0.17079643304E+04  0.25500000920E-02 0. -1.
    10030    2    1    2    0    0  0.00000000000E+00  0.00000000000E+00 -0.40037219940E+03  0.30155564615E+04  0.29888597950E+04 0.  0.
        5    1    3    3  502    0  0.33724834451E+02 -0.10926624583E+04  0.82786072146E+03  0.13712855561E+04  0.46999998093E+01 0.  1.
       -5    1    3    3    0  502 -0.33724834451E+02  0.10926624583E+04 -0.12282329209E+04  0.16442709054E+04  0.46999998093E+01 0. -1.
</event>
<event>
 5   0  0.2948711E-06  0.3004381E+04  0.7818609E-02  0.8242481E-01
       -2   -1    0    0    0  501  0.00000000000E+00  0.00000000000E+00  0.92847969643E+03  0.92847969643E+03  0.25500000920E-02 0.  1.
        2   -1    0    0  501    0  0.00000000000E+00  0.00000000000E+00 -0.24303986887E+04  0.24303986887E+04  0.25500000920E-02 0. -1.
    10030    2    1    2    0    0  0.00000000000E+00  0.00000000000E+00 -0.15019189922E+04  0.33588783851E+04  0.30043806927E+04 0.  0.
        5    1    3    3  502    0 -0.10910074192E+04  0.44423523256E+03 -0.17931020235E+04  0.21454321447E+04  0.46999998093E+01 0. -1.
       -5    1    3    3    0  502  0.10910074192E+04 -0.44423523256E+03  0.29118303126E+03  0.12134462404E+04  0.46999998093E+01 0.  1.
</event>
<event>
 5   0  0.2948711E-06  0.3000546E+04  0.7818609E-02  0.8243575E-01
       -2   -1    0    0    0  501  0.00000000000E+00  0.00000000000E+00  0.12639358198E+04  0.12639358198E+04  0.25500000920E-02 0.  1.
        2   -1    0    0  501    0  0.00000000000E+00  0.00000000000E+00 -0.17808023053E+04  0.17808023053E+04  0.25500000920E-02 0. -1.
    10030    2    1    2    0    0  0.00000000000E+00  0.00000000000E+00 -0.51686648543E+03  0.30447381251E+04  0.30005464980E+04 0.  0.
        5    1    3    3  502    0 -0.14471064220E+03 -0.11779079021E+04  0.67290206099E+03  0.13642681076E+04  0.46999998093E+01 0.  1.
       -5    1    3    3    0  502  0.14471064220E+03  0.11779079021E+04 -0.11897685464E+04  0.16804700175E+04  0.46999998093E+01 0. -1.
</event>
<event>
 5   0  0.1091075E-06  0.2987286E+04  0.7818609E-02  0.8247371E-01
       -1   -1    0    0    0  501  0.00000000000E+00  0.00000000000E+00  0.13819420571E+04  0.13819420571E+04  0.50400001928E-02 0. -1.
        1   -1    0    0  501    0  0.00000000000E+00  0.00000000000E+00 -0.16143722814E+04  0.16143722815E+04  0.50400001928E-02 0.  1.
    10030    2    1    2    0    0  0.00000000000E+00  0.00000000000E+00 -0.23243022436E+03  0.29963143386E+04  0.29872856921E+04 0.  0.
        1    1    3    3  502    0  0.11875115372E+04 -0.86475306832E+03 -0.38719349950E+03  0.15191775164E+04  0.50400001928E-02 0.  1.
       -1    1    3    3    0  502 -0.11875115372E+04  0.86475306832E+03  0.15476327514E+03  0.14771368222E+04  0.50400001928E-02 0. -1.
</event>
<event>
 5   0  0.2970915E-06  0.3007443E+04  0.7818609E-02  0.8241609E-01
        2   -1    0    0  501    0  0.00000000000E+00  0.00000000000E+00  0.21523472864E+04  0.21523472864E+04  0.25500000920E-02 0.  1.
       -2   -1    0    0    0  501  0.00000000000E+00  0.00000000000E+00 -0.10505641751E+04  0.10505641751E+04  0.25500000920E-02 0. -1.
    10030    2    1    2    0    0  0.00000000000E+00  0.00000000000E+00  0.11017831112E+04  0.32029114615E+04  0.30074434003E+04 0.  0.
        4    1    3    3  502    0 -0.32448967330E+02  0.18708107682E+03 -0.10377454862E+04  0.10549737304E+04  0.12699999809E+01 0. -1.
       -4    1    3    3    0  502  0.32448967330E+02 -0.18708107682E+03  0.21395285974E+04  0.21479377311E+04  0.12699999809E+01 0.  1.
</event>
<event>
 5   0  0.1091075E-06  0.2886137E+04  0.7818609E-02  0.8277014E-01
       -1   -1    0    0    0  501  0.00000000000E+00  0.00000000000E+00  0.13600788436E+04  0.13600788436E+04  0.50400001928E-02 0. -1.
        1   -1    0    0  501    0  0.00000000000E+00  0.00000000000E+00 -0.15311218227E+04  0.15311218227E+04  0.50400001928E-02 0.  1.
    10030    2    1    2    0    0  0.00000000000E+00  0.00000000000E+00 -0.17104297912E+03  0.28912006663E+04  0.28861367937E+04 0.  0.
        1    1    3    3  502    0 -0.61225247666E+03  0.35405311922E+03  0.11745566037E+04  0.13710543103E+04  0.50400001928E-02 0. -1.
       -1    1    3    3    0  502  0.61225247666E+03 -0.35405311922E+03 -0.13455995828E+04  0.15201463560E+04  0.50400001928E-02 0.  1.
</event>
<event>
 5   0  0.1091076E-06  0.2992326E+04  0.7818609E-02  0.8245926E-01
        1   -1    0    0  501    0  0.00000000000E+00  0.00000000000E+00  0.17444549913E+04  0.17444549913E+04  0.50400001928E-02 0.  1.
       -1   -1    0    0    0  501  0.00000000000E+00  0.00000000000E+00 -0.12832109932E+04  0.12832109932E+04  0.50400001928E-02 0. -1.
    10030    2    1    2    0    0  0.00000000000E+00  0.00000000000E+00  0.46124399808E+03  0.30276659845E+04  0.29923260664E+04 0.  0.
        3    1    3    3  502    0 -0.13443038220E+04  0.31165206413E+03  0.81557084174E+03  0.16029459077E+04  0.10100000352E+00 0.  1.
       -3    1    3    3    0  502  0.13443038220E+04 -0.31165206413E+03 -0.35432684366E+03  0.14247200768E+04  0.10100000352E+00 0. -1.
</event>
<event>
 5   0  0.1054384E-06  0.3015651E+04  0.7818609E-02  0.8239276E-01
        1   -1    0    0  501    0  0.00000000000E+00  0.00000000000E+00  0.11173113963E+04  0.11173113963E+04  0.50400001928E-02 0.  1.
       -1   -1    0    0    0  501  0.00000000000E+00  0.00000000000E+00 -0.20348293066E+04  0.20348293066E+04  0.50400001928E-02 0. -1.
    10030    2    1    2    0    0  0.00000000000E+00  0.00000000000E+00 -0.91751791025E+03  0.31521407029E+04  0.30156511561E+04 0.  0.
        2    1    3    3  502    0  0.65296429385E+03 -0.24077149832E+03  0.93939342740E+03  0.11690993520E+04  0.25500000920E-02 0.  1.
       -2    1    3    3    0  502 -0.65296429385E+03  0.24077149832E+03 -0.18569113376E+04  0.19830413509E+04  0.25500000920E-02 0. -1.
</event>
<event>
 5   0  0.2970915E-06  0.2980349E+04  0.7818609E-02  0.8249365E-01
        2   -1    0    0  501    0  0.00000000000E+00  0.00000000000E+00  0.17441075161E+04  0.17441075161E+04  0.25500000920E-02 0. -1.
       -2   -1    0    0    0  501  0.00000000000E+00  0.00000000000E+00 -0.12732132411E+04  0.12732132411E+04  0.25500000920E-02 0.  1.
    10030    2    1    2    0    0  0.00000000000E+00  0.00000000000E+00  0.47089427504E+03  0.30173207572E+04  0.29803494985E+04 0.  0.
        4    1    3    3  502    0 -0.36279641876E+03 -0.12011015696E+04  0.10493810653E+04  0.16356859280E+04  0.12699999809E+01 0. -1.
       -4    1    3    3    0  502  0.36279641876E+03  0.12011015696E+04 -0.57848679022E+03  0.13816348292E+04  0.12699999809E+01 0.  1.
</event>
<event>
 5   0  0.1097402E-06  0.3000534E+04  0.7818609E-02  0.8243578E-01
       -1   -1    0    0    0  501  0.00000000000E+00  0.00000000000E+00  0.16871251983E+04  0.16871251983E+04  0.50400001928E-02 0. -1.
        1   -1    0    0  501    0  0.00000000000E+00  0.00000000000E+00 -0.13341042622E+04  0.13341042622E+04  0.50400001928E-02 0.  1.
    10030    2    1    2    0    0  0.00000000000E+00  0.00000000000E+00  0.35302093610E+03  0.30212294605E+04  0.30005338977E+04 0.  0.
        4    1    3    3  502    0  0.66571459792E+03 -0.13437055300E+04  0.13060182865E+03  0.15052504535E+04  0.12699999809E+01 0.  1.
       -4    1    3    3    0  502 -0.66571459792E+03  0.13437055300E+04  0.22241910745E+03  0.15159790070E+04  0.12699999809E+01 0. -1.
</event>
<event>
 5   0  0.1091076E-06  0.2993166E+04  0.7818609E-02  0.8245685E-01
        1   -1    0    0  501    0  0.00000000000E+00  0.00000000000E+00  0.18958283583E+04  0.18958283583E+04  0.50400001928E-02 0.  1.
       -1   -1    0    0    0  501  0.00000000000E+00  0.00000000000E+00 -0.11814150079E+04  0.11814150079E+04  0.50400001928E-02 0. -1.
    10030    2    1    2    0    0  0.00000000000E+00  0.00000000000E+00  0.71441335037E+03  0.30772433662E+04  0.29931655984E+04 0.  0.
        3    1    3    3  502    0  0.72482575553E+03 -0.71348428738E+03 -0.77150676546E+03  0.12765793761E+04  0.10100000352E+00 0. -1.
       -3    1    3    3    0  502 -0.72482575553E+03  0.71348428738E+03  0.14859201158E+04  0.18006639900E+04  0.10100000352E+00 0.  1.
</event>
<event>
 5   0  0.3113328E-06  0.2989501E+04  0.7818609E-02  0.8246735E-01
       -2   -1    0    0    0  501  0.00000000000E+00  0.00000000000E+00  0.11731615361E+04  0.11731615361E+04  0.25500000920E-02 0.  1.
        2   -1    0    0  501    0  0.00000000000E+00  0.00000000000E+00 -0.19044940692E+04  0.19044940692E+04  0.25500000920E-02 0. -1.
    10030    2    1    2    0    0  0.00000000000E+00  0.00000000000E+00 -0.73133253308E+03  0.30776556052E+04  0.29895010872E+04 0.  0.
        1    1    3    3  502    0  0.58290844053E+03 -0.83253531969E+03 -0.14940630584E+04  0.18069647841E+04  0.50400001928E-02 0. -1.
       -1    1    3    3    0  502 -0.58290844053E+03  0.83253531969E+03  0.76273052532E+03  0.12706908211E+04  0.50400001928E-02 0.  1.
</event>
<event>
 5   0  0.2948711E-06  0.2771451E+04  0.7818609E-02  0.8312187E-01
       -2   -1    0    0    0  501  0.00000000000E+00  0.00000000000E+00  0.11729410939E+04  0.11729410939E+04  0.25500000920E-02 0.  1.
        2   -1    0    0  501    0  0.00000000000E+00  0.00000000000E+00 -0.16371108184E+04  0.16371108184E+04  0.25500000920E-02 0. -1.
    10030    2    1    2    0    0  0.00000000000E+00  0.00000000000E+00 -0.46416972450E+03  0.28100519122E+04  0.27714505618E+04 0.  0.
        5    1    3    3  502    0 -0.11062825676E+04 -0.33401857343E+03 -0.10074469348E+04  0.15331017394E+04  0.46999998093E+01 0. -1.
       -5    1    3    3    0  502  0.11062825676E+04  0.33401857343E+03  0.54327721034E+03  0.12769501729E+04  0.46999998093E+01 0.  1.
</event>
<event>
 5   0  0.1097402E-06  0.2927284E+04  0.7818609E-02  0.8264806E-01
       -1   -1    0    0    0  501  0.00000000000E+00  0.00000000000E+00  0.19200235379E+04  0.19200235379E+04  0.50400001928E-02 0. -1.
        1   -1    0    0  501    0  0.00000000000E+00  0.00000000000E+00 -0.11157403385E+04  0.11157403385E+04  0.50400001928E-02 0.  1.
    10030    2    1    2    0    0  0.00000000000E+00  0.00000000000E+00  0.80428319943E+03  0.30357638764E+04  0.29272838688E+04 0.  0.
        4    1    3    3  502    0 -0.49050873188E+03  0.12560965895E+04 -0.18804262765E+03  0.13615208779E+04  0.12699999809E+01 0.  1.
       -4    1    3    3    0  502  0.49050873188E+03 -0.12560965895E+04  0.99232582708E+03  0.16742429985E+04  0.12699999809E+01 0. -1.
</event>
<event>
 5   0  0.2970915E-06  0.2983473E+04  0.7818609E-02  0.8248466E-01
        2   -1    0    0  501    0  0.00000000000E+00  0.00000000000E+00  0.17119588456E+04  0.17119588456E+04  0.25500000920E-02 0. -1.
       -2   -1    0    0    0  501  0.00000000000E+00  0.00000000000E+00 -0.12998428401E+04  0.12998428402E+04  0.25500000920E-02 0.  1.
    10030    2    1    2    0    0  0.00000000000E+00  0.00000000000E+00  0.41211600545E+03  0.30118016858E+04  0.29834727739E+04 0.  0.
        4    1    3    3  502    0  0.12919515712E+04 -0.30483716333E+03  0.89311672096E+03  0.15999136379E+04  0.12699999809E+01 0. -1.
       -4    1    3    3    0  502 -0.12919515712E+04  0.30483716333E+03 -0.48100071551E+03  0.14118880479E+04  0.12699999809E+01 0.  1.
</event>
<event>
 5   0  0.2862033E-06  0.2952786E+04  0.7818609E-02  0.8257343E-01
       -2   -1    0    0    0  501  0.00000000000E+00  0.00000000000E+00  0.94197609982E+03  0.94197609982E+03  0.25500000920E-02 0. -1.
        2   -1    0    0  501    0  0.00000000000E+00  0.00000000000E+00 -0.23140042647E+04  0.23140042647E+04  0.25500000920E-02 0.  1.
    10030    2    1    2    0    0  0.00000000000E+00  0.00000000000E+00 -0.13720281649E+04  0.32559803645E+04  0.29527862857E+04 0.  0.
        2    1    3    3  502    0 -0.73946769912E+03 -0.11594830385E+03 -0.20892722761E+04  0.22193051009E+04  0.25500000920E-02 0.  1.
       -2    1    3    3    0  502  0.73946769912E+03  0.11594830385E+03  0.71724411119E+03  0.10366752636E+04  0.25500000920E-02 0. -1.
</event>
<event>
 5   0  0.1091075E-06  0.2983335E+04  0.7818609E-02  0.8248506E-01
        1   -1    0    0  501    0  0.00000000000E+00  0.00000000000E+00  0.21371282202E+04  0.21371282202E+04  0.50400001928E-02 0.  1.
       -1   -1    0    0    0  501  0.00000000000E+00  0.00000000000E+00 -0.10411505719E+04  0.10411505719E+04  0.50400001928E-02 0. -1.
    10030    2    1    2    0    0  0.00000000000E+00  0.00000000000E+00  0.10959776483E+04  0.31782787922E+04  0.29833352267E+04 0.  0.
        1    1    3    3  502    0  0.17424164192E+03  0.91756448670E+03 -0.69110653289E+03  0.11618575545E+04  0.50400001928E-02 0. -1.
       -1    1    3    3    0  502 -0.17424164192E+03 -0.91756448670E+03  0.17870841812E+04  0.20164212377E+04  0.50400001928E-02 0.  1.
</event>
<event>
 5   0  0.2862033E-06  0.3001076E+04  0.7818609E-02  0.8243424E-01
        2   -1    0    0  501    0  0.00000000000E+00  0.00000000000E+00  0.16688712792E+04  0.16688712792E+04  0.25500000920E-02 0.  1.
       -2   -1    0    0    0  501  0.00000000000E+00  0.00000000000E+00 -0.13491836369E+04  0.13491836369E+04  0.25500000920E-02 0. -1.
    10030    2    1    2    0    0  0.00000000000E+00  0.00000000000E+00  0.31968764232E+03  0.30180549161E+04  0.30010756885E+04 0.  0.
        2    1    3    3  502    0 -0.46659179669E+02 -0.10393500606E+04 -0.92756386892E+03  0.13938437353E+04  0.25500000920E-02 0. -1.
       -2    1    3    3    0  502  0.46659179669E+02  0.10393500606E+04  0.12472515112E+04  0.16242111808E+04  0.25500000920E-02 0.  1.
</event>
<event>
 5   0  0.1054384E-06  0.3058148E+04  0.7818609E-02  0.8227319E-01
        1   -1    0    0  501    0  0.00000000000E+00  0.00000000000E+00  0.23952454414E+04  0.23952454414E+04  0.50400001928E-02 0. -1.
       -1   -1    0    0    0  501  0.00000000000E+00  0.00000000000E+00 -0.97612843834E+03  0.97612843836E+03  0.50400001928E-02 0.  1.
    10030    2    1    2    0    0  0.00000000000E+00  0.00000000000E+00  0.14191170030E+04  0.33713738797E+04  0.30581479311E+04 0.  0.
        2    1    3    3  502    0 -0.24680369170E+03 -0.51263476470E+03 -0.85509094569E+03  0.10270769151E+04  0.25500000920E-02 0.  1.
       -2    1    3    3    0  502  0.24680369170E+03  0.51263476470E+03  0.22742079487E+04  0.23442969646E+04  0.25500000920E-02 0. -1.
</event>
<event>
 5   0  0.1097402E-06  0.2997461E+04  0.7818609E-02  0.8244456E-01
       -1   -1    0    0    0  501  0.00000000000E+00  0.00000000000E+00  0.16240029770E+04  0.16240029771E+04  0.50400001928E-02 0.  1.
        1   -1    0    0  501    0  0.00000000000E+00  0.00000000000E+00 -0.13831213398E+04  0.13831213398E+04  0.50400001928E-02 0. -1.
    10030    2    1    2    0    0  0.00000000000E+00  0.00000000000E+00  0.24088163726E+03  0.30071243169E+04  0.29974610413E+04 0.  0.
        4    1    3    3  502    0 -0.78818303943E+03  0.32125062557E+03 -0.11171312604E+04  0.14044281163E+04  0.12699999809E+01 0. -1.
       -4    1    3    3    0  502  0.78818303943E+03 -0.32125062557E+03  0.13580128977E+04  0.16026962005E+04  0.12699999809E+01 0.  1.
</event>
<event>
 5   0  0.3113328E-06  0.2981194E+04  0.7818609E-02  0.8249122E-01
        2   -1    0    0  501    0  0.00000000000E+00  0.00000000000E+00  0.22257887356E+04  0.22257887356E+04  0.25500000920E-02 0.  1.
       -2   -1    0    0    0  501  0.00000000000E+00  0.00000000000E+00 -0.99824352169E+03  0.99824352169E+03  0.25500000920E-02 0. -1.
    10030    2    1    2    0    0  0.00000000000E+00  0.00000000000E+00  0.12275452140E+04  0.32240322573E+04  0.29811938454E+04 0.  0.
        1    1    3    3  502    0 -0.67803783735E+03  0.37738965989E+03 -0.76257856940E+03  0.10879725818E+04  0.50400001928E-02 0. -1.
       -1    1    3    3    0  502  0.67803783735E+03 -0.37738965989E+03  0.19901237834E+04  0.21360596755E+04  0.50400001928E-02 0.  1.
</event>
<event>
 5   0  0.2862033E-06  0.3007467E+04  0.7818609E-02  0.8241602E-01
        2   -1    0    0  501    0  0.00000000000E+00  0.00000000000E+00  0.20772434666E+04  0.20772434666E+04  0.25500000920E-02 0.  1.
       -2   -1    0    0    0  501  0.00000000000E+00  0.00000000000E+00 -0.10885652875E+04  0.10885652876E+04  0.25500000920E-02 0. -1.
    10030    2    1    2    0    0  0.00000000000E+00  0.00000000000E+00  0.98867817909E+03  0.31658087542E+04  0.30074674606E+04 0.  0.
        2    1    3    3  502    0 -0.10224747750E+04 -0.67251910704E+03 -0.42543707109E+03  0.12956594137E+04  0.25500000920E-02 0. -1.
       -2    1    3    3    0  502  0.10224747750E+04  0.67251910704E+03  0.14141152502E+04  0.18701493405E+04  0.25500000920E-02 0.  1.
</event>
<event>
 5   0  0.1091075E-06  0.3005312E+04  0.7818609E-02  0.8242216E-01
        1   -1    0    0  501    0  0.00000000000E+00  0.00000000000E+00  0.14794383939E+04  0.14794383939E+04  0.50400001928E-02 0.  1.
       -1   -1    0    0    0  501  0.00000000000E+00  0.00000000000E+00 -0.15262375337E+04  0.15262375337E+04  0.50400001928E-02 0. -1.
    10030    2    1    2    0    0  0.00000000000E+00  0.00000000000E+00 -0.46799139795E+02  0.30056759276E+04  0.30053115682E+04 0.  0.
        1    1    3    3  502    0  0.37988112297E+03 -0.10785822751E+04  0.95156476766E+03  0.14876575207E+04  0.50400001928E-02 0.  1.
       -1    1    3    3    0  502 -0.37988112297E+03  0.10785822751E+04 -0.99836390745E+03  0.15180184069E+04  0.50400001928E-02 0. -1.
</event>
<event>
 5   0  0.1054384E-06  0.3000082E+04  0.7818609E-02  0.8243707E-01
       -1   -1    0    0    0  501  0.00000000000E+00  0.00000000000E+00  0.14123303899E+04  0.14123303899E+04  0.50400001928E-02 0. -1.
        1   -1    0    0  501    0  0.00000000000E+00  0.00000000000E+00 -0.15931991297E+04  0.15931991297E+04  0.50400001928E-02 0.  1.
    10030    2    1    2    0    0  0.00000000000E+00  0.00000000000E+00 -0.18086873984E+03  0.30055295196E+04  0.30000823643E+04 0.  0.
        2    1    3    3  502    0 -0.81719776918E+03 -0.38036590486E+02 -0.13500416245E+04  0.15785662368E+04  0.25500000920E-02 0.  1.
       -2    1    3    3    0  502  0.81719776918E+03  0.38036590486E+02  0.11691728847E+04  0.14269632828E+04  0.25500000920E-02 0. -1.
</event>
<event>
 5   0  0.3113328E-06  0.2997283E+04  0.7818609E-02  0.8244507E-01
       -2   -1    0    0    0  501  0.00000000000E+00  0.00000000000E+00  0.16174169045E+04  0.16174169045E+04  0.25500000920E-02 0.  1.
        2   -1    0    0  501    0  0.00000000000E+00  0.00000000000E+00 -0.13885880527E+04  0.13885880527E+04  0.25500000920E-02 0. -1.
    10030    2    1    2    0    0  0.00000000000E+00  0.00000000000E+00  0.22882885185E+03  0.30060049572E+04  0.29972826292E+04 0.  0.
        1    1    3    3  502    0  0.12538346438E+04 -0.45271507177E+03 -0.57232164276E+03  0.14507254437E+04  0.50400001928E-02 0. -1.
       -1    1    3    3    0  502 -0.12538346438E+04  0.45271507177E+03  0.80115049460E+03  0.15552795135E+04  0.50400001928E-02 0.  1.
</event>
<event>
 5   0  0.1054384E-06  0.3113409E+04  0.7818609E-02  0.8212067E-01
       -1   -1    0    0    0  501  0.00000000000E+00  0.00000000000E+00  0.15019172395E+04  0.15019172395E+04  0.50400001928E-02 0.  1.
        1   -1    0    0  501    0  0.00000000000E+00  0.00000000000E+00 -0.16134907155E+04  0.16134907155E+04  0.50400001928E-02 0. -1.
    10030    2    1    2    0    0  0.00000000000E+00  0.00000000000E+00 -0.11157347601E+03  0.31154079550E+04  0.31134093989E+04 0.  0.
        2    1    3    3  502    0 -0.12138553169E+04 -0.46302433674E+03 -0.91394628703E+03  0.15884376230E+04  0.25500000920E-02 0. -1.
       -2    1    3    3    0  502  0.12138553169E+04  0.46302433674E+03  0.80237281102E+03  0.15269703319E+04  0.25500000920E-02 0.  1.
</event>
<event>
 5   0  0.1091076E-06  0.2930821E+04  0.7818609E-02  0.8263766E-01
       -1   -1    0    0    0  501  0.00000000000E+00  0.00000000000E+00  0.14538913245E+04  0.14538913245E+04  0.50400001928E-02 0. -1.
        1   -1    0    0  501    0  0.00000000000E+00  0.00000000000E+00 -0.14770204823E+04  0.14770204823E+04  0.50400001928E-02 0.  1.
    10030    2    1    2    0    0  0.00000000000E+00  0.00000000000E+00 -0.23129157734E+02  0.29309118068E+04  0.29308205440E+04 0.  0.
        3    1    3    3  502    0  0.51043197570E+03  0.25569630481E+02  0.13618800396E+04  0.14546174274E+04  0.10100000352E+00 0. -1.
       -3    1    3    3    0  502 -0.51043197570E+03 -0.25569630481E+02 -0.13850091973E+04  0.14762943794E+04  0.10100000352E+00 0.  1.
</event>
<event>
 5   0  0.2970915E-06  0.2993894E+04  0.7818609E-02  0.8245477E-01
       -2   -1    0    0    0  501  0.00000000000E+00  0.00000000000E+00  0.13411698490E+04  0.13411698490E+04  0.25500000920E-02 0. -1.
        2   -1    0    0  501    0  0.00000000000E+00  0.00000000000E+00 -0.16708174249E+04  0.16708174249E+04  0.25500000920E-02 0.  1.
    10030    2    1    2    0    0  0.00000000000E+00  0.00000000000E+00 -0.32964757586E+03  0.30119872739E+04  0.29938937546E+04 0.  0.
        4    1    3    3  502    0 -0.77065595110E+03  0.50083984955E+03  0.10238825406E+04  0.13758954247E+04  0.12699999809E+01 0. -1.
       -4    1    3    3    0  502  0.77065595110E+03 -0.50083984955E+03 -0.13535301164E+04  0.16360918492E+04  0.12699999809E+01 0.  1.
</event>
<event>
 5   0  0.2970915E-06  0.2998257E+04  0.7818609E-02  0.8244229E-01
       -2   -1    0    0    0  501  0.00000000000E+00  0.00000000000E+00  0.77858784833E+03  0.77858784834E+03  0.25500000920E-02 0. -1.
        2   -1    0    0  501    0  0.00000000000E+00  0.00000000000E+00 -0.28864906691E+04  0.28864906691E+04  0.25500000920E-02 0.  1.
    10030    2    1    2    0    0  0.00000000000E+00  0.00000000000E+00 -0.21079028208E+04  0.36650785174E+04  0.29982572000E+04 0.  0.
        4    1    3    3  502    0  0.11863078508E+03  0.63195661778E+03 -0.27093678250E+04  0.27846217075E+04  0.12699999809E+01 0.  1.
       -4    1    3    3    0  502 -0.11863078508E+03 -0.63195661778E+03  0.60146500423E+03  0.88045680992E+03  0.12699999809E+01 0. -1.
</event>
<event>
 5   0  0.2970915E-06  0.2966594E+04  0.7818609E-02  0.8253335E-01
       -2   -1    0    0    0  501  0.00000000000E+00  0.00000000000E+00  0.15341365811E+04  0.15341365811E+04  0.25500000920E-02 0. -1.
        2   -1    0    0  501    0  0.00000000000E+00  0.00000000000E+00 -0.14341424587E+04  0.14341424587E+04  0.25500000920E-02 0.  1.
    10030    2    1    2    0    0  0.00000000000E+00  0.00000000000E+00  0.99994122384E+02  0.29682790398E+04  0.29665942820E+04 0.  0.
        4    1    3    3  502    0 -0.11914001911E+04  0.31777968312E+02  0.93351866183E+03  0.15139032200E+04  0.12699999809E+01 0. -1.
       -4    1    3    3    0  502  0.11914001911E+04 -0.31777968312E+02 -0.83352453944E+03  0.14543758198E+04  0.12699999809E+01 0.  1.
</event>
<event>
 5   0  0.2985941E-06  0.3062793E+04  0.7818609E-02  0.8226024E-01
        2   -1    0    0  501    0  0.00000000000E+00  0.00000000000E+00  0.12312498709E+04  0.12312498709E+04  0.25500000920E-02 0. -1.
       -2   -1    0    0    0  501  0.00000000000E+00  0.00000000000E+00 -0.19047112283E+04  0.19047112283E+04  0.25500000920E-02 0.  1.
    10030    2    1    2    0    0  0.00000000000E+00  0.00000000000E+00 -0.67346135740E+03  0.31359610992E+04  0.30627931396E+04 0.  0.
        3    1    3    3  502    0 -0.10272264740E+04  0.11057554679E+04 -0.60232302188E+03  0.16250176666E+04  0.10100000352E+00 0. -1.
       -3    1    3    3    0  502  0.10272264740E+04 -0.11057554679E+04 -0.71138335519E+02  0.15109434327E+04  0.10100000352E+00 0.  1.
</event>
<event>
 5   0  0.1091075E-06  0.3039343E+04  0.7818609E-02  0.8232585E-01
       -1   -1    0    0    0  501  0.00000000000E+00  0.00000000000E+00  0.93537450010E+03  0.93537450012E+03  0.50400001928E-02 0.  1.
        1   -1    0    0  501    0  0.00000000000E+00  0.00000000000E+00 -0.24689588507E+04  0.24689588507E+04  0.50400001928E-02 0. -1.
    10030    2    1    2    0    0  0.00000000000E+00  0.00000000000E+00 -0.15335843506E+04  0.34043333508E+04  0.30393427913E+04 0.  0.
        1    1    3    3  502    0 -0.26263805254E+03  0.70880749266E+03  0.70986293538E+03  0.10369629672E+04  0.50400001928E-02 0.  1.
       -1    1    3    3    0  502  0.26263805254E+03 -0.70880749266E+03 -0.22434472860E+04  0.23673703836E+04  0.50400001928E-02 0. -1.
</event>
<event>
 5   0  0.2862033E-06  0.2993292E+04  0.7818609E-02  0.8245649E-01
        2   -1    0    0  501    0  0.00000000000E+00  0.00000000000E+00  0.24572341729E+04  0.24572341729E+04  0.25500000920E-02 0. -1.
       -2   -1    0    0    0  501  0.00000000000E+00  0.00000000000E+00 -0.91157317716E+03  0.91157317717E+03  0.25500000920E-02 0.  1.
    10030    2    1    2    0    0  0.00000000000E+00  0.00000000000E+00  0.15456609957E+04  0.33688073501E+04  0.29932916744E+04 0.  0.
        2    1    3    3  502    0 -0.52522412712E+03  0.16380716409E+02  0.23499985933E+04  0.24080328279E+04  0.25500000920E-02 0. -1.
       -2    1    3    3    0  502  0.52522412712E+03 -0.16380716409E+02 -0.80433759758E+03  0.96077452218E+03  0.25500000920E-02 0.  1.
</event>
<event>
 5   0  0.3113328E-06  0.3002226E+04  0.7818609E-02  0.8243096E-01
       -2   -1    0    0    0  501  0.00000000000E+00  0.00000000000E+00  0.11974351744E+04  0.11974351744E+04  0.25500000920E-02 0. -1.
        2   -1    0    0  501    0  0.00000000000E+00  0.00000000000E+00 -0.18818050266E+04  0.18818050266E+04  0.25500000920E-02 0.  1.
    10030    2    1    2    0    0  0.00000000000E+00  0.00000000000E+00 -0.68436985218E+03  0.30792402010E+04  0.30022255280E+04 0.  0.
        1    1    3    3  502    0  0.27904202802E+03 -0.19750753672E+03 -0.18413457760E+04  0.18728128436E+04  0.50400001928E-02 0.  1.
       -1    1    3    3    0  502 -0.27904202802E+03  0.19750753672E+03  0.11569759238E+04  0.12064273574E+04  0.50400001928E-02 0. -1.
</event>
<event>
 5   0  0.1054384E-06  0.3002719E+04  0.7818609E-02  0.8242955E-01
        1   -1    0    0  501    0  0.00000000000E+00  0.00000000000E+00  0.20441505569E+04  0.20441505569E+04  0.50400001928E-02 0. -1.
       -1   -1    0    0    0  501  0.00000000000E+00  0.00000000000E+00 -0.11026979664E+04  0.11026979664E+04  0.50400001928E-02 0.  1.
    10030    2    1    2    0    0  0.00000000000E+00  0.00000000000E+00  0.94145259050E+03  0.31468485233E+04  0.30027192091E+04 0.  0.
        2    1    3    3  502    0 -0.21694906651E+02 -0.13871585644E+04  0.10722096944E+04  0.17533719458E+04  0.25500000920E-02 0.  1.
       -2    1    3    3    0  502  0.21694906651E+02  0.13871585644E+04 -0.13075710389E+03  0.13934765775E+04  0.25500000920E-02 0. -1.
</event>
<event>
 5   0  0.1054384E-06  0.2994187E+04  0.7818609E-02  0.8245393E-01
       -1   -1    0    0    0  501  0.00000000000E+00  0.00000000000E+00  0.14318379049E+04  0.14318379049E+04  0.50400001928E-02 0.  1.
        1   -1    0    0  501    0  0.00000000000E+00  0.00000000000E+00 -0.15653236023E+04  0.15653236023E+04  0.50400001928E-02 0. -1.
    10030    2    1    2    0    0  0.00000000000E+00  0.00000000000E+00 -0.13348569742E+03  0.29971615072E+04  0.29941874806E+04 0.  0.
        2    1    3    3  502    0 -0.40165157314E+03  0.18516537853E+02 -0.15102649686E+04  0.15628714354E+04  0.25500000920E-02 0. -1.
       -2    1    3    3    0  502  0.40165157314E+03 -0.18516537853E+02  0.13767792712E+04  0.14342900717E+04  0.25500000920E-02 0.  1.
</event>
<event>
 5   0  0.2970915E-06  0.2994335E+04  0.7818609E-02  0.8245351E-01
       -2   -1    0    0    0  501  0.00000000000E+00  0.00000000000E+00  0.16847796270E+04  0.16847796270E+04  0.25500000920E-02 0. -1.
        2   -1    0    0  501    0  0.00000000000E+00  0.00000000000E+00 -0.13304469126E+04  0.13304469126E+04  0.25500000920E-02 0.  1.
    10030    2    1    2    0    0  0.00000000000E+00  0.00000000000E+00  0.35433271438E+03  0.30152265396E+04  0.29943345526E+04 0.  0.
        4    1    3    3  502    0 -0.61423542460E+03  0.12787379460E+04 -0.30476701435E+03  0.14509791306E+04  0.12699999809E+01 0.  1.
       -4    1    3    3    0  502  0.61423542460E+03 -0.12787379460E+04  0.65909972873E+03  0.15642474090E+04  0.12699999809E+01 0. -1.
</event>
<event>
 5   0  0.2970915E-06  0.3184124E+04  0.7818609E-02  0.8193023E-01
        2   -1    0    0  501    0  0.00000000000E+00  0.00000000000E+00  0.15837188427E+04  0.15837188427E+04  0.25500000920E-02 0.  1.
       -2   -1    0    0    0  501  0.00000000000E+00  0.00000000000E+00 -0.16004488647E+04  0.16004488647E+04  0.25500000920E-02 0. -1.
    10030    2    1    2    0    0  0.00000000000E+00  0.00000000000E+00 -0.16730021985E+02  0.31841677074E+04  0.31841237562E+04 0.  0.
        4    1    3    3  502    0 -0.82535589892E+02  0.33533094326E+03 -0.15625423261E+04  0.16002496989E+04  0.12699999809E+01 0. -1.
       -4    1    3    3    0  502  0.82535589892E+02 -0.33533094326E+03  0.15458123041E+04  0.15839180085E+04  0.12699999809E+01 0.  1.
</event>
<event>
 5   0  0.2970915E-06  0.3008916E+04  0.7818609E-02  0.8241190E-01
       -2   -1    0    0    0  501  0.00000000000E+00  0.00000000000E+00  0.12166060701E+04  0.12166060701E+04  0.25500000920E-02 0.  1.
        2   -1    0    0  501    0  0.00000000000E+00  0.00000000000E+00 -0.18604158763E+04  0.18604158763E+04  0.25500000920E-02 0. -1.
    10030    2    1    2    0    0  0.00000000000E+00  0.00000000000E+00 -0.64380980614E+03  0.30770219464E+04  0.30089155841E+04 0.  0.
        4    1    3    3  502    0  0.24456810237E+03 -0.39542979997E+03 -0.17850996820E+04  0.18446573587E+04  0.12699999809E+01 0. -1.
       -4    1    3    3    0  502 -0.24456810237E+03  0.39542979997E+03  0.11412898758E+04  0.12323645877E+04  0.12699999809E+01 0.  1.
</event>
<event>
 5   0  0.1091076E-06  0.2981168E+04  0.7818609E-02  0.8249129E-01
        1   -1    0    0  501    0  0.00000000000E+00  0.00000000000E+00  0.10341987467E+04  0.10341987467E+04  0.50400001928E-02 0.  1.
       -1   -1    0    0    0  501  0.00000000000E+00  0.00000000000E+00 -0.21483689242E+04  0.21483689242E+04  0.50400001928E-02 0. -1.
    10030    2    1    2    0    0  0.00000000000E+00  0.00000000000E+00 -0.11141701775E+04  0.31825676709E+04  0.29811678576E+04 0.  0.
        3    1    3    3  502    0  0.47271868905E+03 -0.10654843411E+04 -0.15488916050E+04  0.19385007234E+04  0.10100000352E+00 0. -1.
       -3    1    3    3    0  502 -0.47271868905E+03  0.10654843411E+04  0.43472142752E+03  0.12440669475E+04  0.10100000352E+00 0.  1.
</event>
<event>
 5   0  0.1113245E-06  0.2998381E+04  0.7818609E-02  0.8244193E-01
       -1   -1    0    0    0  501  0.00000000000E+00  0.00000000000E+00  0.13474134557E+04  0.13474134557E+04  0.50400001928E-02 0. -1.
        1   -1    0    0  501    0  0.00000000000E+00  0.00000000000E+00 -0.16680642249E+04  0.16680642249E+04  0.50400001928E-02 0.  1.
    10030    2    1    2    0    0  0.00000000000E+00  0.00000000000E+00 -0.32065076918E+03  0.30154776806E+04  0.29983810175E+04 0.  0.
        5    1    3    3  502    0 -0.13830949578E+04 -0.33241595428E+03 -0.63641460638E+03  0.15583637798E+04  0.46999998093E+01 0.  1.
       -5    1    3    3    0  502  0.13830949578E+04  0.33241595428E+03  0.31576383720E+03  0.14571139008E+04  0.46999998093E+01 0. -1.
</event>
<event>
 5   0  0.2862033E-06  0.2979790E+04  0.7818609E-02  0.8249526E-01
       -2   -1    0    0    0  501  0.00000000000E+00  0.00000000000E+00  0.13764268493E+04  0.13764268493E+04  0.25500000920E-02 0. -1.
        2   -1    0    0  501    0  0.00000000000E+00  0.00000000000E+00 -0.16127173669E+04  0.16127173669E+04  0.25500000920E-02 0.  1.
    10030    2    1    2    0    0  0.00000000000E+00  0.00000000000E+00 -0.23629051761E+03  0.29891442163E+04  0.29797902505E+04 0.  0.
        2    1    3    3  502    0 -0.17487578255E+03 -0.14015116753E+04 -0.59394523197E+03  0.15321838839E+04  0.25500000920E-02 0.  1.
       -2    1    3    3    0  502  0.17487578255E+03  0.14015116753E+04  0.35765471436E+03  0.14569603324E+04  0.25500000920E-02 0. -1.
</event>
<event>
 5   0  0.1054384E-06  0.3131153E+04  0.7818609E-02  0.8207240E-01
       -1   -1    0    0    0  501  0.00000000000E+00  0.00000000000E+00  0.20079610915E+04  0.20079610915E+04  0.50400001928E-02 0. -1.
        1   -1    0    0  501    0  0.00000000000E+00  0.00000000000E+00 -0.12206557852E+04  0.12206557852E+04  0.50400001928E-02 0.  1.
    10030    2    1    2    0    0  0.00000000000E+00  0.00000000000E+00  0.78730530626E+03  0.32286168767E+04  0.31311527097E+04 0.  0.
        2    1    3    3  502    0  0.37715875850E+03 -0.35138763139E+03  0.19179458956E+04  0.19860106886E+04  0.25500000920E-02 0. -1.
       -2    1    3    3    0  502 -0.37715875850E+03  0.35138763139E+03 -0.11306405894E+04  0.12426061882E+04  0.25500000920E-02 0.  1.
</event>
<event>
 5   0  0.1054384E-06  0.2967992E+04  0.7818609E-02  0.8252930E-01
        1   -1    0    0  501    0  0.00000000000E+00  0.00000000000E+00  0.14088551861E+04  0.14088551861E+04  0.50400001928E-02 0. -1.
       -1   -1    0    0    0  501  0.00000000000E+00  0.00000000000E+00 -0.15631446344E+04  0.15631446344E+04  0.50400001928E-02 0.  1.
    10030    2    1    2    0    0  0.00000000000E+00  0.00000000000E+00 -0.15428944838E+03  0.29719998205E+04  0.29679922000E+04 0.  0.
        2    1    3    3  502    0  0.46598597557E+02 -0.37583747856E+03 -0.15139407792E+04  0.15605902481E+04  0.25500000920E-02 0.  1.
       -2    1    3    3    0  502 -0.46598597557E+02  0.37583747856E+03  0.13596513308E+04  0.14114095724E+04  0.25500000920E-02 0. -1.
</event>
<event>
 5   0  0.1091075E-06  0.2996549E+04  0.7818609E-02  0.8244717E-01
       -1   -1    0    0    0  501  0.00000000000E+00  0.00000000000E+00  0.91381760999E+03  0.91381761000E+03  0.50400001928E-02 0.  1.
        1   -1    0    0  501    0  0.00000000000E+00  0.00000000000E+00 -0.24565365860E+04  0.24565365861E+04  0.50400001928E-02 0. -1.
    10030    2    1    2    0    0  0.00000000000E+00  0.00000000000E+00 -0.15427189761E+04  0.33703541961E+04  0.29965489430E+04 0.  0.
        1    1    3    3  502    0  0.61600594505E+03  0.92194957289E+03  0.36199761635E+03  0.11664032808E+04  0.50400001928E-02 0.  1.
       -1    1    3    3    0  502 -0.61600594505E+03 -0.92194957289E+03 -0.19047165924E+04  0.22039509152E+04  0.50400001928E-02 0. -1.
</event>
<event>
 5   0  0.2862033E-06  0.2976168E+04  0.7818609E-02  0.8250569E-01
        2   -1    0    0  501    0  0.00000000000E+00  0.00000000000E+00  0.26182438681E+04  0.26182438681E+04  0.25500000920E-02 0. -1.
       -2   -1    0    0    0  501  0.00000000000E+00  0.00000000000E+00 -0.84575544519E+03  0.84575544520E+03  0.25500000920E-02 0.  1.
    10030    2    1    2    0    0  0.00000000000E+00  0.00000000000E+00  0.17724884230E+04  0.34639993133E+04  0.29761680116E+04 0.  0.
        2    1    3    3  502    0 -0.48691196675E+02 -0.64863229579E+03  0.24440181482E+04  0.25290945804E+04  0.25500000920E-02 0. -1.
       -2    1    3    3    0  502  0.48691196675E+02  0.64863229579E+03 -0.67152972526E+03  0.93490473295E+03  0.25500000920E-02 0.  1.
</event>
<event>
 5   0  0.2970915E-06  0.2925316E+04  0.7818609E-02  0.8265385E-01
        2   -1    0    0  501    0  0.00000000000E+00  0.00000000000E+00  0.22131707348E+04  0.22131707348E+04  0.25500000920E-02 0.  1.
       -2   -1    0    0    0  501  0.00000000000E+00  0.00000000000E+00 -0.96665344691E+03  0.96665344692E+03  0.25500000920E-02 0. -1.
    10030    2    1    2    0    0  0.00000000000E+00  0.00000000000E+00  0.12465172879E+04  0.31798241817E+04  0.29253164748E+04 0.  0.
        4    1    3    3  502    0  0.60598366730E+02 -0.14564445923E+04  0.49252665414E+03  0.15386640733E+04  0.12699999809E+01 0. -1.
       -4    1    3    3    0  502 -0.60598366730E+02  0.14564445923E+04  0.75399063372E+03  0.16411601084E+04  0.12699999809E+01 0.  1.
</event>
<event>
 5   0  0.1091075E-06  0.2978252E+04  0.7818609E-02  0.8249968E-01
        1   -1    0    0  501    0  0.00000000000E+00  0.00000000000E+00  0.16568944615E+04  0.16568944615E+04  0.50400001928E-02 0. -1.
       -1   -1    0    0    0  501  0.00000000000E+00  0.00000000000E+00 -0.13383451918E+04  0.13383451918E+04  0.50400001928E-02 0.  1.
    10030    2    1    2    0    0  0.00000000000E+00  0.00000000000E+00  0.31854926971E+03  0.29952396533E+04  0.29782523304E+04 0.  0.
        1    1    3    3  502    0 -0.23012182801E+03 -0.14400209920E+04  0.46245758732E+03  0.15298638937E+04  0.50400001928E-02 0.  1.
       -1    1    3    3    0  502  0.23012182801E+03  0.14400209920E+04 -0.14390831761E+03  0.14653757596E+04  0.50400001928E-02 0. -1.
</event>
<event>
 5   0  0.3113328E-06  0.2990524E+04  0.7818609E-02  0.8246442E-01
       -2   -1    0    0    0  501  0.00000000000E+00  0.00000000000E+00  0.11270623682E+04  0.11270623683E+04  0.25500000920E-02 0. -1.
        2   -1    0    0  501    0  0.00000000000E+00  0.00000000000E+00 -0.19837482469E+04  0.19837482469E+04  0.25500000920E-02 0.  1.
    10030    2    1    2    0    0  0.00000000000E+00  0.00000000000E+00 -0.85668587869E+03  0.31108106152E+04  0.29905236981E+04 0.  0.
        1    1    3    3  502    0 -0.80236729947E+03 -0.40423617586E+03  0.81497682296E+03  0.12130075808E+04  0.50400001928E-02 0. -1.
       -1    1    3    3    0  502  0.80236729947E+03  0.40423617586E+03 -0.16716627016E+04  0.18978030344E+04  0.50400001928E-02 0.  1.
</event>
<event>
 5   0  0.1054384E-06  0.2985020E+04  0.7818609E-02  0.8248021E-01
        1   -1    0    0  501    0  0.00000000000E+00  0.00000000000E+00  0.20484261854E+04  0.20484261854E+04  0.50400001928E-02 0.  1.
       -1   -1    0    0    0  501  0.00000000000E+00  0.00000000000E+00 -0.10874624538E+04  0.10874624538E+04  0.50400001928E-02 0. -1.
    10030    2    1    2    0    0  0.00000000000E+00  0.00000000000E+00  0.96096373160E+03  0.31358886392E+04  0.29850203122E+04 0.  0.
        2    1    3    3  502    0 -0.79253043613E+03 -0.74771221816E+03  0.15520388949E+04  0.18963129448E+04  0.25500000920E-02 0.  1.
       -2    1    3    3    0  502  0.79253043613E+03  0.74771221816E+03 -0.59107516332E+03  0.12395756944E+04  0.25500000920E-02 0. -1.
</event>
<event>
 5   0  0.1091075E-06  0.3023901E+04  0.7818609E-02  0.8236939E-01
        1   -1    0    0  501    0  0.00000000000E+00  0.00000000000E+00  0.23021196347E+04  0.23021196347E+04  0.50400001928E-02 0.  1.
       -1   -1    0    0    0  501  0.00000000000E+00  0.00000000000E+00 -0.99299536434E+03  0.99299536435E+03  0.50400001928E-02 0. -1.
    10030    2    1    2    0    0  0.00000000000E+00  0.00000000000E+00  0.13091242704E+04  0.32951149991E+04  0.30239008750E+04 0.  0.
        1    1    3    3  502    0  0.88780991467E+03 -0.81574963761E+03 -0.33959140435E+03  0.12525878164E+04  0.50400001928E-02 0. -1.
       -1    1    3    3    0  502 -0.88780991467E+03  0.81574963761E+03  0.16487156747E+04  0.20425271827E+04  0.50400001928E-02 0.  1.
</event>
<event>
 5   0  0.1091076E-06  0.2971664E+04  0.7818609E-02  0.8251869E-01
       -1   -1    0    0    0  501  0.00000000000E+00  0.00000000000E+00  0.27714072128E+04  0.27714072128E+04  0.50400001928E-02 0. -1.
        1   -1    0    0  501    0  0.00000000000E+00  0.00000000000E+00 -0.79659788159E+03  0.79659788160E+03  0.50400001928E-02 0.  1.
    10030    2    1    2    0    0  0.00000000000E+00  0.00000000000E+00  0.19748093313E+04  0.35680050945E+04  0.29716642575E+04 0.  0.
        3    1    3    3  502    0  0.96458193651E+03 -0.11225761584E+04  0.83038877694E+03  0.16970978389E+04  0.10100000352E+00 0.  1.
       -3    1    3    3    0  502 -0.96458193651E+03  0.11225761584E+04  0.11444205543E+04  0.18709072556E+04  0.10100000352E+00 0. -1.
</event>
<event>
 5   0  0.1091075E-06  0.2980729E+04  0.7818609E-02  0.8249255E-01
        1   -1    0    0  501    0  0.00000000000E+00  0.00000000000E+00  0.24802419134E+04  0.24802419134E+04  0.50400001928E-02 0.  1.
       -1   -1    0    0    0  501  0.00000000000E+00  0.00000000000E+00 -0.89555216342E+03  0.89555216344E+03  0.50400001928E-02 0. -1.
    10030    2    1    2    0    0  0.00000000000E+00  0.00000000000E+00  0.15846897500E+04  0.33757940768E+04  0.29807287776E+04 0.  0.
        1    1    3    3  502    0 -0.86280975779E+02  0.13457187248E+04  0.73576598864E+02  0.13504876189E+04  0.50400001928E-02 0. -1.
       -1    1    3    3    0  502  0.86280975779E+02 -0.13457187248E+04  0.15111131511E+04  0.20253064579E+04  0.50400001928E-02 0.  1.
</event>
<event>
 5   0  0.1091075E-06  0.2956307E+04  0.7818609E-02  0.8256319E-01
       -1   -1    0    0    0  501  0.00000000000E+00  0.00000000000E+00  0.13709077670E+04  0.13709077670E+04  0.50400001928E-02 0.  1.
        1   -1    0    0  501    0  0.00000000000E+00  0.00000000000E+00 -0.15937888502E+04  0.15937888502E+04  0.50400001928E-02 0. -1.
    10030    2    1    2    0    0  0.00000000000E+00  0.00000000000E+00 -0.22288108316E+03  0.29646966172E+04  0.29563068269E+04 0.  0.
        1    1    3    3  502    0 -0.39859905138E+03  0.96819937654E+03  0.93490263715E+03  0.14036859255E+04  0.50400001928E-02 0.  1.
       -1    1    3    3    0  502  0.39859905138E+03 -0.96819937654E+03 -0.11577837203E+04  0.15610106917E+04  0.50400001928E-02 0. -1.
</event>
<event>
 5   0  0.1054384E-06  0.2956595E+04  0.7818609E-02  0.8256235E-01
       -1   -1    0    0    0  501  0.00000000000E+00  0.00000000000E+00  0.89854347620E+03  0.89854347622E+03  0.50400001928E-02 0. -1.
        1   -1    0    0  501    0  0.00000000000E+00  0.00000000000E+00 -0.24321185002E+04  0.24321185002E+04  0.50400001928E-02 0.  1.
    10030    2    1    2    0    0  0.00000000000E+00  0.00000000000E+00 -0.15335750240E+04  0.33306619764E+04  0.29565954825E+04 0.  0.
        2    1    3    3  502    0 -0.80312780292E+03  0.12392559008E+04 -0.69042681396E+03  0.16301713532E+04  0.25500000920E-02 0.  1.
       -2    1    3    3    0  502  0.80312780292E+03 -0.12392559008E+04 -0.84314821004E+03  0.17004906232E+04  0.25500000920E-02 0. -1.
</event>
<event>
 5   0  0.1091075E-06  0.2999775E+04  0.7818609E-02  0.8243795E-01
        1   -1    0    0  501    0  0.00000000000E+00  0.00000000000E+00  0.23259866143E+04  0.23259866143E+04  0.50400001928E-02 0. -1.
       -1   -1    0    0    0  501  0.00000000000E+00  0.00000000000E+00 -0.96718628832E+03  0.96718628833E+03  0.50400001928E-02 0.  1.
    10030    2    1    2    0    0  0.00000000000E+00  0.00000000000E+00  0.13588003260E+04  0.32931729026E+04  0.29997748983E+04 0.  0.
        1    1    3    3  502    0  0.11141175419E+04  0.41051144334E+03 -0.32668728781E+03  0.12314634084E+04  0.50400001928E-02 0.  1.
       -1    1    3    3    0  502 -0.11141175419E+04 -0.41051144334E+03  0.16854876138E+04  0.20617094942E+04  0.50400001928E-02 0. -1.
</event>
<event>
 5   0  0.2862033E-06  0.2991915E+04  0.7818609E-02  0.8246043E-01
        2   -1    0    0  501    0  0.00000000000E+00  0.00000000000E+00  0.20399637622E+04  0.20399637623E+04  0.25500000920E-02 0. -1.
       -2   -1    0    0    0  501  0.00000000000E+00  0.00000000000E+00 -0.10970241482E+04  0.10970241482E+04  0.25500000920E-02 0.  1.
    10030    2    1    2    0    0  0.00000000000E+00  0.00000000000E+00  0.94293961405E+03  0.31369879105E+04  0.29919154458E+04 0.  0.
        2    1    3    3  502    0 -0.11488543748E+04 -0.26900817120E+03  0.14356558548E+04  0.18583163089E+04  0.25500000920E-02 0. -1.
       -2    1    3    3    0  502  0.11488543748E+04  0.26900817120E+03 -0.49271624071E+03  0.12786716015E+04  0.25500000920E-02 0.  1.
</event>
<event>
 5   0  0.1054384E-06  0.3006116E+04  0.7818609E-02  0.8241986E-01
       -1   -1    0    0    0  501  0.00000000000E+00  0.00000000000E+00  0.11830943486E+04  0.11830943486E+04  0.50400001928E-02 0.  1.
        1   -1    0    0  501    0  0.00000000000E+00  0.00000000000E+00 -0.19095550817E+04  0.19095550817E+04  0.50400001928E-02 0. -1.
    10030    2    1    2    0    0  0.00000000000E+00  0.00000000000E+00 -0.72646073316E+03  0.30926494303E+04  0.30061163154E+04 0.  0.
        2    1    3    3  502    0 -0.90026964107E+03  0.59272721482E+03 -0.14409406265E+04  0.17994779429E+04  0.25500000920E-02 0. -1.
       -2    1    3    3    0  502  0.90026964107E+03 -0.59272721482E+03  0.71447989337E+03  0.12931714874E+04  0.25500000920E-02 0.  1.
</event>
<event>
 5   0  0.1113245E-06  0.2977422E+04  0.7818609E-02  0.8250208E-01
       -1   -1    0    0    0  501  0.00000000000E+00  0.00000000000E+00  0.93368042061E+03  0.93368042062E+03  0.50400001928E-02 0.  1.
        1   -1    0    0  501    0  0.00000000000E+00  0.00000000000E+00 -0.23736823737E+04  0.23736823737E+04  0.50400001928E-02 0. -1.
    10030    2    1    2    0    0  0.00000000000E+00  0.00000000000E+00 -0.14400019531E+04  0.33073627944E+04  0.29774222120E+04 0.  0.
        5    1    3    3  502    0  0.10378905164E+04  0.93249325693E+03 -0.12966390143E+04  0.19047454480E+04  0.46999998093E+01 0. -1.
       -5    1    3    3    0  502 -0.10378905164E+04 -0.93249325693E+03 -0.14336293884E+03  0.14026173464E+04  0.46999998093E+01 0.  1.
</event>
<event>
 5   0  0.3113328E-06  0.2996752E+04  0.7818609E-02  0.8244659E-01
       -2   -1    0    0    0  501  0.00000000000E+00  0.00000000000E+00  0.94209484186E+03  0.94209484186E+03  0.25500000920E-02 0.  1.
        2   -1    0    0  501    0  0.00000000000E+00  0.00000000000E+00 -0.23831260326E+04  0.23831260326E+04  0.25500000920E-02 0. -1.
    10030    2    1    2    0    0  0.00000000000E+00  0.00000000000E+00 -0.14410311907E+04  0.33252208744E+04  0.29967520704E+04 0.  0.
        1    1    3    3  502    0 -0.11489365661E+04 -0.69323628251E+03 -0.14602998128E+04  0.19832063230E+04  0.50400001928E-02 0. -1.
       -1    1    3    3    0  502  0.11489365661E+04  0.69323628251E+03  0.19268622057E+02  0.13420145514E+04  0.50400001928E-02 0.  1.
</event>
<event>
 5   0  0.3113328E-06  0.3006231E+04  0.7818609E-02  0.8241954E-01
        2   -1    0    0  501    0  0.00000000000E+00  0.00000000000E+00  0.14026680462E+04  0.14026680462E+04  0.25500000920E-02 0. -1.
       -2   -1    0    0    0  501  0.00000000000E+00  0.00000000000E+00 -0.16107561006E+04  0.16107561006E+04  0.25500000920E-02 0.  1.
    10030    2    1    2    0    0  0.00000000000E+00  0.00000000000E+00 -0.20808805441E+03  0.30134241468E+04  0.30062309376E+04 0.  0.
        1    1    3    3  502    0 -0.42903187049E+03  0.11448925460E+04  0.77241006988E+03  0.14461896846E+04  0.50400001928E-02 0. -1.
       -1    1    3    3    0  502  0.42903187049E+03 -0.11448925460E+04 -0.98049812429E+03  0.15672344622E+04  0.50400001928E-02 0.  1.
</event>
<event>
 5   0  0.2862033E-06  0.3018644E+04  0.7818609E-02  0.8238427E-01
        2   -1    0    0  501    0  0.00000000000E+00  0.00000000000E+00  0.14329248466E+04  0.14329248466E+04  0.25500000920E-02 0.  1.
       -2   -1    0    0    0  501  0.00000000000E+00  0.00000000000E+00 -0.15897924384E+04  0.15897924384E+04  0.25500000920E-02 0. -1.
    10030    2    1    2    0    0  0.00000000000E+00  0.00000000000E+00 -0.15686759181E+03  0.30227172850E+04  0.30186441234E+04 0.  0.
        2    1    3    3  502    0  0.25018552914E+03 -0.90875873398E+03 -0.12588449530E+04  0.15726175159E+04  0.25500000920E-02 0. -1.
       -2    1    3    3    0  502 -0.25018552914E+03  0.90875873398E+03  0.11019773612E+04  0.14500997691E+04  0.25500000920E-02 0.  1.
</event>
<event>
 5   0  0.2948711E-06  0.2985085E+04  0.7818609E-02  0.8248003E-01
        2   -1    0    0  501    0  0.00000000000E+00  0.00000000000E+00  0.30007937693E+04  0.30007937693E+04  0.25500000920E-02 0.  1.
       -2   -1    0    0    0  501  0.00000000000E+00  0.00000000000E+00 -0.74236454946E+03  0.74236454946E+03  0.25500000920E-02 0. -1.
    10030    2    1    2    0    0  0.00000000000E+00  0.00000000000E+00  0.22584292198E+04  0.37431583187E+04  0.29850848662E+04 0.  0.
        5    1    3    3  502    0 -0.31653578367E+03  0.75925478563E+03  0.26908769792E+04  0.28138059171E+04  0.46999998093E+01 0.  1.
       -5    1    3    3    0  502  0.31653578367E+03 -0.75925478563E+03 -0.43244775939E+03  0.92935240164E+03  0.46999998093E+01 0. -1.
</event>
<event>
 5   0  0.1097402E-06  0.2952375E+04  0.7818609E-02  0.8257463E-01
       -1   -1    0    0    0  501  0.00000000000E+00  0.00000000000E+00  0.90462349342E+03  0.90462349343E+03  0.50400001928E-02 0.  1.
        1   -1    0    0  501    0  0.00000000000E+00  0.00000000000E+00 -0.24088798670E+04  0.24088798670E+04  0.50400001928E-02 0. -1.
    10030    2    1    2    0    0  0.00000000000E+00  0.00000000000E+00 -0.15042563736E+04  0.33135033604E+04  0.29523748546E+04 0.  0.
        4    1    3    3  502    0 -0.67497626341E+03  0.18160783932E+02  0.72114872437E+03  0.98791693264E+03  0.12699999809E+01 0.  1.
       -4    1    3    3    0  502  0.67497626341E+03 -0.18160783932E+02 -0.22254050979E+04  0.23255864278E+04  0.12699999809E+01 0. -1.
</event>
<event>
 5   0  0.3113328E-06  0.2976028E+04  0.7818609E-02  0.8250609E-01
        2   -1    0    0  501    0  0.00000000000E+00  0.00000000000E+00  0.17476664091E+04  0.17476664091E+04  0.25500000920E-02 0. -1.
       -2   -1    0    0    0  501  0.00000000000E+00  0.00000000000E+00 -0.12669385027E+04  0.12669385027E+04  0.25500000920E-02 0.  1.
    10030    2    1    2    0    0  0.00000000000E+00  0.00000000000E+00  0.48072790639E+03  0.30146049117E+04  0.29760281339E+04 0.  0.
        1    1    3    3  502    0  0.62395861875E+03 -0.13131228634E+04  0.56160221948E+03  0.15585291352E+04  0.50400001928E-02 0. -1.
       -1    1    3    3    0  502 -0.62395861875E+03  0.13131228634E+04 -0.80874313095E+02  0.14560757765E+04  0.50400001928E-02 0.  1.
</event>
<event>
 5   0  0.1091075E-06  0.3008459E+04  0.7818609E-02  0.8241319E-01
       -1   -1    0    0    0  501  0.00000000000E+00  0.00000000000E+00  0.92086587961E+03  0.92086587962E+03  0.50400001928E-02 0.  1.
        1   -1    0    0  501    0  0.00000000000E+00  0.00000000000E+00 -0.24571512901E+04  0.24571512901E+04  0.50400001928E-02 0. -1.
    10030    2    1    2    0    0  0.00000000000E+00  0.00000000000E+00 -0.15362854105E+04  0.33780171698E+04  0.30084592629E+04 0.  0.
        1    1    3    3  502    0 -0.33904080589E+03 -0.31150821893E+03 -0.23760869292E+04  0.24202841019E+04  0.50400001928E-02 0. -1.
       -1    1    3    3    0  502  0.33904080589E+03  0.31150821893E+03  0.83980151869E+03  0.95773306789E+03  0.50400001928E-02 0.  1.
</event>
<event>
 5   0  0.1054384E-06  0.2873709E+04  0.7818609E-02  0.8280743E-01
       -1   -1    0    0    0  501  0.00000000000E+00  0.00000000000E+00  0.14939120622E+04  0.14939120622E+04  0.50400001928E-02 0.  1.
        1   -1    0    0  501    0  0.00000000000E+00  0.00000000000E+00 -0.13819765760E+04  0.13819765760E+04  0.50400001928E-02 0. -1.
    10030    2    1    2    0    0  0.00000000000E+00  0.00000000000E+00  0.11193548616E+03  0.28758886382E+04  0.28737094332E+04 0.  0.
        2    1    3    3  502    0  0.77731404522E+03  0.59531220299E+03  0.11084009659E+04  0.14789071794E+04  0.25500000920E-02 0.  1.
       -2    1    3    3    0  502 -0.77731404522E+03 -0.59531220299E+03 -0.99646547978E+03  0.13969814588E+04  0.25500000920E-02 0. -1.
</event>
<event>
 5   0  0.1091075E-06  0.3006200E+04  0.7818609E-02  0.8241963E-01
       -1   -1    0    0    0  501  0.00000000000E+00  0.00000000000E+00  0.11080351537E+04  0.11080351537E+04  0.50400001928E-02 0.  1.
        1   -1    0    0  501    0  0.00000000000E+00  0.00000000000E+00 -0.20390228521E+04  0.20390228521E+04  0.50400001928E-02 0. -1.
    10030    2    1    2    0    0  0.00000000000E+00  0.00000000000E+00 -0.93098769841E+03  0.31470580058E+04  0.30061995937E+04 0.  0.
        1    1    3    3  502    0  0.19804965489E+03  0.59585919904E+03  0.96415928057E+03  0.11505976574E+04  0.50400001928E-02 0.  1.
       -1    1    3    3    0  502 -0.19804965489E+03 -0.59585919904E+03 -0.18951469790E+04  0.19964603484E+04  0.50400001928E-02 0. -1.
</event>
<event>
 5   0  0.1113245E-06  0.3033989E+04  0.7818609E-02  0.8234091E-01
       -1   -1    0    0    0  501  0.00000000000E+00  0.00000000000E+00  0.14201900699E+04  0.14201900699E+04  0.50400001928E-02 0.  1.
        1   -1    0    0  501    0  0.00000000000E+00  0.00000000000E+00 -0.16203975362E+04  0.16203975362E+04  0.50400001928E-02 0. -1.
    10030    2    1    2    0    0  0.00000000000E+00  0.00000000000E+00 -0.20020746625E+03  0.30405876061E+04  0.30339891168E+04 0.  0.
        5    1    3    3  502    0  0.12953750431E+04 -0.72566698382E+03 -0.41168395167E+03  0.15408098000E+04  0.46999998093E+01 0. -1.
       -5    1    3    3    0  502 -0.12953750431E+04  0.72566698382E+03  0.21147648543E+03  0.14997778061E+04  0.46999998093E+01 0.  1.
</event>
<event>
 5   0  0.1054384E-06  0.3006843E+04  0.7818609E-02  0.8241780E-01
       -1   -1    0    0    0  501  0.00000000000E+00  0.00000000000E+00  0.92516306806E+03  0.92516306807E+03  0.50400001928E-02 0.  1.
        1   -1    0    0  501    0  0.00000000000E+00  0.00000000000E+00 -0.24431108717E+04  0.24431108717E+04  0.50400001928E-02 0. -1.
    10030    2    1    2    0    0  0.00000000000E+00  0.00000000000E+00 -0.15179478036E+04  0.33682739397E+04  0.30068428291E+04 0.  0.
        2    1    3    3  502    0  0.76992855262E+03 -0.98492276557E+03 -0.16944694690E+04  0.21057278104E+04  0.25500000920E-02 0. -1.
       -2    1    3    3    0  502 -0.76992855262E+03  0.98492276557E+03  0.17652166538E+03  0.12625461293E+04  0.25500000920E-02 0.  1.
</event>
<event>
 5   0  0.3113328E-06  0.2999385E+04  0.7818609E-02  0.8243907E-01
       -2   -1    0    0    0  501  0.00000000000E+00  0.00000000000E+00  0.95164137966E+03  0.95164137966E+03  0.25500000920E-02 0.  1.
        2   -1    0    0  501    0  0.00000000000E+00  0.00000000000E+00 -0.23633666836E+04  0.23633666836E+04  0.25500000920E-02 0. -1.
    10030    2    1    2    0    0  0.00000000000E+00  0.00000000000E+00 -0.14117253039E+04  0.33150080633E+04  0.29993849579E+04 0.  0.
        1    1    3    3  502    0 -0.72067895662E+03  0.46997156869E+03 -0.20634631030E+04  0.22356501093E+04  0.50400001928E-02 0. -1.
       -1    1    3    3    0  502  0.72067895662E+03 -0.46997156869E+03  0.65173779908E+03  0.10793579539E+04  0.50400001928E-02 0.  1.
</event>
<event>
 5   0  0.2985941E-06  0.3009731E+04  0.7818609E-02  0.8240958E-01
        2   -1    0    0  501    0  0.00000000000E+00  0.00000000000E+00  0.16401984628E+04  0.16401984628E+04  0.25500000920E-02 0.  1.
       -2   -1    0    0    0  501  0.00000000000E+00  0.00000000000E+00 -0.13806984872E+04  0.13806984872E+04  0.25500000920E-02 0. -1.
    10030    2    1    2    0    0  0.00000000000E+00  0.00000000000E+00  0.25949997558E+03  0.30208969500E+04  0.30097305769E+04 0.  0.
        3    1    3    3  502    0  0.10261340815E+03  0.75958436478E+03 -0.11700920176E+04  0.13987899265E+04  0.10100000352E+00 0. -1.
       -3    1    3    3    0  502 -0.10261340815E+03 -0.75958436478E+03  0.14295919931E+04  0.16221070235E+04  0.10100000352E+00 0.  1.
</event>
<event>
 5   0  0.1091075E-06  0.2990821E+04  0.7818609E-02  0.8246357E-01
        1   -1    0    0  501    0  0.00000000000E+00  0.00000000000E+00  0.17697189555E+04  0.17697189555E+04  0.50400001928E-02 0.  1.
       -1   -1    0    0    0  501  0.00000000000E+00  0.00000000000E+00 -0.12636200510E+04  0.12636200510E+04  0.50400001928E-02 0. -1.
    10030    2    1    2    0    0  0.00000000000E+00  0.00000000000E+00  0.50609890454E+03  0.30333390065E+04  0.29908208618E+04 0.  0.
        1    1    3    3  502    0  0.33951614695E+03  0.49361785252E+03 -0.11365831608E+04  0.12848155820E+04  0.50400001928E-02 0. -1.
       -1    1    3    3    0  502 -0.33951614695E+03 -0.49361785252E+03  0.16426820653E+04  0.17485234245E+04  0.50400001928E-02 0.  1.
</event>
<event>
 5   0  0.1054384E-06  0.2987302E+04  0.7818609E-02  0.8247366E-01
        1   -1    0    0  501    0  0.00000000000E+00  0.00000000000E+00  0.21668301444E+04  0.21668301444E+04  0.50400001928E-02 0.  1.
       -1   -1    0    0    0  501  0.00000000000E+00  0.00000000000E+00 -0.10296118178E+04  0.10296118178E+04  0.50400001928E-02 0. -1.
    10030    2    1    2    0    0  0.00000000000E+00  0.00000000000E+00  0.11372183266E+04  0.31964419622E+04  0.29873024111E+04 0.  0.
        2    1    3    3  502    0  0.39878620870E+03 -0.12944641761E+04  0.12422275072E+04  0.18378784299E+04  0.25500000920E-02 0.  1.
       -2    1    3    3    0  502 -0.39878620870E+03  0.12944641761E+04 -0.10500918056E+03  0.13585635324E+04  0.25500000920E-02 0. -1.
</event>
<event>
 5   0  0.1091075E-06  0.2994542E+04  0.7818609E-02  0.8245291E-01
       -1   -1    0    0    0  501  0.00000000000E+00  0.00000000000E+00  0.77521072215E+03  0.77521072217E+03  0.50400001928E-02 0. -1.
        1   -1    0    0  501    0  0.00000000000E+00  0.00000000000E+00 -0.28918845799E+04  0.28918845799E+04  0.50400001928E-02 0.  1.
    10030    2    1    2    0    0  0.00000000000E+00  0.00000000000E+00 -0.21166738577E+04  0.36670953021E+04  0.29945416568E+04 0.  0.
        1    1    3    3  502    0  0.13776820064E+04 -0.58326312748E+03 -0.98469470800E+03  0.17910408300E+04  0.50400001928E-02 0. -1.
       -1    1    3    3    0  502 -0.13776820064E+04  0.58326312748E+03 -0.11319791497E+04  0.18760544721E+04  0.50400001928E-02 0.  1.
</event>
<event>
 5   0  0.1097402E-06  0.2994068E+04  0.7818609E-02  0.8245427E-01
       -1   -1    0    0    0  501  0.00000000000E+00  0.00000000000E+00  0.94111039933E+03  0.94111039935E+03  0.50400001928E-02 0. -1.
        1   -1    0    0  501    0  0.00000000000E+00  0.00000000000E+00 -0.23813478812E+04  0.23813478812E+04  0.50400001928E-02 0.  1.
    10030    2    1    2    0    0  0.00000000000E+00  0.00000000000E+00 -0.14402374819E+04  0.33224582805E+04  0.29940683061E+04 0.  0.
        4    1    3    3  502    0  0.11885437706E+04 -0.26117765338E+03  0.24744321401E+03  0.12418050645E+04  0.12699999809E+01 0. -1.
       -4    1    3    3    0  502 -0.11885437706E+04  0.26117765338E+03 -0.16876806959E+04  0.20806532160E+04  0.12699999809E+01 0.  1.
</event>
<event>
 5   0  0.1091076E-06  0.2757370E+04  0.7818609E-02  0.8316627E-01
       -1   -1    0    0    0  501  0.00000000000E+00  0.00000000000E+00  0.16737378494E+04  0.16737378494E+04  0.50400001928E-02 0.  1.
        1   -1    0    0  501    0  0.00000000000E+00  0.00000000000E+00 -0.11356448957E+04  0.11356448957E+04  0.50400001928E-02 0. -1.
    10030    2    1    2    0    0  0.00000000000E+00  0.00000000000E+00  0.53809295367E+03  0.28093827451E+04  0.27573696490E+04 0.  0.
        3    1    3    3  502    0 -0.11326595483E+04 -0.27745362482E+03  0.10183604640E+04  0.15482106482E+04  0.10100000352E+00 0.  1.
       -3    1    3    3    0  502  0.11326595483E+04  0.27745362482E+03 -0.48026751036E+03  0.12611720969E+04  0.10100000352E+00 0. -1.
</event>
<event>
 5   0  0.3113328E-06  0.2975224E+04  0.7818609E-02  0.8250841E-01
       -2   -1    0    0    0  501  0.00000000000E+00  0.00000000000E+00  0.14573670216E+04  0.14573670216E+04  0.25500000920E-02 0.  1.
        2   -1    0    0  501    0  0.00000000000E+00  0.00000000000E+00 -0.15184846405E+04  0.15184846405E+04  0.25500000920E-02 0. -1.
    10030    2    1    2    0    0  0.00000000000E+00  0.00000000000E+00 -0.61117618868E+02  0.29758516621E+04  0.29752239834E+04 0.  0.
        1    1    3    3  502    0  0.20797747865E+03 -0.16248165690E+03  0.14337632061E+04  0.14578517934E+04  0.50400001928E-02 0.  1.
       -1    1    3    3    0  502 -0.20797747865E+03  0.16248165690E+03 -0.14948808250E+04  0.15179998687E+04  0.50400001928E-02 0. -1.
</event>
<event>
 5   0  0.1113245E-06  0.3024381E+04  0.7818609E-02  0.8236803E-01
        1   -1    0    0  501    0  0.00000000000E+00  0.00000000000E+00  0.16444640656E+04  0.16444640656E+04  0.50400001928E-02 0.  1.
       -1   -1    0    0    0  501  0.00000000000E+00  0.00000000000E+00 -0.13905564335E+04  0.13905564335E+04  0.50400001928E-02 0. -1.
    10030    2    1    2    0    0  0.00000000000E+00  0.00000000000E+00  0.25390763203E+03  0.30350204991E+04  0.30243809853E+04 0.  0.
        5    1    3    3  502    0 -0.91012075843E+03  0.84102437922E+03  0.99663754736E+03  0.15902673650E+04  0.46999998093E+01 0.  1.
       -5    1    3    3    0  502  0.91012075843E+03 -0.84102437922E+03 -0.74272991533E+03  0.14447531341E+04  0.46999998093E+01 0. -1.
</event>
<event>
 5   0  0.2862033E-06  0.2998115E+04  0.7818609E-02  0.8244269E-01
        2   -1    0    0  501    0  0.00000000000E+00  0.00000000000E+00  0.20643731027E+04  0.20643731027E+04  0.25500000920E-02 0.  1.
       -2   -1    0    0    0  501  0.00000000000E+00  0.00000000000E+00 -0.10885498861E+04  0.10885498861E+04  0.25500000920E-02 0. -1.
    10030    2    1    2    0    0  0.00000000000E+00  0.00000000000E+00  0.97582321658E+03  0.31529229887E+04  0.29981148115E+04 0.  0.
        2    1    3    3  502    0 -0.38327599770E+03 -0.14479921256E+04  0.42488873827E+03  0.15569560450E+04  0.25500000920E-02 0.  1.
       -2    1    3    3    0  502  0.38327599770E+03  0.14479921256E+04  0.55093447831E+03  0.15959669437E+04  0.25500000920E-02 0. -1.
</event>
<event>
 5   0  0.1097402E-06  0.2994301E+04  0.7818609E-02  0.8245360E-01
        1   -1    0    0  501    0  0.00000000000E+00  0.00000000000E+00  0.16344644197E+04  0.16344644197E+04  0.50400001928E-02 0. -1.
       -1   -1    0    0    0  501  0.00000000000E+00  0.00000000000E+00 -0.13713722816E+04  0.13713722816E+04  0.50400001928E-02 0.  1.
    10030    2    1    2    0    0  0.00000000000E+00  0.00000000000E+00  0.26309213807E+03  0.30058367013E+04  0.29943007200E+04 0.  0.
        4    1    3    3  502    0  0.86169857566E+03  0.73333840405E+03 -0.85261252059E+03  0.14167778137E+04  0.12699999809E+01 0.  1.
       -4    1    3    3    0  502 -0.86169857566E+03 -0.73333840405E+03  0.11157046587E+04  0.15890588876E+04  0.12699999809E+01 0. -1.
</event>
<event>
 5   0  0.2985941E-06  0.2957193E+04  0.7818609E-02  0.8256061E-01
        2   -1    0    0  501    0  0.00000000000E+00  0.00000000000E+00  0.16141963163E+04  0.16141963163E+04  0.25500000920E-02 0. -1.
       -2   -1    0    0    0  501  0.00000000000E+00  0.00000000000E+00 -0.13543874023E+04  0.13543874023E+04  0.25500000920E-02 0.  1.
    10030    2    1    2    0    0  0.00000000000E+00  0.00000000000E+00  0.25980891404E+03  0.29685837186E+04  0.29571926928E+04 0.  0.
        3    1    3    3  502    0  0.59441158301E+03  0.49349044964E+03  0.13954704735E+04  0.15950535435E+04  0.10100000352E+00 0. -1.
       -3    1    3    3    0  502 -0.59441158301E+03 -0.49349044964E+03 -0.11356615595E+04  0.13735301751E+04  0.10100000352E+00 0.  1.
</event>
<event>
 5   0  0.1091075E-06  0.2923935E+04  0.7818609E-02  0.8265791E-01
       -1   -1    0    0    0  501  0.00000000000E+00  0.00000000000E+00  0.13923429298E+04  0.13923429298E+04  0.50400001928E-02 0. -1.
        1   -1    0    0  501    0  0.00000000000E+00  0.00000000000E+00 -0.15350738409E+04  0.15350738409E+04  0.50400001928E-02 0.  1.
    10030    2    1    2    0    0  0.00000000000E+00  0.00000000000E+00 -0.14273091118E+03  0.29274167707E+04  0.29239351628E+04 0.  0.
        1    1    3    3  502    0 -0.43238695319E+03 -0.34214291942E+03 -0.14269824891E+04  0.15298036733E+04  0.50400001928E-02 0.  1.
       -1    1    3    3    0  502  0.43238695319E+03  0.34214291942E+03  0.12842515779E+04  0.13976130974E+04  0.50400001928E-02 0. -1.
</event>
<event>
 5   0  0.2985941E-06  0.2991693E+04  0.7818609E-02  0.8246107E-01
       -2   -1    0    0    0  501  0.00000000000E+00  0.00000000000E+00  0.14651573587E+04  0.14651573587E+04  0.25500000920E-02 0. -1.
        2   -1    0    0  501    0  0.00000000000E+00  0.00000000000E+00 -0.15271786822E+04  0.15271786822E+04  0.25500000920E-02 0.  1.
    10030    2    1    2    0    0  0.00000000000E+00  0.00000000000E+00 -0.62021323477E+02  0.29923360409E+04  0.29916932224E+04 0.  0.
        3    1    3    3  502    0 -0.53591444775E+03  0.12417108203E+03  0.13603073898E+04  0.14673305551E+04  0.10100000352E+00 0. -1.
       -3    1    3    3    0  502  0.53591444775E+03 -0.12417108203E+03 -0.14223287133E+04  0.15250054858E+04  0.10100000352E+00 0.  1.
</event>
<event>
 5   0  0.1091076E-06  0.2985566E+04  0.7818609E-02  0.8247865E-01
       -1   -1    0    0    0  501  0.00000000000E+00  0.00000000000E+00  0.15429225312E+04  0.15429225312E+04  0.50400001928E-02 0.  1.
        1   -1    0    0  501    0  0.00000000000E+00  0.00000000000E+00 -0.14442731624E+04  0.14442731624E+04  0.50400001928E-02 0. -1.
    10030    2    1    2    0    0  0.00000000000E+00  0.00000000000E+00  0.98649368776E+02  0.29871956936E+04  0.29855663473E+04 0.  0.
        3    1    3    3  502    0 -0.85751511066E+03  0.11343845579E+04 -0.40506091507E+03  0.14785921836E+04  0.10100000352E+00 0. -1.
       -3    1    3    3    0  502  0.85751511066E+03 -0.11343845579E+04  0.50371028385E+03  0.15086035100E+04  0.10100000352E+00 0.  1.
</event>
<event>
 5   0  0.1113245E-06  0.2939736E+04  0.7818609E-02  0.8261152E-01
       -1   -1    0    0    0  501  0.00000000000E+00  0.00000000000E+00  0.16407927601E+04  0.16407927601E+04  0.50400001928E-02 0. -1.
        1   -1    0    0  501    0  0.00000000000E+00  0.00000000000E+00 -0.13167487014E+04  0.13167487014E+04  0.50400001928E-02 0.  1.
    10030    2    1    2    0    0  0.00000000000E+00  0.00000000000E+00  0.32404405865E+03  0.29575414615E+04  0.29397358631E+04 0.  0.
        5    1    3    3  502    0 -0.31567649831E+03  0.84818334990E+03 -0.10031911960E+04  0.13511037386E+04  0.46999998093E+01 0.  1.
       -5    1    3    3    0  502  0.31567649831E+03 -0.84818334990E+03  0.13272352546E+04  0.16064377230E+04  0.46999998093E+01 0. -1.
</event>
<event>
 5   0  0.1091076E-06  0.2995541E+04  0.7818609E-02  0.8245005E-01
        1   -1    0    0  501    0  0.00000000000E+00  0.00000000000E+00  0.18436157232E+04  0.18436157233E+04  0.50400001928E-02 0.  1.
       -1   -1    0    0    0  501  0.00000000000E+00  0.00000000000E+00 -0.12168026941E+04  0.12168026941E+04  0.50400001928E-02 0. -1.
    10030    2    1    2    0    0  0.00000000000E+00  0.00000000000E+00  0.62681302915E+03  0.30604184174E+04  0.29955410723E+04 0.  0.
        3    1    3    3  502    0 -0.11180084865E+04  0.33927167658E+02 -0.70427075061E+03  0.13217758240E+04  0.10100000352E+00 0. -1.
       -3    1    3    3    0  502  0.11180084865E+04 -0.33927167658E+02  0.13310837798E+04  0.17386425934E+04  0.10100000352E+00 0.  1.
</event>
<event>
 5   0  0.2948711E-06  0.3008073E+04  0.7818609E-02  0.8241429E-01
        2   -1    0    0  501    0  0.00000000000E+00  0.00000000000E+00  0.20962179364E+04  0.20962179364E+04  0.25500000920E-02 0.  1.
       -2   -1    0    0    0  501  0.00000000000E+00  0.00000000000E+00 -0.10791464271E+04  0.10791464271E+04  0.25500000920E-02 0. -1.
    10030    2    1    2    0    0  0.00000000000E+00  0.00000000000E+00  0.10170715093E+04  0.31753643635E+04  0.30080732016E+04 0.  0.
        5    1    3    3  502    0  0.72438445580E+03 -0.23152606455E+03 -0.86122949153E+03  0.11489453797E+04  0.46999998093E+01 0. -1.
       -5    1    3    3    0  502 -0.72438445580E+03  0.23152606455E+03  0.18783010009E+04  0.20264189839E+04  0.46999998093E+01 0.  1.
</event>
<event>
 5   0  0.3113328E-06  0.3009081E+04  0.7818609E-02  0.8241142E-01
        2   -1    0    0  501    0  0.00000000000E+00  0.00000000000E+00  0.14152510634E+04  0.14152510634E+04  0.25500000920E-02 0.  1.
       -2   -1    0    0    0  501  0.00000000000E+00  0.00000000000E+00 -0.15994634571E+04  0.15994634571E+04  0.25500000920E-02 0. -1.
    10030    2    1    2    0    0  0.00000000000E+00  0.00000000000E+00 -0.18421239372E+03  0.30147145205E+04  0.30090811611E+04 0.  0.
        1    1    3    3  502    0 -0.81433422251E+03  0.11458678059E+04 -0.62929009422E+03  0.15401815728E+04  0.50400001928E-02 0.  1.
       -1    1    3    3    0  502  0.81433422251E+03 -0.11458678059E+04  0.44507770050E+03  0.14745329477E+04  0.50400001928E-02 0. -1.
</event>
<event>
 5   0  0.3113328E-06  0.2993706E+04  0.7818609E-02  0.8245530E-01
       -2   -1    0    0    0  501  0.00000000000E+00  0.00000000000E+00  0.11871478013E+04  0.11871478013E+04  0.25500000920E-02 0.  1.
        2   -1    0    0  501    0  0.00000000000E+00  0.00000000000E+00 -0.18873546784E+04  0.18873546784E+04  0.25500000920E-02 0. -1.
    10030    2    1    2    0    0  0.00000000000E+00  0.00000000000E+00 -0.70020687710E+03  0.30745024796E+04  0.29937060354E+04 0.  0.
        1    1    3    3  502    0  0.25695007222E+03 -0.87872823116E+03  0.86607950293E+03  0.12602699510E+04  0.50400001928E-02 0.  1.
       -1    1    3    3    0  502 -0.25695007222E+03  0.87872823116E+03 -0.15662863800E+04  0.18142325287E+04  0.50400001928E-02 0. -1.
</event>
<event>
 5   0  0.1054384E-06  0.2993190E+04  0.7818609E-02  0.8245678E-01
        1   -1    0    0  501    0  0.00000000000E+00  0.00000000000E+00  0.16684093990E+04  0.16684093990E+04  0.50400001928E-02 0.  1.
       -1   -1    0    0    0  501  0.00000000000E+00  0.00000000000E+00 -0.13424744051E+04  0.13424744051E+04  0.50400001928E-02 0. -1.
    10030    2    1    2    0    0  0.00000000000E+00  0.00000000000E+00  0.32593499390E+03  0.30108838040E+04  0.29931902147E+04 0.  0.
        2    1    3    3  502    0  0.12556398433E+04 -0.26257865250E+03  0.93837957661E+03  0.15893820166E+04  0.25500000920E-02 0. -1.
       -2    1    3    3    0  502 -0.12556398433E+04  0.26257865250E+03 -0.61244458270E+03  0.14215017875E+04  0.25500000920E-02 0.  1.
</event>
<event>
 5   0  0.1054384E-06  0.3007137E+04  0.7818609E-02  0.8241696E-01
        1   -1    0    0  501    0  0.00000000000E+00  0.00000000000E+00  0.10175342418E+04  0.10175342419E+04  0.50400001928E-02 0. -1.
       -1   -1    0    0    0  501  0.00000000000E+00  0.00000000000E+00 -0.22217611810E+04  0.22217611810E+04  0.50400001928E-02 0.  1.
    10030    2    1    2    0    0  0.00000000000E+00  0.00000000000E+00 -0.12042269391E+04  0.32392954228E+04  0.30071368967E+04 0.  0.
        2    1    3    3  502    0 -0.34456374559E+03  0.51918751292E+03  0.87189883161E+03  0.10716750538E+04  0.25500000920E-02 0. -1.
       -2    1    3    3    0  502  0.34456374559E+03 -0.51918751292E+03 -0.20761257707E+04  0.21676203690E+04  0.25500000920E-02 0.  1.
</event>
<event>
 5   0  0.2862033E-06  0.3002012E+04  0.7818609E-02  0.8243157E-01
        2   -1    0    0  501    0  0.00000000000E+00  0.00000000000E+00  0.25145707648E+04  0.25145707648E+04  0.25500000920E-02 0. -1.
       -2   -1    0    0    0  501  0.00000000000E+00  0.00000000000E+00 -0.89598558717E+03  0.89598558717E+03  0.25500000920E-02 0.  1.
    10030    2    1    2    0    0  0.00000000000E+00  0.00000000000E+00  0.16185851776E+04  0.34105563520E+04  0.30020121007E+04 0.  0.
        2    1    3    3  502    0 -0.53056714540E+03  0.13517017241E+04  0.37754826502E+03  0.15003805315E+04  0.25500000920E-02 0. -1.
       -2    1    3    3    0  502  0.53056714540E+03 -0.13517017241E+04  0.12410369126E+04  0.19101758205E+04  0.25500000920E-02 0.  1.
</event>
<event>
 5   0  0.1113245E-06  0.2970316E+04  0.7818609E-02  0.8252258E-01
       -1   -1    0    0    0  501  0.00000000000E+00  0.00000000000E+00  0.21091599784E+04  0.21091599784E+04  0.50400001928E-02 0. -1.
        1   -1    0    0  501    0  0.00000000000E+00  0.00000000000E+00 -0.10457693924E+04  0.10457693924E+04  0.50400001928E-02 0.  1.
    10030    2    1    2    0    0  0.00000000000E+00  0.00000000000E+00  0.10633905860E+04  0.31549293708E+04  0.29703164471E+04 0.  0.
        5    1    3    3  502    0  0.34275257499E+03 -0.55362623742E+03 -0.88606620382E+03  0.10995984476E+04  0.46999998093E+01 0.  1.
       -5    1    3    3    0  502 -0.34275257499E+03  0.55362623742E+03  0.19494567898E+04  0.20553309232E+04  0.46999998093E+01 0. -1.
</event>
<event>
 5   0  0.1097402E-06  0.2916091E+04  0.7818609E-02  0.8268106E-01
       -1   -1    0    0    0  501  0.00000000000E+00  0.00000000000E+00  0.14344796313E+04  0.14344796313E+04  0.50400001928E-02 0. -1.
        1   -1    0    0  501    0  0.00000000000E+00  0.00000000000E+00 -0.14819985828E+04  0.14819985828E+04  0.50400001928E-02 0.  1.
    10030    2    1    2    0    0  0.00000000000E+00  0.00000000000E+00 -0.47518951529E+02  0.29164782141E+04  0.29160910690E+04 0.  0.
        4    1    3    3  502    0 -0.82702215063E+02 -0.73847947620E+03  0.12308804955E+04  0.14377969259E+04  0.12699999809E+01 0. -1.
       -4    1    3    3    0  502  0.82702215063E+02  0.73847947620E+03 -0.12783994470E+04  0.14786812882E+04  0.12699999809E+01 0.  1.
</event>
<event>
 5   0  0.1091076E-06  0.3017004E+04  0.7818609E-02  0.8238892E-01
       -1   -1    0    0    0  501  0.00000000000E+00  0.00000000000E+00  0.21369704024E+04  0.21369704024E+04  0.50400001928E-02 0.  1.
        1   -1    0    0  501    0  0.00000000000E+00  0.00000000000E+00 -0.10648615384E+04  0.10648615384E+04  0.50400001928E-02 0. -1.
    10030    2    1    2    0    0  0.00000000000E+00  0.00000000000E+00  0.10721088641E+04  0.32018319408E+04  0.30170035401E+04 0.  0.
        3    1    3    3  502    0  0.16914292520E+03  0.96158580016E+03 -0.68431454940E+03  0.11922847785E+04  0.10100000352E+00 0. -1.
       -3    1    3    3    0  502 -0.16914292520E+03 -0.96158580016E+03  0.17564234135E+04  0.20095471624E+04  0.10100000352E+00 0.  1.
</event>
<event>
 5   0  0.1113245E-06  0.3021824E+04  0.7818609E-02  0.8237526E-01
       -1   -1    0    0    0  501  0.00000000000E+00  0.00000000000E+00  0.20210982156E+04  0.20210982156E+04  0.50400001928E-02 0. -1.
        1   -1    0    0  501    0  0.00000000000E+00  0.00000000000E+00 -0.11295125002E+04  0.11295125002E+04  0.50400001928E-02 0.  1.
    10030    2    1    2    0    0  0.00000000000E+00  0.00000000000E+00  0.89158571539E+03  0.31506107158E+04  0.30218244149E+04 0.  0.
        5    1    3    3  502    0 -0.94139750876E+03 -0.10756293754E+04 -0.64585552911E+02  0.14308742804E+04  0.46999998093E+01 0. -1.
       -5    1    3    3    0  502  0.94139750876E+03  0.10756293754E+04  0.95617126830E+03  0.17197364354E+04  0.46999998093E+01 0.  1.
</event>
<event>
 5   0  0.2862033E-06  0.3002715E+04  0.7818609E-02  0.8242956E-01
       -2   -1    0    0    0  501  0.00000000000E+00  0.00000000000E+00  0.97788395507E+03  0.97788395507E+03  0.25500000920E-02 0.  1.
        2   -1    0    0  501    0  0.00000000000E+00  0.00000000000E+00 -0.23050534487E+04  0.23050534487E+04  0.25500000920E-02 0. -1.
    10030    2    1    2    0    0  0.00000000000E+00  0.00000000000E+00 -0.13271694936E+04  0.32829374038E+04  0.30027152932E+04 0.  0.
        2    1    3    3  502    0 -0.86127978776E+03  0.10048025658E+04  0.11155244276E+03  0.13281095650E+04  0.25500000920E-02 0. -1.
       -2    1    3    3    0  502  0.86127978776E+03 -0.10048025658E+04 -0.14387219364E+04  0.19548278388E+04  0.25500000920E-02 0.  1.
</event>
<event>
 5   0  0.2862033E-06  0.2933213E+04  0.7818609E-02  0.8263064E-01
       -2   -1    0    0    0  501  0.00000000000E+00  0.00000000000E+00  0.71264585698E+03  0.71264585698E+03  0.25500000920E-02 0.  1.
        2   -1    0    0  501    0  0.00000000000E+00  0.00000000000E+00 -0.30182380758E+04  0.30182380758E+04  0.25500000920E-02 0. -1.
    10030    2    1    2    0    0  0.00000000000E+00  0.00000000000E+00 -0.23055922188E+04  0.37308839327E+04  0.29332131597E+04 0.  0.
        2    1    3    3  502    0  0.69798123150E+03  0.48671954568E+03 -0.26721500950E+04  0.28043644282E+04  0.25500000920E-02 0. -1.
       -2    1    3    3    0  502 -0.69798123150E+03 -0.48671954568E+03  0.36655787626E+03  0.92651950455E+03  0.25500000920E-02 0.  1.
</event>
<event>
 5   0  0.1097402E-06  0.2910394E+04  0.7818609E-02  0.8269792E-01
        1   -1    0    0  501    0  0.00000000000E+00  0.00000000000E+00  0.17821331593E+04  0.17821331593E+04  0.50400001928E-02 0. -1.
       -1   -1    0    0    0  501  0.00000000000E+00  0.00000000000E+00 -0.11882378949E+04  0.11882378949E+04  0.50400001928E-02 0.  1.
    10030    2    1    2    0    0  0.00000000000E+00  0.00000000000E+00  0.59389526437E+03  0.29703710542E+04  0.29103938933E+04 0.  0.
        4    1    3    3  502    0  0.14162353487E+04 -0.16166248746E+03  0.59579448894E+03  0.15449368948E+04  0.12699999809E+01 0. -1.
       -4    1    3    3    0  502 -0.14162353487E+04  0.16166248746E+03 -0.18992245691E+01  0.14254341594E+04  0.12699999809E+01 0.  1.
</event>
<event>
 5   0  0.1091075E-06  0.2977550E+04  0.7818609E-02  0.8250171E-01
       -1   -1    0    0    0  501  0.00000000000E+00  0.00000000000E+00  0.12945436785E+04  0.12945436785E+04  0.50400001928E-02 0. -1.
        1   -1    0    0  501    0  0.00000000000E+00  0.00000000000E+00 -0.17121489539E+04  0.17121489539E+04  0.50400001928E-02 0.  1.
    10030    2    1    2    0    0  0.00000000000E+00  0.00000000000E+00 -0.41760527535E+03  0.30066926324E+04  0.29775504059E+04 0.  0.
        1    1    3    3  502    0 -0.13011445198E+04 -0.66991145841E+03  0.67172774190E+02  0.14650155648E+04  0.50400001928E-02 0. -1.
       -1    1    3    3    0  502  0.13011445198E+04  0.66991145841E+03 -0.48477804953E+03  0.15416770676E+04  0.50400001928E-02 0.  1.
</event>
<event>
 5   0  0.1091075E-06  0.2989860E+04  0.7818609E-02  0.8246632E-01
        1   -1    0    0  501    0  0.00000000000E+00  0.00000000000E+00  0.14695554974E+04  0.14695554974E+04  0.50400001928E-02 0.  1.
       -1   -1    0    0    0  501  0.00000000000E+00  0.00000000000E+00 -0.15207428159E+04  0.15207428159E+04  0.50400001928E-02 0. -1.
    10030    2    1    2    0    0  0.00000000000E+00  0.00000000000E+00 -0.51187318578E+02  0.29902983133E+04  0.29898601742E+04 0.  0.
        1    1    3    3  502    0 -0.13709389496E+04 -0.15784996197E+02  0.57039063166E+03  0.14849472187E+04  0.50400001928E-02 0.  1.
       -1    1    3    3    0  502  0.13709389496E+04  0.15784996197E+02 -0.62157795024E+03  0.15053510946E+04  0.50400001928E-02 0. -1.
</event>
<event>
 5   0  0.1113245E-06  0.2984452E+04  0.7818609E-02  0.8248185E-01
       -1   -1    0    0    0  501  0.00000000000E+00  0.00000000000E+00  0.14662033184E+04  0.14662033184E+04  0.50400001928E-02 0. -1.
        1   -1    0    0  501    0  0.00000000000E+00  0.00000000000E+00 -0.15187100774E+04  0.15187100774E+04  0.50400001928E-02 0.  1.
    10030    2    1    2    0    0  0.00000000000E+00  0.00000000000E+00 -0.52506759060E+02  0.29849133958E+04  0.29844515444E+04 0.  0.
        5    1    3    3  502    0 -0.71563779916E+03 -0.81098881828E+03  0.10019501391E+04  0.14743698635E+04  0.46999998093E+01 0. -1.
       -5    1    3    3    0  502  0.71563779916E+03  0.81098881828E+03 -0.10544568982E+04  0.15105435323E+04  0.46999998093E+01 0.  1.
</event>
<event>
 5   0  0.2970915E-06  0.2978759E+04  0.7818609E-02  0.8249822E-01
        2   -1    0    0  501    0  0.00000000000E+00  0.00000000000E+00  0.15790259869E+04  0.15790259869E+04  0.25500000920E-02 0. -1.
       -2   -1    0    0    0  501  0.00000000000E+00  0.00000000000E+00 -0.14048227930E+04  0.14048227930E+04  0.25500000920E-02 0.  1.
    10030    2    1    2    0    0  0.00000000000E+00  0.00000000000E+00  0.17420319388E+03  0.29838487799E+04  0.29787592700E+04 0.  0.
        4    1    3    3  502    0  0.13683417468E+03  0.12635792676E+04 -0.69068751159E+03  0.14465154712E+04  0.12699999809E+01 0.  1.
       -4    1    3    3    0  502 -0.13683417468E+03 -0.12635792676E+04  0.86489070548E+03  0.15373333087E+04  0.12699999809E+01 0. -1.
</event>
<event>
 5   0  0.2985941E-06  0.3048251E+04  0.7818609E-02  0.8230085E-01
       -2   -1    0    0    0  501  0.00000000000E+00  0.00000000000E+00  0.16703205619E+04  0.16703205619E+04  0.25500000920E-02 0.  1.
        2   -1    0    0  501    0  0.00000000000E+00  0.00000000000E+00 -0.13907260754E+04  0.13907260754E+04  0.25500000920E-02 0. -1.
    10030    2    1    2    0    0  0.00000000000E+00  0.00000000000E+00  0.27959448646E+03  0.30610466373E+04  0.30482508819E+04 0.  0.
        3    1    3    3  502    0  0.69730121805E+03  0.55167438708E+03 -0.11032943985E+04  0.14169799427E+04  0.10100000352E+00 0. -1.
       -3    1    3    3    0  502 -0.69730121805E+03 -0.55167438708E+03  0.13828888850E+04  0.16440666946E+04  0.10100000352E+00 0.  1.
</event>
<event>
 5   0  0.3113328E-06  0.3301338E+04  0.7818609E-02  0.8162555E-01
       -2   -1    0    0    0  501  0.00000000000E+00  0.00000000000E+00  0.17627972122E+04  0.17627972122E+04  0.25500000920E-02 0.  1.
        2   -1    0    0  501    0  0.00000000000E+00  0.00000000000E+00 -0.15456729552E+04  0.15456729552E+04  0.25500000920E-02 0. -1.
    10030    2    1    2    0    0  0.00000000000E+00  0.00000000000E+00  0.21712425705E+03  0.33084701674E+04  0.33013378963E+04 0.  0.
        1    1    3    3  502    0  0.60337152556E+03 -0.56348032078E+03 -0.13239106706E+04  0.15602265007E+04  0.50400001928E-02 0. -1.
       -1    1    3    3    0  502 -0.60337152556E+03  0.56348032078E+03  0.15410349277E+04  0.17482436667E+04  0.50400001928E-02 0.  1.
</event>
<event>
 5   0  0.2985941E-06  0.2963896E+04  0.7818609E-02  0.8254116E-01
        2   -1    0    0  501    0  0.00000000000E+00  0.00000000000E+00  0.21144841080E+04  0.21144841080E+04  0.25500000920E-02 0. -1.
       -2   -1    0    0    0  501  0.00000000000E+00  0.00000000000E+00 -0.10386315577E+04  0.10386315577E+04  0.25500000920E-02 0.  1.
    10030    2    1    2    0    0  0.00000000000E+00  0.00000000000E+00  0.10758525503E+04  0.31531156657E+04  0.29638960325E+04 0.  0.
        3    1    3    3  502    0 -0.98071048069E+03 -0.10811896525E+04  0.80999904079E+03  0.16693898789E+04  0.10100000352E+00 0. -1.
       -3    1    3    3    0  502  0.98071048069E+03  0.10811896525E+04  0.26585350952E+03  0.14837257868E+04  0.10100000352E+00 0.  1.
</event>
<event>
 5   0  0.2948711E-06  0.2987960E+04  0.7818609E-02  0.8247177E-01
       -2   -1    0    0    0  501  0.00000000000E+00  0.00000000000E+00  0.10103545554E+04  0.10103545554E+04  0.25500000920E-02 0.  1.
        2   -1    0    0  501    0  0.00000000000E+00  0.00000000000E+00 -0.22091023994E+04  0.22091023994E+04  0.25500000920E-02 0. -1.
    10030    2    1    2    0    0  0.00000000000E+00  0.00000000000E+00 -0.11987478441E+04  0.32194569548E+04  0.29879602892E+04 0.  0.
        5    1    3    3  502    0 -0.65578106414E+03 -0.12042717841E+04  0.39557141286E+02  0.13718258605E+04  0.46999998093E+01 0.  1.
       -5    1    3    3    0  502  0.65578106414E+03  0.12042717841E+04 -0.12383049853E+04  0.18476310943E+04  0.46999998093E+01 0. -1.
</event>
<event>
 5   0  0.9749500E-07  0.2992781E+04  0.7818609E-02  0.8245795E-01
        4   -1    0    0  501    0  0.00000000000E+00  0.00000000000E+00  0.14642788511E+04  0.14642794019E+04  0.12699999809E+01 0. -1.
       -4   -1    0    0    0  501  0.00000000000E+00  0.00000000000E+00 -0.15292057361E+04  0.15292062635E+04  0.12699999809E+01 0.  1.
    10030    2    1    2    0    0  0.00000000000E+00  0.00000000000E+00 -0.64926885000E+02  0.29934856654E+04  0.29927814702E+04 0.  0.
        5    1    3    3  502    0 -0.49015336541E+03  0.64989967469E+03  0.12234367268E+04  0.14695031212E+04  0.46999998093E+01 0. -1.
       -5    1    3    3    0  502  0.49015336541E+03 -0.64989967469E+03 -0.12883636118E+04  0.15239825442E+04  0.46999998093E+01 0.  1.
</event>
<event>
 5   0  0.1091076E-06  0.3017884E+04  0.7818609E-02  0.8238642E-01
       -1   -1    0    0    0  501  0.00000000000E+00  0.00000000000E+00  0.13689324071E+04  0.13689324071E+04  0.50400001928E-02 0. -1.
        1   -1    0    0  501    0  0.00000000000E+00  0.00000000000E+00 -0.16632708350E+04  0.16632708350E+04  0.50400001928E-02 0.  1.
    10030    2    1    2    0    0  0.00000000000E+00  0.00000000000E+00 -0.29433842795E+03  0.30322032421E+04  0.30178835947E+04 0.  0.
        3    1    3    3  502    0  0.20070420860E+03 -0.80152493885E+03 -0.14157689844E+04  0.16392456296E+04  0.10100000352E+00 0.  1.
       -3    1    3    3    0  502 -0.20070420860E+03  0.80152493885E+03  0.11214305564E+04  0.13929576124E+04  0.10100000352E+00 0. -1.
</event>
<event>
 5   0  0.2970915E-06  0.3001307E+04  0.7818609E-02  0.8243358E-01
       -2   -1    0    0    0  501  0.00000000000E+00  0.00000000000E+00  0.13589319205E+04  0.13589319205E+04  0.25500000920E-02 0.  1.
        2   -1    0    0  501    0  0.00000000000E+00  0.00000000000E+00 -0.16571553997E+04  0.16571553997E+04  0.25500000920E-02 0. -1.
    10030    2    1    2    0    0  0.00000000000E+00  0.00000000000E+00 -0.29822347927E+03  0.30160873202E+04  0.30013072951E+04 0.  0.
        4    1    3    3  502    0 -0.81785909136E+03 -0.10621473222E+04  0.52867937133E+03  0.14410253009E+04  0.12699999809E+01 0.  1.
       -4    1    3    3    0  502  0.81785909136E+03  0.10621473222E+04 -0.82690285060E+03  0.15750620193E+04  0.12699999809E+01 0. -1.
</event>
<event>
 5   0  0.1091076E-06  0.3011228E+04  0.7818609E-02  0.8240532E-01
        1   -1    0    0  501    0  0.00000000000E+00  0.00000000000E+00  0.28486561855E+04  0.28486561855E+04  0.50400001928E-02 0. -1.
       -1   -1    0    0    0  501  0.00000000000E+00  0.00000000000E+00 -0.79576940106E+03  0.79576940107E+03  0.50400001928E-02 0.  1.
    10030    2    1    2    0    0  0.00000000000E+00  0.00000000000E+00  0.20528867844E+04  0.36444255865E+04  0.30112279399E+04 0.  0.
        3    1    3    3  502    0  0.11013188334E+04 -0.79329590340E+03  0.23776132238E+03  0.13779521108E+04  0.10100000352E+00 0. -1.
       -3    1    3    3    0  502 -0.11013188334E+04  0.79329590340E+03  0.18151254620E+04  0.22664734757E+04  0.10100000352E+00 0.  1.
</event>
<event>
 5   0  0.1054384E-06  0.3033746E+04  0.7818609E-02  0.8234160E-01
        1   -1    0    0  501    0  0.00000000000E+00  0.00000000000E+00  0.19565307166E+04  0.19565307166E+04  0.50400001928E-02 0.  1.
       -1   -1    0    0    0  501  0.00000000000E+00  0.00000000000E+00 -0.11760121580E+04  0.11760121580E+04  0.50400001928E-02 0. -1.
    10030    2    1    2    0    0  0.00000000000E+00  0.00000000000E+00  0.78051855857E+03  0.31325428746E+04  0.30337461398E+04 0.  0.
        2    1    3    3  502    0  0.23206080529E+03 -0.14680740837E+04  0.70312875934E+03  0.16442274128E+04  0.25500000920E-02 0. -1.
       -2    1    3    3    0  502 -0.23206080529E+03  0.14680740837E+04  0.77389799229E+02  0.14883154618E+04  0.25500000920E-02 0.  1.
</event>
<event>
 5   0  0.1097402E-06  0.2989852E+04  0.7818609E-02  0.8246635E-01
        1   -1    0    0  501    0  0.00000000000E+00  0.00000000000E+00  0.78447031600E+03  0.78447031602E+03  0.50400001928E-02 0. -1.
       -1   -1    0    0    0  501  0.00000000000E+00  0.00000000000E+00 -0.28488056244E+04  0.28488056244E+04  0.50400001928E-02 0.  1.
    10030    2    1    2    0    0  0.00000000000E+00  0.00000000000E+00 -0.20643353084E+04  0.36332759404E+04  0.29898518013E+04 0.  0.
        4    1    3    3  502    0  0.62003349597E+02  0.70701185147E+03  0.56668614472E+03  0.90820976266E+03  0.12699999809E+01 0. -1.
       -4    1    3    3    0  502 -0.62003349597E+02 -0.70701185147E+03 -0.26310214531E+04  0.27250661778E+04  0.12699999809E+01 0.  1.
</event>
<event>
 5   0  0.2970915E-06  0.3028935E+04  0.7818609E-02  0.8235516E-01
        2   -1    0    0  501    0  0.00000000000E+00  0.00000000000E+00  0.19316297842E+04  0.19316297842E+04  0.25500000920E-02 0. -1.
       -2   -1    0    0    0  501  0.00000000000E+00  0.00000000000E+00 -0.11873968165E+04  0.11873968165E+04  0.25500000920E-02 0.  1.
    10030    2    1    2    0    0  0.00000000000E+00  0.00000000000E+00  0.74423296776E+03  0.31190266007E+04  0.30289345034E+04 0.  0.
        4    1    3    3  502    0 -0.13765751254E+04 -0.36938572283E+03  0.89940621375E+03  0.16853302461E+04  0.12699999809E+01 0.  1.
       -4    1    3    3    0  502  0.13765751254E+04  0.36938572283E+03 -0.15517324599E+03  0.14336963546E+04  0.12699999809E+01 0. -1.
</event>
<event>
 5   0  0.9749500E-07  0.2974724E+04  0.7818609E-02  0.8250986E-01
       -3   -1    0    0    0  501  0.00000000000E+00  0.00000000000E+00  0.13419846865E+04  0.13419846903E+04  0.10100000352E+00 0. -1.
        3   -1    0    0  501    0  0.00000000000E+00  0.00000000000E+00 -0.16484881054E+04  0.16484881085E+04  0.10100000352E+00 0.  1.
    10030    2    1    2    0    0  0.00000000000E+00  0.00000000000E+00 -0.30650341892E+03  0.29904727988E+04  0.29747240569E+04 0.  0.
        2    1    3    3  502    0  0.58936863203E+03 -0.60253776752E+03  0.10787315607E+04  0.13689663713E+04  0.25500000920E-02 0. -1.
       -2    1    3    3    0  502 -0.58936863203E+03  0.60253776752E+03 -0.13852349796E+04  0.16215064275E+04  0.25500000920E-02 0.  1.
</event>
<event>
 5   0  0.1113245E-06  0.2980509E+04  0.7818609E-02  0.8249319E-01
       -1   -1    0    0    0  501  0.00000000000E+00  0.00000000000E+00  0.10718590428E+04  0.10718590428E+04  0.50400001928E-02 0.  1.
        1   -1    0    0  501    0  0.00000000000E+00  0.00000000000E+00 -0.20719692293E+04  0.20719692293E+04  0.50400001928E-02 0. -1.
    10030    2    1    2    0    0  0.00000000000E+00  0.00000000000E+00 -0.10001101864E+04  0.31438282721E+04  0.29805093222E+04 0.  0.
        5    1    3    3  502    0  0.14828670993E+04  0.13787129360E+03 -0.55718508114E+03  0.15900882467E+04  0.46999998093E+01 0. -1.
       -5    1    3    3    0  502 -0.14828670993E+04 -0.13787129360E+03 -0.44292510529E+03  0.15537400254E+04  0.46999998093E+01 0.  1.
</event>
<event>
 5   0  0.1113245E-06  0.2817142E+04  0.7818609E-02  0.8297966E-01
        1   -1    0    0  501    0  0.00000000000E+00  0.00000000000E+00  0.13460778755E+04  0.13460778755E+04  0.50400001928E-02 0. -1.
       -1   -1    0    0    0  501  0.00000000000E+00  0.00000000000E+00 -0.14739656286E+04  0.14739656286E+04  0.50400001928E-02 0.  1.
    10030    2    1    2    0    0  0.00000000000E+00  0.00000000000E+00 -0.12788775309E+03  0.28200435042E+04  0.28171421846E+04 0.  0.
        5    1    3    3  502    0  0.74948355773E+02  0.22971702616E+02 -0.14717725547E+04  0.14738661737E+04  0.46999998093E+01 0.  1.
       -5    1    3    3    0  502 -0.74948355773E+02 -0.22971702616E+02  0.13438848016E+04  0.13461773305E+04  0.46999998093E+01 0. -1.
</event>
<event>
 5   0  0.2948711E-06  0.2983959E+04  0.7818609E-02  0.8248326E-01
       -2   -1    0    0    0  501  0.00000000000E+00  0.00000000000E+00  0.77668338016E+03  0.77668338016E+03  0.25500000920E-02 0.  1.
        2   -1    0    0  501    0  0.00000000000E+00  0.00000000000E+00 -0.28660369262E+04  0.28660369262E+04  0.25500000920E-02 0. -1.
    10030    2    1    2    0    0  0.00000000000E+00  0.00000000000E+00 -0.20893535460E+04  0.36427203063E+04  0.29839592809E+04 0.  0.
        5    1    3    3  502    0 -0.13083603120E+03 -0.14613802085E+04 -0.71432218173E+03  0.16318788099E+04  0.46999998093E+01 0. -1.
       -5    1    3    3    0  502  0.13083603120E+03  0.14613802085E+04 -0.13750313643E+04  0.20108414964E+04  0.46999998093E+01 0.  1.
</event>
<event>
 5   0  0.3113328E-06  0.2992137E+04  0.7818609E-02  0.8245980E-01
        2   -1    0    0  501    0  0.00000000000E+00  0.00000000000E+00  0.18506233099E+04  0.18506233099E+04  0.25500000920E-02 0. -1.
       -2   -1    0    0    0  501  0.00000000000E+00  0.00000000000E+00 -0.12094417886E+04  0.12094417886E+04  0.25500000920E-02 0.  1.
    10030    2    1    2    0    0  0.00000000000E+00  0.00000000000E+00  0.64118152127E+03  0.30600650985E+04  0.29921371399E+04 0.  0.
        1    1    3    3  502    0 -0.87131363558E+03 -0.97035471228E+03 -0.42915904989E+03  0.13729359815E+04  0.50400001928E-02 0.  1.
       -1    1    3    3    0  502  0.87131363558E+03  0.97035471228E+03  0.10703405712E+04  0.16871291170E+04  0.50400001928E-02 0. -1.
</event>
<event>
 5   0  0.1054384E-06  0.2966169E+04  0.7818609E-02  0.8253458E-01
       -1   -1    0    0    0  501  0.00000000000E+00  0.00000000000E+00  0.10114619987E+04  0.10114619987E+04  0.50400001928E-02 0.  1.
        1   -1    0    0  501    0  0.00000000000E+00  0.00000000000E+00 -0.21746140967E+04  0.21746140967E+04  0.50400001928E-02 0. -1.
    10030    2    1    2    0    0  0.00000000000E+00  0.00000000000E+00 -0.11631520980E+04  0.31860760953E+04  0.29661689234E+04 0.  0.
        2    1    3    3  502    0 -0.19732881920E+03 -0.99804075276E+03  0.57755597082E+03  0.11698696109E+04  0.25500000920E-02 0.  1.
       -2    1    3    3    0  502  0.19732881920E+03  0.99804075276E+03 -0.17407080688E+04  0.20162064844E+04  0.25500000920E-02 0. -1.
</event>
<event>
 5   0  0.9749500E-07  0.2980802E+04  0.7818609E-02  0.8249234E-01
        4   -1    0    0  501    0  0.00000000000E+00  0.00000000000E+00  0.15073324572E+04  0.15073329922E+04  0.12699999809E+01 0.  1.
       -4   -1    0    0    0  501  0.00000000000E+00  0.00000000000E+00 -0.14736589231E+04  0.14736594703E+04  0.12699999809E+01 0. -1.
    10030    2    1    2    0    0  0.00000000000E+00  0.00000000000E+00  0.33673534143E+02  0.29809924626E+04  0.29808022670E+04 0.  0.
        3    1    3    3  502    0 -0.45438961439E+03 -0.89345118990E+03 -0.10862161936E+04  0.14780360550E+04  0.10100000352E+00 0. -1.
       -3    1    3    3    0  502  0.45438961439E+03  0.89345118990E+03  0.11198897278E+04  0.15029564076E+04  0.10100000352E+00 0.  1.
</event>
<event>
 5   0  0.3113328E-06  0.2984333E+04  0.7818609E-02  0.8248219E-01
       -2   -1    0    0    0  501  0.00000000000E+00  0.00000000000E+00  0.11070862660E+04  0.11070862660E+04  0.25500000920E-02 0.  1.
        2   -1    0    0  501    0  0.00000000000E+00  0.00000000000E+00 -0.20111903323E+04  0.20111903323E+04  0.25500000920E-02 0. -1.
    10030    2    1    2    0    0  0.00000000000E+00  0.00000000000E+00 -0.90410406627E+03  0.31182765983E+04  0.29843332222E+04 0.  0.
        1    1    3    3  502    0 -0.11318515411E+04  0.90229977906E+03 -0.73394469313E+02  0.14493514241E+04  0.50400001928E-02 0.  1.
       -1    1    3    3    0  502  0.11318515411E+04 -0.90229977906E+03 -0.83070959696E+03  0.16689251742E+04  0.50400001928E-02 0. -1.
</event>
<event>
 5   0  0.3113328E-06  0.2990072E+04  0.7818609E-02  0.8246572E-01
       -2   -1    0    0    0  501  0.00000000000E+00  0.00000000000E+00  0.11129693135E+04  0.11129693135E+04  0.25500000920E-02 0.  1.
        2   -1    0    0  501    0  0.00000000000E+00  0.00000000000E+00 -0.20082610596E+04  0.20082610596E+04  0.25500000920E-02 0. -1.
    10030    2    1    2    0    0  0.00000000000E+00  0.00000000000E+00 -0.89529174612E+03  0.31212303732E+04  0.29900721951E+04 0.  0.
        1    1    3    3  502    0  0.85669858859E+03 -0.67113148777E+03  0.62239573749E+03  0.12536851278E+04  0.50400001928E-02 0.  1.
       -1    1    3    3    0  502 -0.85669858859E+03  0.67113148777E+03 -0.15176874836E+04  0.18675452454E+04  0.50400001928E-02 0. -1.
</event>
<event>
 5   0  0.2985941E-06  0.2996022E+04  0.7818609E-02  0.8244868E-01
        2   -1    0    0  501    0  0.00000000000E+00  0.00000000000E+00  0.17653287164E+04  0.17653287164E+04  0.25500000920E-02 0. -1.
       -2   -1    0    0    0  501  0.00000000000E+00  0.00000000000E+00 -0.12711726309E+04  0.12711726309E+04  0.25500000920E-02 0.  1.
    10030    2    1    2    0    0  0.00000000000E+00  0.00000000000E+00  0.49415608552E+03  0.30365013473E+04  0.29960223957E+04 0.  0.
        3    1    3    3  502    0  0.29234157202E+03 -0.91016888191E+03 -0.92183292590E+03  0.13280236978E+04  0.10100000352E+00 0.  1.
       -3    1    3    3    0  502 -0.29234157202E+03  0.91016888191E+03  0.14159890114E+04  0.17084776495E+04  0.10100000352E+00 0. -1.
</event>
<event>
 5   0  0.1097402E-06  0.3254382E+04  0.7818609E-02  0.8174601E-01
        1   -1    0    0  501    0  0.00000000000E+00  0.00000000000E+00  0.22905683924E+04  0.22905683924E+04  0.50400001928E-02 0.  1.
       -1   -1    0    0    0  501  0.00000000000E+00  0.00000000000E+00 -0.11559359723E+04  0.11559359723E+04  0.50400001928E-02 0. -1.
    10030    2    1    2    0    0  0.00000000000E+00  0.00000000000E+00  0.11346324200E+04  0.34465043647E+04  0.32543819087E+04 0.  0.
        4    1    3    3  502    0 -0.43489460612E+03  0.73417112687E+03 -0.89997601787E+03  0.12402011964E+04  0.12699999809E+01 0. -1.
       -4    1    3    3    0  502  0.43489460612E+03 -0.73417112687E+03  0.20346084379E+04  0.22063031683E+04  0.12699999809E+01 0.  1.
</event>
<event>
 5   0  0.1097402E-06  0.3006118E+04  0.7818609E-02  0.8241986E-01
        1   -1    0    0  501    0  0.00000000000E+00  0.00000000000E+00  0.22941404960E+04  0.22941404960E+04  0.50400001928E-02 0.  1.
       -1   -1    0    0    0  501  0.00000000000E+00  0.00000000000E+00 -0.98476375887E+03  0.98476375888E+03  0.50400001928E-02 0. -1.
    10030    2    1    2    0    0  0.00000000000E+00  0.00000000000E+00  0.13093767371E+04  0.32789042549E+04  0.30061180404E+04 0.  0.
        4    1    3    3  502    0  0.10345792181E+04  0.75423568207E+03 -0.20413579273E+03  0.12964947580E+04  0.12699999809E+01 0. -1.
       -4    1    3    3    0  502 -0.10345792181E+04 -0.75423568207E+03  0.15135125299E+04  0.19824094970E+04  0.12699999809E+01 0.  1.
</event>
<event>
 5   0  0.1091075E-06  0.2997823E+04  0.7818609E-02  0.8244353E-01
        1   -1    0    0  501    0  0.00000000000E+00  0.00000000000E+00  0.20526509597E+04  0.20526509597E+04  0.50400001928E-02 0. -1.
       -1   -1    0    0    0  501  0.00000000000E+00  0.00000000000E+00 -0.10945532451E+04  0.10945532451E+04  0.50400001928E-02 0.  1.
    10030    2    1    2    0    0  0.00000000000E+00  0.00000000000E+00  0.95809771459E+03  0.31472042049E+04  0.29978230562E+04 0.  0.
        1    1    3    3  502    0  0.50873701276E+01 -0.12790156796E+04  0.12995490222E+04  0.18233854916E+04  0.50400001928E-02 0. -1.
       -1    1    3    3    0  502 -0.50873701276E+01  0.12790156796E+04 -0.34145130756E+03  0.13238187133E+04  0.50400001928E-02 0.  1.
</event>
<event>
 5   0  0.2948711E-06  0.2956237E+04  0.7818609E-02  0.8256339E-01
        2   -1    0    0  501    0  0.00000000000E+00  0.00000000000E+00  0.19883860292E+04  0.19883860292E+04  0.25500000920E-02 0. -1.
       -2   -1    0    0    0  501  0.00000000000E+00  0.00000000000E+00 -0.10987975642E+04  0.10987975642E+04  0.25500000920E-02 0.  1.
    10030    2    1    2    0    0  0.00000000000E+00  0.00000000000E+00  0.88958846504E+03  0.30871835934E+04  0.29562366113E+04 0.  0.
        5    1    3    3  502    0 -0.92401359476E+03  0.94349467520E+03  0.11381529895E+04  0.17433868311E+04  0.46999998093E+01 0. -1.
       -5    1    3    3    0  502  0.92401359476E+03 -0.94349467520E+03 -0.24856452448E+03  0.13437967623E+04  0.46999998093E+01 0.  1.
</event>
<event>
 5   0  0.1091076E-06  0.2950148E+04  0.7818609E-02  0.8258111E-01
        1   -1    0    0  501    0  0.00000000000E+00  0.00000000000E+00  0.16471014080E+04  0.16471014080E+04  0.50400001928E-02 0. -1.
       -1   -1    0    0    0  501  0.00000000000E+00  0.00000000000E+00 -0.13210135103E+04  0.13210135103E+04  0.50400001928E-02 0.  1.
    10030    2    1    2    0    0  0.00000000000E+00  0.00000000000E+00  0.32608789773E+03  0.29681149184E+04  0.29501479372E+04 0.  0.
        3    1    3    3  502    0 -0.77733962366E+03  0.11069675118E+04  0.75502287223E+03  0.15490944163E+04  0.10100000352E+00 0. -1.
       -3    1    3    3    0  502  0.77733962366E+03 -0.11069675118E+04 -0.42893497450E+03  0.14190205021E+04  0.10100000352E+00 0.  1.
</event>
<event>
 5   0  0.2948711E-06  0.2982245E+04  0.7818609E-02  0.8248819E-01
        2   -1    0    0  501    0  0.00000000000E+00  0.00000000000E+00  0.21239294687E+04  0.21239294687E+04  0.25500000920E-02 0.  1.
       -2   -1    0    0    0  501  0.00000000000E+00  0.00000000000E+00 -0.10468553129E+04  0.10468553129E+04  0.25500000920E-02 0. -1.
    10030    2    1    2    0    0  0.00000000000E+00  0.00000000000E+00  0.10770741557E+04  0.31707847816E+04  0.29822453611E+04 0.  0.
        5    1    3    3  502    0  0.12684267220E+04 -0.55659380586E+03  0.11254519529E+04  0.17847597043E+04  0.46999998093E+01 0.  1.
       -5    1    3    3    0  502 -0.12684267220E+04  0.55659380586E+03 -0.48377797153E+02  0.13860250773E+04  0.46999998093E+01 0. -1.
</event>
<event>
 5   0  0.3113328E-06  0.3020245E+04  0.7818609E-02  0.8237973E-01
        2   -1    0    0  501    0  0.00000000000E+00  0.00000000000E+00  0.13536143326E+04  0.13536143326E+04  0.25500000920E-02 0. -1.
       -2   -1    0    0    0  501  0.00000000000E+00  0.00000000000E+00 -0.16847262696E+04  0.16847262696E+04  0.25500000920E-02 0.  1.
    10030    2    1    2    0    0  0.00000000000E+00  0.00000000000E+00 -0.33111193692E+03  0.30383406022E+04  0.30202447749E+04 0.  0.
        1    1    3    3  502    0 -0.68365018561E+03 -0.23506113848E+03  0.11682227333E+04  0.13738179173E+04  0.50400001928E-02 0. -1.
       -1    1    3    3    0  502  0.68365018561E+03  0.23506113848E+03 -0.14993346703E+04  0.16645226849E+04  0.50400001928E-02 0.  1.
</event>
<event>
 5   0  0.2970915E-06  0.2973865E+04  0.7818609E-02  0.8251234E-01
        2   -1    0    0  501    0  0.00000000000E+00  0.00000000000E+00  0.24552978985E+04  0.24552978985E+04  0.25500000920E-02 0. -1.
       -2   -1    0    0    0  501  0.00000000000E+00  0.00000000000E+00 -0.90048850934E+03  0.90048850934E+03  0.25500000920E-02 0.  1.
    10030    2    1    2    0    0  0.00000000000E+00  0.00000000000E+00  0.15548093892E+04  0.33557864078E+04  0.29738645192E+04 0.  0.
        4    1    3    3  502    0 -0.82475760888E+03  0.76889130257E+03 -0.31638136121E+03  0.11711181525E+04  0.12699999809E+01 0.  1.
       -4    1    3    3    0  502  0.82475760888E+03 -0.76889130257E+03  0.18711907504E+04  0.21846682553E+04  0.12699999809E+01 0. -1.
</event>
<event>
 5   0  0.2948711E-06  0.3027082E+04  0.7818609E-02  0.8236040E-01
        2   -1    0    0  501    0  0.00000000000E+00  0.00000000000E+00  0.15292767779E+04  0.15292767780E+04  0.25500000920E-02 0.  1.
       -2   -1    0    0    0  501  0.00000000000E+00  0.00000000000E+00 -0.14979669077E+04  0.14979669077E+04  0.25500000920E-02 0. -1.
    10030    2    1    2    0    0  0.00000000000E+00  0.00000000000E+00  0.31309870226E+02  0.30272436857E+04  0.30270817671E+04 0.  0.
        5    1    3    3  502    0  0.46232004245E+03 -0.13912620632E+04 -0.36044225559E+03  0.15097319828E+04  0.46999998093E+01 0. -1.
       -5    1    3    3    0  502 -0.46232004245E+03  0.13912620632E+04  0.39175212582E+03  0.15175117029E+04  0.46999998093E+01 0.  1.
</event>
<event>
 5   0  0.1097402E-06  0.2987191E+04  0.7818609E-02  0.8247398E-01
       -1   -1    0    0    0  501  0.00000000000E+00  0.00000000000E+00  0.12833721910E+04  0.12833721910E+04  0.50400001928E-02 0. -1.
        1   -1    0    0  501    0  0.00000000000E+00  0.00000000000E+00 -0.17382549262E+04  0.17382549262E+04  0.50400001928E-02 0.  1.
    10030    2    1    2    0    0  0.00000000000E+00  0.00000000000E+00 -0.45488273518E+03  0.30216271172E+04  0.29871913452E+04 0.  0.
        4    1    3    3  502    0 -0.76754837023E+03  0.57576077980E+03 -0.13852742237E+04  0.16851163948E+04  0.12699999809E+01 0.  1.
       -4    1    3    3    0  502  0.76754837023E+03 -0.57576077980E+03  0.93039148855E+03  0.13365107224E+04  0.12699999809E+01 0. -1.
</event>
<event>
 5   0  0.3113328E-06  0.2978842E+04  0.7818609E-02  0.8249799E-01
       -2   -1    0    0    0  501  0.00000000000E+00  0.00000000000E+00  0.12319644791E+04  0.12319644791E+04  0.25500000920E-02 0.  1.
        2   -1    0    0  501    0  0.00000000000E+00  0.00000000000E+00 -0.18006803706E+04  0.18006803706E+04  0.25500000920E-02 0. -1.
    10030    2    1    2    0    0  0.00000000000E+00  0.00000000000E+00 -0.56871589149E+03  0.30326448497E+04  0.29788415566E+04 0.  0.
        1    1    3    3  502    0 -0.12877878751E+04  0.74085714729E+03 -0.17706306469E+03  0.14962012742E+04  0.50400001928E-02 0. -1.
       -1    1    3    3    0  502  0.12877878751E+04 -0.74085714729E+03 -0.39165282681E+03  0.15364435755E+04  0.50400001928E-02 0.  1.
</event>
<event>
 5   0  0.1097402E-06  0.3017783E+04  0.7818609E-02  0.8238671E-01
        1   -1    0    0  501    0  0.00000000000E+00  0.00000000000E+00  0.23718074772E+04  0.23718074772E+04  0.50400001928E-02 0. -1.
       -1   -1    0    0    0  501  0.00000000000E+00  0.00000000000E+00 -0.95992341239E+03  0.95992341240E+03  0.50400001928E-02 0.  1.
    10030    2    1    2    0    0  0.00000000000E+00  0.00000000000E+00  0.14118840649E+04  0.33317308896E+04  0.30177829790E+04 0.  0.
        4    1    3    3  502    0  0.12136446488E+04  0.83923029496E+03  0.35767075563E+03  0.15182788953E+04  0.12699999809E+01 0.  1.
       -4    1    3    3    0  502 -0.12136446488E+04 -0.83923029496E+03  0.10542133092E+04  0.18134519943E+04  0.12699999809E+01 0. -1.
</event>
<event>
 5   0  0.1054384E-06  0.2986475E+04  0.7818609E-02  0.8247604E-01
        1   -1    0    0  501    0  0.00000000000E+00  0.00000000000E+00  0.22254113271E+04  0.22254113271E+04  0.50400001928E-02 0.  1.
       -1   -1    0    0    0  501  0.00000000000E+00  0.00000000000E+00 -0.10019532890E+04  0.10019532890E+04  0.50400001928E-02 0. -1.
    10030    2    1    2    0    0  0.00000000000E+00  0.00000000000E+00  0.12234580381E+04  0.32273646161E+04  0.29864749780E+04 0.  0.
        2    1    3    3  502    0 -0.10484002764E+04  0.26567918746E+03 -0.50089429234E+03  0.11918991829E+04  0.25500000920E-02 0. -1.
       -2    1    3    3    0  502  0.10484002764E+04 -0.26567918746E+03  0.17243523304E+04  0.20354654331E+04  0.25500000920E-02 0.  1.
</event>
<event>
 5   0  0.1054384E-06  0.3007515E+04  0.7818609E-02  0.8241588E-01
        1   -1    0    0  501    0  0.00000000000E+00  0.00000000000E+00  0.15287086930E+04  0.15287086930E+04  0.50400001928E-02 0.  1.
       -1   -1    0    0    0  501  0.00000000000E+00  0.00000000000E+00 -0.14792133071E+04  0.14792133071E+04  0.50400001928E-02 0. -1.
    10030    2    1    2    0    0  0.00000000000E+00  0.00000000000E+00  0.49495385897E+02  0.30079220001E+04  0.30075147490E+04 0.  0.
        2    1    3    3  502    0 -0.80459940532E+03 -0.97254971452E+02  0.12915870903E+04  0.15248068547E+04  0.25500000920E-02 0.  1.
       -2    1    3    3    0  502  0.80459940532E+03  0.97254971452E+02 -0.12420917044E+04  0.14831151454E+04  0.25500000920E-02 0. -1.
</event>
<event>
 5   0  0.1091075E-06  0.2979037E+04  0.7818609E-02  0.8249742E-01
       -1   -1    0    0    0  501  0.00000000000E+00  0.00000000000E+00  0.13395132928E+04  0.13395132928E+04  0.50400001928E-02 0. -1.
        1   -1    0    0  501    0  0.00000000000E+00  0.00000000000E+00 -0.16563224865E+04  0.16563224865E+04  0.50400001928E-02 0.  1.
    10030    2    1    2    0    0  0.00000000000E+00  0.00000000000E+00 -0.31680919367E+03  0.29958357794E+04  0.29790374203E+04 0.  0.
        1    1    3    3  502    0  0.34972525363E+03  0.27045075055E+03  0.12720135883E+04  0.13466513767E+04  0.50400001928E-02 0. -1.
       -1    1    3    3    0  502 -0.34972525363E+03 -0.27045075055E+03 -0.15888227820E+04  0.16491844027E+04  0.50400001928E-02 0.  1.
</event>
<event>
 5   0  0.1097402E-06  0.3009119E+04  0.7818609E-02  0.8241132E-01
       -1   -1    0    0    0  501  0.00000000000E+00  0.00000000000E+00  0.14250089287E+04  0.14250089287E+04  0.50400001928E-02 0. -1.
        1   -1    0    0  501    0  0.00000000000E+00  0.00000000000E+00 -0.15885514483E+04  0.15885514483E+04  0.50400001928E-02 0.  1.
    10030    2    1    2    0    0  0.00000000000E+00  0.00000000000E+00 -0.16354251962E+03  0.30135603769E+04  0.30091194708E+04 0.  0.
        4    1    3    3  502    0 -0.40902587938E+03 -0.11565610706E+04  0.79058414090E+03  0.14594384457E+04  0.12699999809E+01 0. -1.
       -4    1    3    3    0  502  0.40902587938E+03  0.11565610706E+04 -0.95412666053E+03  0.15541219313E+04  0.12699999809E+01 0.  1.
</event>
<event>
 5   0  0.2970915E-06  0.3004683E+04  0.7818609E-02  0.8242395E-01
        2   -1    0    0  501    0  0.00000000000E+00  0.00000000000E+00  0.15246182785E+04  0.15246182785E+04  0.25500000920E-02 0. -1.
       -2   -1    0    0    0  501  0.00000000000E+00  0.00000000000E+00 -0.14803902315E+04  0.14803902315E+04  0.25500000920E-02 0.  1.
    10030    2    1    2    0    0  0.00000000000E+00  0.00000000000E+00  0.44228046994E+02  0.30050085099E+04  0.30046830156E+04 0.  0.
        4    1    3    3  502    0  0.36897845684E+03  0.15571270153E+03 -0.14260196457E+04  0.14811904637E+04  0.12699999809E+01 0.  1.
       -4    1    3    3    0  502 -0.36897845684E+03 -0.15571270153E+03  0.14702476927E+04  0.15238180462E+04  0.12699999809E+01 0. -1.
</event>
<event>
 5   0  0.2862033E-06  0.2994343E+04  0.7818609E-02  0.8245348E-01
        2   -1    0    0  501    0  0.00000000000E+00  0.00000000000E+00  0.16695818920E+04  0.16695818920E+04  0.25500000920E-02 0.  1.
       -2   -1    0    0    0  501  0.00000000000E+00  0.00000000000E+00 -0.13425654020E+04  0.13425654020E+04  0.25500000920E-02 0. -1.
    10030    2    1    2    0    0  0.00000000000E+00  0.00000000000E+00  0.32701648998E+03  0.30121472939E+04  0.29943432561E+04 0.  0.
        2    1    3    3  502    0 -0.14051770857E+04 -0.71462035633E+02 -0.35128982946E+03  0.14501841293E+04  0.25500000920E-02 0. -1.
       -2    1    3    3    0  502  0.14051770857E+04  0.71462035633E+02  0.67830631944E+03  0.15619631646E+04  0.25500000920E-02 0.  1.
</event>
<event>
 5   0  0.1113245E-06  0.2986312E+04  0.7818609E-02  0.8247650E-01
        1   -1    0    0  501    0  0.00000000000E+00  0.00000000000E+00  0.27708620037E+04  0.27708620038E+04  0.50400001928E-02 0. -1.
       -1   -1    0    0    0  501  0.00000000000E+00  0.00000000000E+00 -0.80462857527E+03  0.80462857528E+03  0.50400001928E-02 0.  1.
    10030    2    1    2    0    0  0.00000000000E+00  0.00000000000E+00  0.19662334285E+04  0.35754905790E+04  0.29863119371E+04 0.  0.
        5    1    3    3  502    0 -0.13724637198E+04 -0.51205886482E+03  0.13293636707E+04  0.19781533818E+04  0.46999998093E+01 0.  1.
       -5    1    3    3    0  502  0.13724637198E+04  0.51205886482E+03  0.63686975781E+03  0.15973371972E+04  0.46999998093E+01 0. -1.
</event>
<event>
 5   0  0.2862033E-06  0.3074914E+04  0.7818609E-02  0.8222656E-01
        2   -1    0    0  501    0  0.00000000000E+00  0.00000000000E+00  0.25321218925E+04  0.25321218925E+04  0.25500000920E-02 0.  1.
       -2   -1    0    0    0  501  0.00000000000E+00  0.00000000000E+00 -0.93351521991E+03  0.93351521991E+03  0.25500000920E-02 0. -1.
    10030    2    1    2    0    0  0.00000000000E+00  0.00000000000E+00  0.15986066726E+04  0.34656371125E+04  0.30749141942E+04 0.  0.
        2    1    3    3  502    0 -0.36670697597E+03 -0.40761616372E+03  0.24181861835E+04  0.24795663656E+04  0.25500000920E-02 0.  1.
       -2    1    3    3    0  502  0.36670697597E+03  0.40761616372E+03 -0.81957951089E+03  0.98607074687E+03  0.25500000920E-02 0. -1.
</event>
<event>
 5   0  0.1113245E-06  0.3014370E+04  0.7818609E-02  0.8239639E-01
       -1   -1    0    0    0  501  0.00000000000E+00  0.00000000000E+00  0.12086830696E+04  0.12086830696E+04  0.50400001928E-02 0. -1.
        1   -1    0    0  501    0  0.00000000000E+00  0.00000000000E+00 -0.18794066410E+04  0.18794066410E+04  0.50400001928E-02 0.  1.
    10030    2    1    2    0    0  0.00000000000E+00  0.00000000000E+00 -0.67072357135E+03  0.30880897106E+04  0.30143702413E+04 0.  0.
        5    1    3    3  502    0 -0.11817905231E+04 -0.80776504180E+03 -0.81856598083E+03  0.16489953179E+04  0.46999998093E+01 0. -1.
       -5    1    3    3    0  502  0.11817905231E+04  0.80776504180E+03  0.14784240948E+03  0.14390943928E+04  0.46999998093E+01 0.  1.
</event>
<event>
 5   0  0.3113328E-06  0.3000409E+04  0.7818609E-02  0.8243614E-01
       -2   -1    0    0    0  501  0.00000000000E+00  0.00000000000E+00  0.14190554755E+04  0.14190554755E+04  0.25500000920E-02 0.  1.
        2   -1    0    0  501    0  0.00000000000E+00  0.00000000000E+00 -0.15859943554E+04  0.15859943554E+04  0.25500000920E-02 0. -1.
    10030    2    1    2    0    0  0.00000000000E+00  0.00000000000E+00 -0.16693887997E+03  0.30050498309E+04  0.30004092882E+04 0.  0.
        1    1    3    3  502    0  0.71494322913E+02 -0.32059203642E+03 -0.15495377999E+04  0.15839690923E+04  0.50400001928E-02 0. -1.
       -1    1    3    3    0  502 -0.71494322913E+02  0.32059203642E+03  0.13825989200E+04  0.14210807386E+04  0.50400001928E-02 0.  1.
</event>
<event>
 5   0  0.2970915E-06  0.3006659E+04  0.7818609E-02  0.8241832E-01
       -2   -1    0    0    0  501  0.00000000000E+00  0.00000000000E+00  0.98047451796E+03  0.98047451796E+03  0.25500000920E-02 0.  1.
        2   -1    0    0  501    0  0.00000000000E+00  0.00000000000E+00 -0.23050061678E+04  0.23050061678E+04  0.25500000920E-02 0. -1.
    10030    2    1    2    0    0  0.00000000000E+00  0.00000000000E+00 -0.13245316499E+04  0.32854806858E+04  0.30066591502E+04 0.  0.
        4    1    3    3  502    0  0.31838538238E+02  0.13254716272E+04  0.11204249934E+03  0.13305802725E+04  0.12699999809E+01 0.  1.
       -4    1    3    3    0  502 -0.31838538238E+02 -0.13254716272E+04 -0.14365741492E+04  0.19549004133E+04  0.12699999809E+01 0. -1.
</event>
<event>
 5   0  0.1113245E-06  0.3004400E+04  0.7818609E-02  0.8242475E-01
        1   -1    0    0  501    0  0.00000000000E+00  0.00000000000E+00  0.19982089294E+04  0.19982089294E+04  0.50400001928E-02 0. -1.
       -1   -1    0    0    0  501  0.00000000000E+00  0.00000000000E+00 -0.11293139361E+04  0.11293139361E+04  0.50400001928E-02 0.  1.
    10030    2    1    2    0    0  0.00000000000E+00  0.00000000000E+00  0.86889499331E+03  0.31275228655E+04  0.30044002338E+04 0.  0.
        5    1    3    3  502    0  0.43598833024E+03  0.54606316984E+03 -0.94982690950E+03  0.11791794001E+04  0.46999998093E+01 0.  1.
       -5    1    3    3    0  502 -0.43598833024E+03 -0.54606316984E+03  0.18187219028E+04  0.19483434654E+04  0.46999998093E+01 0. -1.
</event>
<event>
 5   0  0.2970915E-06  0.3003097E+04  0.7818609E-02  0.8242847E-01
       -2   -1    0    0    0  501  0.00000000000E+00  0.00000000000E+00  0.14747630758E+04  0.14747630758E+04  0.25500000920E-02 0. -1.
        2   -1    0    0  501    0  0.00000000000E+00  0.00000000000E+00 -0.15288209122E+04  0.15288209122E+04  0.25500000920E-02 0.  1.
    10030    2    1    2    0    0  0.00000000000E+00  0.00000000000E+00 -0.54057836414E+02  0.30035839880E+04  0.30030974881E+04 0.  0.
        4    1    3    3  502    0  0.12962655404E+04  0.67641168822E+03  0.31480107480E+03  0.14956398138E+04  0.12699999809E+01 0. -1.
       -4    1    3    3    0  502 -0.12962655404E+04 -0.67641168822E+03 -0.36885891121E+03  0.15079441741E+04  0.12699999809E+01 0.  1.
</event>
<event>
 5   0  0.2948711E-06  0.2995611E+04  0.7818609E-02  0.8244985E-01
       -2   -1    0    0    0  501  0.00000000000E+00  0.00000000000E+00  0.10092813084E+04  0.10092813084E+04  0.25500000920E-02 0. -1.
        2   -1    0    0  501    0  0.00000000000E+00  0.00000000000E+00 -0.22227903499E+04  0.22227903499E+04  0.25500000920E-02 0.  1.
    10030    2    1    2    0    0  0.00000000000E+00  0.00000000000E+00 -0.12135090415E+04  0.32320716583E+04  0.29956106240E+04 0.  0.
        5    1    3    3  502    0  0.90264625553E+03 -0.80477790403E+03  0.34672258875E+03  0.12580446657E+04  0.46999998093E+01 0. -1.
       -5    1    3    3    0  502 -0.90264625553E+03  0.80477790403E+03 -0.15602316303E+04  0.19740269926E+04  0.46999998093E+01 0.  1.
</event>
<event>
 5   0  0.3113328E-06  0.2998949E+04  0.7818609E-02  0.8244031E-01
        2   -1    0    0  501    0  0.00000000000E+00  0.00000000000E+00  0.11016222043E+04  0.11016222043E+04  0.25500000920E-02 0.  1.
       -2   -1    0    0    0  501  0.00000000000E+00  0.00000000000E+00 -0.20410116877E+04  0.20410116877E+04  0.25500000920E-02 0. -1.
    10030    2    1    2    0    0  0.00000000000E+00  0.00000000000E+00 -0.93938948334E+03  0.31426338920E+04  0.29989490122E+04 0.  0.
        1    1    3    3  502    0 -0.14392473304E+04  0.29785101255E+03 -0.78104216053E+03  0.16643842586E+04  0.50400001928E-02 0. -1.
       -1    1    3    3    0  502  0.14392473304E+04 -0.29785101255E+03 -0.15834732281E+03  0.14782496334E+04  0.50400001928E-02 0.  1.
</event>
<event>
 5   0  0.1097402E-06  0.3029948E+04  0.7818609E-02  0.8235230E-01
        1   -1    0    0  501    0  0.00000000000E+00  0.00000000000E+00  0.17413984071E+04  0.17413984071E+04  0.50400001928E-02 0. -1.
       -1   -1    0    0    0  501  0.00000000000E+00  0.00000000000E+00 -0.13179901149E+04  0.13179901149E+04  0.50400001928E-02 0.  1.
    10030    2    1    2    0    0  0.00000000000E+00  0.00000000000E+00  0.42340829226E+03  0.30593885220E+04  0.30299477796E+04 0.  0.
        4    1    3    3  502    0 -0.36661369105E+03  0.13569362374E+04  0.78240639516E+03  0.16086773856E+04  0.12699999809E+01 0. -1.
       -4    1    3    3    0  502  0.36661369105E+03 -0.13569362374E+04 -0.35899810290E+03  0.14507111365E+04  0.12699999809E+01 0.  1.
</event>
<event>
 5   0  0.3113328E-06  0.3051655E+04  0.7818609E-02  0.8229132E-01
       -2   -1    0    0    0  501  0.00000000000E+00  0.00000000000E+00  0.25586823232E+04  0.25586823232E+04  0.25500000920E-02 0.  1.
        2   -1    0    0  501    0  0.00000000000E+00  0.00000000000E+00 -0.90990157014E+03  0.90990157015E+03  0.25500000920E-02 0. -1.
    10030    2    1    2    0    0  0.00000000000E+00  0.00000000000E+00  0.16487807531E+04  0.34685838934E+04  0.30516546747E+04 0.  0.
        1    1    3    3  502    0 -0.11157408377E+04  0.87277836954E+03  0.14688966317E+04  0.20406560253E+04  0.50400001928E-02 0. -1.
       -1    1    3    3    0  502  0.11157408377E+04 -0.87277836954E+03  0.17988412141E+03  0.14279278680E+04  0.50400001928E-02 0.  1.
</event>
<event>
 5   0  0.1054384E-06  0.2963456E+04  0.7818609E-02  0.8254244E-01
       -1   -1    0    0    0  501  0.00000000000E+00  0.00000000000E+00  0.10354108334E+04  0.10354108334E+04  0.50400001928E-02 0. -1.
        1   -1    0    0  501    0  0.00000000000E+00  0.00000000000E+00 -0.21204313063E+04  0.21204313063E+04  0.50400001928E-02 0.  1.
    10030    2    1    2    0    0  0.00000000000E+00  0.00000000000E+00 -0.10850204729E+04  0.31558421397E+04  0.29634557841E+04 0.  0.
        2    1    3    3  502    0 -0.54719502028E+03  0.53237468955E+03  0.80984220231E+03  0.11129643269E+04  0.25500000920E-02 0. -1.
       -2    1    3    3    0  502  0.54719502028E+03 -0.53237468955E+03 -0.18948626752E+04  0.20428778128E+04  0.25500000920E-02 0.  1.
</event>
<event>
 5   0  0.2985941E-06  0.3004146E+04  0.7818609E-02  0.8242548E-01
       -2   -1    0    0    0  501  0.00000000000E+00  0.00000000000E+00  0.12990825467E+04  0.12990825467E+04  0.25500000920E-02 0. -1.
        2   -1    0    0  501    0  0.00000000000E+00  0.00000000000E+00 -0.17367823483E+04  0.17367823483E+04  0.25500000920E-02 0.  1.
    10030    2    1    2    0    0  0.00000000000E+00  0.00000000000E+00 -0.43769980152E+03  0.30358648950E+04  0.30041462255E+04 0.  0.
        3    1    3    3  502    0 -0.79154377877E+02 -0.66776474047E+03  0.11384801746E+04  0.13222376043E+04  0.10100000352E+00 0. -1.
       -3    1    3    3    0  502  0.79154377877E+02  0.66776474047E+03 -0.15761799761E+04  0.17136272907E+04  0.10100000352E+00 0.  1.
</event>
<event>
 5   0  0.1097402E-06  0.3085672E+04  0.7818609E-02  0.8219681E-01
       -1   -1    0    0    0  501  0.00000000000E+00  0.00000000000E+00  0.12651805186E+04  0.12651805186E+04  0.50400001928E-02 0.  1.
        1   -1    0    0  501    0  0.00000000000E+00  0.00000000000E+00 -0.18814255155E+04  0.18814255155E+04  0.50400001928E-02 0. -1.
    10030    2    1    2    0    0  0.00000000000E+00  0.00000000000E+00 -0.61624499684E+03  0.31466060341E+04  0.30856719913E+04 0.  0.
        4    1    3    3  502    0  0.53766495365E+03 -0.64106109724E+03 -0.16299835762E+04  0.18321820337E+04  0.12699999809E+01 0. -1.
       -4    1    3    3    0  502 -0.53766495365E+03  0.64106109724E+03  0.10137385794E+04  0.13144240005E+04  0.12699999809E+01 0.  1.
</event>
<event>
 5   0  0.1091075E-06  0.3027228E+04  0.7818609E-02  0.8235998E-01
        1   -1    0    0  501    0  0.00000000000E+00  0.00000000000E+00  0.18629992903E+04  0.18629992903E+04  0.50400001928E-02 0.  1.
       -1   -1    0    0    0  501  0.00000000000E+00  0.00000000000E+00 -0.12297524441E+04  0.12297524442E+04  0.50400001928E-02 0. -1.
    10030    2    1    2    0    0  0.00000000000E+00  0.00000000000E+00  0.63324684619E+03  0.30927517345E+04  0.30272283896E+04 0.  0.
        1    1    3    3  502    0 -0.14551348004E+04 -0.35204115176E+03  0.88914271677E+02  0.14997519820E+04  0.50400001928E-02 0. -1.
       -1    1    3    3    0  502  0.14551348004E+04  0.35204115176E+03  0.54433257451E+03  0.15929997525E+04  0.50400001928E-02 0.  1.
</event>
<event>
 5   0  0.3113328E-06  0.2998094E+04  0.7818609E-02  0.8244275E-01
        2   -1    0    0  501    0  0.00000000000E+00  0.00000000000E+00  0.32407358157E+04  0.32407358157E+04  0.25500000920E-02 0.  1.
       -2   -1    0    0    0  501  0.00000000000E+00  0.00000000000E+00 -0.69340502024E+03  0.69340502025E+03  0.25500000920E-02 0. -1.
    10030    2    1    2    0    0  0.00000000000E+00  0.00000000000E+00  0.25473307954E+04  0.39341408359E+04  0.29980943840E+04 0.  0.
        1    1    3    3  502    0  0.11261525614E+03  0.10536187250E+04  0.26650748612E+04  0.28679990637E+04  0.50400001928E-02 0.  1.
       -1    1    3    3    0  502 -0.11261525614E+03 -0.10536187250E+04 -0.11774406575E+03  0.10661417722E+04  0.50400001928E-02 0. -1.
</event>
<event>
 5   0  0.2970915E-06  0.2977828E+04  0.7818609E-02  0.8250091E-01
       -2   -1    0    0    0  501  0.00000000000E+00  0.00000000000E+00  0.10470083117E+04  0.10470083117E+04  0.25500000920E-02 0. -1.
        2   -1    0    0  501    0  0.00000000000E+00  0.00000000000E+00 -0.21173330298E+04  0.21173330298E+04  0.25500000920E-02 0.  1.
    10030    2    1    2    0    0  0.00000000000E+00  0.00000000000E+00 -0.10703247181E+04  0.31643413415E+04  0.29778282561E+04 0.  0.
        4    1    3    3  502    0  0.80045729792E+03 -0.43285867411E+03 -0.17874326677E+04  0.20057456649E+04  0.12699999809E+01 0.  1.
       -4    1    3    3    0  502 -0.80045729792E+03  0.43285867411E+03  0.71710794962E+03  0.11585956766E+04  0.12699999809E+01 0. -1.
</event>
<event>
 5   0  0.1113245E-06  0.2998140E+04  0.7818609E-02  0.8244262E-01
        1   -1    0    0  501    0  0.00000000000E+00  0.00000000000E+00  0.94868601715E+03  0.94868601716E+03  0.50400001928E-02 0.  1.
       -1   -1    0    0    0  501  0.00000000000E+00  0.00000000000E+00 -0.23687621422E+04  0.23687621422E+04  0.50400001928E-02 0. -1.
    10030    2    1    2    0    0  0.00000000000E+00  0.00000000000E+00 -0.14200761250E+04  0.33174481593E+04  0.29981404385E+04 0.  0.
        5    1    3    3  502    0 -0.11098562659E+04  0.88152616076E+03 -0.16986548161E+03  0.14274962959E+04  0.46999998093E+01 0.  1.
       -5    1    3    3    0  502  0.11098562659E+04 -0.88152616076E+03 -0.12502106434E+04  0.18899518634E+04  0.46999998093E+01 0. -1.
</event>
<event>
 5   0  0.3113328E-06  0.2979394E+04  0.7818609E-02  0.8249640E-01
       -2   -1    0    0    0  501  0.00000000000E+00  0.00000000000E+00  0.17347658627E+04  0.17347658627E+04  0.25500000920E-02 0.  1.
        2   -1    0    0  501    0  0.00000000000E+00  0.00000000000E+00 -0.12792483905E+04  0.12792483905E+04  0.25500000920E-02 0. -1.
    10030    2    1    2    0    0  0.00000000000E+00  0.00000000000E+00  0.45551747215E+03  0.30140142532E+04  0.29793935207E+04 0.  0.
        1    1    3    3  502    0 -0.11645759178E+04  0.92148612530E+03  0.34669484369E+03  0.15249823153E+04  0.50400001928E-02 0.  1.
       -1    1    3    3    0  502  0.11645759178E+04 -0.92148612530E+03  0.10882262846E+03  0.14890319378E+04  0.50400001928E-02 0. -1.
</event>
<event>
 5   0  0.2985941E-06  0.2819797E+04  0.7818609E-02  0.8297148E-01
        2   -1    0    0  501    0  0.00000000000E+00  0.00000000000E+00  0.13566040922E+04  0.13566040922E+04  0.25500000920E-02 0. -1.
       -2   -1    0    0    0  501  0.00000000000E+00  0.00000000000E+00 -0.14652864725E+04  0.14652864725E+04  0.25500000920E-02 0.  1.
    10030    2    1    2    0    0  0.00000000000E+00  0.00000000000E+00 -0.10868238034E+03  0.28218905647E+04  0.28197968897E+04 0.  0.
        3    1    3    3  502    0 -0.71293935131E+03 -0.27708201414E+01  0.11629185607E+04  0.13640637027E+04  0.10100000352E+00 0. -1.
       -3    1    3    3    0  502  0.71293935131E+03  0.27708201414E+01 -0.12716009410E+04  0.14578268620E+04  0.10100000352E+00 0.  1.
</event>
<event>
 5   0  0.1091075E-06  0.2792379E+04  0.7818609E-02  0.8305638E-01
        1   -1    0    0  501    0  0.00000000000E+00  0.00000000000E+00  0.86823383983E+03  0.86823383984E+03  0.50400001928E-02 0.  1.
       -1   -1    0    0    0  501  0.00000000000E+00  0.00000000000E+00 -0.22451842770E+04  0.22451842770E+04  0.50400001928E-02 0. -1.
    10030    2    1    2    0    0  0.00000000000E+00  0.00000000000E+00 -0.13769504372E+04  0.31134181169E+04  0.27923788898E+04 0.  0.
        1    1    3    3  502    0  0.74339565587E+03 -0.72178731453E+02  0.62676296978E+03  0.97502753333E+03  0.50400001928E-02 0.  1.
       -1    1    3    3    0  502 -0.74339565587E+03  0.72178731453E+02 -0.20037134070E+04  0.21383905835E+04  0.50400001928E-02 0. -1.
</event>
<event>
 5   0  0.1091075E-06  0.2998377E+04  0.7818609E-02  0.8244194E-01
        1   -1    0    0  501    0  0.00000000000E+00  0.00000000000E+00  0.19555679563E+04  0.19555679563E+04  0.50400001928E-02 0. -1.
       -1   -1    0    0    0  501  0.00000000000E+00  0.00000000000E+00 -0.11493165406E+04  0.11493165406E+04  0.50400001928E-02 0.  1.
    10030    2    1    2    0    0  0.00000000000E+00  0.00000000000E+00  0.80625141564E+03  0.31048844969E+04  0.29983772935E+04 0.  0.
        1    1    3    3  502    0 -0.15612886768E+03  0.42536134079E+03  0.18829647557E+04  0.19367149415E+04  0.50400001928E-02 0. -1.
       -1    1    3    3    0  502  0.15612886768E+03 -0.42536134079E+03 -0.10767133400E+04  0.11681695554E+04  0.50400001928E-02 0.  1.
</event>
<event>
 5   0  0.1091076E-06  0.3021559E+04  0.7818609E-02  0.8237601E-01
       -1   -1    0    0    0  501  0.00000000000E+00  0.00000000000E+00  0.83076705905E+03  0.83076705906E+03  0.50400001928E-02 0. -1.
        1   -1    0    0  501    0  0.00000000000E+00  0.00000000000E+00 -0.27474057510E+04  0.27474057510E+04  0.50400001928E-02 0.  1.
    10030    2    1    2    0    0  0.00000000000E+00  0.00000000000E+00 -0.19166386919E+04  0.35781728100E+04  0.30215586678E+04 0.  0.
        3    1    3    3  502    0 -0.10868859084E+04  0.67310970762E+02  0.28177544796E+03  0.11248329467E+04  0.10100000352E+00 0. -1.
       -3    1    3    3    0  502  0.10868859084E+04 -0.67310970762E+02 -0.21984141399E+04  0.24533398634E+04  0.10100000352E+00 0.  1.
</event>
<event>
 5   0  0.1113245E-06  0.2969715E+04  0.7818609E-02  0.8252432E-01
       -1   -1    0    0    0  501  0.00000000000E+00  0.00000000000E+00  0.13942451543E+04  0.13942451543E+04  0.50400001928E-02 0. -1.
        1   -1    0    0  501    0  0.00000000000E+00  0.00000000000E+00 -0.15813583281E+04  0.15813583281E+04  0.50400001928E-02 0.  1.
    10030    2    1    2    0    0  0.00000000000E+00  0.00000000000E+00 -0.18711317379E+03  0.29756034824E+04  0.29697145898E+04 0.  0.
        5    1    3    3  502    0  0.12313616420E+04  0.66920325870E+03  0.39802263797E+03  0.14568900457E+04  0.46999998093E+01 0. -1.
       -5    1    3    3    0  502 -0.12313616420E+04 -0.66920325870E+03 -0.58513581177E+03  0.15187134368E+04  0.46999998093E+01 0.  1.
</event>
<event>
 5   0  0.1113245E-06  0.3105258E+04  0.7818609E-02  0.8214296E-01
       -1   -1    0    0    0  501  0.00000000000E+00  0.00000000000E+00  0.12137294416E+04  0.12137294416E+04  0.50400001928E-02 0. -1.
        1   -1    0    0  501    0  0.00000000000E+00  0.00000000000E+00 -0.19861567297E+04  0.19861567297E+04  0.50400001928E-02 0.  1.
    10030    2    1    2    0    0  0.00000000000E+00  0.00000000000E+00 -0.77242728806E+03  0.31998861713E+04  0.31052580559E+04 0.  0.
        5    1    3    3  502    0  0.62490611371E+02  0.20795853877E+03  0.11979975286E+04  0.12175270013E+04  0.46999998093E+01 0. -1.
       -5    1    3    3    0  502 -0.62490611371E+02 -0.20795853877E+03 -0.19704248167E+04  0.19823591699E+04  0.46999998093E+01 0.  1.
</event>
<event>
 5   0  0.2970915E-06  0.3011727E+04  0.7818609E-02  0.8240390E-01
       -2   -1    0    0    0  501  0.00000000000E+00  0.00000000000E+00  0.19824162019E+04  0.19824162019E+04  0.25500000920E-02 0. -1.
        2   -1    0    0  501    0  0.00000000000E+00  0.00000000000E+00 -0.11438692128E+04  0.11438692128E+04  0.25500000920E-02 0.  1.
    10030    2    1    2    0    0  0.00000000000E+00  0.00000000000E+00  0.83854698906E+03  0.31262854147E+04  0.30117269865E+04 0.  0.
        4    1    3    3  502    0 -0.76953254813E+03  0.12507825405E+04  0.73455961205E+02  0.14703859008E+04  0.12699999809E+01 0.  1.
       -4    1    3    3    0  502  0.76953254813E+03 -0.12507825405E+04  0.76509102786E+03  0.16558995139E+04  0.12699999809E+01 0. -1.
</event>
<event>
 5   0  0.3113328E-06  0.3022872E+04  0.7818609E-02  0.8237230E-01
       -2   -1    0    0    0  501  0.00000000000E+00  0.00000000000E+00  0.23441521444E+04  0.23441521444E+04  0.25500000920E-02 0.  1.
        2   -1    0    0  501    0  0.00000000000E+00  0.00000000000E+00 -0.97452678510E+03  0.97452678510E+03  0.25500000920E-02 0. -1.
    10030    2    1    2    0    0  0.00000000000E+00  0.00000000000E+00  0.13696253593E+04  0.33186789295E+04  0.30228721793E+04 0.  0.
        1    1    3    3  502    0 -0.28690393345E+03  0.14130540434E+04  0.18724824720E+03  0.14539936392E+04  0.50400001928E-02 0. -1.
       -1    1    3    3    0  502  0.28690393345E+03 -0.14130540434E+04  0.11823771121E+04  0.18646852903E+04  0.50400001928E-02 0.  1.
</event>
<event>
 5   0  0.1054384E-06  0.3155140E+04  0.7818609E-02  0.8200766E-01
        1   -1    0    0  501    0  0.00000000000E+00  0.00000000000E+00  0.21467410074E+04  0.21467410074E+04  0.50400001928E-02 0.  1.
       -1   -1    0    0    0  501  0.00000000000E+00  0.00000000000E+00 -0.11593045964E+04  0.11593045964E+04  0.50400001928E-02 0. -1.
    10030    2    1    2    0    0  0.00000000000E+00  0.00000000000E+00  0.98743641093E+03  0.33060456038E+04  0.31551397543E+04 0.  0.
        2    1    3    3  502    0 -0.10725652343E+04  0.10783569544E+04  0.54783308725E+02  0.15219234914E+04  0.25500000920E-02 0. -1.
       -2    1    3    3    0  502  0.10725652343E+04 -0.10783569544E+04  0.93265310221E+03  0.17841221124E+04  0.25500000920E-02 0.  1.
</event>
<event>
 5   0  0.2948711E-06  0.3053238E+04  0.7818609E-02  0.8228690E-01
        2   -1    0    0  501    0  0.00000000000E+00  0.00000000000E+00  0.18697052167E+04  0.18697052167E+04  0.25500000920E-02 0.  1.
       -2   -1    0    0    0  501  0.00000000000E+00  0.00000000000E+00 -0.12464879223E+04  0.12464879223E+04  0.25500000920E-02 0. -1.
    10030    2    1    2    0    0  0.00000000000E+00  0.00000000000E+00  0.62321729445E+03  0.31161931390E+04  0.30532376067E+04 0.  0.
        5    1    3    3  502    0 -0.82573098817E+03  0.37635361616E+03  0.15645488862E+04  0.18086760397E+04  0.46999998093E+01 0.  1.
       -5    1    3    3    0  502  0.82573098817E+03 -0.37635361616E+03 -0.94133159177E+03  0.13075170993E+04  0.46999998093E+01 0. -1.
</event>
<event>
 5   0  0.1054384E-06  0.3001831E+04  0.7818609E-02  0.8243208E-01
       -1   -1    0    0    0  501  0.00000000000E+00  0.00000000000E+00  0.17155785923E+04  0.17155785923E+04  0.50400001928E-02 0.  1.
        1   -1    0    0  501    0  0.00000000000E+00  0.00000000000E+00 -0.13131124568E+04  0.13131124568E+04  0.50400001928E-02 0. -1.
    10030    2    1    2    0    0  0.00000000000E+00  0.00000000000E+00  0.40246613558E+03  0.30286910491E+04  0.30018311879E+04 0.  0.
        2    1    3    3  502    0 -0.42365023962E+03 -0.14247127673E+04 -0.91068457192E+01  0.14863946076E+04  0.25500000920E-02 0.  1.
       -2    1    3    3    0  502  0.42365023962E+03  0.14247127673E+04  0.41157298130E+03  0.15422964416E+04  0.25500000920E-02 0. -1.
</event>
<event>
 5   0  0.2862033E-06  0.2992406E+04  0.7818609E-02  0.8245903E-01
       -2   -1    0    0    0  501  0.00000000000E+00  0.00000000000E+00  0.14003907905E+04  0.14003907905E+04  0.25500000920E-02 0.  1.
        2   -1    0    0  501    0  0.00000000000E+00  0.00000000000E+00 -0.15985704742E+04  0.15985704742E+04  0.25500000920E-02 0. -1.
    10030    2    1    2    0    0  0.00000000000E+00  0.00000000000E+00 -0.19817968369E+03  0.29989612647E+04  0.29924059685E+04 0.  0.
        2    1    3    3  502    0 -0.71321272000E+03  0.35746917350E+03  0.11694502714E+04  0.14156519810E+04  0.25500000920E-02 0. -1.
       -2    1    3    3    0  502  0.71321272000E+03 -0.35746917350E+03 -0.13676299551E+04  0.15833092837E+04  0.25500000920E-02 0.  1.
</event>
<event>
 5   0  0.2985941E-06  0.3028643E+04  0.7818609E-02  0.8235599E-01
        2   -1    0    0  501    0  0.00000000000E+00  0.00000000000E+00  0.15477890903E+04  0.15477890903E+04  0.25500000920E-02 0. -1.
       -2   -1    0    0    0  501  0.00000000000E+00  0.00000000000E+00 -0.14815771214E+04  0.14815771214E+04  0.25500000920E-02 0.  1.
    10030    2    1    2    0    0  0.00000000000E+00  0.00000000000E+00  0.66211968838E+02  0.30293662117E+04  0.30286425375E+04 0.  0.
        3    1    3    3  502    0 -0.50056029557E+03 -0.90268460788E+03  0.11414180292E+04  0.15389071572E+04  0.10100000352E+00 0. -1.
       -3    1    3    3    0  502  0.50056029557E+03  0.90268460788E+03 -0.10752060604E+04  0.14904590545E+04  0.10100000352E+00 0.  1.
</event>
<event>
 5   0  0.3113328E-06  0.2988566E+04  0.7818609E-02  0.8247003E-01
        2   -1    0    0  501    0  0.00000000000E+00  0.00000000000E+00  0.26467400399E+04  0.26467400399E+04  0.25500000920E-02 0. -1.
       -2   -1    0    0    0  501  0.00000000000E+00  0.00000000000E+00 -0.84363489968E+03  0.84363489969E+03  0.25500000920E-02 0.  1.
    10030    2    1    2    0    0  0.00000000000E+00  0.00000000000E+00  0.18031051403E+04  0.34903749396E+04  0.29885663908E+04 0.  0.
        1    1    3    3  502    0 -0.50927040014E+03 -0.11046374130E+04  0.19152159720E+04  0.22688394333E+04  0.50400001928E-02 0. -1.
       -1    1    3    3    0  502  0.50927040014E+03  0.11046374130E+04 -0.11211083176E+03  0.12215355063E+04  0.50400001928E-02 0.  1.
</event>
<event>
 5   0  0.2970915E-06  0.2797702E+04  0.7818609E-02  0.8303982E-01
       -2   -1    0    0    0  501  0.00000000000E+00  0.00000000000E+00  0.10037074604E+04  0.10037074604E+04  0.25500000920E-02 0. -1.
        2   -1    0    0  501    0  0.00000000000E+00  0.00000000000E+00 -0.19495557995E+04  0.19495557995E+04  0.25500000920E-02 0.  1.
    10030    2    1    2    0    0  0.00000000000E+00  0.00000000000E+00 -0.94584833912E+03  0.29532632600E+04  0.27977017000E+04 0.  0.
        4    1    3    3  502    0 -0.13785389821E+04  0.96979337074E+02 -0.70179146422E+03  0.15499314788E+04  0.12699999809E+01 0. -1.
       -4    1    3    3    0  502  0.13785389821E+04 -0.96979337074E+02 -0.24405687490E+03  0.14033317811E+04  0.12699999809E+01 0.  1.
</event>
<event>
 5   0  0.1113245E-06  0.2992856E+04  0.7818609E-02  0.8245774E-01
       -1   -1    0    0    0  501  0.00000000000E+00  0.00000000000E+00  0.15586221414E+04  0.15586221414E+04  0.50400001928E-02 0. -1.
        1   -1    0    0  501    0  0.00000000000E+00  0.00000000000E+00 -0.14367157498E+04  0.14367157498E+04  0.50400001928E-02 0.  1.
    10030    2    1    2    0    0  0.00000000000E+00  0.00000000000E+00  0.12190639155E+03  0.29953378912E+04  0.29928561466E+04 0.  0.
        5    1    3    3  502    0  0.25100673523E+02  0.12382802096E+04  0.90147515601E+03  0.15318771061E+04  0.46999998093E+01 0. -1.
       -5    1    3    3    0  502 -0.25100673523E+02 -0.12382802096E+04 -0.77956876446E+03  0.14634607852E+04  0.46999998093E+01 0.  1.
</event>
<event>
 5   0  0.1097402E-06  0.3013232E+04  0.7818609E-02  0.8239962E-01
       -1   -1    0    0    0  501  0.00000000000E+00  0.00000000000E+00  0.11142111813E+04  0.11142111813E+04  0.50400001928E-02 0. -1.
        1   -1    0    0  501    0  0.00000000000E+00  0.00000000000E+00 -0.20372189964E+04  0.20372189964E+04  0.50400001928E-02 0.  1.
    10030    2    1    2    0    0  0.00000000000E+00  0.00000000000E+00 -0.92300781505E+03  0.31514301777E+04  0.30132322742E+04 0.  0.
        4    1    3    3  502    0 -0.87518949982E+03 -0.41571473547E+03 -0.16681582924E+04  0.19291265130E+04  0.12699999809E+01 0.  1.
       -4    1    3    3    0  502  0.87518949982E+03  0.41571473547E+03  0.74515047736E+03  0.12223036647E+04  0.12699999809E+01 0. -1.
</event>
<event>
 5   0  0.9749500E-07  0.2997098E+04  0.7818609E-02  0.8244560E-01
        3   -1    0    0  501    0  0.00000000000E+00  0.00000000000E+00  0.29043402239E+04  0.29043402257E+04  0.10100000352E+00 0. -1.
       -3   -1    0    0    0  501  0.00000000000E+00  0.00000000000E+00 -0.77320455919E+03  0.77320456579E+03  0.10100000352E+00 0.  1.
    10030    2    1    2    0    0  0.00000000000E+00  0.00000000000E+00  0.21311356647E+04  0.36775447914E+04  0.29970980084E+04 0.  0.
        4    1    3    3  502    0 -0.29162717814E+02 -0.42555264681E+03 -0.69714074161E+03  0.81728351619E+03  0.12699999809E+01 0.  1.
       -4    1    3    3    0  502  0.29162717814E+02  0.42555264681E+03  0.28282764063E+04  0.28602612753E+04  0.12699999809E+01 0. -1.
</event>
<event>
 5   0  0.2985941E-06  0.2971469E+04  0.7818609E-02  0.8251925E-01
       -2   -1    0    0    0  501  0.00000000000E+00  0.00000000000E+00  0.10907765120E+04  0.10907765120E+04  0.25500000920E-02 0.  1.
        2   -1    0    0  501    0  0.00000000000E+00  0.00000000000E+00 -0.20237021832E+04  0.20237021832E+04  0.25500000920E-02 0. -1.
    10030    2    1    2    0    0  0.00000000000E+00  0.00000000000E+00 -0.93292567124E+03  0.31144786952E+04  0.29714688682E+04 0.  0.
        3    1    3    3  502    0  0.48957402975E+03 -0.56036681262E+03 -0.18143212172E+04  0.19609832189E+04  0.10100000352E+00 0. -1.
       -3    1    3    3    0  502 -0.48957402975E+03  0.56036681262E+03  0.88139554595E+03  0.11534954763E+04  0.10100000352E+00 0.  1.
</event>
<event>
 5   0  0.2862033E-06  0.2764828E+04  0.7818609E-02  0.8314272E-01
        2   -1    0    0  501    0  0.00000000000E+00  0.00000000000E+00  0.20666958920E+04  0.20666958920E+04  0.25500000920E-02 0. -1.
       -2   -1    0    0    0  501  0.00000000000E+00  0.00000000000E+00 -0.92469714627E+03  0.92469714627E+03  0.25500000920E-02 0.  1.
    10030    2    1    2    0    0  0.00000000000E+00  0.00000000000E+00  0.11419987457E+04  0.29913930383E+04  0.27648275126E+04 0.  0.
        2    1    3    3  502    0  0.66594414523E+03 -0.58193974166E+03  0.17205798788E+04  0.19345621176E+04  0.25500000920E-02 0. -1.
       -2    1    3    3    0  502 -0.66594414523E+03  0.58193974166E+03 -0.57858113303E+03  0.10568309207E+04  0.25500000920E-02 0.  1.
</event>
<event>
 5   0  0.2948711E-06  0.2992777E+04  0.7818609E-02  0.8245796E-01
       -2   -1    0    0    0  501  0.00000000000E+00  0.00000000000E+00  0.86453491681E+03  0.86453491681E+03  0.25500000920E-02 0.  1.
        2   -1    0    0  501    0  0.00000000000E+00  0.00000000000E+00 -0.25900385060E+04  0.25900385060E+04  0.25500000920E-02 0. -1.
    10030    2    1    2    0    0  0.00000000000E+00  0.00000000000E+00 -0.17255035892E+04  0.34545734229E+04  0.29927771212E+04 0.  0.
        5    1    3    3  502    0 -0.14188346556E+04  0.19291735875E+03 -0.13643730799E+04  0.19778384358E+04  0.46999998093E+01 0. -1.
       -5    1    3    3    0  502  0.14188346556E+04 -0.19291735875E+03 -0.36113050935E+03  0.14767349870E+04  0.46999998093E+01 0.  1.
</event>
<event>
 5   0  0.1097402E-06  0.2992517E+04  0.7818609E-02  0.8245871E-01
       -1   -1    0    0    0  501  0.00000000000E+00  0.00000000000E+00  0.10076982600E+04  0.10076982600E+04  0.50400001928E-02 0. -1.
        1   -1    0    0  501    0  0.00000000000E+00  0.00000000000E+00 -0.22216857542E+04  0.22216857542E+04  0.50400001928E-02 0.  1.
    10030    2    1    2    0    0  0.00000000000E+00  0.00000000000E+00 -0.12139874942E+04  0.32293840143E+04  0.29925165790E+04 0.  0.
        4    1    3    3  502    0  0.12016757495E+04 -0.25707759985E+03  0.31419726150E+03  0.12683986090E+04  0.12699999809E+01 0. -1.
       -4    1    3    3    0  502 -0.12016757495E+04  0.25707759985E+03 -0.15281847557E+04  0.19609854053E+04  0.12699999809E+01 0.  1.
</event>
<event>
 5   0  0.1091075E-06  0.3053252E+04  0.7818609E-02  0.8228686E-01
        1   -1    0    0  501    0  0.00000000000E+00  0.00000000000E+00  0.28903119286E+04  0.28903119286E+04  0.50400001928E-02 0. -1.
       -1   -1    0    0    0  501  0.00000000000E+00  0.00000000000E+00 -0.80634466211E+03  0.80634466213E+03  0.50400001928E-02 0.  1.
    10030    2    1    2    0    0  0.00000000000E+00  0.00000000000E+00  0.20839672665E+04  0.36966565908E+04  0.30532524269E+04 0.  0.
        1    1    3    3  502    0 -0.19424777417E+03  0.65842146682E+02  0.28735546929E+04  0.28808651407E+04  0.50400001928E-02 0. -1.
       -1    1    3    3    0  502  0.19424777417E+03 -0.65842146682E+02 -0.78958742636E+03  0.81579145003E+03  0.50400001928E-02 0.  1.
</event>
<event>
 5   0  0.2862033E-06  0.2993167E+04  0.7818609E-02  0.8245685E-01
       -2   -1    0    0    0  501  0.00000000000E+00  0.00000000000E+00  0.13551865538E+04  0.13551865538E+04  0.25500000920E-02 0.  1.
        2   -1    0    0  501    0  0.00000000000E+00  0.00000000000E+00 -0.16527336670E+04  0.16527336670E+04  0.25500000920E-02 0. -1.
    10030    2    1    2    0    0  0.00000000000E+00  0.00000000000E+00 -0.29754711327E+03  0.30079202208E+04  0.29931671804E+04 0.  0.
        2    1    3    3  502    0 -0.29933742063E+03 -0.14391066279E+04 -0.43146358516E+03  0.15319241506E+04  0.25500000920E-02 0.  1.
       -2    1    3    3    0  502  0.29933742063E+03  0.14391066279E+04  0.13391647189E+03  0.14759960702E+04  0.25500000920E-02 0. -1.
</event>
<event>
 5   0  0.1097402E-06  0.3025879E+04  0.7818609E-02  0.8236379E-01
        1   -1    0    0  501    0  0.00000000000E+00  0.00000000000E+00  0.11391677259E+04  0.11391677259E+04  0.50400001928E-02 0. -1.
       -1   -1    0    0    0  501  0.00000000000E+00  0.00000000000E+00 -0.20093499827E+04  0.20093499827E+04  0.50400001928E-02 0.  1.
    10030    2    1    2    0    0  0.00000000000E+00  0.00000000000E+00 -0.87018225674E+03  0.31485177086E+04  0.30258794757E+04 0.  0.
        4    1    3    3  502    0 -0.12098244115E+04  0.27854653361E+03  0.46466440117E+03  0.13255858692E+04  0.12699999809E+01 0. -1.
       -4    1    3    3    0  502  0.12098244115E+04 -0.27854653361E+03 -0.13348466579E+04  0.18229318394E+04  0.12699999809E+01 0.  1.
</event>
<event>
 5   0  0.2970915E-06  0.2994197E+04  0.7818609E-02  0.8245390E-01
        2   -1    0    0  501    0  0.00000000000E+00  0.00000000000E+00  0.21139296514E+04  0.21139296514E+04  0.25500000920E-02 0. -1.
       -2   -1    0    0    0  501  0.00000000000E+00  0.00000000000E+00 -0.10602548903E+04  0.10602548903E+04  0.25500000920E-02 0.  1.
    10030    2    1    2    0    0  0.00000000000E+00  0.00000000000E+00  0.10536747610E+04  0.31741845417E+04  0.29941972218E+04 0.  0.
        4    1    3    3  502    0 -0.87706485998E+01 -0.12671726903E+04 -0.31826482393E+03  0.13065594752E+04  0.12699999809E+01 0.  1.
       -4    1    3    3    0  502  0.87706485998E+01  0.12671726903E+04  0.13719395849E+04  0.18676250665E+04  0.12699999809E+01 0. -1.
</event>
<event>
 5   0  0.1113245E-06  0.2998860E+04  0.7818609E-02  0.8244056E-01
        1   -1    0    0  501    0  0.00000000000E+00  0.00000000000E+00  0.91334982463E+03  0.91334982464E+03  0.50400001928E-02 0. -1.
       -1   -1    0    0    0  501  0.00000000000E+00  0.00000000000E+00 -0.24615874341E+04  0.24615874341E+04  0.50400001928E-02 0.  1.
    10030    2    1    2    0    0  0.00000000000E+00  0.00000000000E+00 -0.15482376095E+04  0.33749372587E+04  0.29988600843E+04 0.  0.
        5    1    3    3  502    0  0.14227480418E+04  0.41700888672E+03 -0.52206800079E+03  0.15718414327E+04  0.46999998093E+01 0. -1.
       -5    1    3    3    0  502 -0.14227480418E+04 -0.41700888672E+03 -0.10261696087E+04  0.18030958260E+04  0.46999998093E+01 0.  1.
</event>
<event>
 5   0  0.2948711E-06  0.3025755E+04  0.7818609E-02  0.8236414E-01
       -2   -1    0    0    0  501  0.00000000000E+00  0.00000000000E+00  0.12842019760E+04  0.12842019760E+04  0.25500000920E-02 0.  1.
        2   -1    0    0  501    0  0.00000000000E+00  0.00000000000E+00 -0.17822726452E+04  0.17822726452E+04  0.25500000920E-02 0. -1.
    10030    2    1    2    0    0  0.00000000000E+00  0.00000000000E+00 -0.49807066918E+03  0.30664746213E+04  0.30257548168E+04 0.  0.
        5    1    3    3  502    0 -0.12531708259E+04 -0.14523620559E+01  0.60991821640E+03  0.13937221922E+04  0.46999998093E+01 0.  1.
       -5    1    3    3    0  502  0.12531708259E+04  0.14523620559E+01 -0.11079888856E+04  0.16727524291E+04  0.46999998093E+01 0. -1.
</event>
<event>
 5   0  0.3113328E-06  0.2970053E+04  0.7818609E-02  0.8252334E-01
       -2   -1    0    0    0  501  0.00000000000E+00  0.00000000000E+00  0.17611501375E+04  0.17611501375E+04  0.25500000920E-02 0. -1.
        2   -1    0    0  501    0  0.00000000000E+00  0.00000000000E+00 -0.12521955553E+04  0.12521955553E+04  0.25500000920E-02 0.  1.
    10030    2    1    2    0    0  0.00000000000E+00  0.00000000000E+00  0.50895458215E+03  0.30133456928E+04  0.29700534503E+04 0.  0.
        1    1    3    3  502    0 -0.12329812654E+02  0.13624098578E+03 -0.12457893220E+04  0.12532775692E+04  0.50400001928E-02 0.  1.
       -1    1    3    3    0  502  0.12329812654E+02 -0.13624098578E+03  0.17547439042E+04  0.17600681236E+04  0.50400001928E-02 0. -1.
</event>
<event>
 5   0  0.1091076E-06  0.3038475E+04  0.7818609E-02  0.8232829E-01
        1   -1    0    0  501    0  0.00000000000E+00  0.00000000000E+00  0.78392103064E+03  0.78392103065E+03  0.50400001928E-02 0.  1.
       -1   -1    0    0    0  501  0.00000000000E+00  0.00000000000E+00 -0.29442792554E+04  0.29442792554E+04  0.50400001928E-02 0. -1.
    10030    2    1    2    0    0  0.00000000000E+00  0.00000000000E+00 -0.21603582248E+04  0.37282002861E+04  0.30384748993E+04 0.  0.
        3    1    3    3  502    0  0.78917097214E+03 -0.46129822640E+02 -0.26720460112E+04  0.27865298635E+04  0.10100000352E+00 0. -1.
       -3    1    3    3    0  502 -0.78917097214E+03  0.46129822640E+02  0.51168778644E+03  0.94167042259E+03  0.10100000352E+00 0.  1.
</event>
<event>
 5   0  0.1097402E-06  0.2972357E+04  0.7818609E-02  0.8251669E-01
        1   -1    0    0  501    0  0.00000000000E+00  0.00000000000E+00  0.14029119426E+04  0.14029119426E+04  0.50400001928E-02 0. -1.
       -1   -1    0    0    0  501  0.00000000000E+00  0.00000000000E+00 -0.15743871651E+04  0.15743871651E+04  0.50400001928E-02 0.  1.
    10030    2    1    2    0    0  0.00000000000E+00  0.00000000000E+00 -0.17147522252E+03  0.29772991076E+04  0.29723570150E+04 0.  0.
        4    1    3    3  502    0  0.13366566762E+04 -0.63135763051E+03  0.67688261234E+02  0.14798131102E+04  0.12699999809E+01 0. -1.
       -4    1    3    3    0  502 -0.13366566762E+04  0.63135763051E+03 -0.23916348375E+03  0.14974859974E+04  0.12699999809E+01 0.  1.
</event>
<event>
 5   0  0.1097402E-06  0.2996271E+04  0.7818609E-02  0.8244797E-01
        1   -1    0    0  501    0  0.00000000000E+00  0.00000000000E+00  0.13190867103E+04  0.13190867103E+04  0.50400001928E-02 0.  1.
       -1   -1    0    0    0  501  0.00000000000E+00  0.00000000000E+00 -0.17014877439E+04  0.17014877439E+04  0.50400001928E-02 0. -1.
    10030    2    1    2    0    0  0.00000000000E+00  0.00000000000E+00 -0.38240103359E+03  0.30205744542E+04  0.29962709294E+04 0.  0.
        4    1    3    3  502    0  0.31525049839E+01  0.55705753261E+03  0.12107938481E+04  0.13327964543E+04  0.12699999809E+01 0.  1.
       -4    1    3    3    0  502 -0.31525049839E+01 -0.55705753261E+03 -0.15931948817E+04  0.16877779999E+04  0.12699999809E+01 0. -1.
</event>
<event>
 5   0  0.1097402E-06  0.2986483E+04  0.7818609E-02  0.8247601E-01
        1   -1    0    0  501    0  0.00000000000E+00  0.00000000000E+00  0.13135439410E+04  0.13135439410E+04  0.50400001928E-02 0. -1.
       -1   -1    0    0    0  501  0.00000000000E+00  0.00000000000E+00 -0.16975226452E+04  0.16975226452E+04  0.50400001928E-02 0.  1.
    10030    2    1    2    0    0  0.00000000000E+00  0.00000000000E+00 -0.38397870421E+03  0.30110665862E+04  0.29864832732E+04 0.  0.
        4    1    3    3  502    0  0.10490142917E+04  0.10129773321E+04 -0.51590467873E+03  0.15468397816E+04  0.12699999809E+01 0.  1.
       -4    1    3    3    0  502 -0.10490142917E+04 -0.10129773321E+04  0.13192597452E+03  0.14642268046E+04  0.12699999809E+01 0. -1.
</event>
<event>
 5   0  0.1091076E-06  0.3069581E+04  0.7818609E-02  0.8224136E-01
        1   -1    0    0  501    0  0.00000000000E+00  0.00000000000E+00  0.16532810225E+04  0.16532810226E+04  0.50400001928E-02 0.  1.
       -1   -1    0    0    0  501  0.00000000000E+00  0.00000000000E+00 -0.14247924636E+04  0.14247924637E+04  0.50400001928E-02 0. -1.
    10030    2    1    2    0    0  0.00000000000E+00  0.00000000000E+00  0.22848855890E+03  0.30780734862E+04  0.30695813012E+04 0.  0.
        3    1    3    3  502    0  0.96297109052E+03  0.10915438092E+04  0.60221270522E+03  0.15752591409E+04  0.10100000352E+00 0. -1.
       -3    1    3    3    0  502 -0.96297109052E+03 -0.10915438092E+04 -0.37372414632E+03  0.15028143453E+04  0.10100000352E+00 0.  1.
</event>
<event>
 5   0  0.2948711E-06  0.3011943E+04  0.7818609E-02  0.8240329E-01
       -2   -1    0    0    0  501  0.00000000000E+00  0.00000000000E+00  0.82203852457E+03  0.82203852457E+03  0.25500000920E-02 0.  1.
        2   -1    0    0  501    0  0.00000000000E+00  0.00000000000E+00 -0.27589340793E+04  0.27589340793E+04  0.25500000920E-02 0. -1.
    10030    2    1    2    0    0  0.00000000000E+00  0.00000000000E+00 -0.19368955548E+04  0.35809726039E+04  0.30119429609E+04 0.  0.
        5    1    3    3  502    0 -0.10156234517E+04  0.16711583581E+03 -0.22754588171E+04  0.24974294017E+04  0.46999998093E+01 0. -1.
       -5    1    3    3    0  502  0.10156234517E+04 -0.16711583581E+03  0.33856326235E+03  0.10835432022E+04  0.46999998093E+01 0.  1.
</event>
<event>
 5   0  0.2862033E-06  0.3015461E+04  0.7818609E-02  0.8239330E-01
       -2   -1    0    0    0  501  0.00000000000E+00  0.00000000000E+00  0.11379118340E+04  0.11379118340E+04  0.25500000920E-02 0.  1.
        2   -1    0    0  501    0  0.00000000000E+00  0.00000000000E+00 -0.19977389045E+04  0.19977389045E+04  0.25500000920E-02 0. -1.
    10030    2    1    2    0    0  0.00000000000E+00  0.00000000000E+00 -0.85982707048E+03  0.31356507385E+04  0.30154606552E+04 0.  0.
        2    1    3    3  502    0 -0.51276603033E+03 -0.93018061722E+03 -0.15426518019E+04  0.18729494293E+04  0.25500000920E-02 0. -1.
       -2    1    3    3    0  502  0.51276603033E+03  0.93018061722E+03  0.68282473147E+03  0.12627013093E+04  0.25500000920E-02 0.  1.
</event>
<event>
 5   0  0.1054384E-06  0.2994084E+04  0.7818609E-02  0.8245422E-01
        1   -1    0    0  501    0  0.00000000000E+00  0.00000000000E+00  0.17589273531E+04  0.17589273531E+04  0.50400001928E-02 0.  1.
       -1   -1    0    0    0  501  0.00000000000E+00  0.00000000000E+00 -0.12741481415E+04  0.12741481415E+04  0.50400001928E-02 0. -1.
    10030    2    1    2    0    0  0.00000000000E+00  0.00000000000E+00  0.48477921163E+03  0.30330754946E+04  0.29940835111E+04 0.  0.
        2    1    3    3  502    0  0.14360520624E+04  0.25174293636E+03  0.58668926723E+03  0.15715674749E+04  0.25500000920E-02 0.  1.
       -2    1    3    3    0  502 -0.14360520624E+04 -0.25174293636E+03 -0.10191005559E+03  0.14615080196E+04  0.25500000920E-02 0. -1.
</event>
<event>
 5   0  0.1091075E-06  0.2910101E+04  0.7818609E-02  0.8269879E-01
        1   -1    0    0  501    0  0.00000000000E+00  0.00000000000E+00  0.11462850107E+04  0.11462850108E+04  0.50400001928E-02 0.  1.
       -1   -1    0    0    0  501  0.00000000000E+00  0.00000000000E+00 -0.18469854418E+04  0.18469854419E+04  0.50400001928E-02 0. -1.
    10030    2    1    2    0    0  0.00000000000E+00  0.00000000000E+00 -0.70070043110E+03  0.29932704526E+04  0.29101008416E+04 0.  0.
        1    1    3    3  502    0 -0.68843110300E+03 -0.90579319216E+03  0.58264183953E+03  0.12782293236E+04  0.50400001928E-02 0.  1.
       -1    1    3    3    0  502  0.68843110300E+03  0.90579319216E+03 -0.12833422706E+04  0.17150411290E+04  0.50400001928E-02 0. -1.
</event>
<event>
 5   0  0.1091076E-06  0.2850005E+04  0.7818609E-02  0.8287910E-01
        1   -1    0    0  501    0  0.00000000000E+00  0.00000000000E+00  0.19673647943E+04  0.19673647943E+04  0.50400001928E-02 0.  1.
       -1   -1    0    0    0  501  0.00000000000E+00  0.00000000000E+00 -0.10321582838E+04  0.10321582838E+04  0.50400001928E-02 0. -1.
    10030    2    1    2    0    0  0.00000000000E+00  0.00000000000E+00  0.93520651051E+03  0.29995230781E+04  0.28500048208E+04 0.  0.
        3    1    3    3  502    0  0.87138218433E+03 -0.63677247708E+02  0.16523928104E+04  0.18691612325E+04  0.10100000352E+00 0.  1.
       -3    1    3    3    0  502 -0.87138218433E+03  0.63677247708E+02 -0.71718629986E+03  0.11303618456E+04  0.10100000352E+00 0. -1.
</event>
<event>
 5   0  0.1091075E-06  0.2971914E+04  0.7818609E-02  0.8251797E-01
       -1   -1    0    0    0  501  0.00000000000E+00  0.00000000000E+00  0.11689974943E+04  0.11689974943E+04  0.50400001928E-02 0.  1.
        1   -1    0    0  501    0  0.00000000000E+00  0.00000000000E+00 -0.18888558093E+04  0.18888558093E+04  0.50400001928E-02 0. -1.
    10030    2    1    2    0    0  0.00000000000E+00  0.00000000000E+00 -0.71985831495E+03  0.30578533036E+04  0.29719136651E+04 0.  0.
        1    1    3    3  502    0  0.99540961960E+03  0.96595551390E+03  0.18854971018E+03  0.13998076149E+04  0.50400001928E-02 0.  1.
       -1    1    3    3    0  502 -0.99540961960E+03 -0.96595551390E+03 -0.90840802513E+03  0.16580456887E+04  0.50400001928E-02 0. -1.
</event>
<event>
 5   0  0.1097402E-06  0.2991972E+04  0.7818609E-02  0.8246027E-01
       -1   -1    0    0    0  501  0.00000000000E+00  0.00000000000E+00  0.15905740473E+04  0.15905740473E+04  0.50400001928E-02 0. -1.
        1   -1    0    0  501    0  0.00000000000E+00  0.00000000000E+00 -0.14070224530E+04  0.14070224530E+04  0.50400001928E-02 0.  1.
    10030    2    1    2    0    0  0.00000000000E+00  0.00000000000E+00  0.18355159435E+03  0.29975965003E+04  0.29919715224E+04 0.  0.
        4    1    3    3  502    0  0.59548778918E+03 -0.49648460490E+03  0.13735829615E+04  0.15772870490E+04  0.12699999809E+01 0. -1.
       -4    1    3    3    0  502 -0.59548778918E+03  0.49648460490E+03 -0.11900313671E+04  0.14203094513E+04  0.12699999809E+01 0.  1.
</event>
<event>
 5   0  0.1097402E-06  0.3001942E+04  0.7818609E-02  0.8243177E-01
        1   -1    0    0  501    0  0.00000000000E+00  0.00000000000E+00  0.14906516184E+04  0.14906516184E+04  0.50400001928E-02 0.  1.
       -1   -1    0    0    0  501  0.00000000000E+00  0.00000000000E+00 -0.15113619056E+04  0.15113619056E+04  0.50400001928E-02 0. -1.
    10030    2    1    2    0    0  0.00000000000E+00  0.00000000000E+00 -0.20710287182E+02  0.30020135241E+04  0.30019420852E+04 0.  0.
        4    1    3    3  502    0  0.10326731549E+04  0.54648093478E+03 -0.95263931465E+03  0.15075073909E+04  0.12699999809E+01 0. -1.
       -4    1    3    3    0  502 -0.10326731549E+04 -0.54648093478E+03  0.93192902747E+03  0.14945061332E+04  0.12699999809E+01 0.  1.
</event>
<event>
 5   0  0.1091076E-06  0.3142923E+04  0.7818609E-02  0.8204056E-01
        1   -1    0    0  501    0  0.00000000000E+00  0.00000000000E+00  0.14536069217E+04  0.14536069217E+04  0.50400001928E-02 0.  1.
       -1   -1    0    0    0  501  0.00000000000E+00  0.00000000000E+00 -0.16988708990E+04  0.16988708990E+04  0.50400001928E-02 0. -1.
    10030    2    1    2    0    0  0.00000000000E+00  0.00000000000E+00 -0.24526397730E+03  0.31524778207E+04  0.31429225240E+04 0.  0.
        3    1    3    3  502    0  0.12675773064E+04 -0.82931040212E+03  0.29694889554E+03  0.15435953575E+04  0.10100000352E+00 0. -1.
       -3    1    3    3    0  502 -0.12675773064E+04  0.82931040212E+03 -0.54221287283E+03  0.16088824632E+04  0.10100000352E+00 0.  1.
</event>
<event>
 5   0  0.2862033E-06  0.2997937E+04  0.7818609E-02  0.8244320E-01
        2   -1    0    0  501    0  0.00000000000E+00  0.00000000000E+00  0.15905265549E+04  0.15905265549E+04  0.25500000920E-02 0. -1.
       -2   -1    0    0    0  501  0.00000000000E+00  0.00000000000E+00 -0.14126811786E+04  0.14126811786E+04  0.25500000920E-02 0.  1.
    10030    2    1    2    0    0  0.00000000000E+00  0.00000000000E+00  0.17784537630E+03  0.30032077335E+04  0.29979372429E+04 0.  0.
        2    1    3    3  502    0  0.12096469378E+04 -0.81221443994E+03  0.44163388025E+03  0.15224908850E+04  0.25500000920E-02 0.  1.
       -2    1    3    3    0  502 -0.12096469378E+04  0.81221443994E+03 -0.26378850395E+03  0.14807168485E+04  0.25500000920E-02 0. -1.
</event>
<event>
 5   0  0.9749500E-07  0.2969076E+04  0.7818609E-02  0.8252617E-01
       -3   -1    0    0    0  501  0.00000000000E+00  0.00000000000E+00  0.10887243007E+04  0.10887243054E+04  0.10100000352E+00 0. -1.
        3   -1    0    0  501    0  0.00000000000E+00  0.00000000000E+00 -0.20242529932E+04  0.20242529957E+04  0.10100000352E+00 0.  1.
    10030    2    1    2    0    0  0.00000000000E+00  0.00000000000E+00 -0.93552869255E+03  0.31129773011E+04  0.29690762440E+04 0.  0.
        2    1    3    3  502    0 -0.35274715668E+03  0.79280927246E+03  0.79513809443E+03  0.11769544121E+04  0.25500000920E-02 0. -1.
       -2    1    3    3    0  502  0.35274715668E+03 -0.79280927246E+03 -0.17306667870E+04  0.19360228890E+04  0.25500000920E-02 0.  1.
</event>
<event>
 5   0  0.3113328E-06  0.3004416E+04  0.7818609E-02  0.8242471E-01
       -2   -1    0    0    0  501  0.00000000000E+00  0.00000000000E+00  0.10200602087E+04  0.10200602087E+04  0.25500000920E-02 0.  1.
        2   -1    0    0  501    0  0.00000000000E+00  0.00000000000E+00 -0.22122506160E+04  0.22122506160E+04  0.25500000920E-02 0. -1.
    10030    2    1    2    0    0  0.00000000000E+00  0.00000000000E+00 -0.11921904073E+04  0.32323108247E+04  0.30044159666E+04 0.  0.
        1    1    3    3  502    0  0.20201830711E+03 -0.10813909531E+04 -0.16966310954E+04  0.20220719236E+04  0.50400001928E-02 0. -1.
       -1    1    3    3    0  502 -0.20201830711E+03  0.10813909531E+04  0.50444068816E+03  0.12102389011E+04  0.50400001928E-02 0.  1.
</event>
<event>
 5   0  0.1091076E-06  0.3060849E+04  0.7818609E-02  0.8226565E-01
       -1   -1    0    0    0  501  0.00000000000E+00  0.00000000000E+00  0.10233823027E+04  0.10233823027E+04  0.50400001928E-02 0. -1.
        1   -1    0    0  501    0  0.00000000000E+00  0.00000000000E+00 -0.22886840069E+04  0.22886840069E+04  0.50400001928E-02 0.  1.
    10030    2    1    2    0    0  0.00000000000E+00  0.00000000000E+00 -0.12653017042E+04  0.33120663096E+04  0.30608487118E+04 0.  0.
        3    1    3    3  502    0 -0.76859741801E+03  0.98829360545E+03  0.31977907723E+03  0.12921783584E+04  0.10100000352E+00 0. -1.
       -3    1    3    3    0  502  0.76859741801E+03 -0.98829360545E+03 -0.15850807814E+04  0.20198879512E+04  0.10100000352E+00 0.  1.
</event>
<event>
 5   0  0.3113328E-06  0.3006901E+04  0.7818609E-02  0.8241763E-01
        2   -1    0    0  501    0  0.00000000000E+00  0.00000000000E+00  0.23059710963E+04  0.23059710963E+04  0.25500000920E-02 0. -1.
       -2   -1    0    0    0  501  0.00000000000E+00  0.00000000000E+00 -0.98022172489E+03  0.98022172489E+03  0.25500000920E-02 0.  1.
    10030    2    1    2    0    0  0.00000000000E+00  0.00000000000E+00  0.13257493715E+04  0.32861928212E+04  0.30069007071E+04 0.  0.
        1    1    3    3  502    0  0.11914451573E+04 -0.78007925357E+03  0.11896148891E+04  0.18555993073E+04  0.50400001928E-02 0. -1.
       -1    1    3    3    0  502 -0.11914451573E+04  0.78007925357E+03  0.13613448231E+03  0.14305935139E+04  0.50400001928E-02 0.  1.
</event>
<event>
 5   0  0.1091075E-06  0.2999438E+04  0.7818609E-02  0.8243891E-01
        1   -1    0    0  501    0  0.00000000000E+00  0.00000000000E+00  0.22563720344E+04  0.22563720344E+04  0.50400001928E-02 0.  1.
       -1   -1    0    0    0  501  0.00000000000E+00  0.00000000000E+00 -0.99680234347E+03  0.99680234348E+03  0.50400001928E-02 0. -1.
    10030    2    1    2    0    0  0.00000000000E+00  0.00000000000E+00  0.12595696909E+04  0.32531743779E+04  0.29994379018E+04 0.  0.
        1    1    3    3  502    0 -0.66734188079E+03  0.11203978644E+04  0.14330591018E+04  0.19376003070E+04  0.50400001928E-02 0.  1.
       -1    1    3    3    0  502  0.66734188079E+03 -0.11203978644E+04 -0.17348941086E+03  0.13155740709E+04  0.50400001928E-02 0. -1.
</event>
<event>
 5   0  0.2948711E-06  0.2907909E+04  0.7818609E-02  0.8270528E-01
        2   -1    0    0  501    0  0.00000000000E+00  0.00000000000E+00  0.28269835345E+04  0.28269835345E+04  0.25500000920E-02 0. -1.
       -2   -1    0    0    0  501  0.00000000000E+00  0.00000000000E+00 -0.74778798863E+03  0.74778798863E+03  0.25500000920E-02 0.  1.
    10030    2    1    2    0    0  0.00000000000E+00  0.00000000000E+00  0.20791955459E+04  0.35747715231E+04  0.29079094423E+04 0.  0.
        5    1    3    3  502    0 -0.24311938793E+03  0.41753747121E+03 -0.64620250322E+03  0.80687318818E+03  0.46999998093E+01 0.  1.
       -5    1    3    3    0  502  0.24311938793E+03 -0.41753747121E+03  0.27253980491E+04  0.27678983349E+04  0.46999998093E+01 0. -1.
</event>
<event>
 5   0  0.1054384E-06  0.3021786E+04  0.7818609E-02  0.8237537E-01
       -1   -1    0    0    0  501  0.00000000000E+00  0.00000000000E+00  0.16917184292E+04  0.16917184292E+04  0.50400001928E-02 0. -1.
        1   -1    0    0  501    0  0.00000000000E+00  0.00000000000E+00 -0.13493958223E+04  0.13493958223E+04  0.50400001928E-02 0.  1.
    10030    2    1    2    0    0  0.00000000000E+00  0.00000000000E+00  0.34232260697E+03  0.30411142515E+04  0.30217860817E+04 0.  0.
        2    1    3    3  502    0  0.75020769430E+03 -0.60185766148E+03 -0.10015186299E+04  0.13885545705E+04  0.25500000920E-02 0.  1.
       -2    1    3    3    0  502 -0.75020769430E+03  0.60185766148E+03  0.13438412369E+04  0.16525596810E+04  0.25500000920E-02 0. -1.
</event>
<event>
 5   0  0.2985941E-06  0.3037902E+04  0.7818609E-02  0.8232990E-01
       -2   -1    0    0    0  501  0.00000000000E+00  0.00000000000E+00  0.13129056673E+04  0.13129056673E+04  0.25500000920E-02 0. -1.
        2   -1    0    0  501    0  0.00000000000E+00  0.00000000000E+00 -0.17573329468E+04  0.17573329468E+04  0.25500000920E-02 0.  1.
    10030    2    1    2    0    0  0.00000000000E+00  0.00000000000E+00 -0.44442727950E+03  0.30702386141E+04  0.30379021611E+04 0.  0.
        3    1    3    3  502    0  0.91882169899E+03 -0.11745928180E+04 -0.51392203397E+03  0.15773450700E+04  0.10100000352E+00 0. -1.
       -3    1    3    3    0  502 -0.91882169899E+03  0.11745928180E+04  0.69494754473E+02  0.14928935440E+04  0.10100000352E+00 0.  1.
</event>
<event>
 5   0  0.2862033E-06  0.3140272E+04  0.7818609E-02  0.8204772E-01
        2   -1    0    0  501    0  0.00000000000E+00  0.00000000000E+00  0.18478789936E+04  0.18478789936E+04  0.25500000920E-02 0.  1.
       -2   -1    0    0    0  501  0.00000000000E+00  0.00000000000E+00 -0.13341383897E+04  0.13341383897E+04  0.25500000920E-02 0. -1.
    10030    2    1    2    0    0  0.00000000000E+00  0.00000000000E+00  0.51374060392E+03  0.31820173834E+04  0.31402715201E+04 0.  0.
        2    1    3    3  502    0  0.12074939541E+04 -0.51531381588E+02 -0.75876605706E+03  0.14270329576E+04  0.25500000920E-02 0. -1.
       -2    1    3    3    0  502 -0.12074939541E+04  0.51531381588E+02  0.12725066610E+04  0.17549844258E+04  0.25500000920E-02 0.  1.
</event>
<event>
 5   0  0.1054384E-06  0.2994066E+04  0.7818609E-02  0.8245427E-01
        1   -1    0    0  501    0  0.00000000000E+00  0.00000000000E+00  0.24151093164E+04  0.24151093164E+04  0.50400001928E-02 0. -1.
       -1   -1    0    0    0  501  0.00000000000E+00  0.00000000000E+00 -0.92795324289E+03  0.92795324290E+03  0.50400001928E-02 0.  1.
    10030    2    1    2    0    0  0.00000000000E+00  0.00000000000E+00  0.14871560735E+04  0.33430625593E+04  0.29940664803E+04 0.  0.
        2    1    3    3  502    0 -0.70053001699E+03  0.43023040702E+03 -0.65336089120E+03  0.10501052147E+04  0.25500000920E-02 0.  1.
       -2    1    3    3    0  502  0.70053001699E+03 -0.43023040702E+03  0.21405169647E+04  0.22929573446E+04  0.25500000920E-02 0. -1.
</event>
<event>
 5   0  0.2948711E-06  0.2995665E+04  0.7818609E-02  0.8244970E-01
       -2   -1    0    0    0  501  0.00000000000E+00  0.00000000000E+00  0.98656502032E+03  0.98656502032E+03  0.25500000920E-02 0.  1.
        2   -1    0    0  501    0  0.00000000000E+00  0.00000000000E+00 -0.22740543068E+04  0.22740543068E+04  0.25500000920E-02 0. -1.
    10030    2    1    2    0    0  0.00000000000E+00  0.00000000000E+00 -0.12874892865E+04  0.32606193272E+04  0.29956651571E+04 0.  0.
        5    1    3    3  502    0 -0.11631021102E+04  0.45242541082E+03  0.25775210168E+03  0.12743443440E+04  0.46999998093E+01 0.  1.
       -5    1    3    3    0  502  0.11631021102E+04 -0.45242541082E+03 -0.15452413882E+04  0.19862749832E+04  0.46999998093E+01 0. -1.
</event>
<event>
 5   0  0.2948711E-06  0.2942753E+04  0.7818609E-02  0.8260270E-01
       -2   -1    0    0    0  501  0.00000000000E+00  0.00000000000E+00  0.14037106231E+04  0.14037106231E+04  0.25500000920E-02 0.  1.
        2   -1    0    0  501    0  0.00000000000E+00  0.00000000000E+00 -0.15423044695E+04  0.15423044696E+04  0.25500000920E-02 0. -1.
    10030    2    1    2    0    0  0.00000000000E+00  0.00000000000E+00 -0.13859384643E+03  0.29460150927E+04  0.29427532469E+04 0.  0.
        5    1    3    3  502    0  0.79486800161E+03 -0.49961955765E+03  0.10648719988E+04  0.14196511213E+04  0.46999998093E+01 0.  1.
       -5    1    3    3    0  502 -0.79486800161E+03  0.49961955765E+03 -0.12034658453E+04  0.15263639714E+04  0.46999998093E+01 0. -1.
</event>
<event>
 5   0  0.2985941E-06  0.2925141E+04  0.7818609E-02  0.8265436E-01
        2   -1    0    0  501    0  0.00000000000E+00  0.00000000000E+00  0.15900511323E+04  0.15900511323E+04  0.25500000920E-02 0. -1.
       -2   -1    0    0    0  501  0.00000000000E+00  0.00000000000E+00 -0.13453101724E+04  0.13453101724E+04  0.25500000920E-02 0.  1.
    10030    2    1    2    0    0  0.00000000000E+00  0.00000000000E+00  0.24474095986E+03  0.29353613047E+04  0.29251406550E+04 0.  0.
        3    1    3    3  502    0 -0.31895113926E+03  0.32433938797E+03  0.15172583125E+04  0.15839819017E+04  0.10100000352E+00 0. -1.
       -3    1    3    3    0  502  0.31895113926E+03 -0.32433938797E+03 -0.12725173526E+04  0.13513794030E+04  0.10100000352E+00 0.  1.
</event>
<event>
 5   0  0.3113328E-06  0.3013989E+04  0.7818609E-02  0.8239747E-01
       -2   -1    0    0    0  501  0.00000000000E+00  0.00000000000E+00  0.75818872369E+03  0.75818872369E+03  0.25500000920E-02 0. -1.
        2   -1    0    0  501    0  0.00000000000E+00  0.00000000000E+00 -0.29953396768E+04  0.29953396769E+04  0.25500000920E-02 0.  1.
    10030    2    1    2    0    0  0.00000000000E+00  0.00000000000E+00 -0.22371509532E+04  0.37535284005E+04  0.30139892280E+04 0.  0.
        1    1    3    3  502    0 -0.77240702470E+03  0.47384219883E+02  0.49184342520E+03  0.91693392948E+03  0.50400001928E-02 0. -1.
       -1    1    3    3    0  502  0.77240702470E+03 -0.47384219883E+02 -0.27289943784E+04  0.28365944711E+04  0.50400001928E-02 0.  1.
</event>
<event>
 5   0  0.1113245E-06  0.2988801E+04  0.7818609E-02  0.8246936E-01
        1   -1    0    0  501    0  0.00000000000E+00  0.00000000000E+00  0.21768748278E+04  0.21768748278E+04  0.50400001928E-02 0. -1.
       -1   -1    0    0    0  501  0.00000000000E+00  0.00000000000E+00 -0.10258897124E+04  0.10258897124E+04  0.50400001928E-02 0.  1.
    10030    2    1    2    0    0  0.00000000000E+00  0.00000000000E+00  0.11509851154E+04  0.32027645402E+04  0.29888014260E+04 0.  0.
        5    1    3    3  502    0 -0.10380999525E+04 -0.90452809131E+02 -0.57234714579E+03  0.11888803840E+04  0.46999998093E+01 0.  1.
       -5    1    3    3    0  502  0.10380999525E+04  0.90452809131E+02  0.17233322612E+04  0.20138841562E+04  0.46999998093E+01 0. -1.
</event>
<event>
 5   0  0.1091075E-06  0.2960955E+04  0.7818609E-02  0.8254969E-01
        1   -1    0    0  501    0  0.00000000000E+00  0.00000000000E+00  0.22383511479E+04  0.22383511479E+04  0.50400001928E-02 0.  1.
       -1   -1    0    0    0  501  0.00000000000E+00  0.00000000000E+00 -0.97920892790E+03  0.97920892791E+03  0.50400001928E-02 0. -1.
    10030    2    1    2    0    0  0.00000000000E+00  0.00000000000E+00  0.12591422200E+04  0.32175600758E+04  0.29609548648E+04 0.  0.
        1    1    3    3  502    0  0.12698227147E+04 -0.49602136285E+03  0.21923609671E+01  0.13632650973E+04  0.50400001928E-02 0.  1.
       -1    1    3    3    0  502 -0.12698227147E+04  0.49602136285E+03  0.12569498590E+04  0.18542949785E+04  0.50400001928E-02 0. -1.
</event>
<event>
 5   0  0.2862033E-06  0.2993003E+04  0.7818609E-02  0.8245732E-01
       -2   -1    0    0    0  501  0.00000000000E+00  0.00000000000E+00  0.14002479961E+04  0.14002479961E+04  0.25500000920E-02 0.  1.
        2   -1    0    0  501    0  0.00000000000E+00  0.00000000000E+00 -0.15993710543E+04  0.15993710543E+04  0.25500000920E-02 0. -1.
    10030    2    1    2    0    0  0.00000000000E+00  0.00000000000E+00 -0.19912305816E+03  0.29996190504E+04  0.29930025819E+04 0.  0.
        2    1    3    3  502    0  0.39000561727E+03  0.24025158593E+03 -0.15273831853E+04  0.15945922993E+04  0.25500000920E-02 0. -1.
       -2    1    3    3    0  502 -0.39000561727E+03 -0.24025158593E+03  0.13282601272E+04  0.14050267512E+04  0.25500000920E-02 0.  1.
</event>
<event>
 5   0  0.1054384E-06  0.3007609E+04  0.7818609E-02  0.8241561E-01
       -1   -1    0    0    0  501  0.00000000000E+00  0.00000000000E+00  0.90021473710E+03  0.90021473712E+03  0.50400001928E-02 0.  1.
        1   -1    0    0  501    0  0.00000000000E+00  0.00000000000E+00 -0.25120991229E+04  0.25120991229E+04  0.50400001928E-02 0. -1.
    10030    2    1    2    0    0  0.00000000000E+00  0.00000000000E+00 -0.16118843858E+04  0.34123138600E+04  0.30076094504E+04 0.  0.
        2    1    3    3  502    0 -0.49781257933E+03  0.12778058138E+04 -0.10579484112E+03  0.13754263377E+04  0.25500000920E-02 0.  1.
       -2    1    3    3    0  502  0.49781257933E+03 -0.12778058138E+04 -0.15060895447E+04  0.20368875223E+04  0.25500000920E-02 0. -1.
</event>
<event>
 5   0  0.3113328E-06  0.2989089E+04  0.7818609E-02  0.8246853E-01
        2   -1    0    0  501    0  0.00000000000E+00  0.00000000000E+00  0.10476375147E+04  0.10476375147E+04  0.25500000920E-02 0. -1.
       -2   -1    0    0    0  501  0.00000000000E+00  0.00000000000E+00 -0.21320954212E+04  0.21320954212E+04  0.25500000920E-02 0.  1.
    10030    2    1    2    0    0  0.00000000000E+00  0.00000000000E+00 -0.10844579065E+04  0.31797329359E+04  0.29890889235E+04 0.  0.
        1    1    3    3  502    0  0.46684940260E+03  0.91498091285E+03  0.61260928885E+03  0.11960052577E+04  0.50400001928E-02 0. -1.
       -1    1    3    3    0  502 -0.46684940260E+03 -0.91498091285E+03 -0.16970671954E+04  0.19837276782E+04  0.50400001928E-02 0.  1.
</event>
<event>
 5   0  0.2948711E-06  0.2967030E+04  0.7818609E-02  0.8253209E-01
        2   -1    0    0  501    0  0.00000000000E+00  0.00000000000E+00  0.21558560728E+04  0.21558560728E+04  0.25500000920E-02 0. -1.
       -2   -1    0    0    0  501  0.00000000000E+00  0.00000000000E+00 -0.10208549684E+04  0.10208549684E+04  0.25500000920E-02 0.  1.
    10030    2    1    2    0    0  0.00000000000E+00  0.00000000000E+00  0.11350011045E+04  0.31767110412E+04  0.29670297492E+04 0.  0.
        5    1    3    3  502    0 -0.86389049869E+03 -0.10840750781E+04  0.11333057886E+04  0.17905110078E+04  0.46999998093E+01 0. -1.
       -5    1    3    3    0  502  0.86389049869E+03  0.10840750781E+04  0.16953158642E+01  0.13862000334E+04  0.46999998093E+01 0.  1.
</event>
<event>
 5   0  0.1113245E-06  0.3018737E+04  0.7818609E-02  0.8238401E-01
       -1   -1    0    0    0  501  0.00000000000E+00  0.00000000000E+00  0.11098838919E+04  0.11098838919E+04  0.50400001928E-02 0. -1.
        1   -1    0    0  501    0  0.00000000000E+00  0.00000000000E+00 -0.20526411430E+04  0.20526411430E+04  0.50400001928E-02 0.  1.
    10030    2    1    2    0    0  0.00000000000E+00  0.00000000000E+00 -0.94275725104E+03  0.31625250349E+04  0.30187370475E+04 0.  0.
        5    1    3    3  502    0 -0.37938213714E+03  0.81292403025E+03  0.80027337331E+03  0.12021796234E+04  0.46999998093E+01 0. -1.
       -5    1    3    3    0  502  0.37938213714E+03 -0.81292403025E+03 -0.17430306244E+04  0.19603454115E+04  0.46999998093E+01 0.  1.
</event>
<event>
 5   0  0.1113245E-06  0.3004527E+04  0.7818609E-02  0.8242439E-01
        1   -1    0    0  501    0  0.00000000000E+00  0.00000000000E+00  0.22303122807E+04  0.22303122808E+04  0.50400001928E-02 0. -1.
       -1   -1    0    0    0  501  0.00000000000E+00  0.00000000000E+00 -0.10118744545E+04  0.10118744545E+04  0.50400001928E-02 0.  1.
    10030    2    1    2    0    0  0.00000000000E+00  0.00000000000E+00  0.12184378263E+04  0.32421867352E+04  0.30045272656E+04 0.  0.
        5    1    3    3  502    0 -0.10255995469E+03 -0.13935752625E+04  0.12043928293E+04  0.18447641404E+04  0.46999998093E+01 0. -1.
       -5    1    3    3    0  502  0.10255995469E+03  0.13935752625E+04  0.14044996985E+02  0.13974225948E+04  0.46999998093E+01 0.  1.
</event>
<event>
 5   0  0.3113328E-06  0.3039462E+04  0.7818609E-02  0.8232551E-01
        2   -1    0    0  501    0  0.00000000000E+00  0.00000000000E+00  0.17742872430E+04  0.17742872430E+04  0.25500000920E-02 0.  1.
       -2   -1    0    0    0  501  0.00000000000E+00  0.00000000000E+00 -0.13016959056E+04  0.13016959056E+04  0.25500000920E-02 0. -1.
    10030    2    1    2    0    0  0.00000000000E+00  0.00000000000E+00  0.47259133741E+03  0.30759831486E+04  0.30394620837E+04 0.  0.
        1    1    3    3  502    0  0.51868058167E+03 -0.13012254620E+04  0.83275435805E+03  0.16296309612E+04  0.50400001928E-02 0. -1.
       -1    1    3    3    0  502 -0.51868058167E+03  0.13012254620E+04 -0.36016302064E+03  0.14463521875E+04  0.50400001928E-02 0.  1.
</event>
<event>
 5   0  0.2970915E-06  0.2955774E+04  0.7818609E-02  0.8256474E-01
        2   -1    0    0  501    0  0.00000000000E+00  0.00000000000E+00  0.23904430052E+04  0.23904430052E+04  0.25500000920E-02 0. -1.
       -2   -1    0    0    0  501  0.00000000000E+00  0.00000000000E+00 -0.91370088260E+03  0.91370088260E+03  0.25500000920E-02 0.  1.
    10030    2    1    2    0    0  0.00000000000E+00  0.00000000000E+00  0.14767421226E+04  0.33041438878E+04  0.29557739316E+04 0.  0.
        4    1    3    3  502    0 -0.92271029116E+03  0.36820279063E+03  0.19614868982E+04  0.21987269137E+04  0.12699999809E+01 0. -1.
       -4    1    3    3    0  502  0.92271029116E+03 -0.36820279063E+03 -0.48474477552E+03  0.11054169742E+04  0.12699999809E+01 0.  1.
</event>
<event>
 5   0  0.1054384E-06  0.3005389E+04  0.7818609E-02  0.8242194E-01
        1   -1    0    0  501    0  0.00000000000E+00  0.00000000000E+00  0.27223862402E+04  0.27223862402E+04  0.50400001928E-02 0. -1.
       -1   -1    0    0    0  501  0.00000000000E+00  0.00000000000E+00 -0.82945255427E+03  0.82945255429E+03  0.50400001928E-02 0.  1.
    10030    2    1    2    0    0  0.00000000000E+00  0.00000000000E+00  0.18929336860E+04  0.35518387945E+04  0.30053886409E+04 0.  0.
        2    1    3    3  502    0  0.14608857903E+04 -0.26492251463E+03  0.67255139612E+03  0.16299376097E+04  0.25500000920E-02 0.  1.
       -2    1    3    3    0  502 -0.14608857903E+04  0.26492251463E+03  0.12203822898E+04  0.19219011849E+04  0.25500000920E-02 0. -1.
</event>
<event>
 5   0  0.1097402E-06  0.3022143E+04  0.7818609E-02  0.8237436E-01
       -1   -1    0    0    0  501  0.00000000000E+00  0.00000000000E+00  0.14747878279E+04  0.14747878279E+04  0.50400001928E-02 0.  1.
        1   -1    0    0  501    0  0.00000000000E+00  0.00000000000E+00 -0.15482481275E+04  0.15482481275E+04  0.50400001928E-02 0. -1.
    10030    2    1    2    0    0  0.00000000000E+00  0.00000000000E+00 -0.73460299664E+02  0.30230359554E+04  0.30221432746E+04 0.  0.
        4    1    3    3  502    0 -0.46965844660E+03 -0.99885704268E+03 -0.10690434302E+04  0.15366033700E+04  0.12699999809E+01 0. -1.
       -4    1    3    3    0  502  0.46965844660E+03  0.99885704268E+03  0.99558313054E+03  0.14864325854E+04  0.12699999809E+01 0.  1.
</event>
<event>
 5   0  0.2985941E-06  0.3006445E+04  0.7818609E-02  0.8241893E-01
        2   -1    0    0  501    0  0.00000000000E+00  0.00000000000E+00  0.13230549433E+04  0.13230549433E+04  0.25500000920E-02 0.  1.
       -2   -1    0    0    0  501  0.00000000000E+00  0.00000000000E+00 -0.17079243446E+04  0.17079243446E+04  0.25500000920E-02 0. -1.
    10030    2    1    2    0    0  0.00000000000E+00  0.00000000000E+00 -0.38486940131E+03  0.30309792879E+04  0.30064449085E+04 0.  0.
        3    1    3    3  502    0 -0.69767153828E+02  0.12973475904E+04  0.56984372594E+03  0.14186966230E+04  0.10100000352E+00 0.  1.
       -3    1    3    3    0  502  0.69767153828E+02 -0.12973475904E+04 -0.95471312725E+03  0.16122826649E+04  0.10100000352E+00 0. -1.
</event>
<event>
 5   0  0.1091075E-06  0.3015128E+04  0.7818609E-02  0.8239424E-01
        1   -1    0    0  501    0  0.00000000000E+00  0.00000000000E+00  0.18909981908E+04  0.18909981908E+04  0.50400001928E-02 0. -1.
       -1   -1    0    0    0  501  0.00000000000E+00  0.00000000000E+00 -0.12018783335E+04  0.12018783335E+04  0.50400001928E-02 0.  1.
    10030    2    1    2    0    0  0.00000000000E+00  0.00000000000E+00  0.68911985735E+03  0.30928765243E+04  0.30151283583E+04 0.  0.
        1    1    3    3  502    0  0.58808724296E+03  0.57477259253E+03  0.16406841497E+04  0.18352260399E+04  0.50400001928E-02 0. -1.
       -1    1    3    3    0  502 -0.58808724296E+03 -0.57477259253E+03 -0.95156429234E+03  0.12576504844E+04  0.50400001928E-02 0.  1.
</event>
<event>
 5   0  0.2948711E-06  0.2994197E+04  0.7818609E-02  0.8245390E-01
        2   -1    0    0  501    0  0.00000000000E+00  0.00000000000E+00  0.18505301802E+04  0.18505301802E+04  0.25500000920E-02 0. -1.
       -2   -1    0    0    0  501  0.00000000000E+00  0.00000000000E+00 -0.12111687195E+04  0.12111687195E+04  0.25500000920E-02 0.  1.
    10030    2    1    2    0    0  0.00000000000E+00  0.00000000000E+00  0.63936146071E+03  0.30616988996E+04  0.29941972337E+04 0.  0.
        5    1    3    3  502    0  0.11634321023E+04  0.34760951366E+02 -0.64308659994E+03  0.13297988740E+04  0.46999998093E+01 0.  1.
       -5    1    3    3    0  502 -0.11634321023E+04 -0.34760951366E+02  0.12824480607E+04  0.17319000256E+04  0.46999998093E+01 0. -1.
</event>
<event>
 5   0  0.1054384E-06  0.2966452E+04  0.7818609E-02  0.8253376E-01
       -1   -1    0    0    0  501  0.00000000000E+00  0.00000000000E+00  0.14669046144E+04  0.14669046144E+04  0.50400001928E-02 0. -1.
        1   -1    0    0  501    0  0.00000000000E+00  0.00000000000E+00 -0.14997286208E+04  0.14997286208E+04  0.50400001928E-02 0.  1.
    10030    2    1    2    0    0  0.00000000000E+00  0.00000000000E+00 -0.32824006364E+02  0.29666332352E+04  0.29664516408E+04 0.  0.
        2    1    3    3  502    0  0.13602347146E+04 -0.53382883540E+03  0.23805814673E+03  0.14805010590E+04  0.25500000920E-02 0. -1.
       -2    1    3    3    0  502 -0.13602347146E+04  0.53382883540E+03 -0.27088215309E+03  0.14861321762E+04  0.25500000920E-02 0.  1.
</event>
<event>
 5   0  0.3113328E-06  0.3094149E+04  0.7818609E-02  0.8217345E-01
       -2   -1    0    0    0  501  0.00000000000E+00  0.00000000000E+00  0.84468423572E+03  0.84468423572E+03  0.25500000920E-02 0. -1.
        2   -1    0    0  501    0  0.00000000000E+00  0.00000000000E+00 -0.28335321163E+04  0.28335321163E+04  0.25500000920E-02 0.  1.
    10030    2    1    2    0    0  0.00000000000E+00  0.00000000000E+00 -0.19888478806E+04  0.36782163520E+04  0.30941492595E+04 0.  0.
        1    1    3    3  502    0  0.27884747201E+03 -0.13344494594E+04 -0.18638725858E+04  0.23092276389E+04  0.50400001928E-02 0.  1.
       -1    1    3    3    0  502 -0.27884747201E+03  0.13344494594E+04 -0.12497529479E+03  0.13689887131E+04  0.50400001928E-02 0. -1.
</event>
<event>
 5   0  0.2862033E-06  0.2890798E+04  0.7818609E-02  0.8275621E-01
        2   -1    0    0  501    0  0.00000000000E+00  0.00000000000E+00  0.14662105185E+04  0.14662105185E+04  0.25500000920E-02 0.  1.
       -2   -1    0    0    0  501  0.00000000000E+00  0.00000000000E+00 -0.14248830715E+04  0.14248830715E+04  0.25500000920E-02 0. -1.
    10030    2    1    2    0    0  0.00000000000E+00  0.00000000000E+00  0.41327446995E+02  0.28910935899E+04  0.28907981922E+04 0.  0.
        2    1    3    3  502    0 -0.54582428068E+03 -0.30179271866E+02  0.13588376757E+04  0.14646756510E+04  0.25500000920E-02 0.  1.
       -2    1    3    3    0  502  0.54582428068E+03  0.30179271866E+02 -0.13175102287E+04  0.14264179389E+04  0.25500000920E-02 0. -1.
</event>
<event>
 5   0  0.1097402E-06  0.3004931E+04  0.7818609E-02  0.8242324E-01
        1   -1    0    0  501    0  0.00000000000E+00  0.00000000000E+00  0.16064685425E+04  0.16064685425E+04  0.50400001928E-02 0.  1.
       -1   -1    0    0    0  501  0.00000000000E+00  0.00000000000E+00 -0.14051953790E+04  0.14051953790E+04  0.50400001928E-02 0. -1.
    10030    2    1    2    0    0  0.00000000000E+00  0.00000000000E+00  0.20127316346E+03  0.30116639215E+04  0.30049307296E+04 0.  0.
        4    1    3    3  502    0  0.81952966373E+03 -0.10265298477E+04 -0.63038666663E+03  0.14569767878E+04  0.12699999809E+01 0. -1.
       -4    1    3    3    0  502 -0.81952966373E+03  0.10265298477E+04  0.83165983009E+03  0.15546871337E+04  0.12699999809E+01 0.  1.
</event>
<event>
 5   0  0.2970915E-06  0.2991366E+04  0.7818609E-02  0.8246201E-01
        2   -1    0    0  501    0  0.00000000000E+00  0.00000000000E+00  0.22596497408E+04  0.22596497408E+04  0.25500000920E-02 0. -1.
       -2   -1    0    0    0  501  0.00000000000E+00  0.00000000000E+00 -0.99000640617E+03  0.99000640617E+03  0.25500000920E-02 0.  1.
    10030    2    1    2    0    0  0.00000000000E+00  0.00000000000E+00  0.12696433347E+04  0.32496561470E+04  0.29913660553E+04 0.  0.
        4    1    3    3  502    0  0.39501818333E+02  0.65490930654E+02 -0.98788013952E+03  0.99083714030E+03  0.12699999809E+01 0.  1.
       -4    1    3    3    0  502 -0.39501818333E+02 -0.65490930654E+02  0.22575234742E+04  0.22588190067E+04  0.12699999809E+01 0. -1.
</event>
<event>
 5   0  0.2948711E-06  0.3010803E+04  0.7818609E-02  0.8240653E-01
       -2   -1    0    0    0  501  0.00000000000E+00  0.00000000000E+00  0.18430807995E+04  0.18430807996E+04  0.25500000920E-02 0. -1.
        2   -1    0    0  501    0  0.00000000000E+00  0.00000000000E+00 -0.12295895779E+04  0.12295895779E+04  0.25500000920E-02 0.  1.
    10030    2    1    2    0    0  0.00000000000E+00  0.00000000000E+00  0.61349122165E+03  0.30726703775E+04  0.30108025125E+04 0.  0.
        5    1    3    3  502    0 -0.11778621726E+04  0.39950048158E+03  0.11722592514E+04  0.17091441645E+04  0.46999998093E+01 0. -1.
       -5    1    3    3    0  502  0.11778621726E+04 -0.39950048158E+03 -0.55876802972E+03  0.13635262130E+04  0.46999998093E+01 0.  1.
</event>
<event>
 5   0  0.1091075E-06  0.3008995E+04  0.7818609E-02  0.8241167E-01
        1   -1    0    0  501    0  0.00000000000E+00  0.00000000000E+00  0.25978754547E+04  0.25978754547E+04  0.50400001928E-02 0.  1.
       -1   -1    0    0    0  501  0.00000000000E+00  0.00000000000E+00 -0.87129387984E+03  0.87129387986E+03  0.50400001928E-02 0. -1.
    10030    2    1    2    0    0  0.00000000000E+00  0.00000000000E+00  0.17265815749E+04  0.34691693346E+04  0.30089951707E+04 0.  0.
        1    1    3    3  502    0 -0.13390428345E+04  0.11366253814E+03  0.16431696178E+04  0.21227249652E+04  0.50400001928E-02 0.  1.
       -1    1    3    3    0  502  0.13390428345E+04 -0.11366253814E+03  0.83411957084E+02  0.13464443694E+04  0.50400001928E-02 0. -1.
</event>
<event>
 5   0  0.2970915E-06  0.2997846E+04  0.7818609E-02  0.8244346E-01
        2   -1    0    0  501    0  0.00000000000E+00  0.00000000000E+00  0.29603976986E+04  0.29603976986E+04  0.25500000920E-02 0. -1.
       -2   -1    0    0    0  501  0.00000000000E+00  0.00000000000E+00 -0.75894202620E+03  0.75894202621E+03  0.25500000920E-02 0.  1.
    10030    2    1    2    0    0  0.00000000000E+00  0.00000000000E+00  0.22014556724E+04  0.37193397248E+04  0.29978460452E+04 0.  0.
        4    1    3    3  502    0 -0.59720264983E+03 -0.13655249575E+04  0.90276717186E+03  0.17424980901E+04  0.12699999809E+01 0. -1.
       -4    1    3    3    0  502  0.59720264983E+03  0.13655249575E+04  0.12986885005E+04  0.19768416347E+04  0.12699999809E+01 0.  1.
</event>
<event>
 5   0  0.1091076E-06  0.3045253E+04  0.7818609E-02  0.8230925E-01
       -1   -1    0    0    0  501  0.00000000000E+00  0.00000000000E+00  0.11649933968E+04  0.11649933968E+04  0.50400001928E-02 0.  1.
        1   -1    0    0  501    0  0.00000000000E+00  0.00000000000E+00 -0.19900465657E+04  0.19900465658E+04  0.50400001928E-02 0. -1.
    10030    2    1    2    0    0  0.00000000000E+00  0.00000000000E+00 -0.82505316895E+03  0.31550399626E+04  0.30452527701E+04 0.  0.
        3    1    3    3  502    0 -0.15015663651E+04  0.23847399078E+03 -0.49808531261E+03  0.15998938658E+04  0.10100000352E+00 0.  1.
       -3    1    3    3    0  502  0.15015663651E+04 -0.23847399078E+03 -0.32696785634E+03  0.15551460968E+04  0.10100000352E+00 0. -1.
</event>
<event>
 5   0  0.1054384E-06  0.2990035E+04  0.7818609E-02  0.8246582E-01
        1   -1    0    0  501    0  0.00000000000E+00  0.00000000000E+00  0.16950171993E+04  0.16950171993E+04  0.50400001928E-02 0. -1.
       -1   -1    0    0    0  501  0.00000000000E+00  0.00000000000E+00 -0.13186159763E+04  0.13186159763E+04  0.50400001928E-02 0.  1.
    10030    2    1    2    0    0  0.00000000000E+00  0.00000000000E+00  0.37640122302E+03  0.30136331757E+04  0.29900346213E+04 0.  0.
        2    1    3    3  502    0 -0.38563448440E+02  0.78257214327E+03  0.14715015505E+04  0.16671002106E+04  0.25500000920E-02 0. -1.
       -2    1    3    3    0  502  0.38563448440E+02 -0.78257214327E+03 -0.10951003275E+04  0.13465329651E+04  0.25500000920E-02 0.  1.
</event>
<event>
 5   0  0.1054384E-06  0.2876558E+04  0.7818609E-02  0.8279887E-01
        1   -1    0    0  501    0  0.00000000000E+00  0.00000000000E+00  0.77603113338E+03  0.77603113339E+03  0.50400001928E-02 0.  1.
       -1   -1    0    0    0  501  0.00000000000E+00  0.00000000000E+00 -0.26656743572E+04  0.26656743572E+04  0.50400001928E-02 0. -1.
    10030    2    1    2    0    0  0.00000000000E+00  0.00000000000E+00 -0.18896432238E+04  0.34417054906E+04  0.28765578685E+04 0.  0.
        2    1    3    3  502    0  0.44206482431E+03 -0.43547497018E+03 -0.24972740764E+04  0.25732154149E+04  0.25500000920E-02 0. -1.
       -2    1    3    3    0  502 -0.44206482431E+03  0.43547497018E+03  0.60763085262E+03  0.86849007571E+03  0.25500000920E-02 0.  1.
</event>
<event>
 5   0  0.1091075E-06  0.2946723E+04  0.7818609E-02  0.8259110E-01
        1   -1    0    0  501    0  0.00000000000E+00  0.00000000000E+00  0.27047521885E+04  0.27047521885E+04  0.50400001928E-02 0. -1.
       -1   -1    0    0    0  501  0.00000000000E+00  0.00000000000E+00 -0.80258535861E+03  0.80258535863E+03  0.50400001928E-02 0.  1.
    10030    2    1    2    0    0  0.00000000000E+00  0.00000000000E+00  0.19021668299E+04  0.35073375471E+04  0.29467232684E+04 0.  0.
        1    1    3    3  502    0  0.73815728636E+02  0.46602034671E+03 -0.71023058398E+03  0.85267297823E+03  0.50400001928E-02 0.  1.
       -1    1    3    3    0  502 -0.73815728636E+02 -0.46602034671E+03  0.26123974138E+04  0.26546645689E+04  0.50400001928E-02 0. -1.
</event>
<event>
 5   0  0.1113245E-06  0.2979829E+04  0.7818609E-02  0.8249514E-01
       -1   -1    0    0    0  501  0.00000000000E+00  0.00000000000E+00  0.20250383704E+04  0.20250383704E+04  0.50400001928E-02 0.  1.
        1   -1    0    0  501    0  0.00000000000E+00  0.00000000000E+00 -0.10961991805E+04  0.10961991805E+04  0.50400001928E-02 0. -1.
    10030    2    1    2    0    0  0.00000000000E+00  0.00000000000E+00  0.92883918989E+03  0.31212375509E+04  0.29798291241E+04 0.  0.
        5    1    3    3  502    0 -0.69246213916E+03 -0.11690966188E+04  0.11045960755E+04  0.17511268652E+04  0.46999998093E+01 0.  1.
       -5    1    3    3    0  502  0.69246213916E+03  0.11690966188E+04 -0.17575688559E+03  0.13701106857E+04  0.46999998093E+01 0. -1.
</event>
<event>
 5   0  0.1054384E-06  0.2968894E+04  0.7818609E-02  0.8252669E-01
        1   -1    0    0  501    0  0.00000000000E+00  0.00000000000E+00  0.22714560464E+04  0.22714560464E+04  0.50400001928E-02 0. -1.
       -1   -1    0    0    0  501  0.00000000000E+00  0.00000000000E+00 -0.97011925406E+03  0.97011925408E+03  0.50400001928E-02 0.  1.
    10030    2    1    2    0    0  0.00000000000E+00  0.00000000000E+00  0.13013367923E+04  0.32415753004E+04  0.29688942355E+04 0.  0.
        2    1    3    3  502    0  0.18427118353E+03 -0.13107436744E+04 -0.83047564521E+02  0.13262359319E+04  0.25500000920E-02 0.  1.
       -2    1    3    3    0  502 -0.18427118353E+03  0.13107436744E+04  0.13843843568E+04  0.19153393685E+04  0.25500000920E-02 0. -1.
</event>
<event>
 5   0  0.2970915E-06  0.2990582E+04  0.7818609E-02  0.8246425E-01
        2   -1    0    0  501    0  0.00000000000E+00  0.00000000000E+00  0.23482108307E+04  0.23482108307E+04  0.25500000920E-02 0. -1.
       -2   -1    0    0    0  501  0.00000000000E+00  0.00000000000E+00 -0.95216985737E+03  0.95216985738E+03  0.25500000920E-02 0.  1.
    10030    2    1    2    0    0  0.00000000000E+00  0.00000000000E+00  0.13960409733E+04  0.33003806881E+04  0.29905822655E+04 0.  0.
        4    1    3    3  502    0 -0.12144823703E+04 -0.73313659999E+02 -0.26124840183E+03  0.12444254341E+04  0.12699999809E+01 0.  1.
       -4    1    3    3    0  502  0.12144823703E+04  0.73313659999E+02  0.16572893752E+04  0.20559552540E+04  0.12699999809E+01 0. -1.
</event>
<event>
 5   0  0.2970915E-06  0.2966573E+04  0.7818609E-02  0.8253341E-01
        2   -1    0    0  501    0  0.00000000000E+00  0.00000000000E+00  0.17406188292E+04  0.17406188292E+04  0.25500000920E-02 0. -1.
       -2   -1    0    0    0  501  0.00000000000E+00  0.00000000000E+00 -0.12639981210E+04  0.12639981210E+04  0.25500000920E-02 0.  1.
    10030    2    1    2    0    0  0.00000000000E+00  0.00000000000E+00  0.47662070818E+03  0.30046169501E+04  0.29665730595E+04 0.  0.
        4    1    3    3  502    0 -0.46458948031E+03  0.79736451225E+03  0.14144534033E+04  0.16888793899E+04  0.12699999809E+01 0. -1.
       -4    1    3    3    0  502  0.46458948031E+03 -0.79736451225E+03 -0.93783269509E+03  0.13157375603E+04  0.12699999809E+01 0.  1.
</event>
<event>
 5   0  0.3113328E-06  0.3005642E+04  0.7818609E-02  0.8242122E-01
       -2   -1    0    0    0  501  0.00000000000E+00  0.00000000000E+00  0.97318971584E+03  0.97318971585E+03  0.25500000920E-02 0.  1.
        2   -1    0    0  501    0  0.00000000000E+00  0.00000000000E+00 -0.23206887542E+04  0.23206887542E+04  0.25500000920E-02 0. -1.
    10030    2    1    2    0    0  0.00000000000E+00  0.00000000000E+00 -0.13474990384E+04  0.32938784701E+04  0.30056416482E+04 0.  0.
        1    1    3    3  502    0 -0.84486915880E+03  0.18937359532E+03  0.67237988277E+03  0.10962485853E+04  0.50400001928E-02 0.  1.
       -1    1    3    3    0  502  0.84486915880E+03 -0.18937359532E+03 -0.20198789211E+04  0.21976298847E+04  0.50400001928E-02 0. -1.
</event>
<event>
 5   0  0.1097402E-06  0.2983986E+04  0.7818609E-02  0.8248319E-01
       -1   -1    0    0    0  501  0.00000000000E+00  0.00000000000E+00  0.16212585361E+04  0.16212585361E+04  0.50400001928E-02 0.  1.
        1   -1    0    0  501    0  0.00000000000E+00  0.00000000000E+00 -0.13730336644E+04  0.13730336644E+04  0.50400001928E-02 0. -1.
    10030    2    1    2    0    0  0.00000000000E+00  0.00000000000E+00  0.24822487170E+03  0.29942922005E+04  0.29839856225E+04 0.  0.
        4    1    3    3  502    0 -0.14419993847E+04 -0.22647057806E+03  0.43403157260E+03  0.15228381947E+04  0.12699999809E+01 0.  1.
       -4    1    3    3    0  502  0.14419993847E+04  0.22647057806E+03 -0.18580670090E+03  0.14714540058E+04  0.12699999809E+01 0. -1.
</event>
<event>
 5   0  0.1097402E-06  0.3003764E+04  0.7818609E-02  0.8242657E-01
        1   -1    0    0  501    0  0.00000000000E+00  0.00000000000E+00  0.14690135591E+04  0.14690135591E+04  0.50400001928E-02 0.  1.
       -1   -1    0    0    0  501  0.00000000000E+00  0.00000000000E+00 -0.15354859445E+04  0.15354859446E+04  0.50400001928E-02 0. -1.
    10030    2    1    2    0    0  0.00000000000E+00  0.00000000000E+00 -0.66472385452E+02  0.30044995037E+04  0.30037640868E+04 0.  0.
        4    1    3    3  502    0  0.95675783994E+03 -0.54990390964E+03 -0.10522437755E+04  0.15247945600E+04  0.12699999809E+01 0. -1.
       -4    1    3    3    0  502 -0.95675783994E+03  0.54990390964E+03  0.98577139003E+03  0.14797049437E+04  0.12699999809E+01 0.  1.
</event>
<event>
 5   0  0.2948711E-06  0.2945895E+04  0.7818609E-02  0.8259352E-01
       -2   -1    0    0    0  501  0.00000000000E+00  0.00000000000E+00  0.14604023470E+04  0.14604023470E+04  0.25500000920E-02 0.  1.
        2   -1    0    0  501    0  0.00000000000E+00  0.00000000000E+00 -0.14856005196E+04  0.14856005196E+04  0.25500000920E-02 0. -1.
    10030    2    1    2    0    0  0.00000000000E+00  0.00000000000E+00 -0.25198172613E+02  0.29460028666E+04  0.29458951003E+04 0.  0.
        5    1    3    3  502    0  0.11901081759E+04  0.75532104847E+03 -0.44003142598E+03  0.14766574087E+04  0.46999998093E+01 0. -1.
       -5    1    3    3    0  502 -0.11901081759E+04 -0.75532104847E+03  0.41483325336E+03  0.14693454579E+04  0.46999998093E+01 0.  1.
</event>
<event>
 5   0  0.1113245E-06  0.2883608E+04  0.7818609E-02  0.8277771E-01
        1   -1    0    0  501    0  0.00000000000E+00  0.00000000000E+00  0.21290264082E+04  0.21290264082E+04  0.50400001928E-02 0. -1.
       -1   -1    0    0    0  501  0.00000000000E+00  0.00000000000E+00 -0.97640836647E+03  0.97640836648E+03  0.50400001928E-02 0.  1.
    10030    2    1    2    0    0  0.00000000000E+00  0.00000000000E+00  0.11526180417E+04  0.31054347747E+04  0.28836082934E+04 0.  0.
        5    1    3    3  502    0  0.91137487092E+03  0.42118373608E+03 -0.53807712989E+03  0.11391000758E+04  0.46999998093E+01 0.  1.
       -5    1    3    3    0  502 -0.91137487092E+03 -0.42118373608E+03  0.16906951716E+04  0.19663346989E+04  0.46999998093E+01 0. -1.
</event>
<event>
 5   0  0.9749500E-07  0.3002945E+04  0.7818609E-02  0.8242890E-01
       -3   -1    0    0    0  501  0.00000000000E+00  0.00000000000E+00  0.13347589807E+04  0.13347589845E+04  0.10100000352E+00 0. -1.
        3   -1    0    0  501    0  0.00000000000E+00  0.00000000000E+00 -0.16890086666E+04  0.16890086696E+04  0.10100000352E+00 0.  1.
    10030    2    1    2    0    0  0.00000000000E+00  0.00000000000E+00 -0.35424968586E+03  0.30237676541E+04  0.30029448856E+04 0.  0.
        4    1    3    3  502    0  0.23367335457E+03 -0.14390266685E+04 -0.53880472045E+03  0.15542564554E+04  0.12699999809E+01 0.  1.
       -4    1    3    3    0  502 -0.23367335457E+03  0.14390266685E+04  0.18455503460E+03  0.14695111987E+04  0.12699999809E+01 0. -1.
</event>
<event>
 5   0  0.2862033E-06  0.2997010E+04  0.7818609E-02  0.8244585E-01
       -2   -1    0    0    0  501  0.00000000000E+00  0.00000000000E+00  0.23018152101E+04  0.23018152101E+04  0.25500000920E-02 0.  1.
        2   -1    0    0  501    0  0.00000000000E+00  0.00000000000E+00 -0.97554204716E+03  0.97554204716E+03  0.25500000920E-02 0. -1.
    10030    2    1    2    0    0  0.00000000000E+00  0.00000000000E+00  0.13262731630E+04  0.32773572573E+04  0.29970101917E+04 0.  0.
        2    1    3    3  502    0  0.13667605326E+04 -0.48822165778E+03  0.10710187241E+04  0.18037394069E+04  0.25500000920E-02 0.  1.
       -2    1    3    3    0  502 -0.13667605326E+04  0.48822165778E+03  0.25525443883E+03  0.14736178504E+04  0.25500000920E-02 0. -1.
</event>
<event>
 5   0  0.1091076E-06  0.3009285E+04  0.7818609E-02  0.8241085E-01
        1   -1    0    0  501    0  0.00000000000E+00  0.00000000000E+00  0.12569854589E+04  0.12569854589E+04  0.50400001928E-02 0. -1.
       -1   -1    0    0    0  501  0.00000000000E+00  0.00000000000E+00 -0.18010938016E+04  0.18010938016E+04  0.50400001928E-02 0.  1.
    10030    2    1    2    0    0  0.00000000000E+00  0.00000000000E+00 -0.54410834272E+03  0.30580792605E+04  0.30092847780E+04 0.  0.
        3    1    3    3  502    0 -0.93737024265E+03 -0.48924779265E+03  0.81578086218E+03  0.13354867277E+04  0.10100000352E+00 0. -1.
       -3    1    3    3    0  502  0.93737024265E+03  0.48924779265E+03 -0.13598892049E+04  0.17225925329E+04  0.10100000352E+00 0.  1.
</event>
<event>
 5   0  0.2985941E-06  0.2994423E+04  0.7818609E-02  0.8245325E-01
        2   -1    0    0  501    0  0.00000000000E+00  0.00000000000E+00  0.18972943807E+04  0.18972943807E+04  0.25500000920E-02 0. -1.
       -2   -1    0    0    0  501  0.00000000000E+00  0.00000000000E+00 -0.11814938141E+04  0.11814938141E+04  0.25500000920E-02 0.  1.
    10030    2    1    2    0    0  0.00000000000E+00  0.00000000000E+00  0.71580056659E+03  0.30787881947E+04  0.29944225315E+04 0.  0.
        3    1    3    3  502    0 -0.25597968191E+03  0.31562024448E+03 -0.11237055540E+04  0.11949292525E+04  0.10100000352E+00 0.  1.
       -3    1    3    3    0  502  0.25597968191E+03 -0.31562024448E+03  0.18395061206E+04  0.18838589422E+04  0.10100000352E+00 0. -1.
</event>
<event>
 5   0  0.2970915E-06  0.2958723E+04  0.7818609E-02  0.8255617E-01
        2   -1    0    0  501    0  0.00000000000E+00  0.00000000000E+00  0.14466300211E+04  0.14466300211E+04  0.25500000920E-02 0. -1.
       -2   -1    0    0    0  501  0.00000000000E+00  0.00000000000E+00 -0.15128333964E+04  0.15128333964E+04  0.25500000920E-02 0.  1.
    10030    2    1    2    0    0  0.00000000000E+00  0.00000000000E+00 -0.66203375251E+02  0.29594634175E+04  0.29587228381E+04 0.  0.
        4    1    3    3  502    0 -0.99921395481E+03 -0.15424443393E+03  0.10471171089E+04  0.14555671491E+04  0.12699999809E+01 0. -1.
       -4    1    3    3    0  502  0.99921395481E+03  0.15424443393E+03 -0.11133204841E+04  0.15038962684E+04  0.12699999809E+01 0.  1.
</event>
<event>
 5   0  0.2970915E-06  0.3008454E+04  0.7818609E-02  0.8241321E-01
        2   -1    0    0  501    0  0.00000000000E+00  0.00000000000E+00  0.18486793329E+04  0.18486793329E+04  0.25500000920E-02 0.  1.
       -2   -1    0    0    0  501  0.00000000000E+00  0.00000000000E+00 -0.12239538673E+04  0.12239538673E+04  0.25500000920E-02 0. -1.
    10030    2    1    2    0    0  0.00000000000E+00  0.00000000000E+00  0.62472546555E+03  0.30726332002E+04  0.30084535688E+04 0.  0.
        4    1    3    3  502    0 -0.13678870750E+04  0.61085181390E+03  0.45105968284E+03  0.15645163594E+04  0.12699999809E+01 0. -1.
       -4    1    3    3    0  502  0.13678870750E+04 -0.61085181390E+03  0.17366578271E+03  0.15081168408E+04  0.12699999809E+01 0.  1.
</event>
<event>
 5   0  0.1054384E-06  0.2971680E+04  0.7818609E-02  0.8251864E-01
        1   -1    0    0  501    0  0.00000000000E+00  0.00000000000E+00  0.14830492039E+04  0.14830492039E+04  0.50400001928E-02 0. -1.
       -1   -1    0    0    0  501  0.00000000000E+00  0.00000000000E+00 -0.14886363680E+04  0.14886363680E+04  0.50400001928E-02 0.  1.
    10030    2    1    2    0    0  0.00000000000E+00  0.00000000000E+00 -0.55871640475E+01  0.29716855719E+04  0.29716803196E+04 0.  0.
        2    1    3    3  502    0  0.36921249688E+03  0.12484672469E+04 -0.71884836932E+03  0.14871890642E+04  0.25500000920E-02 0.  1.
       -2    1    3    3    0  502 -0.36921249688E+03 -0.12484672469E+04  0.71326120528E+03  0.14844965077E+04  0.25500000920E-02 0. -1.
</event>
<event>
 5   0  0.3113328E-06  0.2992160E+04  0.7818609E-02  0.8245973E-01
       -2   -1    0    0    0  501  0.00000000000E+00  0.00000000000E+00  0.11813531590E+04  0.11813531590E+04  0.25500000920E-02 0. -1.
        2   -1    0    0  501    0  0.00000000000E+00  0.00000000000E+00 -0.18946541600E+04  0.18946541600E+04  0.25500000920E-02 0.  1.
    10030    2    1    2    0    0  0.00000000000E+00  0.00000000000E+00 -0.71330100099E+03  0.30760073191E+04  0.29921602078E+04 0.  0.
        1    1    3    3  502    0  0.23206842107E+03  0.42111497907E+03 -0.18130580666E+04  0.18757326917E+04  0.50400001928E-02 0.  1.
       -1    1    3    3    0  502 -0.23206842107E+03 -0.42111497907E+03  0.10997570656E+04  0.12002746274E+04  0.50400001928E-02 0. -1.
</event>
<event>
 5   0  0.1091075E-06  0.2999812E+04  0.7818609E-02  0.8243784E-01
        1   -1    0    0  501    0  0.00000000000E+00  0.00000000000E+00  0.13703200783E+04  0.13703200783E+04  0.50400001928E-02 0. -1.
       -1   -1    0    0    0  501  0.00000000000E+00  0.00000000000E+00 -0.16417469090E+04  0.16417469090E+04  0.50400001928E-02 0.  1.
    10030    2    1    2    0    0  0.00000000000E+00  0.00000000000E+00 -0.27142683073E+03  0.30120669874E+04  0.29998124961E+04 0.  0.
        1    1    3    3  502    0 -0.14279421698E+04 -0.29351691910E+03 -0.49006830189E+03  0.15379655271E+04  0.50400001928E-02 0.  1.
       -1    1    3    3    0  502  0.14279421698E+04  0.29351691910E+03  0.21864147116E+03  0.14741014602E+04  0.50400001928E-02 0. -1.
</event>
<event>
 5   0  0.1113245E-06  0.2950702E+04  0.7818609E-02  0.8257950E-01
       -1   -1    0    0    0  501  0.00000000000E+00  0.00000000000E+00  0.14992646482E+04  0.14992646482E+04  0.50400001928E-02 0.  1.
        1   -1    0    0  501    0  0.00000000000E+00  0.00000000000E+00 -0.14518185409E+04  0.14518185409E+04  0.50400001928E-02 0. -1.
    10030    2    1    2    0    0  0.00000000000E+00  0.00000000000E+00  0.47446107342E+02  0.29510831892E+04  0.29507017566E+04 0.  0.
        5    1    3    3  502    0  0.30554786450E+03 -0.36705190702E+03  0.14198087706E+04  0.14979871946E+04  0.46999998093E+01 0.  1.
       -5    1    3    3    0  502 -0.30554786450E+03  0.36705190702E+03 -0.13723626633E+04  0.14530959946E+04  0.46999998093E+01 0. -1.
</event>
<event>
 5   0  0.3113328E-06  0.2983739E+04  0.7818609E-02  0.8248390E-01
        2   -1    0    0  501    0  0.00000000000E+00  0.00000000000E+00  0.92679292450E+03  0.92679292451E+03  0.25500000920E-02 0.  1.
       -2   -1    0    0    0  501  0.00000000000E+00  0.00000000000E+00 -0.24014797061E+04  0.24014797061E+04  0.25500000920E-02 0. -1.
    10030    2    1    2    0    0  0.00000000000E+00  0.00000000000E+00 -0.14746867816E+04  0.33282726306E+04  0.29837388626E+04 0.  0.
        1    1    3    3  502    0  0.93454934324E+02  0.61372162424E+03  0.77587212036E+03  0.99366272144E+03  0.50400001928E-02 0.  1.
       -1    1    3    3    0  502 -0.93454934324E+02 -0.61372162424E+03 -0.22505589020E+04  0.23346099092E+04  0.50400001928E-02 0. -1.
</event>
<event>
 5   0  0.1113245E-06  0.2993638E+04  0.7818609E-02  0.8245550E-01
       -1   -1    0    0    0  501  0.00000000000E+00  0.00000000000E+00  0.13427028032E+04  0.13427028032E+04  0.50400001928E-02 0.  1.
        1   -1    0    0  501    0  0.00000000000E+00  0.00000000000E+00 -0.16686243066E+04  0.16686243066E+04  0.50400001928E-02 0. -1.
    10030    2    1    2    0    0  0.00000000000E+00  0.00000000000E+00 -0.32592150339E+03  0.30113271098E+04  0.29936376093E+04 0.  0.
        5    1    3    3  502    0  0.87126111562E+03 -0.35799793287E+03  0.10071782486E+04  0.13790172464E+04  0.46999998093E+01 0.  1.
       -5    1    3    3    0  502 -0.87126111562E+03  0.35799793287E+03 -0.13330997519E+04  0.16323098634E+04  0.46999998093E+01 0. -1.
</event>
<event>
 5   0  0.1091076E-06  0.3002841E+04  0.7818609E-02  0.8242920E-01
        1   -1    0    0  501    0  0.00000000000E+00  0.00000000000E+00  0.21309674846E+04  0.21309674846E+04  0.50400001928E-02 0. -1.
       -1   -1    0    0    0  501  0.00000000000E+00  0.00000000000E+00 -0.10578592395E+04  0.10578592395E+04  0.50400001928E-02 0.  1.
    10030    2    1    2    0    0  0.00000000000E+00  0.00000000000E+00  0.10731082451E+04  0.31888267241E+04  0.30028410832E+04 0.  0.
        3    1    3    3  502    0 -0.13014409684E+04 -0.20245123326E+03  0.13019802377E+04  0.18519955847E+04  0.10100000352E+00 0.  1.
       -3    1    3    3    0  502  0.13014409684E+04  0.20245123326E+03 -0.22887199268E+03  0.13368311394E+04  0.10100000352E+00 0. -1.
</event>
<event>
 5   0  0.1097402E-06  0.3040579E+04  0.7818609E-02  0.8232237E-01
        1   -1    0    0  501    0  0.00000000000E+00  0.00000000000E+00  0.14839269329E+04  0.14839269330E+04  0.50400001928E-02 0.  1.
       -1   -1    0    0    0  501  0.00000000000E+00  0.00000000000E+00 -0.15575427886E+04  0.15575427886E+04  0.50400001928E-02 0. -1.
    10030    2    1    2    0    0  0.00000000000E+00  0.00000000000E+00 -0.73615855670E+02  0.30414697216E+04  0.30405786905E+04 0.  0.
        4    1    3    3  502    0  0.45860864036E+03 -0.66139277107E+03 -0.13269594367E+04  0.15519617399E+04  0.12699999809E+01 0. -1.
       -4    1    3    3    0  502 -0.45860864036E+03  0.66139277107E+03  0.12533435810E+04  0.14895079817E+04  0.12699999809E+01 0.  1.
</event>
<event>
 5   0  0.2948711E-06  0.2979634E+04  0.7818609E-02  0.8249570E-01
        2   -1    0    0  501    0  0.00000000000E+00  0.00000000000E+00  0.24667628405E+04  0.24667628405E+04  0.25500000920E-02 0. -1.
       -2   -1    0    0    0  501  0.00000000000E+00  0.00000000000E+00 -0.89978460363E+03  0.89978460364E+03  0.25500000920E-02 0.  1.
    10030    2    1    2    0    0  0.00000000000E+00  0.00000000000E+00  0.15669782369E+04  0.33665474442E+04  0.29796343566E+04 0.  0.
        5    1    3    3  502    0  0.42088751745E+03  0.13589804644E+04  0.12831330210E+04  0.19158357562E+04  0.46999998093E+01 0. -1.
       -5    1    3    3    0  502 -0.42088751745E+03 -0.13589804644E+04  0.28384521591E+03  0.14507116880E+04  0.46999998093E+01 0.  1.
</event>
<event>
 5   0  0.3113328E-06  0.2996005E+04  0.7818609E-02  0.8244873E-01
       -2   -1    0    0    0  501  0.00000000000E+00  0.00000000000E+00  0.92966499711E+03  0.92966499711E+03  0.25500000920E-02 0. -1.
        2   -1    0    0  501    0  0.00000000000E+00  0.00000000000E+00 -0.24137853430E+04  0.24137853430E+04  0.25500000920E-02 0.  1.
    10030    2    1    2    0    0  0.00000000000E+00  0.00000000000E+00 -0.14841203459E+04  0.33434503401E+04  0.29960051695E+04 0.  0.
        1    1    3    3  502    0 -0.11484424070E+04 -0.57266758646E+03 -0.16044263525E+04  0.20545199068E+04  0.50400001928E-02 0.  1.
       -1    1    3    3    0  502  0.11484424070E+04  0.57266758646E+03  0.12030600657E+03  0.12889304334E+04  0.50400001928E-02 0. -1.
</event>
<event>
 5   0  0.1054384E-06  0.2998575E+04  0.7818609E-02  0.8244138E-01
        1   -1    0    0  501    0  0.00000000000E+00  0.00000000000E+00  0.20490348951E+04  0.20490348951E+04  0.50400001928E-02 0.  1.
       -1   -1    0    0    0  501  0.00000000000E+00  0.00000000000E+00 -0.10970353048E+04  0.10970353048E+04  0.50400001928E-02 0. -1.
    10030    2    1    2    0    0  0.00000000000E+00  0.00000000000E+00  0.95199959031E+03  0.31460701999E+04  0.29985754088E+04 0.  0.
        2    1    3    3  502    0 -0.77744571755E+03  0.12184319196E+04  0.57815093721E+02  0.14464925757E+04  0.25500000920E-02 0. -1.
       -2    1    3    3    0  502  0.77744571755E+03 -0.12184319196E+04  0.89418449659E+03  0.16995776241E+04  0.25500000920E-02 0.  1.
</event>
<event>
 5   0  0.1113245E-06  0.2990492E+04  0.7818609E-02  0.8246451E-01
       -1   -1    0    0    0  501  0.00000000000E+00  0.00000000000E+00  0.19115184596E+04  0.19115184596E+04  0.50400001928E-02 0.  1.
        1   -1    0    0  501    0  0.00000000000E+00  0.00000000000E+00 -0.11696252718E+04  0.11696252718E+04  0.50400001928E-02 0. -1.
    10030    2    1    2    0    0  0.00000000000E+00  0.00000000000E+00  0.74189318779E+03  0.30811437314E+04  0.29904917976E+04 0.  0.
        5    1    3    3  502    0  0.43480989361E+03 -0.57750749328E+03 -0.97760873399E+03  0.12158599735E+04  0.46999998093E+01 0. -1.
       -5    1    3    3    0  502 -0.43480989361E+03  0.57750749328E+03  0.17195019218E+04  0.18652837579E+04  0.46999998093E+01 0.  1.
</event>
<event>
 5   0  0.2985941E-06  0.2946000E+04  0.7818609E-02  0.8259321E-01
        2   -1    0    0  501    0  0.00000000000E+00  0.00000000000E+00  0.20986757771E+04  0.20986757771E+04  0.25500000920E-02 0.  1.
       -2   -1    0    0    0  501  0.00000000000E+00  0.00000000000E+00 -0.10338559349E+04  0.10338559349E+04  0.25500000920E-02 0. -1.
    10030    2    1    2    0    0  0.00000000000E+00  0.00000000000E+00  0.10648198423E+04  0.31325317120E+04  0.29459995978E+04 0.  0.
        3    1    3    3  502    0 -0.14585757868E+04  0.16651292310E+03  0.66070836083E+03  0.16098774574E+04  0.10100000352E+00 0.  1.
       -3    1    3    3    0  502  0.14585757868E+04 -0.16651292310E+03  0.40411148143E+03  0.15226542546E+04  0.10100000352E+00 0. -1.
</event>
<event>
 5   0  0.3113328E-06  0.3000606E+04  0.7818609E-02  0.8243558E-01
        2   -1    0    0  501    0  0.00000000000E+00  0.00000000000E+00  0.24843211129E+04  0.24843211129E+04  0.25500000920E-02 0. -1.
       -2   -1    0    0    0  501  0.00000000000E+00  0.00000000000E+00 -0.90604574583E+03  0.90604574584E+03  0.25500000920E-02 0.  1.
    10030    2    1    2    0    0  0.00000000000E+00  0.00000000000E+00  0.15782753671E+04  0.33903668587E+04  0.30006056560E+04 0.  0.
        1    1    3    3  502    0 -0.65680651004E+03  0.96896428381E+03 -0.27117153240E+03  0.12015908517E+04  0.50400001928E-02 0.  1.
       -1    1    3    3    0  502  0.65680651004E+03 -0.96896428381E+03  0.18494468995E+04  0.21887760070E+04  0.50400001928E-02 0. -1.
</event>
<event>
 5   0  0.9749500E-07  0.2947917E+04  0.7818609E-02  0.8258762E-01
       -3   -1    0    0    0  501  0.00000000000E+00  0.00000000000E+00  0.10956151902E+04  0.10956151948E+04  0.10100000352E+00 0. -1.
        3   -1    0    0  501    0  0.00000000000E+00  0.00000000000E+00 -0.19829528325E+04  0.19829528351E+04  0.10100000352E+00 0.  1.
    10030    2    1    2    0    0  0.00000000000E+00  0.00000000000E+00 -0.88733764238E+03  0.30785680299E+04  0.29479167260E+04 0.  0.
        1    1    3    3  502    0  0.12762131790E+04 -0.73204427759E+03 -0.35058744103E+03  0.15124551089E+04  0.50400001928E-02 0.  1.
       -1    1    3    3    0  502 -0.12762131790E+04  0.73204427759E+03 -0.53675020135E+03  0.15661129210E+04  0.50400001928E-02 0. -1.
</event>
<event>
 5   0  0.1054384E-06  0.3020617E+04  0.7818609E-02  0.8237868E-01
        1   -1    0    0  501    0  0.00000000000E+00  0.00000000000E+00  0.18241897374E+04  0.18241897374E+04  0.50400001928E-02 0. -1.
       -1   -1    0    0    0  501  0.00000000000E+00  0.00000000000E+00 -0.12504355175E+04  0.12504355175E+04  0.50400001928E-02 0.  1.
    10030    2    1    2    0    0  0.00000000000E+00  0.00000000000E+00  0.57375421997E+03  0.30746252549E+04  0.30206169160E+04 0.  0.
        2    1    3    3  502    0  0.25023695167E+03  0.88535549664E+02 -0.12265068410E+04  0.12549008353E+04  0.25500000920E-02 0.  1.
       -2    1    3    3    0  502 -0.25023695167E+03 -0.88535549664E+02  0.18002610610E+04  0.18197244196E+04  0.25500000920E-02 0. -1.
</event>
<event>
 5   0  0.1113245E-06  0.3003110E+04  0.7818609E-02  0.8242843E-01
        1   -1    0    0  501    0  0.00000000000E+00  0.00000000000E+00  0.12800595153E+04  0.12800595153E+04  0.50400001928E-02 0. -1.
       -1   -1    0    0    0  501  0.00000000000E+00  0.00000000000E+00 -0.17613771825E+04  0.17613771825E+04  0.50400001928E-02 0.  1.
    10030    2    1    2    0    0  0.00000000000E+00  0.00000000000E+00 -0.48131766715E+03  0.30414366978E+04  0.30031101362E+04 0.  0.
        5    1    3    3  502    0  0.12561154054E+04  0.27949515646E+03  0.54297450621E+03  0.13967057165E+04  0.46999998093E+01 0. -1.
       -5    1    3    3    0  502 -0.12561154054E+04 -0.27949515646E+03 -0.10242921734E+04  0.16447309812E+04  0.46999998093E+01 0.  1.
</event>
<event>
 5   0  0.1054384E-06  0.2970390E+04  0.7818609E-02  0.8252237E-01
       -1   -1    0    0    0  501  0.00000000000E+00  0.00000000000E+00  0.10373982814E+04  0.10373982815E+04  0.50400001928E-02 0.  1.
        1   -1    0    0  501    0  0.00000000000E+00  0.00000000000E+00 -0.21262841764E+04  0.21262841764E+04  0.50400001928E-02 0. -1.
    10030    2    1    2    0    0  0.00000000000E+00  0.00000000000E+00 -0.10888858950E+04  0.31636824579E+04  0.29703895707E+04 0.  0.
        2    1    3    3  502    0 -0.18730327031E+03 -0.46286205032E+03  0.94531995184E+03  0.10690900823E+04  0.25500000920E-02 0.  1.
       -2    1    3    3    0  502  0.18730327031E+03  0.46286205032E+03 -0.20342058468E+04  0.20945923756E+04  0.25500000920E-02 0. -1.
</event>
<event>
 5   0  0.1113245E-06  0.3006056E+04  0.7818609E-02  0.8242004E-01
        1   -1    0    0  501    0  0.00000000000E+00  0.00000000000E+00  0.13902768253E+04  0.13902768253E+04  0.50400001928E-02 0.  1.
       -1   -1    0    0    0  501  0.00000000000E+00  0.00000000000E+00 -0.16249229142E+04  0.16249229142E+04  0.50400001928E-02 0. -1.
    10030    2    1    2    0    0  0.00000000000E+00  0.00000000000E+00 -0.23464608886E+03  0.30151997395E+04  0.30060556685E+04 0.  0.
        5    1    3    3  502    0 -0.75893464927E+03 -0.98160474578E+03  0.73351482425E+03  0.14413867511E+04  0.46999998093E+01 0.  1.
       -5    1    3    3    0  502  0.75893464927E+03  0.98160474578E+03 -0.96816091311E+03  0.15738129884E+04  0.46999998093E+01 0. -1.
</event>
<event>
 5   0  0.1054384E-06  0.2934750E+04  0.7818609E-02  0.8262613E-01
        1   -1    0    0  501    0  0.00000000000E+00  0.00000000000E+00  0.24339703056E+04  0.24339703057E+04  0.50400001928E-02 0.  1.
       -1   -1    0    0    0  501  0.00000000000E+00  0.00000000000E+00 -0.88464059215E+03  0.88464059216E+03  0.50400001928E-02 0. -1.
    10030    2    1    2    0    0  0.00000000000E+00  0.00000000000E+00  0.15493297135E+04  0.33186108978E+04  0.29347496878E+04 0.  0.
        2    1    3    3  502    0  0.15466339420E+03  0.62273011318E+03 -0.71759322143E+03  0.96262848016E+03  0.25500000920E-02 0. -1.
       -2    1    3    3    0  502 -0.15466339420E+03 -0.62273011318E+03  0.22669229349E+04  0.23559824177E+04  0.25500000920E-02 0.  1.
</event>
<event>
 5   0  0.2985941E-06  0.2961557E+04  0.7818609E-02  0.8254795E-01
        2   -1    0    0  501    0  0.00000000000E+00  0.00000000000E+00  0.16132421725E+04  0.16132421725E+04  0.25500000920E-02 0.  1.
       -2   -1    0    0    0  501  0.00000000000E+00  0.00000000000E+00 -0.13591910413E+04  0.13591910413E+04  0.25500000920E-02 0. -1.
    10030    2    1    2    0    0  0.00000000000E+00  0.00000000000E+00  0.25405113113E+03  0.29724332138E+04  0.29615565558E+04 0.  0.
        3    1    3    3  502    0  0.12031399938E+04  0.25943410257E+03  0.95336721710E+03  0.15568432673E+04  0.10100000352E+00 0.  1.
       -3    1    3    3    0  502 -0.12031399938E+04 -0.25943410257E+03 -0.69931608597E+03  0.14155899465E+04  0.10100000352E+00 0. -1.
</event>
<event>
 5   0  0.2862033E-06  0.3002470E+04  0.7818609E-02  0.8243026E-01
        2   -1    0    0  501    0  0.00000000000E+00  0.00000000000E+00  0.10407931291E+04  0.10407931291E+04  0.25500000920E-02 0.  1.
       -2   -1    0    0    0  501  0.00000000000E+00  0.00000000000E+00 -0.21653741978E+04  0.21653741978E+04  0.25500000920E-02 0. -1.
    10030    2    1    2    0    0  0.00000000000E+00  0.00000000000E+00 -0.11245810687E+04  0.32061673270E+04  0.30024700412E+04 0.  0.
        2    1    3    3  502    0  0.20816978258E+03  0.14858690385E+04 -0.50820736751E+03  0.15841136911E+04  0.25500000920E-02 0. -1.
       -2    1    3    3    0  502 -0.20816978258E+03 -0.14858690385E+04 -0.61637370117E+03  0.16220536358E+04  0.25500000920E-02 0.  1.
</event>
<event>
 5   0  0.3113328E-06  0.3004316E+04  0.7818609E-02  0.8242499E-01
       -2   -1    0    0    0  501  0.00000000000E+00  0.00000000000E+00  0.16418092682E+04  0.16418092682E+04  0.25500000920E-02 0.  1.
        2   -1    0    0  501    0  0.00000000000E+00  0.00000000000E+00 -0.13743857856E+04  0.13743857856E+04  0.25500000920E-02 0. -1.
    10030    2    1    2    0    0  0.00000000000E+00  0.00000000000E+00  0.26742348263E+03  0.30161950538E+04  0.30043164420E+04 0.  0.
        1    1    3    3  502    0 -0.10724541181E+03 -0.57829413536E+03  0.15214046403E+04  0.16311338894E+04  0.50400001928E-02 0.  1.
       -1    1    3    3    0  502  0.10724541181E+03  0.57829413536E+03 -0.12539811577E+04  0.13850611644E+04  0.50400001928E-02 0. -1.
</event>
<event>
 5   0  0.1054384E-06  0.2906608E+04  0.7818609E-02  0.8270914E-01
       -1   -1    0    0    0  501  0.00000000000E+00  0.00000000000E+00  0.16703223634E+04  0.16703223634E+04  0.50400001928E-02 0. -1.
        1   -1    0    0  501    0  0.00000000000E+00  0.00000000000E+00 -0.12644821107E+04  0.12644821107E+04  0.50400001928E-02 0.  1.
    10030    2    1    2    0    0  0.00000000000E+00  0.00000000000E+00  0.40584025271E+03  0.29348044741E+04  0.29066081591E+04 0.  0.
        2    1    3    3  502    0  0.17805995884E+03 -0.81823756494E+03 -0.99640492389E+03  0.13015532390E+04  0.25500000920E-02 0.  1.
       -2    1    3    3    0  502 -0.17805995884E+03  0.81823756494E+03  0.14022451766E+04  0.16332512351E+04  0.25500000920E-02 0. -1.
</event>
<event>
 5   0  0.2970915E-06  0.2981298E+04  0.7818609E-02  0.8249092E-01
        2   -1    0    0  501    0  0.00000000000E+00  0.00000000000E+00  0.18923443656E+04  0.18923443656E+04  0.25500000920E-02 0. -1.
       -2   -1    0    0    0  501  0.00000000000E+00  0.00000000000E+00 -0.11742231015E+04  0.11742231015E+04  0.25500000920E-02 0.  1.
    10030    2    1    2    0    0  0.00000000000E+00  0.00000000000E+00  0.71812126411E+03  0.30665674671E+04  0.29812980194E+04 0.  0.
        4    1    3    3  502    0  0.14972228547E+01  0.53500873438E+03 -0.10720623524E+04  0.11981468557E+04  0.12699999809E+01 0.  1.
       -4    1    3    3    0  502 -0.14972228547E+01 -0.53500873438E+03  0.17901836165E+04  0.18684206114E+04  0.12699999809E+01 0. -1.
</event>
<event>
 5   0  0.1091075E-06  0.3011281E+04  0.7818609E-02  0.8240517E-01
        1   -1    0    0  501    0  0.00000000000E+00  0.00000000000E+00  0.13894764084E+04  0.13894764085E+04  0.50400001928E-02 0.  1.
       -1   -1    0    0    0  501  0.00000000000E+00  0.00000000000E+00 -0.16315164849E+04  0.16315164849E+04  0.50400001928E-02 0. -1.
    10030    2    1    2    0    0  0.00000000000E+00  0.00000000000E+00 -0.24204007650E+03  0.30209928934E+04  0.30112812329E+04 0.  0.
        1    1    3    3  502    0  0.14677782778E+04  0.11640309919E+03 -0.43672672061E+03  0.15357906702E+04  0.50400001928E-02 0. -1.
       -1    1    3    3    0  502 -0.14677782778E+04 -0.11640309919E+03  0.19468664411E+03  0.14852022232E+04  0.50400001928E-02 0.  1.
</event>
<event>
 5   0  0.1097402E-06  0.2994736E+04  0.7818609E-02  0.8245236E-01
       -1   -1    0    0    0  501  0.00000000000E+00  0.00000000000E+00  0.12078726315E+04  0.12078726315E+04  0.50400001928E-02 0.  1.
        1   -1    0    0  501    0  0.00000000000E+00  0.00000000000E+00 -0.18562475409E+04  0.18562475409E+04  0.50400001928E-02 0. -1.
    10030    2    1    2    0    0  0.00000000000E+00  0.00000000000E+00 -0.64837490937E+03  0.30641201724E+04  0.29947357826E+04 0.  0.
        4    1    3    3  502    0 -0.10391283159E+04 -0.38595896509E+03 -0.13541668106E+04  0.17500060981E+04  0.12699999809E+01 0. -1.
       -4    1    3    3    0  502  0.10391283159E+04  0.38595896509E+03  0.70579190119E+03  0.13141140743E+04  0.12699999809E+01 0.  1.
</event>
<event>
 5   0  0.2985941E-06  0.3035340E+04  0.7818609E-02  0.8233711E-01
       -2   -1    0    0    0  501  0.00000000000E+00  0.00000000000E+00  0.14917184514E+04  0.14917184514E+04  0.25500000920E-02 0. -1.
        2   -1    0    0  501    0  0.00000000000E+00  0.00000000000E+00 -0.15440735042E+04  0.15440735042E+04  0.25500000920E-02 0.  1.
    10030    2    1    2    0    0  0.00000000000E+00  0.00000000000E+00 -0.52355052791E+02  0.30357919555E+04  0.30353404662E+04 0.  0.
        3    1    3    3  502    0 -0.13630763793E+04  0.45542919638E+03  0.46167567293E+03  0.15094824961E+04  0.10100000352E+00 0. -1.
       -3    1    3    3    0  502  0.13630763793E+04 -0.45542919638E+03 -0.51403072572E+03  0.15263094594E+04  0.10100000352E+00 0.  1.
</event>
<event>
 5   0  0.1113245E-06  0.3071738E+04  0.7818609E-02  0.8223537E-01
        1   -1    0    0  501    0  0.00000000000E+00  0.00000000000E+00  0.16793976957E+04  0.16793976957E+04  0.50400001928E-02 0. -1.
       -1   -1    0    0    0  501  0.00000000000E+00  0.00000000000E+00 -0.14046069636E+04  0.14046069636E+04  0.50400001928E-02 0.  1.
    10030    2    1    2    0    0  0.00000000000E+00  0.00000000000E+00  0.27479073207E+03  0.30840046593E+04  0.30717380735E+04 0.  0.
        5    1    3    3  502    0 -0.10429746700E+04  0.91348447763E+03 -0.52601679874E+03  0.14828910330E+04  0.46999998093E+01 0.  1.
       -5    1    3    3    0  502  0.10429746700E+04 -0.91348447763E+03  0.80080753081E+03  0.16011136264E+04  0.46999998093E+01 0. -1.
</event>
<event>
 5   0  0.2985941E-06  0.2987738E+04  0.7818609E-02  0.8247241E-01
       -2   -1    0    0    0  501  0.00000000000E+00  0.00000000000E+00  0.15017892931E+04  0.15017892931E+04  0.25500000920E-02 0.  1.
        2   -1    0    0  501    0  0.00000000000E+00  0.00000000000E+00 -0.14859907263E+04  0.14859907263E+04  0.25500000920E-02 0. -1.
    10030    2    1    2    0    0  0.00000000000E+00  0.00000000000E+00  0.15798566755E+02  0.29877800194E+04  0.29877382498E+04 0.  0.
        3    1    3    3  502    0 -0.14547513554E+04  0.29433892821E+03  0.17733612748E+03  0.14947859455E+04  0.10100000352E+00 0. -1.
       -3    1    3    3    0  502  0.14547513554E+04 -0.29433892821E+03 -0.16153756072E+03  0.14929940738E+04  0.10100000352E+00 0.  1.
</event>
<event>
 5   0  0.1097402E-06  0.2996732E+04  0.7818609E-02  0.8244665E-01
       -1   -1    0    0    0  501  0.00000000000E+00  0.00000000000E+00  0.14113925743E+04  0.14113925743E+04  0.50400001928E-02 0. -1.
        1   -1    0    0  501    0  0.00000000000E+00  0.00000000000E+00 -0.15906994068E+04  0.15906994068E+04  0.50400001928E-02 0.  1.
    10030    2    1    2    0    0  0.00000000000E+00  0.00000000000E+00 -0.17930683251E+03  0.30020919811E+04  0.29967324410E+04 0.  0.
        4    1    3    3  502    0 -0.52268621067E+03  0.13774924538E+04 -0.36292945206E+03  0.15173680289E+04  0.12699999809E+01 0.  1.
       -4    1    3    3    0  502  0.52268621067E+03 -0.13774924538E+04  0.18362261955E+03  0.14847239522E+04  0.12699999809E+01 0. -1.
</event>
<event>
 5   0  0.1113245E-06  0.3010872E+04  0.7818609E-02  0.8240633E-01
       -1   -1    0    0    0  501  0.00000000000E+00  0.00000000000E+00  0.15536273028E+04  0.15536273028E+04  0.50400001928E-02 0.  1.
        1   -1    0    0  501    0  0.00000000000E+00  0.00000000000E+00 -0.14587400024E+04  0.14587400024E+04  0.50400001928E-02 0. -1.
    10030    2    1    2    0    0  0.00000000000E+00  0.00000000000E+00  0.94887300421E+02  0.30123673052E+04  0.30108724951E+04 0.  0.
        5    1    3    3  502    0 -0.11582580160E+04 -0.86506993305E+03  0.46766239278E+03  0.15194202264E+04  0.46999998093E+01 0.  1.
       -5    1    3    3    0  502  0.11582580160E+04  0.86506993305E+03 -0.37277509236E+03  0.14929470789E+04  0.46999998093E+01 0. -1.
</event>
<event>
 5   0  0.2948711E-06  0.3031957E+04  0.7818609E-02  0.8234664E-01
        2   -1    0    0  501    0  0.00000000000E+00  0.00000000000E+00  0.20292273208E+04  0.20292273208E+04  0.25500000920E-02 0.  1.
       -2   -1    0    0    0  501  0.00000000000E+00  0.00000000000E+00 -0.11325445257E+04  0.11325445257E+04  0.25500000920E-02 0. -1.
    10030    2    1    2    0    0  0.00000000000E+00  0.00000000000E+00  0.89668279515E+03  0.31617718465E+04  0.30319566577E+04 0.  0.
        5    1    3    3  502    0  0.42393990237E+03  0.79828064628E+03  0.17174918148E+04  0.19408187074E+04  0.46999998093E+01 0.  1.
       -5    1    3    3    0  502 -0.42393990237E+03 -0.79828064628E+03 -0.82080901969E+03  0.12209531391E+04  0.46999998093E+01 0. -1.
</event>
<event>
 5   0  0.1091075E-06  0.2952721E+04  0.7818609E-02  0.8257362E-01
       -1   -1    0    0    0  501  0.00000000000E+00  0.00000000000E+00  0.13999690789E+04  0.13999690789E+04  0.50400001928E-02 0. -1.
        1   -1    0    0  501    0  0.00000000000E+00  0.00000000000E+00 -0.15569205661E+04  0.15569205661E+04  0.50400001928E-02 0.  1.
    10030    2    1    2    0    0  0.00000000000E+00  0.00000000000E+00 -0.15695148724E+03  0.29568896450E+04  0.29527212200E+04 0.  0.
        1    1    3    3  502    0 -0.19708652049E+03 -0.14379537953E+04 -0.34920242893E+03  0.14928149752E+04  0.50400001928E-02 0.  1.
       -1    1    3    3    0  502  0.19708652049E+03  0.14379537953E+04  0.19225094170E+03  0.14640746697E+04  0.50400001928E-02 0. -1.
</event>
<event>
 5   0  0.2948711E-06  0.2998846E+04  0.7818609E-02  0.8244060E-01
        2   -1    0    0  501    0  0.00000000000E+00  0.00000000000E+00  0.15698001969E+04  0.15698001969E+04  0.25500000920E-02 0. -1.
       -2   -1    0    0    0  501  0.00000000000E+00  0.00000000000E+00 -0.14322010538E+04  0.14322010538E+04  0.25500000920E-02 0.  1.
    10030    2    1    2    0    0  0.00000000000E+00  0.00000000000E+00  0.13759914308E+03  0.30020012507E+04  0.29988461089E+04 0.  0.
        5    1    3    3  502    0 -0.85195376068E+03  0.75130112809E+03 -0.91098901020E+03  0.14560912273E+04  0.46999998093E+01 0.  1.
       -5    1    3    3    0  502  0.85195376068E+03 -0.75130112809E+03  0.10485881533E+04  0.15459100234E+04  0.46999998093E+01 0. -1.
</event>
<event>
 5   0  0.1054384E-06  0.3021339E+04  0.7818609E-02  0.8237663E-01
       -1   -1    0    0    0  501  0.00000000000E+00  0.00000000000E+00  0.13969715811E+04  0.13969715812E+04  0.50400001928E-02 0. -1.
        1   -1    0    0  501    0  0.00000000000E+00  0.00000000000E+00 -0.16336216492E+04  0.16336216492E+04  0.50400001928E-02 0.  1.
    10030    2    1    2    0    0  0.00000000000E+00  0.00000000000E+00 -0.23665006806E+03  0.30305932304E+04  0.30213394502E+04 0.  0.
        2    1    3    3  502    0 -0.82636904319E+03 -0.66403776034E+03 -0.11978606683E+04  0.15995943622E+04  0.25500000920E-02 0.  1.
       -2    1    3    3    0  502  0.82636904319E+03  0.66403776034E+03  0.96121060028E+03  0.14309988682E+04  0.25500000920E-02 0. -1.
</event>
<event>
 5   0  0.1091076E-06  0.2973184E+04  0.7818609E-02  0.8251430E-01
        1   -1    0    0  501    0  0.00000000000E+00  0.00000000000E+00  0.14506925976E+04  0.14506925976E+04  0.50400001928E-02 0. -1.
       -1   -1    0    0    0  501  0.00000000000E+00  0.00000000000E+00 -0.15233800259E+04  0.15233800259E+04  0.50400001928E-02 0.  1.
    10030    2    1    2    0    0  0.00000000000E+00  0.00000000000E+00 -0.72687428308E+02  0.29740726235E+04  0.29731842371E+04 0.  0.
        3    1    3    3  502    0  0.11485012985E+03  0.33770872321E+03  0.14072501344E+04  0.14517543474E+04  0.10100000352E+00 0. -1.
       -3    1    3    3    0  502 -0.11485012985E+03 -0.33770872321E+03 -0.14799375627E+04  0.15223182761E+04  0.10100000352E+00 0.  1.
</event>
<event>
 5   0  0.1113245E-06  0.3003349E+04  0.7818609E-02  0.8242775E-01
        1   -1    0    0  501    0  0.00000000000E+00  0.00000000000E+00  0.12389203609E+04  0.12389203609E+04  0.50400001928E-02 0. -1.
       -1   -1    0    0    0  501  0.00000000000E+00  0.00000000000E+00 -0.18201544733E+04  0.18201544733E+04  0.50400001928E-02 0.  1.
    10030    2    1    2    0    0  0.00000000000E+00  0.00000000000E+00 -0.58123411237E+03  0.30590748342E+04  0.30033490885E+04 0.  0.
        5    1    3    3  502    0  0.14298976204E+04  0.20538374048E+03 -0.70836681657E+03  0.16089112227E+04  0.46999998093E+01 0.  1.
       -5    1    3    3    0  502 -0.14298976204E+04 -0.20538374048E+03  0.12713270420E+03  0.14501636115E+04  0.46999998093E+01 0. -1.
</event>
<event>
 5   0  0.2862033E-06  0.2997608E+04  0.7818609E-02  0.8244414E-01
       -2   -1    0    0    0  501  0.00000000000E+00  0.00000000000E+00  0.12283294401E+04  0.12283294401E+04  0.25500000920E-02 0. -1.
        2   -1    0    0  501    0  0.00000000000E+00  0.00000000000E+00 -0.18288361787E+04  0.18288361787E+04  0.25500000920E-02 0.  1.
    10030    2    1    2    0    0  0.00000000000E+00  0.00000000000E+00 -0.60050673864E+03  0.30571656188E+04  0.29976079259E+04 0.  0.
        2    1    3    3  502    0  0.11117454472E+04  0.69071885060E+03  0.44455985130E+03  0.13822821461E+04  0.25500000920E-02 0. -1.
       -2    1    3    3    0  502 -0.11117454472E+04 -0.69071885060E+03 -0.10450665899E+04  0.16748834728E+04  0.25500000920E-02 0.  1.
</event>
<event>
 5   0  0.3113328E-06  0.2989342E+04  0.7818609E-02  0.8246781E-01
        2   -1    0    0  501    0  0.00000000000E+00  0.00000000000E+00  0.17869968178E+04  0.17869968178E+04  0.25500000920E-02 0.  1.
       -2   -1    0    0    0  501  0.00000000000E+00  0.00000000000E+00 -0.12501650582E+04  0.12501650582E+04  0.25500000920E-02 0. -1.
    10030    2    1    2    0    0  0.00000000000E+00  0.00000000000E+00  0.53683175961E+03  0.30371618761E+04  0.29893417207E+04 0.  0.
        1    1    3    3  502    0  0.10068581251E+04 -0.66452866178E+03 -0.62812832248E+03  0.13601127953E+04  0.50400001928E-02 0. -1.
       -1    1    3    3    0  502 -0.10068581251E+04  0.66452866178E+03  0.11649600821E+04  0.16770490808E+04  0.50400001928E-02 0.  1.
</event>
<event>
 5   0  0.1091075E-06  0.2966454E+04  0.7818609E-02  0.8253376E-01
        1   -1    0    0  501    0  0.00000000000E+00  0.00000000000E+00  0.28398621464E+04  0.28398621464E+04  0.50400001928E-02 0. -1.
       -1   -1    0    0    0  501  0.00000000000E+00  0.00000000000E+00 -0.77467208125E+03  0.77467208126E+03  0.50400001928E-02 0.  1.
    10030    2    1    2    0    0  0.00000000000E+00  0.00000000000E+00  0.20651900652E+04  0.36145342277E+04  0.29664537208E+04 0.  0.
        1    1    3    3  502    0  0.14510016007E+04  0.28607960863E+02  0.65954053608E+03  0.15941197506E+04  0.50400001928E-02 0. -1.
       -1    1    3    3    0  502 -0.14510016007E+04 -0.28607960863E+02  0.14056495291E+04  0.20204144771E+04  0.50400001928E-02 0.  1.
</event>
<event>
 5   0  0.1091076E-06  0.2998303E+04  0.7818609E-02  0.8244216E-01
        1   -1    0    0  501    0  0.00000000000E+00  0.00000000000E+00  0.18282055341E+04  0.18282055341E+04  0.50400001928E-02 0.  1.
       -1   -1    0    0    0  501  0.00000000000E+00  0.00000000000E+00 -0.12293233219E+04  0.12293233219E+04  0.50400001928E-02 0. -1.
    10030    2    1    2    0    0  0.00000000000E+00  0.00000000000E+00  0.59888221217E+03  0.30575288560E+04  0.29983033204E+04 0.  0.
        3    1    3    3  502    0 -0.11441210294E+04  0.96073842949E+03  0.17279274812E+03  0.15039576470E+04  0.10100000352E+00 0.  1.
       -3    1    3    3    0  502  0.11441210294E+04 -0.96073842949E+03  0.42608946405E+03  0.15535712090E+04  0.10100000352E+00 0. -1.
</event>
<event>
 5   0  0.1091076E-06  0.3004344E+04  0.7818609E-02  0.8242492E-01
        1   -1    0    0  501    0  0.00000000000E+00  0.00000000000E+00  0.16459551202E+04  0.16459551202E+04  0.50400001928E-02 0.  1.
       -1   -1    0    0    0  501  0.00000000000E+00  0.00000000000E+00 -0.13709491006E+04  0.13709491006E+04  0.50400001928E-02 0. -1.
    10030    2    1    2    0    0  0.00000000000E+00  0.00000000000E+00  0.27500601960E+03  0.30169042209E+04  0.30043439828E+04 0.  0.
        3    1    3    3  502    0  0.55686568000E+03  0.13599299290E+04  0.45027246723E+03  0.15369626223E+04  0.10100000352E+00 0.  1.
       -3    1    3    3    0  502 -0.55686568000E+03 -0.13599299290E+04 -0.17526644763E+03  0.14799415986E+04  0.10100000352E+00 0. -1.
</event>
<event>
 5   0  0.1097402E-06  0.2978532E+04  0.7818609E-02  0.8249888E-01
       -1   -1    0    0    0  501  0.00000000000E+00  0.00000000000E+00  0.78814943289E+03  0.78814943291E+03  0.50400001928E-02 0.  1.
        1   -1    0    0  501    0  0.00000000000E+00  0.00000000000E+00 -0.28140769862E+04  0.28140769862E+04  0.50400001928E-02 0. -1.
    10030    2    1    2    0    0  0.00000000000E+00  0.00000000000E+00 -0.20259275533E+04  0.36022264191E+04  0.29785319745E+04 0.  0.
        4    1    3    3  502    0 -0.11444603327E+04  0.60557153488E+03 -0.19028407402E+04  0.23015887627E+04  0.12699999809E+01 0. -1.
       -4    1    3    3    0  502  0.11444603327E+04 -0.60557153488E+03 -0.12308681310E+03  0.13006376565E+04  0.12699999809E+01 0.  1.
</event>
<event>
 5   0  0.3113328E-06  0.2974782E+04  0.7818609E-02  0.8250969E-01
       -2   -1    0    0    0  501  0.00000000000E+00  0.00000000000E+00  0.16077272893E+04  0.16077272893E+04  0.25500000920E-02 0. -1.
        2   -1    0    0  501    0  0.00000000000E+00  0.00000000000E+00 -0.13760615871E+04  0.13760615871E+04  0.25500000920E-02 0.  1.
    10030    2    1    2    0    0  0.00000000000E+00  0.00000000000E+00  0.23166570216E+03  0.29837888763E+04  0.29747818510E+04 0.  0.
        1    1    3    3  502    0 -0.88216980843E+03  0.11608280546E+04  0.41097950497E+03  0.15148100531E+04  0.50400001928E-02 0. -1.
       -1    1    3    3    0  502  0.88216980843E+03 -0.11608280546E+04 -0.17931380281E+03  0.14689788233E+04  0.50400001928E-02 0.  1.
</event>
<event>
 5   0  0.2985941E-06  0.3061456E+04  0.7818609E-02  0.8226396E-01
        2   -1    0    0  501    0  0.00000000000E+00  0.00000000000E+00  0.12186165808E+04  0.12186165808E+04  0.25500000920E-02 0. -1.
       -2   -1    0    0    0  501  0.00000000000E+00  0.00000000000E+00 -0.19227769470E+04  0.19227769470E+04  0.25500000920E-02 0.  1.
    10030    2    1    2    0    0  0.00000000000E+00  0.00000000000E+00 -0.70416036617E+03  0.31413935278E+04  0.30614557771E+04 0.  0.
        3    1    3    3  502    0 -0.28256257227E+03 -0.71536949114E+03 -0.17100917978E+04  0.18751024194E+04  0.10100000352E+00 0.  1.
       -3    1    3    3    0  502  0.28256257227E+03  0.71536949114E+03  0.10059314316E+04  0.12662911085E+04  0.10100000352E+00 0. -1.
</event>
<event>
 5   0  0.1091076E-06  0.2993880E+04  0.7818609E-02  0.8245481E-01
       -1   -1    0    0    0  501  0.00000000000E+00  0.00000000000E+00  0.89632850515E+03  0.89632850517E+03  0.50400001928E-02 0. -1.
        1   -1    0    0  501    0  0.00000000000E+00  0.00000000000E+00 -0.25000088664E+04  0.25000088664E+04  0.50400001928E-02 0.  1.
    10030    2    1    2    0    0  0.00000000000E+00  0.00000000000E+00 -0.16036803612E+04  0.33963373715E+04  0.29938798974E+04 0.  0.
        3    1    3    3  502    0 -0.11287735417E+03  0.13539180342E+04 -0.15148107809E+04  0.20348186780E+04  0.10100000352E+00 0.  1.
       -3    1    3    3    0  502  0.11287735417E+03 -0.13539180342E+04 -0.88869580315E+02  0.13615186935E+04  0.10100000352E+00 0. -1.
</event>
<event>
 5   0  0.2970915E-06  0.3000320E+04  0.7818609E-02  0.8243640E-01
       -2   -1    0    0    0  501  0.00000000000E+00  0.00000000000E+00  0.12781696664E+04  0.12781696664E+04  0.25500000920E-02 0.  1.
        2   -1    0    0  501    0  0.00000000000E+00  0.00000000000E+00 -0.17607048765E+04  0.17607048765E+04  0.25500000920E-02 0. -1.
    10030    2    1    2    0    0  0.00000000000E+00  0.00000000000E+00 -0.48253521014E+03  0.30388745430E+04  0.30003196928E+04 0.  0.
        4    1    3    3  502    0  0.74102643442E+03 -0.83940749463E+03  0.76993685835E+03  0.13588706698E+04  0.12699999809E+01 0.  1.
       -4    1    3    3    0  502 -0.74102643442E+03  0.83940749463E+03 -0.12524720685E+04  0.16800038731E+04  0.12699999809E+01 0. -1.
</event>
<event>
 5   0  0.1091076E-06  0.3007207E+04  0.7818609E-02  0.8241676E-01
        1   -1    0    0  501    0  0.00000000000E+00  0.00000000000E+00  0.13074845208E+04  0.13074845208E+04  0.50400001928E-02 0.  1.
       -1   -1    0    0    0  501  0.00000000000E+00  0.00000000000E+00 -0.17291401456E+04  0.17291401456E+04  0.50400001928E-02 0. -1.
    10030    2    1    2    0    0  0.00000000000E+00  0.00000000000E+00 -0.42165562479E+03  0.30366246664E+04  0.30072073255E+04 0.  0.
        3    1    3    3  502    0 -0.35515895686E+03  0.75496294549E+03  0.10522952062E+04  0.13429192622E+04  0.10100000352E+00 0.  1.
       -3    1    3    3    0  502  0.35515895686E+03 -0.75496294549E+03 -0.14739508310E+04  0.16937054041E+04  0.10100000352E+00 0. -1.
</event>
<event>
 5   0  0.1091076E-06  0.2997224E+04  0.7818609E-02  0.8244524E-01
       -1   -1    0    0    0  501  0.00000000000E+00  0.00000000000E+00  0.11902745129E+04  0.11902745129E+04  0.50400001928E-02 0. -1.
        1   -1    0    0  501    0  0.00000000000E+00  0.00000000000E+00 -0.18868234333E+04  0.18868234333E+04  0.50400001928E-02 0.  1.
    10030    2    1    2    0    0  0.00000000000E+00  0.00000000000E+00 -0.69654892039E+03  0.30770979463E+04  0.29972239443E+04 0.  0.
        3    1    3    3  502    0 -0.81973285003E+03 -0.12401566746E+04 -0.54276235691E+03  0.15825743298E+04  0.10100000352E+00 0. -1.
       -3    1    3    3    0  502  0.81973285003E+03  0.12401566746E+04 -0.15378656348E+03  0.14945236165E+04  0.10100000352E+00 0.  1.
</event>
<event>
 5   0  0.2948711E-06  0.2867464E+04  0.7818609E-02  0.8282624E-01
       -2   -1    0    0    0  501  0.00000000000E+00  0.00000000000E+00  0.32227379260E+04  0.32227379260E+04  0.25500000920E-02 0.  1.
        2   -1    0    0  501    0  0.00000000000E+00  0.00000000000E+00 -0.63783896292E+03  0.63783896292E+03  0.25500000920E-02 0. -1.
    10030    2    1    2    0    0  0.00000000000E+00  0.00000000000E+00  0.25848989631E+04  0.38605768889E+04  0.28674642571E+04 0.  0.
        5    1    3    3  502    0 -0.14303292528E+04 -0.69716556138E+02  0.13863420451E+04  0.19931554193E+04  0.46999998093E+01 0.  1.
       -5    1    3    3    0  502  0.14303292528E+04  0.69716556138E+02  0.11985569179E+04  0.18674214696E+04  0.46999998093E+01 0. -1.
</event>
<event>
 5   0  0.1097402E-06  0.2988265E+04  0.7818609E-02  0.8247090E-01
       -1   -1    0    0    0  501  0.00000000000E+00  0.00000000000E+00  0.18518090441E+04  0.18518090441E+04  0.50400001928E-02 0.  1.
        1   -1    0    0  501    0  0.00000000000E+00  0.00000000000E+00 -0.12055408002E+04  0.12055408002E+04  0.50400001928E-02 0. -1.
    10030    2    1    2    0    0  0.00000000000E+00  0.00000000000E+00  0.64626824395E+03  0.30573498443E+04  0.29882646180E+04 0.  0.
        4    1    3    3  502    0  0.39856433701E+03  0.13109540662E+04 -0.28643837680E+03  0.13998223641E+04  0.12699999809E+01 0. -1.
       -4    1    3    3    0  502 -0.39856433701E+03 -0.13109540662E+04  0.93270662075E+03  0.16575274802E+04  0.12699999809E+01 0.  1.
</event>
<event>
 5   0  0.1091076E-06  0.3010694E+04  0.7818609E-02  0.8240684E-01
        1   -1    0    0  501    0  0.00000000000E+00  0.00000000000E+00  0.20764653313E+04  0.20764653313E+04  0.50400001928E-02 0. -1.
       -1   -1    0    0    0  501  0.00000000000E+00  0.00000000000E+00 -0.10913109471E+04  0.10913109471E+04  0.50400001928E-02 0.  1.
    10030    2    1    2    0    0  0.00000000000E+00  0.00000000000E+00  0.98515438420E+03  0.31677762784E+04  0.30106938385E+04 0.  0.
        3    1    3    3  502    0  0.10361870106E+04  0.38107952433E+02  0.16408145768E+04  0.19409812525E+04  0.10100000352E+00 0. -1.
       -3    1    3    3    0  502 -0.10361870106E+04 -0.38107952433E+02 -0.65566019261E+03  0.12267950258E+04  0.10100000352E+00 0.  1.
</event>
<event>
 5   0  0.2862033E-06  0.2997465E+04  0.7818609E-02  0.8244455E-01
        2   -1    0    0  501    0  0.00000000000E+00  0.00000000000E+00  0.14048536165E+04  0.14048536165E+04  0.25500000920E-02 0.  1.
       -2   -1    0    0    0  501  0.00000000000E+00  0.00000000000E+00 -0.15988846065E+04  0.15988846065E+04  0.25500000920E-02 0. -1.
    10030    2    1    2    0    0  0.00000000000E+00  0.00000000000E+00 -0.19403099005E+03  0.30037382230E+04  0.29974648100E+04 0.  0.
        2    1    3    3  502    0  0.58529392613E+03  0.13751331866E+04  0.15641147158E+02  0.14945918862E+04  0.25500000920E-02 0.  1.
       -2    1    3    3    0  502 -0.58529392613E+03 -0.13751331866E+04 -0.20967213721E+03  0.15091463368E+04  0.25500000920E-02 0. -1.
</event>
<event>
 5   0  0.1097402E-06  0.2997339E+04  0.7818609E-02  0.8244491E-01
        1   -1    0    0  501    0  0.00000000000E+00  0.00000000000E+00  0.15818591157E+04  0.15818591157E+04  0.50400001928E-02 0.  1.
       -1   -1    0    0    0  501  0.00000000000E+00  0.00000000000E+00 -0.14198547200E+04  0.14198547200E+04  0.50400001928E-02 0. -1.
    10030    2    1    2    0    0  0.00000000000E+00  0.00000000000E+00  0.16200439571E+03  0.30017138356E+04  0.29973389076E+04 0.  0.
        4    1    3    3  502    0  0.33686044910E+03 -0.70134006660E+03  0.13637525938E+04  0.15700877686E+04  0.12699999809E+01 0.  1.
       -4    1    3    3    0  502 -0.33686044910E+03  0.70134006660E+03 -0.12017481981E+04  0.14316260670E+04  0.12699999809E+01 0. -1.
</event>
<event>
 5   0  0.3113328E-06  0.3009043E+04  0.7818609E-02  0.8241153E-01
        2   -1    0    0  501    0  0.00000000000E+00  0.00000000000E+00  0.88785056579E+03  0.88785056579E+03  0.25500000920E-02 0.  1.
       -2   -1    0    0    0  501  0.00000000000E+00  0.00000000000E+00 -0.25495106407E+04  0.25495106407E+04  0.25500000920E-02 0. -1.
    10030    2    1    2    0    0  0.00000000000E+00  0.00000000000E+00 -0.16616600749E+04  0.34373612065E+04  0.30090426815E+04 0.  0.
        1    1    3    3  502    0 -0.10402786774E+03 -0.47477154878E+02  0.88287928984E+03  0.89025373796E+03  0.50400001928E-02 0.  1.
       -1    1    3    3    0  502  0.10402786774E+03  0.47477154878E+02 -0.25445393647E+04  0.25471074685E+04  0.50400001928E-02 0. -1.
</event>
<event>
 5   0  0.1054384E-06  0.2998013E+04  0.7818609E-02  0.8244299E-01
       -1   -1    0    0    0  501  0.00000000000E+00  0.00000000000E+00  0.17351884136E+04  0.17351884136E+04  0.50400001928E-02 0.  1.
        1   -1    0    0  501    0  0.00000000000E+00  0.00000000000E+00 -0.12949720280E+04  0.12949720280E+04  0.50400001928E-02 0. -1.
    10030    2    1    2    0    0  0.00000000000E+00  0.00000000000E+00  0.44021638559E+03  0.30301604417E+04  0.29980129813E+04 0.  0.
        2    1    3    3  502    0 -0.10005230431E+04  0.37868229207E+03 -0.84118640485E+03  0.13608972062E+04  0.25500000920E-02 0. -1.
       -2    1    3    3    0  502  0.10005230431E+04 -0.37868229207E+03  0.12814027904E+04  0.16692632355E+04  0.25500000920E-02 0.  1.
</event>
<event>
 5   0  0.1097402E-06  0.2978791E+04  0.7818609E-02  0.8249813E-01
       -1   -1    0    0    0  501  0.00000000000E+00  0.00000000000E+00  0.16616702564E+04  0.16616702564E+04  0.50400001928E-02 0. -1.
        1   -1    0    0  501    0  0.00000000000E+00  0.00000000000E+00 -0.13349812026E+04  0.13349812026E+04  0.50400001928E-02 0.  1.
    10030    2    1    2    0    0  0.00000000000E+00  0.00000000000E+00  0.32668905382E+03  0.29966514591E+04  0.29787907327E+04 0.  0.
        4    1    3    3  502    0 -0.27111387998E+03  0.91711653782E+03 -0.98529471687E+03  0.13731033362E+04  0.12699999809E+01 0.  1.
       -4    1    3    3    0  502  0.27111387998E+03 -0.91711653782E+03  0.13119837707E+04  0.16235481229E+04  0.12699999809E+01 0. -1.
</event>
<event>
 5   0  0.2985941E-06  0.2974860E+04  0.7818609E-02  0.8250946E-01
        2   -1    0    0  501    0  0.00000000000E+00  0.00000000000E+00  0.13477910469E+04  0.13477910469E+04  0.25500000920E-02 0. -1.
       -2   -1    0    0    0  501  0.00000000000E+00  0.00000000000E+00 -0.16415360434E+04  0.16415360434E+04  0.25500000920E-02 0.  1.
    10030    2    1    2    0    0  0.00000000000E+00  0.00000000000E+00 -0.29374499643E+03  0.29893270903E+04  0.29748597160E+04 0.  0.
        3    1    3    3  502    0 -0.92604419860E+03  0.10936891569E+04 -0.54722410432E+03  0.15340039310E+04  0.10100000352E+00 0. -1.
       -3    1    3    3    0  502  0.92604419860E+03 -0.10936891569E+04  0.25347910789E+03  0.14553231593E+04  0.10100000352E+00 0.  1.
</event>
<event>
 5   0  0.1091076E-06  0.2993082E+04  0.7818609E-02  0.8245709E-01
       -1   -1    0    0    0  501  0.00000000000E+00  0.00000000000E+00  0.17332598222E+04  0.17332598222E+04  0.50400001928E-02 0.  1.
        1   -1    0    0  501    0  0.00000000000E+00  0.00000000000E+00 -0.12921519602E+04  0.12921519602E+04  0.50400001928E-02 0. -1.
    10030    2    1    2    0    0  0.00000000000E+00  0.00000000000E+00  0.44110786196E+03  0.30254117824E+04  0.29930820749E+04 0.  0.
        3    1    3    3  502    0  0.11628950892E+04  0.54468641578E+03  0.99737757856E+03  0.16259675041E+04  0.10100000352E+00 0.  1.
       -3    1    3    3    0  502 -0.11628950892E+04 -0.54468641578E+03 -0.55626971660E+03  0.13994442782E+04  0.10100000352E+00 0. -1.
</event>
<event>
 5   0  0.2862033E-06  0.2985448E+04  0.7818609E-02  0.8247898E-01
       -2   -1    0    0    0  501  0.00000000000E+00  0.00000000000E+00  0.10701654227E+04  0.10701654227E+04  0.25500000920E-02 0. -1.
        2   -1    0    0  501    0  0.00000000000E+00  0.00000000000E+00 -0.20821318349E+04  0.20821318349E+04  0.25500000920E-02 0.  1.
    10030    2    1    2    0    0  0.00000000000E+00  0.00000000000E+00 -0.10119664122E+04  0.31522972576E+04  0.29854483718E+04 0.  0.
        2    1    3    3  502    0  0.96780957382E+01  0.55656473612E+03 -0.19684415538E+04  0.20456344057E+04  0.25500000920E-02 0.  1.
       -2    1    3    3    0  502 -0.96780957382E+01 -0.55656473612E+03  0.95647514165E+03  0.11066628518E+04  0.25500000920E-02 0. -1.
</event>
<event>
 5   0  0.2985941E-06  0.2979081E+04  0.7818609E-02  0.8249730E-01
       -2   -1    0    0    0  501  0.00000000000E+00  0.00000000000E+00  0.10556548792E+04  0.10556548792E+04  0.25500000920E-02 0. -1.
        2   -1    0    0  501    0  0.00000000000E+00  0.00000000000E+00 -0.21017584154E+04  0.21017584154E+04  0.25500000920E-02 0.  1.
    10030    2    1    2    0    0  0.00000000000E+00  0.00000000000E+00 -0.10461035362E+04  0.31574132946E+04  0.29790814196E+04 0.  0.
        3    1    3    3  502    0  0.44041873973E+03 -0.73428947095E+03 -0.18148579212E+04  0.20067035102E+04  0.10100000352E+00 0.  1.
       -3    1    3    3    0  502 -0.44041873973E+03  0.73428947095E+03  0.76875438499E+03  0.11507097845E+04  0.10100000352E+00 0. -1.
</event>
<event>
 5   0  0.2862033E-06  0.2996615E+04  0.7818609E-02  0.8244698E-01
        2   -1    0    0  501    0  0.00000000000E+00  0.00000000000E+00  0.12160143923E+04  0.12160143923E+04  0.25500000920E-02 0. -1.
       -2   -1    0    0    0  501  0.00000000000E+00  0.00000000000E+00 -0.18461342362E+04  0.18461342362E+04  0.25500000920E-02 0.  1.
    10030    2    1    2    0    0  0.00000000000E+00  0.00000000000E+00 -0.63011984388E+03  0.30621486286E+04  0.29966152916E+04 0.  0.
        2    1    3    3  502    0  0.34662441466E+03  0.81102761078E+03  0.92263052472E+03  0.12763860527E+04  0.25500000920E-02 0. -1.
       -2    1    3    3    0  502 -0.34662441466E+03 -0.81102761078E+03 -0.15527503686E+04  0.17857625759E+04  0.25500000920E-02 0.  1.
</event>
<event>
 5   0  0.2862033E-06  0.3008766E+04  0.7818609E-02  0.8241232E-01
        2   -1    0    0  501    0  0.00000000000E+00  0.00000000000E+00  0.29934141693E+04  0.29934141693E+04  0.25500000920E-02 0.  1.
       -2   -1    0    0    0  501  0.00000000000E+00  0.00000000000E+00 -0.75604894610E+03  0.75604894610E+03  0.25500000920E-02 0. -1.
    10030    2    1    2    0    0  0.00000000000E+00  0.00000000000E+00  0.22373652232E+04  0.37494631154E+04  0.30087656126E+04 0.  0.
        2    1    3    3  502    0 -0.13053983037E+04 -0.66849261486E+03  0.70122068955E+03  0.16256252836E+04  0.25500000920E-02 0. -1.
       -2    1    3    3    0  502  0.13053983037E+04  0.66849261486E+03  0.15361445337E+04  0.21238378318E+04  0.25500000920E-02 0.  1.
</event>
<event>
 5   0  0.1113245E-06  0.3005750E+04  0.7818609E-02  0.8242091E-01
       -1   -1    0    0    0  501  0.00000000000E+00  0.00000000000E+00  0.10635198194E+04  0.10635198194E+04  0.50400001928E-02 0.  1.
        1   -1    0    0  501    0  0.00000000000E+00  0.00000000000E+00 -0.21237337075E+04  0.21237337075E+04  0.50400001928E-02 0. -1.
    10030    2    1    2    0    0  0.00000000000E+00  0.00000000000E+00 -0.10602138881E+04  0.31872535269E+04  0.30057497495E+04 0.  0.
        5    1    3    3  502    0 -0.12979332351E+03  0.13660695449E+04  0.11977919216E+03  0.13774474412E+04  0.46999998093E+01 0.  1.
       -5    1    3    3    0  502  0.12979332351E+03 -0.13660695449E+04 -0.11799930803E+04  0.18098060857E+04  0.46999998093E+01 0. -1.
</event>
<event>
 5   0  0.1091075E-06  0.3015604E+04  0.7818609E-02  0.8239289E-01
        1   -1    0    0  501    0  0.00000000000E+00  0.00000000000E+00  0.13741168797E+04  0.13741168798E+04  0.50400001928E-02 0.  1.
       -1   -1    0    0    0  501  0.00000000000E+00  0.00000000000E+00 -0.16544932027E+04  0.16544932027E+04  0.50400001928E-02 0. -1.
    10030    2    1    2    0    0  0.00000000000E+00  0.00000000000E+00 -0.28037632291E+03  0.30286100824E+04  0.30156041101E+04 0.  0.
        1    1    3    3  502    0  0.14012476060E+03 -0.14967592050E+04 -0.25706865708E+03  0.15251253590E+04  0.50400001928E-02 0. -1.
       -1    1    3    3    0  502 -0.14012476060E+03  0.14967592050E+04 -0.23307665827E+02  0.15034847234E+04  0.50400001928E-02 0.  1.
</event>
<event>
 5   0  0.2862033E-06  0.2894281E+04  0.7818609E-02  0.8274581E-01
       -2   -1    0    0    0  501  0.00000000000E+00  0.00000000000E+00  0.13758597568E+04  0.13758597568E+04  0.25500000920E-02 0. -1.
        2   -1    0    0  501    0  0.00000000000E+00  0.00000000000E+00 -0.15221139337E+04  0.15221139337E+04  0.25500000920E-02 0.  1.
    10030    2    1    2    0    0  0.00000000000E+00  0.00000000000E+00 -0.14625417697E+03  0.28979736905E+04  0.28942807788E+04 0.  0.
        2    1    3    3  502    0  0.12026526195E+03  0.71284342170E+03  0.11821095104E+04  0.13856378934E+04  0.25500000920E-02 0. -1.
       -2    1    3    3    0  502 -0.12026526195E+03 -0.71284342170E+03 -0.13283636874E+04  0.15123357971E+04  0.25500000920E-02 0.  1.
</event>
<event>
 5   0  0.2862033E-06  0.2966116E+04  0.7818609E-02  0.8253473E-01
       -2   -1    0    0    0  501  0.00000000000E+00  0.00000000000E+00  0.10426410619E+04  0.10426410619E+04  0.25500000920E-02 0.  1.
        2   -1    0    0  501    0  0.00000000000E+00  0.00000000000E+00 -0.21095087224E+04  0.21095087224E+04  0.25500000920E-02 0. -1.
    10030    2    1    2    0    0  0.00000000000E+00  0.00000000000E+00 -0.10668676605E+04  0.31521497843E+04  0.29661155839E+04 0.  0.
        2    1    3    3  502    0 -0.45349901898E+03 -0.12002857057E+04  0.25692774460E+03  0.13085713590E+04  0.25500000920E-02 0.  1.
       -2    1    3    3    0  502  0.45349901898E+03  0.12002857057E+04 -0.13237954051E+04  0.18435784253E+04  0.25500000920E-02 0. -1.
</event>
<event>
 5   0  0.2985941E-06  0.3117918E+04  0.7818609E-02  0.8210838E-01
        2   -1    0    0  501    0  0.00000000000E+00  0.00000000000E+00  0.99919205547E+03  0.99919205548E+03  0.25500000920E-02 0.  1.
       -2   -1    0    0    0  501  0.00000000000E+00  0.00000000000E+00 -0.24323182187E+04  0.24323182187E+04  0.25500000920E-02 0. -1.
    10030    2    1    2    0    0  0.00000000000E+00  0.00000000000E+00 -0.14331261632E+04  0.34315102741E+04  0.31179179210E+04 0.  0.
        3    1    3    3  502    0  0.47247749157E+03  0.13172246849E+04  0.39588263046E+02  0.13999582463E+04  0.10100000352E+00 0.  1.
       -3    1    3    3    0  502 -0.47247749157E+03 -0.13172246849E+04 -0.14727144262E+04  0.20315520279E+04  0.10100000352E+00 0. -1.
</event>
<event>
 5   0  0.1054384E-06  0.3009767E+04  0.7818609E-02  0.8240947E-01
        1   -1    0    0  501    0  0.00000000000E+00  0.00000000000E+00  0.17686441231E+04  0.17686441231E+04  0.50400001928E-02 0.  1.
       -1   -1    0    0    0  501  0.00000000000E+00  0.00000000000E+00 -0.12804580925E+04  0.12804580925E+04  0.50400001928E-02 0. -1.
    10030    2    1    2    0    0  0.00000000000E+00  0.00000000000E+00  0.48818603063E+03  0.30491022156E+04  0.30097672203E+04 0.  0.
        2    1    3    3  502    0  0.74601366814E+03 -0.97912789355E+03  0.11211130133E+04  0.16649691330E+04  0.25500000920E-02 0.  1.
       -2    1    3    3    0  502 -0.74601366814E+03  0.97912789355E+03 -0.63292698271E+03  0.13841330826E+04  0.25500000920E-02 0. -1.
</event>
<event>
 5   0  0.1091075E-06  0.2998331E+04  0.7818609E-02  0.8244208E-01
        1   -1    0    0  501    0  0.00000000000E+00  0.00000000000E+00  0.23818420474E+04  0.23818420474E+04  0.50400001928E-02 0. -1.
       -1   -1    0    0    0  501  0.00000000000E+00  0.00000000000E+00 -0.94359627230E+03  0.94359627231E+03  0.50400001928E-02 0.  1.
    10030    2    1    2    0    0  0.00000000000E+00  0.00000000000E+00  0.14382457751E+04  0.33254383197E+04  0.29983310539E+04 0.  0.
        1    1    3    3  502    0  0.11037787037E+04  0.94466405144E+03  0.11293082007E+04  0.18401235309E+04  0.50400001928E-02 0.  1.
       -1    1    3    3    0  502 -0.11037787037E+04 -0.94466405144E+03  0.30893757443E+03  0.14853147888E+04  0.50400001928E-02 0. -1.
</event>
<event>
 5   0  0.2862033E-06  0.2991298E+04  0.7818609E-02  0.8246220E-01
       -2   -1    0    0    0  501  0.00000000000E+00  0.00000000000E+00  0.13926344419E+04  0.13926344420E+04  0.25500000920E-02 0. -1.
        2   -1    0    0  501    0  0.00000000000E+00  0.00000000000E+00 -0.16062835806E+04  0.16062835806E+04  0.25500000920E-02 0.  1.
    10030    2    1    2    0    0  0.00000000000E+00  0.00000000000E+00 -0.21364913867E+03  0.29989180226E+04  0.29912979376E+04 0.  0.
        2    1    3    3  502    0  0.51816642995E+02  0.11582792437E+04 -0.10540435866E+04  0.15669408583E+04  0.25500000920E-02 0.  1.
       -2    1    3    3    0  502 -0.51816642995E+02 -0.11582792437E+04  0.84039444793E+03  0.14319771643E+04  0.25500000920E-02 0. -1.
</event>
<event>
 5   0  0.2948711E-06  0.2981300E+04  0.7818609E-02  0.8249091E-01
       -2   -1    0    0    0  501  0.00000000000E+00  0.00000000000E+00  0.10262508078E+04  0.10262508078E+04  0.25500000920E-02 0. -1.
        2   -1    0    0  501    0  0.00000000000E+00  0.00000000000E+00 -0.21651992431E+04  0.21651992432E+04  0.25500000920E-02 0.  1.
    10030    2    1    2    0    0  0.00000000000E+00  0.00000000000E+00 -0.11389484354E+04  0.31914500509E+04  0.29813000334E+04 0.  0.
        5    1    3    3  502    0  0.96343403431E+03  0.53103249447E+03 -0.16462688112E+04  0.19800059943E+04  0.46999998093E+01 0.  1.
       -5    1    3    3    0  502 -0.96343403431E+03 -0.53103249447E+03  0.50732037584E+03  0.12114440566E+04  0.46999998093E+01 0. -1.
</event>
<event>
 5   0  0.1054384E-06  0.2996497E+04  0.7818609E-02  0.8244732E-01
       -1   -1    0    0    0  501  0.00000000000E+00  0.00000000000E+00  0.10302284830E+04  0.10302284830E+04  0.50400001928E-02 0.  1.
        1   -1    0    0  501    0  0.00000000000E+00  0.00000000000E+00 -0.21788843014E+04  0.21788843014E+04  0.50400001928E-02 0. -1.
    10030    2    1    2    0    0  0.00000000000E+00  0.00000000000E+00 -0.11486558183E+04  0.32091127844E+04  0.29964970673E+04 0.  0.
        2    1    3    3  502    0 -0.21175206537E+03  0.11996766257E+04 -0.15083857209E+04  0.19388889670E+04  0.25500000920E-02 0. -1.
       -2    1    3    3    0  502  0.21175206537E+03 -0.11996766257E+04  0.35972990250E+03  0.12702238174E+04  0.25500000920E-02 0.  1.
</event>
<event>
 5   0  0.1113245E-06  0.2980841E+04  0.7818609E-02  0.8249223E-01
       -1   -1    0    0    0  501  0.00000000000E+00  0.00000000000E+00  0.20743679874E+04  0.20743679874E+04  0.50400001928E-02 0. -1.
        1   -1    0    0  501    0  0.00000000000E+00  0.00000000000E+00 -0.10708578924E+04  0.10708578924E+04  0.50400001928E-02 0.  1.
    10030    2    1    2    0    0  0.00000000000E+00  0.00000000000E+00  0.10035100949E+04  0.31452258798E+04  0.29808410431E+04 0.  0.
        5    1    3    3  502    0  0.82157458362E+03  0.95895405074E+03 -0.33358140276E+03  0.13060919991E+04  0.46999998093E+01 0.  1.
       -5    1    3    3    0  502 -0.82157458362E+03 -0.95895405074E+03  0.13370914977E+04  0.18391338807E+04  0.46999998093E+01 0. -1.
</event>
<event>
 5   0  0.2970915E-06  0.2973292E+04  0.7818609E-02  0.8251399E-01
        2   -1    0    0  501    0  0.00000000000E+00  0.00000000000E+00  0.11799154119E+04  0.11799154119E+04  0.25500000920E-02 0. -1.
       -2   -1    0    0    0  501  0.00000000000E+00  0.00000000000E+00 -0.18731138651E+04  0.18731138651E+04  0.25500000920E-02 0.  1.
    10030    2    1    2    0    0  0.00000000000E+00  0.00000000000E+00 -0.69319845323E+03  0.30530292770E+04  0.29732917231E+04 0.  0.
        4    1    3    3  502    0 -0.13717130044E+04  0.43580169866E+03  0.35667616077E+02  0.14397199307E+04  0.12699999809E+01 0.  1.
       -4    1    3    3    0  502  0.13717130044E+04 -0.43580169866E+03 -0.72886606931E+03  0.16133093463E+04  0.12699999809E+01 0. -1.
</event>
<event>
 5   0  0.1091076E-06  0.3016348E+04  0.7818609E-02  0.8239078E-01
        1   -1    0    0  501    0  0.00000000000E+00  0.00000000000E+00  0.15857697074E+04  0.15857697075E+04  0.50400001928E-02 0. -1.
       -1   -1    0    0    0  501  0.00000000000E+00  0.00000000000E+00 -0.14343748234E+04  0.14343748234E+04  0.50400001928E-02 0.  1.
    10030    2    1    2    0    0  0.00000000000E+00  0.00000000000E+00  0.15139488403E+03  0.30201445309E+04  0.30163475556E+04 0.  0.
        3    1    3    3  502    0  0.11298925227E+04  0.42371656415E+03 -0.83009336245E+03  0.14646664604E+04  0.10100000352E+00 0.  1.
       -3    1    3    3    0  502 -0.11298925227E+04 -0.42371656415E+03  0.98148824649E+03  0.15554780705E+04  0.10100000352E+00 0. -1.
</event>
<event>
 5   0  0.1054384E-06  0.3031458E+04  0.7818609E-02  0.8234804E-01
       -1   -1    0    0    0  501  0.00000000000E+00  0.00000000000E+00  0.89146283860E+03  0.89146283861E+03  0.50400001928E-02 0. -1.
        1   -1    0    0  501    0  0.00000000000E+00  0.00000000000E+00 -0.25771514907E+04  0.25771514907E+04  0.50400001928E-02 0.  1.
    10030    2    1    2    0    0  0.00000000000E+00  0.00000000000E+00 -0.16856886521E+04  0.34686143293E+04  0.30314582520E+04 0.  0.
        2    1    3    3  502    0  0.12860451051E+04 -0.80090397857E+03 -0.79071585249E+03  0.17089735968E+04  0.25500000920E-02 0.  1.
       -2    1    3    3    0  502 -0.12860451051E+04  0.80090397857E+03 -0.89497279961E+03  0.17596407325E+04  0.25500000920E-02 0. -1.
</event>
<event>
 5   0  0.2862033E-06  0.3109019E+04  0.7818609E-02  0.8213267E-01
       -2   -1    0    0    0  501  0.00000000000E+00  0.00000000000E+00  0.17697537623E+04  0.17697537623E+04  0.25500000920E-02 0. -1.
        2   -1    0    0  501    0  0.00000000000E+00  0.00000000000E+00 -0.13654436778E+04  0.13654436778E+04  0.25500000920E-02 0.  1.
    10030    2    1    2    0    0  0.00000000000E+00  0.00000000000E+00  0.40431008451E+03  0.31351974401E+04  0.31090185500E+04 0.  0.
        2    1    3    3  502    0 -0.75547961003E+03 -0.94147950304E+03  0.11898748015E+04  0.16949734921E+04  0.25500000920E-02 0. -1.
       -2    1    3    3    0  502  0.75547961003E+03  0.94147950304E+03 -0.78556471696E+03  0.14402239480E+04  0.25500000920E-02 0.  1.
</event>
<event>
 5   0  0.2948711E-06  0.2990770E+04  0.7818609E-02  0.8246372E-01
       -2   -1    0    0    0  501  0.00000000000E+00  0.00000000000E+00  0.26177541694E+04  0.26177541694E+04  0.25500000920E-02 0.  1.
        2   -1    0    0  501    0  0.00000000000E+00  0.00000000000E+00 -0.85423450592E+03  0.85423450592E+03  0.25500000920E-02 0. -1.
    10030    2    1    2    0    0  0.00000000000E+00  0.00000000000E+00  0.17635196635E+04  0.34719886754E+04  0.29907697601E+04 0.  0.
        5    1    3    3  502    0  0.12856836466E+04 -0.43983437048E+03  0.16064795384E+04  0.21040996435E+04  0.46999998093E+01 0.  1.
       -5    1    3    3    0  502 -0.12856836466E+04  0.43983437048E+03  0.15704012513E+03  0.13678890319E+04  0.46999998093E+01 0. -1.
</event>
<event>
 5   0  0.1097402E-06  0.3027883E+04  0.7818609E-02  0.8235813E-01
       -1   -1    0    0    0  501  0.00000000000E+00  0.00000000000E+00  0.87854243277E+03  0.87854243278E+03  0.50400001928E-02 0.  1.
        1   -1    0    0  501    0  0.00000000000E+00  0.00000000000E+00 -0.26088885743E+04  0.26088885743E+04  0.50400001928E-02 0. -1.
    10030    2    1    2    0    0  0.00000000000E+00  0.00000000000E+00 -0.17303461415E+04  0.34874310071E+04  0.30278832969E+04 0.  0.
        4    1    3    3  502    0  0.11723934801E+04  0.37070444087E+03 -0.18824488256E+04  0.22484535682E+04  0.12699999809E+01 0. -1.
       -4    1    3    3    0  502 -0.11723934801E+04 -0.37070444087E+03  0.15210268408E+03  0.12389774389E+04  0.12699999809E+01 0.  1.
</event>
<event>
 5   0  0.2948711E-06  0.2966843E+04  0.7818609E-02  0.8253263E-01
        2   -1    0    0  501    0  0.00000000000E+00  0.00000000000E+00  0.19943951319E+04  0.19943951319E+04  0.25500000920E-02 0.  1.
       -2   -1    0    0    0  501  0.00000000000E+00  0.00000000000E+00 -0.11033619769E+04  0.11033619769E+04  0.25500000920E-02 0. -1.
    10030    2    1    2    0    0  0.00000000000E+00  0.00000000000E+00  0.89103315507E+03  0.30977571088E+04  0.29668432756E+04 0.  0.
        5    1    3    3  502    0 -0.13814623920E+04 -0.50456891805E+03  0.64768241372E+03  0.16070291636E+04  0.46999998093E+01 0. -1.
       -5    1    3    3    0  502  0.13814623920E+04  0.50456891805E+03  0.24335074135E+03  0.14907279453E+04  0.46999998093E+01 0.  1.
</event>
<event>
 5   0  0.1091076E-06  0.2996737E+04  0.7818609E-02  0.8244663E-01
       -1   -1    0    0    0  501  0.00000000000E+00  0.00000000000E+00  0.19947332160E+04  0.19947332160E+04  0.50400001928E-02 0. -1.
        1   -1    0    0  501    0  0.00000000000E+00  0.00000000000E+00 -0.11255177734E+04  0.11255177734E+04  0.50400001928E-02 0.  1.
    10030    2    1    2    0    0  0.00000000000E+00  0.00000000000E+00  0.86921544258E+03  0.31202509894E+04  0.29967366836E+04 0.  0.
        3    1    3    3  502    0 -0.78369581529E+03  0.11505320785E+04 -0.14249712301E+03  0.13993600805E+04  0.10100000352E+00 0.  1.
       -3    1    3    3    0  502  0.78369581529E+03 -0.11505320785E+04  0.10117125656E+04  0.17208909089E+04  0.10100000352E+00 0. -1.
</event>
<event>
 5   0  0.2862033E-06  0.2994828E+04  0.7818609E-02  0.8245209E-01
       -2   -1    0    0    0  501  0.00000000000E+00  0.00000000000E+00  0.11241535954E+04  0.11241535954E+04  0.25500000920E-02 0.  1.
        2   -1    0    0  501    0  0.00000000000E+00  0.00000000000E+00 -0.19946111312E+04  0.19946111312E+04  0.25500000920E-02 0. -1.
    10030    2    1    2    0    0  0.00000000000E+00  0.00000000000E+00 -0.87045753582E+03  0.31187647266E+04  0.29948283921E+04 0.  0.
        2    1    3    3  502    0  0.10969703392E+04  0.44335425108E+03 -0.13910022830E+04  0.18261419081E+04  0.25500000920E-02 0. -1.
       -2    1    3    3    0  502 -0.10969703392E+04 -0.44335425108E+03  0.52054474715E+03  0.12926228185E+04  0.25500000920E-02 0.  1.
</event>
<event>
 5   0  0.2985941E-06  0.2989817E+04  0.7818609E-02  0.8246645E-01
        2   -1    0    0  501    0  0.00000000000E+00  0.00000000000E+00  0.14334304086E+04  0.14334304086E+04  0.25500000920E-02 0.  1.
       -2   -1    0    0    0  501  0.00000000000E+00  0.00000000000E+00 -0.15590236087E+04  0.15590236087E+04  0.25500000920E-02 0. -1.
    10030    2    1    2    0    0  0.00000000000E+00  0.00000000000E+00 -0.12559320008E+03  0.29924540174E+04  0.29898172844E+04 0.  0.
        3    1    3    3  502    0  0.34583503784E+03 -0.11248272032E+04  0.85992409123E+03  0.14575004506E+04  0.10100000352E+00 0.  1.
       -3    1    3    3    0  502 -0.34583503784E+03  0.11248272032E+04 -0.98551729131E+03  0.15349535668E+04  0.10100000352E+00 0. -1.
</event>
<event>
 5   0  0.3113328E-06  0.2976270E+04  0.7818609E-02  0.8250540E-01
        2   -1    0    0  501    0  0.00000000000E+00  0.00000000000E+00  0.26851369390E+04  0.26851369390E+04  0.25500000920E-02 0.  1.
       -2   -1    0    0    0  501  0.00000000000E+00  0.00000000000E+00 -0.82474195641E+03  0.82474195642E+03  0.25500000920E-02 0. -1.
    10030    2    1    2    0    0  0.00000000000E+00  0.00000000000E+00  0.18603949826E+04  0.35098788954E+04  0.29762695391E+04 0.  0.
        1    1    3    3  502    0 -0.12574980481E+04 -0.73969536131E+03  0.12762226183E+04  0.19383484568E+04  0.50400001928E-02 0.  1.
       -1    1    3    3    0  502  0.12574980481E+04  0.73969536131E+03  0.58417236430E+03  0.15715304387E+04  0.50400001928E-02 0. -1.
</event>
<event>
 5   0  0.1091075E-06  0.2998240E+04  0.7818609E-02  0.8244234E-01
        1   -1    0    0  501    0  0.00000000000E+00  0.00000000000E+00  0.23476063446E+04  0.23476063446E+04  0.50400001928E-02 0.  1.
       -1   -1    0    0    0  501  0.00000000000E+00  0.00000000000E+00 -0.95729879307E+03  0.95729879308E+03  0.50400001928E-02 0. -1.
    10030    2    1    2    0    0  0.00000000000E+00  0.00000000000E+00  0.13903075515E+04  0.33049051377E+04  0.29982399639E+04 0.  0.
        1    1    3    3  502    0  0.58483577813E+03  0.97252459020E+03 -0.38458941766E+03  0.11982261832E+04  0.50400001928E-02 0.  1.
       -1    1    3    3    0  502 -0.58483577813E+03 -0.97252459020E+03  0.17748969692E+04  0.21066789545E+04  0.50400001928E-02 0. -1.
</event>
<event>
 5   0  0.2985941E-06  0.3004829E+04  0.7818609E-02  0.8242353E-01
       -2   -1    0    0    0  501  0.00000000000E+00  0.00000000000E+00  0.97099400893E+03  0.97099400893E+03  0.25500000920E-02 0.  1.
        2   -1    0    0  501    0  0.00000000000E+00  0.00000000000E+00 -0.23246790411E+04  0.23246790411E+04  0.25500000920E-02 0. -1.
    10030    2    1    2    0    0  0.00000000000E+00  0.00000000000E+00 -0.13536850322E+04  0.32956730500E+04  0.30048290611E+04 0.  0.
        3    1    3    3  502    0  0.20149010188E+03  0.39464762810E+03  0.89769594281E+03  0.10011009077E+04  0.10100000352E+00 0.  1.
       -3    1    3    3    0  502 -0.20149010188E+03 -0.39464762810E+03 -0.22513809750E+04  0.22945721423E+04  0.10100000352E+00 0. -1.
</event>
<event>
 5   0  0.1097402E-06  0.3015756E+04  0.7818609E-02  0.8239246E-01
       -1   -1    0    0    0  501  0.00000000000E+00  0.00000000000E+00  0.12311967004E+04  0.12311967004E+04  0.50400001928E-02 0.  1.
        1   -1    0    0  501    0  0.00000000000E+00  0.00000000000E+00 -0.18467366013E+04  0.18467366013E+04  0.50400001928E-02 0. -1.
    10030    2    1    2    0    0  0.00000000000E+00  0.00000000000E+00 -0.61553990087E+03  0.30779333017E+04  0.30157559650E+04 0.  0.
        4    1    3    3  502    0  0.28492221358E+03 -0.25057726385E+03  0.11816760049E+04  0.12411000872E+04  0.12699999809E+01 0.  1.
       -4    1    3    3    0  502 -0.28492221358E+03  0.25057726385E+03 -0.17972159058E+04  0.18368332145E+04  0.12699999809E+01 0. -1.
</event>
<event>
 5   0  0.2948711E-06  0.2700558E+04  0.7818609E-02  0.8334824E-01
       -2   -1    0    0    0  501  0.00000000000E+00  0.00000000000E+00  0.10060433723E+04  0.10060433723E+04  0.25500000920E-02 0. -1.
        2   -1    0    0  501    0  0.00000000000E+00  0.00000000000E+00 -0.18123004239E+04  0.18123004239E+04  0.25500000920E-02 0.  1.
    10030    2    1    2    0    0  0.00000000000E+00  0.00000000000E+00 -0.80625705152E+03  0.28183437962E+04  0.27005575944E+04 0.  0.
        5    1    3    3  502    0  0.66945373856E+03 -0.89262885900E+03  0.39048336621E+03  0.11821395591E+04  0.46999998093E+01 0. -1.
       -5    1    3    3    0  502 -0.66945373856E+03  0.89262885900E+03 -0.11967404177E+04  0.16362042371E+04  0.46999998093E+01 0.  1.
</event>
<event>
 5   0  0.1097402E-06  0.2989894E+04  0.7818609E-02  0.8246623E-01
       -1   -1    0    0    0  501  0.00000000000E+00  0.00000000000E+00  0.14681903112E+04  0.14681903112E+04  0.50400001928E-02 0. -1.
        1   -1    0    0  501    0  0.00000000000E+00  0.00000000000E+00 -0.15221911728E+04  0.15221911728E+04  0.50400001928E-02 0.  1.
    10030    2    1    2    0    0  0.00000000000E+00  0.00000000000E+00 -0.54000861603E+02  0.29903814840E+04  0.29898938655E+04 0.  0.
        4    1    3    3  502    0 -0.23494996130E+03  0.46802982246E+03  0.13734462407E+04  0.14699012171E+04  0.12699999809E+01 0. -1.
       -4    1    3    3    0  502  0.23494996130E+03 -0.46802982246E+03 -0.14274471023E+04  0.15204802669E+04  0.12699999809E+01 0.  1.
</event>
<event>
 5   0  0.1091076E-06  0.2995500E+04  0.7818609E-02  0.8245017E-01
        1   -1    0    0  501    0  0.00000000000E+00  0.00000000000E+00  0.13761267718E+04  0.13761267718E+04  0.50400001928E-02 0.  1.
       -1   -1    0    0    0  501  0.00000000000E+00  0.00000000000E+00 -0.16301222648E+04  0.16301222648E+04  0.50400001928E-02 0. -1.
    10030    2    1    2    0    0  0.00000000000E+00  0.00000000000E+00 -0.25399549296E+03  0.30062490366E+04  0.29954998848E+04 0.  0.
        3    1    3    3  502    0  0.88611585297E+02  0.77540808496E+02 -0.16254699799E+04  0.16297291971E+04  0.10100000352E+00 0. -1.
       -3    1    3    3    0  502 -0.88611585297E+02 -0.77540808496E+02  0.13714744870E+04  0.13765198395E+04  0.10100000352E+00 0.  1.
</event>
<event>
 5   0  0.3113328E-06  0.3004320E+04  0.7818609E-02  0.8242498E-01
       -2   -1    0    0    0  501  0.00000000000E+00  0.00000000000E+00  0.12660947708E+04  0.12660947708E+04  0.25500000920E-02 0.  1.
        2   -1    0    0  501    0  0.00000000000E+00  0.00000000000E+00 -0.17822395277E+04  0.17822395277E+04  0.25500000920E-02 0. -1.
    10030    2    1    2    0    0  0.00000000000E+00  0.00000000000E+00 -0.51614475696E+03  0.30483342985E+04  0.30043196543E+04 0.  0.
        1    1    3    3  502    0 -0.10765000397E+03 -0.49629422372E+03  0.11763533131E+04  0.12812898177E+04  0.50400001928E-02 0.  1.
       -1    1    3    3    0  502  0.10765000397E+03  0.49629422372E+03 -0.16924980700E+04  0.17670444807E+04  0.50400001928E-02 0. -1.
</event>
<event>
 5   0  0.2970915E-06  0.2968292E+04  0.7818609E-02  0.8252844E-01
       -2   -1    0    0    0  501  0.00000000000E+00  0.00000000000E+00  0.13175817278E+04  0.13175817278E+04  0.25500000920E-02 0. -1.
        2   -1    0    0  501    0  0.00000000000E+00  0.00000000000E+00 -0.16717668583E+04  0.16717668583E+04  0.25500000920E-02 0.  1.
    10030    2    1    2    0    0  0.00000000000E+00  0.00000000000E+00 -0.35418513045E+03  0.29893485861E+04  0.29682920784E+04 0.  0.
        4    1    3    3  502    0  0.71772483374E+03 -0.64410249050E+02  0.11295743938E+04  0.13398572839E+04  0.12699999809E+01 0. -1.
       -4    1    3    3    0  502 -0.71772483374E+03  0.64410249050E+02 -0.14837595243E+04  0.16494913022E+04  0.12699999809E+01 0.  1.
</event>
<event>
 5   0  0.2985941E-06  0.3004742E+04  0.7818609E-02  0.8242378E-01
        2   -1    0    0  501    0  0.00000000000E+00  0.00000000000E+00  0.17582387749E+04  0.17582387749E+04  0.25500000920E-02 0. -1.
       -2   -1    0    0    0  501  0.00000000000E+00  0.00000000000E+00 -0.12837379850E+04  0.12837379850E+04  0.25500000920E-02 0.  1.
    10030    2    1    2    0    0  0.00000000000E+00  0.00000000000E+00  0.47450078989E+03  0.30419767599E+04  0.30047415210E+04 0.  0.
        3    1    3    3  502    0 -0.20292046610E+03  0.72741683913E+03 -0.10776151087E+04  0.13158899294E+04  0.10100000352E+00 0.  1.
       -3    1    3    3    0  502  0.20292046610E+03 -0.72741683913E+03  0.15521158986E+04  0.17260868305E+04  0.10100000352E+00 0. -1.
</event>
<event>
 5   0  0.1097402E-06  0.3009832E+04  0.7818609E-02  0.8240929E-01
       -1   -1    0    0    0  501  0.00000000000E+00  0.00000000000E+00  0.17328750325E+04  0.17328750325E+04  0.50400001928E-02 0.  1.
        1   -1    0    0  501    0  0.00000000000E+00  0.00000000000E+00 -0.13069445722E+04  0.13069445722E+04  0.50400001928E-02 0. -1.
    10030    2    1    2    0    0  0.00000000000E+00  0.00000000000E+00  0.42593046031E+03  0.30398196048E+04  0.30098316353E+04 0.  0.
        4    1    3    3  502    0  0.46236662397E+02 -0.86069348929E+03 -0.10329541709E+04  0.13453352904E+04  0.12699999809E+01 0. -1.
       -4    1    3    3    0  502 -0.46236662397E+02  0.86069348929E+03  0.14588846313E+04  0.16944843144E+04  0.12699999809E+01 0.  1.
</event>
<event>
 5   0  0.1054384E-06  0.2998679E+04  0.7818609E-02  0.8244108E-01
        1   -1    0    0  501    0  0.00000000000E+00  0.00000000000E+00  0.21505751453E+04  0.21505751453E+04  0.50400001928E-02 0. -1.
       -1   -1    0    0    0  501  0.00000000000E+00  0.00000000000E+00 -0.10453107032E+04  0.10453107032E+04  0.50400001928E-02 0.  1.
    10030    2    1    2    0    0  0.00000000000E+00  0.00000000000E+00  0.11052644421E+04  0.31958858485E+04  0.29986791876E+04 0.  0.
        2    1    3    3  502    0  0.33951492765E+03 -0.20785649588E+02  0.21089099995E+04  0.21361656807E+04  0.25500000920E-02 0. -1.
       -2    1    3    3    0  502 -0.33951492765E+03  0.20785649588E+02 -0.10036455574E+04  0.10597201679E+04  0.25500000920E-02 0.  1.
</event>
<event>
 5   0  0.2948711E-06  0.3016980E+04  0.7818609E-02  0.8238899E-01
        2   -1    0    0  501    0  0.00000000000E+00  0.00000000000E+00  0.22697076330E+04  0.22697076330E+04  0.25500000920E-02 0. -1.
       -2   -1    0    0    0  501  0.00000000000E+00  0.00000000000E+00 -0.10025708870E+04  0.10025708870E+04  0.25500000920E-02 0.  1.
    10030    2    1    2    0    0  0.00000000000E+00  0.00000000000E+00  0.12671367460E+04  0.32722785201E+04  0.30169804739E+04 0.  0.
        5    1    3    3  502    0  0.12766511788E+04 -0.27424808337E+03 -0.18563992573E+03  0.13189141426E+04  0.46999998093E+01 0.  1.
       -5    1    3    3    0  502 -0.12766511788E+04  0.27424808337E+03  0.14527766717E+04  0.19533643775E+04  0.46999998093E+01 0. -1.
</event>
<event>
 5   0  0.1091075E-06  0.3000775E+04  0.7818609E-02  0.8243510E-01
        1   -1    0    0  501    0  0.00000000000E+00  0.00000000000E+00  0.23279671897E+04  0.23279671897E+04  0.50400001928E-02 0. -1.
       -1   -1    0    0    0  501  0.00000000000E+00  0.00000000000E+00 -0.96700799564E+03  0.96700799566E+03  0.50400001928E-02 0.  1.
    10030    2    1    2    0    0  0.00000000000E+00  0.00000000000E+00  0.13609591941E+04  0.32949751854E+04  0.30007751572E+04 0.  0.
        1    1    3    3  502    0  0.64854260952E+01 -0.14428061849E+04  0.11324555266E+04  0.18341720932E+04  0.50400001928E-02 0. -1.
       -1    1    3    3    0  502 -0.64854260952E+01  0.14428061849E+04  0.22850366750E+03  0.14608030921E+04  0.50400001928E-02 0.  1.
</event>
<event>
 5   0  0.2985941E-06  0.2970267E+04  0.7818609E-02  0.8252273E-01
       -2   -1    0    0    0  501  0.00000000000E+00  0.00000000000E+00  0.14083594868E+04  0.14083594868E+04  0.25500000920E-02 0.  1.
        2   -1    0    0  501    0  0.00000000000E+00  0.00000000000E+00 -0.15660923770E+04  0.15660923770E+04  0.25500000920E-02 0. -1.
    10030    2    1    2    0    0  0.00000000000E+00  0.00000000000E+00 -0.15773289025E+03  0.29744518638E+04  0.29702666926E+04 0.  0.
        3    1    3    3  502    0  0.50645100064E+03  0.73661999326E+03 -0.12665052125E+04  0.15502055005E+04  0.10100000352E+00 0. -1.
       -3    1    3    3    0  502 -0.50645100064E+03 -0.73661999326E+03  0.11087723222E+04  0.14242463632E+04  0.10100000352E+00 0.  1.
</event>
<event>
 5   0  0.1054384E-06  0.3006965E+04  0.7818609E-02  0.8241745E-01
        1   -1    0    0  501    0  0.00000000000E+00  0.00000000000E+00  0.14685547760E+04  0.14685547760E+04  0.50400001928E-02 0.  1.
       -1   -1    0    0    0  501  0.00000000000E+00  0.00000000000E+00 -0.15392409542E+04  0.15392409542E+04  0.50400001928E-02 0. -1.
    10030    2    1    2    0    0  0.00000000000E+00  0.00000000000E+00 -0.70686178167E+02  0.30077957302E+04  0.30069650179E+04 0.  0.
        2    1    3    3  502    0 -0.10756138813E+04 -0.85727691245E+03 -0.64262754667E+03  0.15181696512E+04  0.25500000920E-02 0. -1.
       -2    1    3    3    0  502  0.10756138813E+04  0.85727691245E+03  0.57194136851E+03  0.14896260790E+04  0.25500000920E-02 0.  1.
</event>
<event>
 5   0  0.1097402E-06  0.2990166E+04  0.7818609E-02  0.8246545E-01
       -1   -1    0    0    0  501  0.00000000000E+00  0.00000000000E+00  0.15064574486E+04  0.15064574486E+04  0.50400001928E-02 0.  1.
        1   -1    0    0  501    0  0.00000000000E+00  0.00000000000E+00 -0.14837946363E+04  0.14837946363E+04  0.50400001928E-02 0. -1.
    10030    2    1    2    0    0  0.00000000000E+00  0.00000000000E+00  0.22662812306E+02  0.29902520849E+04  0.29901662041E+04 0.  0.
        4    1    3    3  502    0  0.10265599948E+04 -0.10758382772E+04 -0.14365190657E+03  0.14939514399E+04  0.12699999809E+01 0.  1.
       -4    1    3    3    0  502 -0.10265599948E+04  0.10758382772E+04  0.16631471887E+03  0.14963006450E+04  0.12699999809E+01 0. -1.
</event>
<event>
 5   0  0.9749500E-07  0.3010391E+04  0.7818609E-02  0.8240770E-01
        3   -1    0    0  501    0  0.00000000000E+00  0.00000000000E+00  0.80854663937E+03  0.80854664568E+03  0.10100000352E+00 0. -1.
       -3   -1    0    0    0  501  0.00000000000E+00  0.00000000000E+00 -0.28020809418E+04  0.28020809436E+04  0.10100000352E+00 0.  1.
    10030    2    1    2    0    0  0.00000000000E+00  0.00000000000E+00 -0.19935343024E+04  0.36106275893E+04  0.30103907676E+04 0.  0.
        3    1    3    3  502    0 -0.64372890072E+03 -0.10413636111E+04 -0.20470287711E+04  0.23851943040E+04  0.10100000352E+00 0.  1.
       -3    1    3    3    0  502  0.64372890072E+03  0.10413636111E+04  0.53494468649E+02  0.12254332852E+04  0.10100000352E+00 0. -1.
</event>
<event>
 5   0  0.2970915E-06  0.2958239E+04  0.7818609E-02  0.8255757E-01
        2   -1    0    0  501    0  0.00000000000E+00  0.00000000000E+00  0.16032639423E+04  0.16032639423E+04  0.25500000920E-02 0.  1.
       -2   -1    0    0    0  501  0.00000000000E+00  0.00000000000E+00 -0.13645879433E+04  0.13645879433E+04  0.25500000920E-02 0. -1.
    10030    2    1    2    0    0  0.00000000000E+00  0.00000000000E+00  0.23867599905E+03  0.29678518856E+04  0.29582391016E+04 0.  0.
        4    1    3    3  502    0 -0.33292597867E+03  0.11157036409E+04 -0.79585361405E+03  0.14103258168E+04  0.12699999809E+01 0. -1.
       -4    1    3    3    0  502  0.33292597867E+03 -0.11157036409E+04  0.10345296131E+04  0.15575260688E+04  0.12699999809E+01 0.  1.
</event>
<event>
 5   0  0.1113245E-06  0.3031596E+04  0.7818609E-02  0.8234766E-01
        1   -1    0    0  501    0  0.00000000000E+00  0.00000000000E+00  0.12981070482E+04  0.12981070482E+04  0.50400001928E-02 0.  1.
       -1   -1    0    0    0  501  0.00000000000E+00  0.00000000000E+00 -0.17699948817E+04  0.17699948817E+04  0.50400001928E-02 0. -1.
    10030    2    1    2    0    0  0.00000000000E+00  0.00000000000E+00 -0.47188783354E+03  0.30681019299E+04  0.30315955081E+04 0.  0.
        5    1    3    3  502    0  0.28421277956E+03 -0.14750895211E+04 -0.44075366615E+03  0.15655516227E+04  0.46999998093E+01 0.  1.
       -5    1    3    3    0  502 -0.28421277956E+03  0.14750895211E+04 -0.31134167386E+02  0.15025503072E+04  0.46999998093E+01 0. -1.
</event>
<event>
 5   0  0.2862033E-06  0.2993081E+04  0.7818609E-02  0.8245709E-01
        2   -1    0    0  501    0  0.00000000000E+00  0.00000000000E+00  0.25868918174E+04  0.25868918174E+04  0.25500000920E-02 0.  1.
       -2   -1    0    0    0  501  0.00000000000E+00  0.00000000000E+00 -0.86576249770E+03  0.86576249771E+03  0.25500000920E-02 0. -1.
    10030    2    1    2    0    0  0.00000000000E+00  0.00000000000E+00  0.17211293197E+04  0.34526543151E+04  0.29930813027E+04 0.  0.
        2    1    3    3  502    0  0.18598370009E+03 -0.71281279122E+03 -0.64212075828E+03  0.97724668341E+03  0.25500000920E-02 0. -1.
       -2    1    3    3    0  502 -0.18598370009E+03  0.71281279122E+03  0.23632500780E+04  0.24754076317E+04  0.25500000920E-02 0.  1.
</event>
<event>
 5   0  0.1097402E-06  0.3008195E+04  0.7818609E-02  0.8241395E-01
        1   -1    0    0  501    0  0.00000000000E+00  0.00000000000E+00  0.13268302424E+04  0.13268302424E+04  0.50400001928E-02 0.  1.
       -1   -1    0    0    0  501  0.00000000000E+00  0.00000000000E+00 -0.17050484631E+04  0.17050484631E+04  0.50400001928E-02 0. -1.
    10030    2    1    2    0    0  0.00000000000E+00  0.00000000000E+00 -0.37821822068E+03  0.30318787054E+04  0.30081953830E+04 0.  0.
        4    1    3    3  502    0  0.64411106546E+03 -0.54152409652E+03 -0.14455919391E+04  0.16726820017E+04  0.12699999809E+01 0. -1.
       -4    1    3    3    0  502 -0.64411106546E+03  0.54152409652E+03  0.10673737184E+04  0.13591967037E+04  0.12699999809E+01 0.  1.
</event>
<event>
 5   0  0.1091075E-06  0.3006621E+04  0.7818609E-02  0.8241843E-01
       -1   -1    0    0    0  501  0.00000000000E+00  0.00000000000E+00  0.10620325395E+04  0.10620325396E+04  0.50400001928E-02 0.  1.
        1   -1    0    0  501    0  0.00000000000E+00  0.00000000000E+00 -0.21279403383E+04  0.21279403383E+04  0.50400001928E-02 0. -1.
    10030    2    1    2    0    0  0.00000000000E+00  0.00000000000E+00 -0.10659077987E+04  0.31899728778E+04  0.30066206155E+04 0.  0.
        1    1    3    3  502    0 -0.88300299838E+03 -0.10232372555E+04 -0.12312975315E+04  0.18283332266E+04  0.50400001928E-02 0. -1.
       -1    1    3    3    0  502  0.88300299838E+03  0.10232372555E+04  0.16538973284E+03  0.13616396513E+04  0.50400001928E-02 0.  1.
</event>
<event>
 5   0  0.2862033E-06  0.2979191E+04  0.7818609E-02  0.8249698E-01
       -2   -1    0    0    0  501  0.00000000000E+00  0.00000000000E+00  0.12655284718E+04  0.12655284718E+04  0.25500000920E-02 0. -1.
        2   -1    0    0  501    0  0.00000000000E+00  0.00000000000E+00 -0.17533342194E+04  0.17533342194E+04  0.25500000920E-02 0.  1.
    10030    2    1    2    0    0  0.00000000000E+00  0.00000000000E+00 -0.48780574755E+03  0.30188626912E+04  0.29791907460E+04 0.  0.
        2    1    3    3  502    0  0.14517977125E+04 -0.33250975293E+03 -0.26903314637E+03  0.15134920442E+04  0.25500000920E-02 0.  1.
       -2    1    3    3    0  502 -0.14517977125E+04  0.33250975293E+03 -0.21877260118E+03  0.15053706470E+04  0.25500000920E-02 0. -1.
</event>
<event>
 5   0  0.2970915E-06  0.2983654E+04  0.7818609E-02  0.8248414E-01
       -2   -1    0    0    0  501  0.00000000000E+00  0.00000000000E+00  0.19863427146E+04  0.19863427147E+04  0.25500000920E-02 0. -1.
        2   -1    0    0  501    0  0.00000000000E+00  0.00000000000E+00 -0.11204248950E+04  0.11204248950E+04  0.25500000920E-02 0.  1.
    10030    2    1    2    0    0  0.00000000000E+00  0.00000000000E+00  0.86591781966E+03  0.31067676096E+04  0.29836540198E+04 0.  0.
        4    1    3    3  502    0  0.40378291730E+03 -0.12167905785E+04 -0.36135887084E+03  0.13319916677E+04  0.12699999809E+01 0.  1.
       -4    1    3    3    0  502 -0.40378291730E+03  0.12167905785E+04  0.12272766905E+04  0.17747759420E+04  0.12699999809E+01 0. -1.
</event>
<event>
 5   0  0.1054384E-06  0.3001649E+04  0.7818609E-02  0.8243260E-01
       -1   -1    0    0    0  501  0.00000000000E+00  0.00000000000E+00  0.25941585026E+04  0.25941585026E+04  0.50400001928E-02 0.  1.
        1   -1    0    0  501    0  0.00000000000E+00  0.00000000000E+00 -0.86828697749E+03  0.86828697750E+03  0.50400001928E-02 0. -1.
    10030    2    1    2    0    0  0.00000000000E+00  0.00000000000E+00  0.17258715251E+04  0.34624454801E+04  0.30016489104E+04 0.  0.
        2    1    3    3  502    0  0.12478813216E+04  0.20871195886E+03  0.17941481982E+04  0.21953897676E+04  0.25500000920E-02 0.  1.
       -2    1    3    3    0  502 -0.12478813216E+04 -0.20871195886E+03 -0.68276673086E+02  0.12670557125E+04  0.25500000920E-02 0. -1.
</event>
<event>
 5   0  0.1091075E-06  0.3018177E+04  0.7818609E-02  0.8238559E-01
        1   -1    0    0  501    0  0.00000000000E+00  0.00000000000E+00  0.23979701119E+04  0.23979701119E+04  0.50400001928E-02 0. -1.
       -1   -1    0    0    0  501  0.00000000000E+00  0.00000000000E+00 -0.94969815119E+03  0.94969815121E+03  0.50400001928E-02 0.  1.
    10030    2    1    2    0    0  0.00000000000E+00  0.00000000000E+00  0.14482719607E+04  0.33476682631E+04  0.30181767887E+04 0.  0.
        1    1    3    3  502    0 -0.76546133387E+02 -0.80257464525E+02  0.23934435760E+04  0.23960118369E+04  0.50400001928E-02 0. -1.
       -1    1    3    3    0  502  0.76546133387E+02  0.80257464525E+02 -0.94517161529E+03  0.95165642620E+03  0.50400001928E-02 0.  1.
</event>
<event>
 5   0  0.1091075E-06  0.3032040E+04  0.7818609E-02  0.8234640E-01
       -1   -1    0    0    0  501  0.00000000000E+00  0.00000000000E+00  0.13412096727E+04  0.13412096727E+04  0.50400001928E-02 0.  1.
        1   -1    0    0  501    0  0.00000000000E+00  0.00000000000E+00 -0.17136143766E+04  0.17136143767E+04  0.50400001928E-02 0. -1.
    10030    2    1    2    0    0  0.00000000000E+00  0.00000000000E+00 -0.37240470391E+03  0.30548240494E+04  0.30320396945E+04 0.  0.
        1    1    3    3  502    0  0.13165134931E+04 -0.75101617832E+03 -0.15304456678E+03  0.15233698557E+04  0.50400001928E-02 0. -1.
       -1    1    3    3    0  502 -0.13165134931E+04  0.75101617832E+03 -0.21936013713E+03  0.15314541937E+04  0.50400001928E-02 0.  1.
</event>
<event>
 5   0  0.2970915E-06  0.3032009E+04  0.7818609E-02  0.8234649E-01
       -2   -1    0    0    0  501  0.00000000000E+00  0.00000000000E+00  0.10579376297E+04  0.10579376297E+04  0.25500000920E-02 0. -1.
        2   -1    0    0  501    0  0.00000000000E+00  0.00000000000E+00 -0.21724052234E+04  0.21724052234E+04  0.25500000920E-02 0.  1.
    10030    2    1    2    0    0  0.00000000000E+00  0.00000000000E+00 -0.11144675937E+04  0.32303428532E+04  0.30320087288E+04 0.  0.
        4    1    3    3  502    0  0.86122789131E+03  0.98339904317E+03 -0.13752329965E+04  0.18973809756E+04  0.12699999809E+01 0.  1.
       -4    1    3    3    0  502 -0.86122789131E+03 -0.98339904317E+03  0.26076540282E+03  0.13329618776E+04  0.12699999809E+01 0. -1.
</event>
<event>
 5   0  0.1091076E-06  0.2844258E+04  0.7818609E-02  0.8289658E-01
        1   -1    0    0  501    0  0.00000000000E+00  0.00000000000E+00  0.29803092626E+04  0.29803092626E+04  0.50400001928E-02 0.  1.
       -1   -1    0    0    0  501  0.00000000000E+00  0.00000000000E+00 -0.67860460248E+03  0.67860460250E+03  0.50400001928E-02 0. -1.
    10030    2    1    2    0    0  0.00000000000E+00  0.00000000000E+00  0.23017046602E+04  0.36589138651E+04  0.28442584851E+04 0.  0.
        3    1    3    3  502    0  0.90084276145E+03  0.81497326418E+03  0.21020669143E+04  0.24278353372E+04  0.10100000352E+00 0.  1.
       -3    1    3    3    0  502 -0.90084276145E+03 -0.81497326418E+03  0.19963774586E+03  0.12310785279E+04  0.10100000352E+00 0. -1.
</event>
<event>
 5   0  0.1091075E-06  0.2978202E+04  0.7818609E-02  0.8249983E-01
        1   -1    0    0  501    0  0.00000000000E+00  0.00000000000E+00  0.10023813824E+04  0.10023813824E+04  0.50400001928E-02 0.  1.
       -1   -1    0    0    0  501  0.00000000000E+00  0.00000000000E+00 -0.22121533443E+04  0.22121533443E+04  0.50400001928E-02 0. -1.
    10030    2    1    2    0    0  0.00000000000E+00  0.00000000000E+00 -0.12097719620E+04  0.32145347267E+04  0.29782016905E+04 0.  0.
        1    1    3    3  502    0 -0.10677480404E+04  0.34818180565E+03 -0.16602852363E+04  0.20044609034E+04  0.50400001928E-02 0. -1.
       -1    1    3    3    0  502  0.10677480404E+04 -0.34818180565E+03  0.45051327432E+03  0.12100738233E+04  0.50400001928E-02 0.  1.
</event>
<event>
 5   0  0.1091075E-06  0.2997665E+04  0.7818609E-02  0.8244398E-01
       -1   -1    0    0    0  501  0.00000000000E+00  0.00000000000E+00  0.20066108271E+04  0.20066108271E+04  0.50400001928E-02 0.  1.
        1   -1    0    0  501    0  0.00000000000E+00  0.00000000000E+00 -0.11195489884E+04  0.11195489884E+04  0.50400001928E-02 0. -1.
    10030    2    1    2    0    0  0.00000000000E+00  0.00000000000E+00  0.88706183870E+03  0.31261598155E+04  0.29976651725E+04 0.  0.
        1    1    3    3  502    0  0.13355002775E+04 -0.33244498640E+03  0.10626260374E+04  0.17387509182E+04  0.50400001928E-02 0.  1.
       -1    1    3    3    0  502 -0.13355002775E+04  0.33244498640E+03 -0.17556419868E+03  0.13874088973E+04  0.50400001928E-02 0. -1.
</event>
<event>
 5   0  0.2970915E-06  0.3073553E+04  0.7818609E-02  0.8223034E-01
        2   -1    0    0  501    0  0.00000000000E+00  0.00000000000E+00  0.17334522307E+04  0.17334522307E+04  0.25500000920E-02 0.  1.
       -2   -1    0    0    0  501  0.00000000000E+00  0.00000000000E+00 -0.13624150969E+04  0.13624150969E+04  0.25500000920E-02 0. -1.
    10030    2    1    2    0    0  0.00000000000E+00  0.00000000000E+00  0.37103713375E+03  0.30958673276E+04  0.30735526603E+04 0.  0.
        4    1    3    3  502    0 -0.70921436237E+03 -0.13578560480E+04  0.30856032804E+03  0.15626801169E+04  0.12699999809E+01 0.  1.
       -4    1    3    3    0  502  0.70921436237E+03  0.13578560480E+04  0.62476805712E+02  0.15331872107E+04  0.12699999809E+01 0. -1.
</event>
<event>
 5   0  0.2985941E-06  0.2999170E+04  0.7818609E-02  0.8243968E-01
       -2   -1    0    0    0  501  0.00000000000E+00  0.00000000000E+00  0.15107826895E+04  0.15107826895E+04  0.25500000920E-02 0. -1.
        2   -1    0    0  501    0  0.00000000000E+00  0.00000000000E+00 -0.14884701925E+04  0.14884701925E+04  0.25500000920E-02 0.  1.
    10030    2    1    2    0    0  0.00000000000E+00  0.00000000000E+00  0.22312496933E+02  0.29992528820E+04  0.29991698856E+04 0.  0.
        3    1    3    3  502    0 -0.27640959599E+03  0.83261932957E+03 -0.12050590456E+04  0.14905785877E+04  0.10100000352E+00 0.  1.
       -3    1    3    3    0  502  0.27640959599E+03 -0.83261932957E+03  0.12273715425E+04  0.15086742943E+04  0.10100000352E+00 0. -1.
</event>
<event>
 5   0  0.2948711E-06  0.3016938E+04  0.7818609E-02  0.8238911E-01
       -2   -1    0    0    0  501  0.00000000000E+00  0.00000000000E+00  0.12172569458E+04  0.12172569458E+04  0.25500000920E-02 0. -1.
        2   -1    0    0  501    0  0.00000000000E+00  0.00000000000E+00 -0.18693498929E+04  0.18693498929E+04  0.25500000920E-02 0.  1.
    10030    2    1    2    0    0  0.00000000000E+00  0.00000000000E+00 -0.65209294710E+03  0.30866068386E+04  0.30169382766E+04 0.  0.
        5    1    3    3  502    0 -0.97803508517E+03  0.37161799968E+03  0.78569520177E+03  0.13084309709E+04  0.46999998093E+01 0. -1.
       -5    1    3    3    0  502  0.97803508517E+03 -0.37161799968E+03 -0.14377881489E+04  0.17781758677E+04  0.46999998093E+01 0.  1.
</event>
<event>
 5   0  0.2985941E-06  0.2997188E+04  0.7818609E-02  0.8244534E-01
       -2   -1    0    0    0  501  0.00000000000E+00  0.00000000000E+00  0.11121728863E+04  0.11121728863E+04  0.25500000920E-02 0.  1.
        2   -1    0    0  501    0  0.00000000000E+00  0.00000000000E+00 -0.20192760315E+04  0.20192760315E+04  0.25500000920E-02 0. -1.
    10030    2    1    2    0    0  0.00000000000E+00  0.00000000000E+00 -0.90710314520E+03  0.31314489178E+04  0.29971880502E+04 0.  0.
        3    1    3    3  502    0 -0.29716476920E+03 -0.61614948466E+03 -0.18466355713E+04  0.19692663687E+04  0.10100000352E+00 0. -1.
       -3    1    3    3    0  502  0.29716476920E+03  0.61614948466E+03  0.93953242609E+03  0.11621825491E+04  0.10100000352E+00 0.  1.
</event>
<event>
 5   0  0.1113245E-06  0.3002050E+04  0.7818609E-02  0.8243146E-01
        1   -1    0    0  501    0  0.00000000000E+00  0.00000000000E+00  0.14741822019E+04  0.14741822019E+04  0.50400001928E-02 0. -1.
       -1   -1    0    0    0  501  0.00000000000E+00  0.00000000000E+00 -0.15283562166E+04  0.15283562166E+04  0.50400001928E-02 0.  1.
    10030    2    1    2    0    0  0.00000000000E+00  0.00000000000E+00 -0.54174014689E+02  0.30025384186E+04  0.30020496550E+04 0.  0.
        5    1    3    3  502    0  0.55714832983E+03  0.92426566755E+03 -0.10705076232E+04  0.15200953743E+04  0.46999998093E+01 0.  1.
       -5    1    3    3    0  502 -0.55714832983E+03 -0.92426566755E+03  0.10163336085E+04  0.14824430443E+04  0.46999998093E+01 0. -1.
</event>
<event>
 5   0  0.2948711E-06  0.2999127E+04  0.7818609E-02  0.8243980E-01
       -2   -1    0    0    0  501  0.00000000000E+00  0.00000000000E+00  0.11052908728E+04  0.11052908728E+04  0.25500000920E-02 0. -1.
        2   -1    0    0  501    0  0.00000000000E+00  0.00000000000E+00 -0.20344790611E+04  0.20344790611E+04  0.25500000920E-02 0.  1.
    10030    2    1    2    0    0  0.00000000000E+00  0.00000000000E+00 -0.92918818832E+03  0.31397699340E+04  0.29991272979E+04 0.  0.
        5    1    3    3  502    0 -0.87958476824E+03 -0.50902776913E+03  0.68978949381E+03  0.12282549695E+04  0.46999998093E+01 0. -1.
       -5    1    3    3    0  502  0.87958476824E+03  0.50902776913E+03 -0.16189776821E+04  0.19115149645E+04  0.46999998093E+01 0.  1.
</event>
<event>
 5   0  0.2862033E-06  0.2984102E+04  0.7818609E-02  0.8248285E-01
       -2   -1    0    0    0  501  0.00000000000E+00  0.00000000000E+00  0.11257485981E+04  0.11257485981E+04  0.25500000920E-02 0. -1.
        2   -1    0    0  501    0  0.00000000000E+00  0.00000000000E+00 -0.19775426684E+04  0.19775426684E+04  0.25500000920E-02 0.  1.
    10030    2    1    2    0    0  0.00000000000E+00  0.00000000000E+00 -0.85179407031E+03  0.31032912665E+04  0.29841017989E+04 0.  0.
        2    1    3    3  502    0  0.54660301615E+03  0.88354185846E+02 -0.18667450935E+04  0.19471308542E+04  0.25500000920E-02 0.  1.
       -2    1    3    3    0  502 -0.54660301615E+03 -0.88354185846E+02  0.10149510232E+04  0.11561604123E+04  0.25500000920E-02 0. -1.
</event>
<event>
 5   0  0.2948711E-06  0.2991978E+04  0.7818609E-02  0.8246025E-01
        2   -1    0    0  501    0  0.00000000000E+00  0.00000000000E+00  0.25230505019E+04  0.25230505019E+04  0.25500000920E-02 0.  1.
       -2   -1    0    0    0  501  0.00000000000E+00  0.00000000000E+00 -0.88701480695E+03  0.88701480695E+03  0.25500000920E-02 0. -1.
    10030    2    1    2    0    0  0.00000000000E+00  0.00000000000E+00  0.16360356949E+04  0.34100653088E+04  0.29919780439E+04 0.  0.
        5    1    3    3  502    0  0.72279175555E+03 -0.15587697321E+03 -0.66418054831E+03  0.99392325831E+03  0.46999998093E+01 0. -1.
       -5    1    3    3    0  502 -0.72279175555E+03  0.15587697321E+03  0.23002162432E+04  0.24161420505E+04  0.46999998093E+01 0.  1.
</event>
<event>
 5   0  0.1091075E-06  0.2998810E+04  0.7818609E-02  0.8244071E-01
        1   -1    0    0  501    0  0.00000000000E+00  0.00000000000E+00  0.23063856030E+04  0.23063856030E+04  0.50400001928E-02 0. -1.
       -1   -1    0    0    0  501  0.00000000000E+00  0.00000000000E+00 -0.97477866231E+03  0.97477866233E+03  0.50400001928E-02 0.  1.
    10030    2    1    2    0    0  0.00000000000E+00  0.00000000000E+00  0.13316069407E+04  0.32811642653E+04  0.29988100793E+04 0.  0.
        1    1    3    3  502    0  0.26258011075E+03  0.94080699126E+03 -0.57891522540E+03  0.11354333744E+04  0.50400001928E-02 0.  1.
       -1    1    3    3    0  502 -0.26258011075E+03 -0.94080699126E+03  0.19105221661E+04  0.21457308910E+04  0.50400001928E-02 0. -1.
</event>
<event>
 5   0  0.2862033E-06  0.3042845E+04  0.7818609E-02  0.8231601E-01
       -2   -1    0    0    0  501  0.00000000000E+00  0.00000000000E+00  0.18238746251E+04  0.18238746251E+04  0.25500000920E-02 0.  1.
        2   -1    0    0  501    0  0.00000000000E+00  0.00000000000E+00 -0.12691261542E+04  0.12691261542E+04  0.25500000920E-02 0. -1.
    10030    2    1    2    0    0  0.00000000000E+00  0.00000000000E+00  0.55474847089E+03  0.30930007793E+04  0.30428453715E+04 0.  0.
        2    1    3    3  502    0 -0.80613830819E+03  0.52234293088E+03 -0.92191462777E+03  0.13314006498E+04  0.25500000920E-02 0. -1.
       -2    1    3    3    0  502  0.80613830819E+03 -0.52234293088E+03  0.14766630987E+04  0.17616001295E+04  0.25500000920E-02 0.  1.
</event>
<event>
 5   0  0.1113245E-06  0.3010287E+04  0.7818609E-02  0.8240799E-01
        1   -1    0    0  501    0  0.00000000000E+00  0.00000000000E+00  0.18537375517E+04  0.18537375517E+04  0.50400001928E-02 0. -1.
       -1   -1    0    0    0  501  0.00000000000E+00  0.00000000000E+00 -0.12221022608E+04  0.12221022608E+04  0.50400001928E-02 0.  1.
    10030    2    1    2    0    0  0.00000000000E+00  0.00000000000E+00  0.63163529094E+03  0.30758398125E+04  0.30102869317E+04 0.  0.
        5    1    3    3  502    0  0.10281149833E+04  0.67720744310E+03  0.12005864866E+04  0.17196105203E+04  0.46999998093E+01 0. -1.
       -5    1    3    3    0  502 -0.10281149833E+04 -0.67720744310E+03 -0.56895119563E+03  0.13562292921E+04  0.46999998093E+01 0.  1.
</event>
<event>
 5   0  0.1091076E-06  0.3005192E+04  0.7818609E-02  0.8242250E-01
       -1   -1    0    0    0  501  0.00000000000E+00  0.00000000000E+00  0.10372336373E+04  0.10372336373E+04  0.50400001928E-02 0.  1.
        1   -1    0    0  501    0  0.00000000000E+00  0.00000000000E+00 -0.21767468547E+04  0.21767468547E+04  0.50400001928E-02 0. -1.
    10030    2    1    2    0    0  0.00000000000E+00  0.00000000000E+00 -0.11395132173E+04  0.32139804920E+04  0.30051922119E+04 0.  0.
        3    1    3    3  502    0 -0.58718719555E+03  0.17951953811E+03 -0.20364517824E+04  0.21270053925E+04  0.10100000352E+00 0. -1.
       -3    1    3    3    0  502  0.58718719555E+03 -0.17951953811E+03  0.89693856513E+03  0.10869750995E+04  0.10100000352E+00 0.  1.
</event>
<event>
 5   0  0.2970915E-06  0.2974383E+04  0.7818609E-02  0.8251084E-01
       -2   -1    0    0    0  501  0.00000000000E+00  0.00000000000E+00  0.19993672521E+04  0.19993672521E+04  0.25500000920E-02 0. -1.
        2   -1    0    0  501    0  0.00000000000E+00  0.00000000000E+00 -0.11062189681E+04  0.11062189681E+04  0.25500000920E-02 0.  1.
    10030    2    1    2    0    0  0.00000000000E+00  0.00000000000E+00  0.89314828406E+03  0.31055862202E+04  0.29743826105E+04 0.  0.
        4    1    3    3  502    0 -0.11751204416E+04  0.90180980101E+03  0.58496278564E+03  0.15925928679E+04  0.12699999809E+01 0.  1.
       -4    1    3    3    0  502  0.11751204416E+04 -0.90180980101E+03  0.30818549842E+03  0.15129933522E+04  0.12699999809E+01 0. -1.
</event>
<event>
 5   0  0.1113245E-06  0.3001664E+04  0.7818609E-02  0.8243256E-01
        1   -1    0    0  501    0  0.00000000000E+00  0.00000000000E+00  0.20220084191E+04  0.20220084191E+04  0.50400001928E-02 0.  1.
       -1   -1    0    0    0  501  0.00000000000E+00  0.00000000000E+00 -0.11139896210E+04  0.11139896210E+04  0.50400001928E-02 0. -1.
    10030    2    1    2    0    0  0.00000000000E+00  0.00000000000E+00  0.90801879809E+03  0.31359980401E+04  0.30016638003E+04 0.  0.
        5    1    3    3  502    0  0.36311319136E+03 -0.74721048239E+03 -0.85184842881E+03  0.11898918146E+04  0.46999998093E+01 0. -1.
       -5    1    3    3    0  502 -0.36311319136E+03  0.74721048239E+03  0.17598672269E+04  0.19461062255E+04  0.46999998093E+01 0.  1.
</event>
<event>
 5   0  0.1091075E-06  0.3004543E+04  0.7818609E-02  0.8242435E-01
        1   -1    0    0  501    0  0.00000000000E+00  0.00000000000E+00  0.10104719189E+04  0.10104719189E+04  0.50400001928E-02 0. -1.
       -1   -1    0    0    0  501  0.00000000000E+00  0.00000000000E+00 -0.22334308968E+04  0.22334308968E+04  0.50400001928E-02 0.  1.
    10030    2    1    2    0    0  0.00000000000E+00  0.00000000000E+00 -0.12229589779E+04  0.32439028157E+04  0.30045426967E+04 0.  0.
        1    1    3    3  502    0  0.84594987732E+03  0.55874754102E+03  0.58543599950E+03  0.11707114585E+04  0.50400001928E-02 0. -1.
       -1    1    3    3    0  502 -0.84594987732E+03 -0.55874754102E+03 -0.18083949774E+04  0.20731913572E+04  0.50400001928E-02 0.  1.
</event>
<event>
 5   0  0.1113245E-06  0.3085154E+04  0.7818609E-02  0.8219824E-01
        1   -1    0    0  501    0  0.00000000000E+00  0.00000000000E+00  0.16501525722E+04  0.16501525722E+04  0.50400001928E-02 0.  1.
       -1   -1    0    0    0  501  0.00000000000E+00  0.00000000000E+00 -0.14420147791E+04  0.14420147791E+04  0.50400001928E-02 0. -1.
    10030    2    1    2    0    0  0.00000000000E+00  0.00000000000E+00  0.20813779310E+03  0.30921673513E+04  0.30851543863E+04 0.  0.
        5    1    3    3  502    0 -0.29095198060E+03 -0.50932825405E+03  0.15340053331E+04  0.16423345510E+04  0.46999998093E+01 0.  1.
       -5    1    3    3    0  502  0.29095198060E+03  0.50932825405E+03 -0.13258675400E+04  0.14498328003E+04  0.46999998093E+01 0. -1.
</event>
<event>
 5   0  0.2948711E-06  0.2973676E+04  0.7818609E-02  0.8251288E-01
       -2   -1    0    0    0  501  0.00000000000E+00  0.00000000000E+00  0.17289601910E+04  0.17289601910E+04  0.25500000920E-02 0.  1.
        2   -1    0    0  501    0  0.00000000000E+00  0.00000000000E+00 -0.12786220238E+04  0.12786220238E+04  0.25500000920E-02 0. -1.
    10030    2    1    2    0    0  0.00000000000E+00  0.00000000000E+00  0.45033816719E+03  0.30075822149E+04  0.29736755563E+04 0.  0.
        5    1    3    3  502    0  0.69523459325E+02 -0.64461744855E+03  0.15784462330E+04  0.17064230914E+04  0.46999998093E+01 0.  1.
       -5    1    3    3    0  502 -0.69523459325E+02  0.64461744855E+03 -0.11281080658E+04  0.13011591235E+04  0.46999998093E+01 0. -1.
</event>
<event>
 5   0  0.1097402E-06  0.3010505E+04  0.7818609E-02  0.8240737E-01
        1   -1    0    0  501    0  0.00000000000E+00  0.00000000000E+00  0.10950116431E+04  0.10950116431E+04  0.50400001928E-02 0. -1.
       -1   -1    0    0    0  501  0.00000000000E+00  0.00000000000E+00 -0.20691884182E+04  0.20691884182E+04  0.50400001928E-02 0.  1.
    10030    2    1    2    0    0  0.00000000000E+00  0.00000000000E+00 -0.97417677510E+03  0.31642000612E+04  0.30105052131E+04 0.  0.
        4    1    3    3  502    0 -0.14986874548E+04 -0.13676653192E+03 -0.45360900879E+03  0.15717925808E+04  0.12699999809E+01 0.  1.
       -4    1    3    3    0  502  0.14986874548E+04  0.13676653192E+03 -0.52056776631E+03  0.15924074804E+04  0.12699999809E+01 0. -1.
</event>
<event>
 5   0  0.9749500E-07  0.2988220E+04  0.7818609E-02  0.8247103E-01
        3   -1    0    0  501    0  0.00000000000E+00  0.00000000000E+00  0.14715462644E+04  0.14715462678E+04  0.10100000352E+00 0.  1.
       -3   -1    0    0    0  501  0.00000000000E+00  0.00000000000E+00 -0.15170194288E+04  0.15170194321E+04  0.10100000352E+00 0. -1.
    10030    2    1    2    0    0  0.00000000000E+00  0.00000000000E+00 -0.45473164409E+02  0.29885657000E+04  0.29882197266E+04 0.  0.
        4    1    3    3  502    0  0.16584528710E+03  0.14621732623E+04 -0.28143110546E+03  0.14982190722E+04  0.12699999809E+01 0. -1.
       -4    1    3    3    0  502 -0.16584528710E+03 -0.14621732623E+04  0.23595794105E+03  0.14903466278E+04  0.12699999809E+01 0.  1.
</event>
<event>
 5   0  0.2948711E-06  0.2985943E+04  0.7818609E-02  0.8247756E-01
        2   -1    0    0  501    0  0.00000000000E+00  0.00000000000E+00  0.12226306568E+04  0.12226306568E+04  0.25500000920E-02 0. -1.
       -2   -1    0    0    0  501  0.00000000000E+00  0.00000000000E+00 -0.18230887131E+04  0.18230887131E+04  0.25500000920E-02 0.  1.
    10030    2    1    2    0    0  0.00000000000E+00  0.00000000000E+00 -0.60045805631E+03  0.30457193699E+04  0.29859431681E+04 0.  0.
        5    1    3    3  502    0 -0.10317734625E+04  0.83722053774E+03  0.39416911572E+03  0.13859603488E+04  0.46999998093E+01 0. -1.
       -5    1    3    3    0  502  0.10317734625E+04 -0.83722053774E+03 -0.99462717204E+03  0.16597590211E+04  0.46999998093E+01 0.  1.
</event>
<event>
 5   0  0.1113245E-06  0.2998974E+04  0.7818609E-02  0.8244024E-01
        1   -1    0    0  501    0  0.00000000000E+00  0.00000000000E+00  0.18168143144E+04  0.18168143144E+04  0.50400001928E-02 0. -1.
       -1   -1    0    0    0  501  0.00000000000E+00  0.00000000000E+00 -0.12375842148E+04  0.12375842149E+04  0.50400001928E-02 0.  1.
    10030    2    1    2    0    0  0.00000000000E+00  0.00000000000E+00  0.57923009956E+03  0.30543985293E+04  0.29989736357E+04 0.  0.
        5    1    3    3  502    0  0.54448968864E+03  0.57834451624E+03 -0.10056942510E+04  0.12815593692E+04  0.46999998093E+01 0.  1.
       -5    1    3    3    0  502 -0.54448968864E+03 -0.57834451624E+03  0.15849243505E+04  0.17728391600E+04  0.46999998093E+01 0. -1.
</event>
<event>
 5   0  0.2970915E-06  0.2967752E+04  0.7818609E-02  0.8253000E-01
       -2   -1    0    0    0  501  0.00000000000E+00  0.00000000000E+00  0.81221084629E+03  0.81221084629E+03  0.25500000920E-02 0. -1.
        2   -1    0    0  501    0  0.00000000000E+00  0.00000000000E+00 -0.27109803860E+04  0.27109803860E+04  0.25500000920E-02 0.  1.
    10030    2    1    2    0    0  0.00000000000E+00  0.00000000000E+00 -0.18987695397E+04  0.35231912323E+04  0.29677517912E+04 0.  0.
        4    1    3    3  502    0 -0.11513552392E+04  0.86535266429E+03 -0.13731719245E+04  0.19899891627E+04  0.12699999809E+01 0.  1.
       -4    1    3    3    0  502  0.11513552392E+04 -0.86535266429E+03 -0.52559761519E+03  0.15332020696E+04  0.12699999809E+01 0. -1.
</event>
<event>
 5   0  0.1097402E-06  0.2623681E+04  0.7818609E-02  0.8360202E-01
       -1   -1    0    0    0  501  0.00000000000E+00  0.00000000000E+00  0.71572159414E+03  0.71572159416E+03  0.50400001928E-02 0.  1.
        1   -1    0    0  501    0  0.00000000000E+00  0.00000000000E+00 -0.24044613580E+04  0.24044613580E+04  0.50400001928E-02 0. -1.
    10030    2    1    2    0    0  0.00000000000E+00  0.00000000000E+00 -0.16887397639E+04  0.31201829522E+04  0.26236805570E+04 0.  0.
        4    1    3    3  502    0 -0.37053505383E+03 -0.28992430186E+03  0.61193604106E+03  0.77189355366E+03  0.12699999809E+01 0.  1.
       -4    1    3    3    0  502  0.37053505383E+03  0.28992430186E+03 -0.23006758049E+04  0.23482893985E+04  0.12699999809E+01 0. -1.
</event>
<event>
 5   0  0.1054384E-06  0.3134948E+04  0.7818609E-02  0.8206212E-01
        1   -1    0    0  501    0  0.00000000000E+00  0.00000000000E+00  0.18538025640E+04  0.18538025640E+04  0.50400001928E-02 0. -1.
       -1   -1    0    0    0  501  0.00000000000E+00  0.00000000000E+00 -0.13253700114E+04  0.13253700114E+04  0.50400001928E-02 0.  1.
    10030    2    1    2    0    0  0.00000000000E+00  0.00000000000E+00  0.52843255257E+03  0.31791725754E+04  0.31349477350E+04 0.  0.
        2    1    3    3  502    0  0.83856857146E+02  0.63040510073E+01  0.18515133257E+04  0.18534220536E+04  0.25500000920E-02 0. -1.
       -2    1    3    3    0  502 -0.83856857146E+02 -0.63040510073E+01 -0.13230807732E+04  0.13257505217E+04  0.25500000920E-02 0.  1.
</event>
<event>
 5   0  0.1091076E-06  0.3000456E+04  0.7818609E-02  0.8243601E-01
       -1   -1    0    0    0  501  0.00000000000E+00  0.00000000000E+00  0.73939552600E+03  0.73939552602E+03  0.50400001928E-02 0. -1.
        1   -1    0    0  501    0  0.00000000000E+00  0.00000000000E+00 -0.30439523858E+04  0.30439523858E+04  0.50400001928E-02 0.  1.
    10030    2    1    2    0    0  0.00000000000E+00  0.00000000000E+00 -0.23045568598E+04  0.37833479118E+04  0.30004564822E+04 0.  0.
        3    1    3    3  502    0 -0.52351924210E+03  0.11830384411E+04 -0.19444706696E+03  0.13082285817E+04  0.10100000352E+00 0. -1.
       -3    1    3    3    0  502  0.52351924210E+03 -0.11830384411E+04 -0.21101097928E+04  0.24751193300E+04  0.10100000352E+00 0.  1.
</event>
<event>
 5   0  0.2985941E-06  0.3026156E+04  0.7818609E-02  0.8236301E-01
       -2   -1    0    0    0  501  0.00000000000E+00  0.00000000000E+00  0.14577590669E+04  0.14577590669E+04  0.25500000920E-02 0. -1.
        2   -1    0    0  501    0  0.00000000000E+00  0.00000000000E+00 -0.15704964473E+04  0.15704964473E+04  0.25500000920E-02 0.  1.
    10030    2    1    2    0    0  0.00000000000E+00  0.00000000000E+00 -0.11273738036E+03  0.30282555143E+04  0.30261562654E+04 0.  0.
        3    1    3    3  502    0  0.27831721344E+03  0.12816981887E+04  0.69860460968E+03  0.14860212411E+04  0.10100000352E+00 0. -1.
       -3    1    3    3    0  502 -0.27831721344E+03 -0.12816981887E+04 -0.81134199004E+03  0.15422342731E+04  0.10100000352E+00 0.  1.
</event>
<event>
 5   0  0.1054384E-06  0.3021708E+04  0.7818609E-02  0.8237559E-01
       -1   -1    0    0    0  501  0.00000000000E+00  0.00000000000E+00  0.17224162491E+04  0.17224162492E+04  0.50400001928E-02 0. -1.
        1   -1    0    0  501    0  0.00000000000E+00  0.00000000000E+00 -0.13252777187E+04  0.13252777187E+04  0.50400001928E-02 0.  1.
    10030    2    1    2    0    0  0.00000000000E+00  0.00000000000E+00  0.39713853049E+03  0.30476939678E+04  0.30217080450E+04 0.  0.
        2    1    3    3  502    0  0.54155000173E+03 -0.13653281339E+03  0.16144803232E+04  0.17083513478E+04  0.25500000920E-02 0. -1.
       -2    1    3    3    0  502 -0.54155000173E+03  0.13653281339E+03 -0.12173417927E+04  0.13393426200E+04  0.25500000920E-02 0.  1.
</event>
<event>
 5   0  0.1054384E-06  0.2981742E+04  0.7818609E-02  0.8248964E-01
       -1   -1    0    0    0  501  0.00000000000E+00  0.00000000000E+00  0.10640056729E+04  0.10640056729E+04  0.50400001928E-02 0.  1.
        1   -1    0    0  501    0  0.00000000000E+00  0.00000000000E+00 -0.20889893101E+04  0.20889893102E+04  0.50400001928E-02 0. -1.
    10030    2    1    2    0    0  0.00000000000E+00  0.00000000000E+00 -0.10249836373E+04  0.31529949830E+04  0.29817420925E+04 0.  0.
        2    1    3    3  502    0 -0.87160506446E+03  0.35266760863E+02 -0.17909627141E+04  0.19921060655E+04  0.25500000920E-02 0. -1.
       -2    1    3    3    0  502  0.87160506446E+03 -0.35266760863E+02  0.76597907679E+03  0.11608889176E+04  0.25500000920E-02 0.  1.
</event>
<event>
 5   0  0.2948711E-06  0.2996005E+04  0.7818609E-02  0.8244873E-01
       -2   -1    0    0    0  501  0.00000000000E+00  0.00000000000E+00  0.16471029269E+04  0.16471029269E+04  0.25500000920E-02 0.  1.
        2   -1    0    0  501    0  0.00000000000E+00  0.00000000000E+00 -0.13623987835E+04  0.13623987835E+04  0.25500000920E-02 0. -1.
    10030    2    1    2    0    0  0.00000000000E+00  0.00000000000E+00  0.28470414343E+03  0.30095017104E+04  0.29960046889E+04 0.  0.
        5    1    3    3  502    0 -0.78398477528E+03  0.10052473283E+04  0.93255640137E+03  0.15795055716E+04  0.46999998093E+01 0.  1.
       -5    1    3    3    0  502  0.78398477528E+03 -0.10052473283E+04 -0.64785225794E+03  0.14299961388E+04  0.46999998093E+01 0. -1.
</event>
<event>
 5   0  0.2970915E-06  0.3078575E+04  0.7818609E-02  0.8221643E-01
       -2   -1    0    0    0  501  0.00000000000E+00  0.00000000000E+00  0.19077307879E+04  0.19077307879E+04  0.25500000920E-02 0.  1.
        2   -1    0    0  501    0  0.00000000000E+00  0.00000000000E+00 -0.12420021897E+04  0.12420021897E+04  0.25500000920E-02 0. -1.
    10030    2    1    2    0    0  0.00000000000E+00  0.00000000000E+00  0.66572859826E+03  0.31497329776E+04  0.30785748754E+04 0.  0.
        4    1    3    3  502    0 -0.28834498779E+03 -0.98221700427E+03  0.15090054056E+04  0.18234560600E+04  0.12699999809E+01 0.  1.
       -4    1    3    3    0  502  0.28834498779E+03  0.98221700427E+03 -0.84327680737E+03  0.13262769176E+04  0.12699999809E+01 0. -1.
</event>
<event>
 5   0  0.1054384E-06  0.2995023E+04  0.7818609E-02  0.8245153E-01
       -1   -1    0    0    0  501  0.00000000000E+00  0.00000000000E+00  0.15572568311E+04  0.15572568311E+04  0.50400001928E-02 0. -1.
        1   -1    0    0  501    0  0.00000000000E+00  0.00000000000E+00 -0.14400584926E+04  0.14400584926E+04  0.50400001928E-02 0.  1.
    10030    2    1    2    0    0  0.00000000000E+00  0.00000000000E+00  0.11719833853E+03  0.29973153237E+04  0.29950231551E+04 0.  0.
        2    1    3    3  502    0 -0.13438304790E+04 -0.43451778367E+03 -0.43963209124E+03  0.14791762695E+04  0.25500000920E-02 0.  1.
       -2    1    3    3    0  502  0.13438304790E+04  0.43451778367E+03  0.55683042978E+03  0.15181390543E+04  0.25500000920E-02 0. -1.
</event>
<event>
 5   0  0.1091076E-06  0.2987784E+04  0.7818609E-02  0.8247228E-01
        1   -1    0    0  501    0  0.00000000000E+00  0.00000000000E+00  0.17884746423E+04  0.17884746423E+04  0.50400001928E-02 0. -1.
       -1   -1    0    0    0  501  0.00000000000E+00  0.00000000000E+00 -0.12478305472E+04  0.12478305472E+04  0.50400001928E-02 0.  1.
    10030    2    1    2    0    0  0.00000000000E+00  0.00000000000E+00  0.54064409513E+03  0.30363051896E+04  0.29877839893E+04 0.  0.
        3    1    3    3  502    0  0.11398169896E+04 -0.89916618513E+02 -0.70677316567E+03  0.13441711521E+04  0.10100000352E+00 0.  1.
       -3    1    3    3    0  502 -0.11398169896E+04  0.89916618513E+02  0.12474172608E+04  0.16921340375E+04  0.10100000352E+00 0. -1.
</event>
<event>
 5   0  0.1091076E-06  0.2995584E+04  0.7818609E-02  0.8244993E-01
        1   -1    0    0  501    0  0.00000000000E+00  0.00000000000E+00  0.13396717543E+04  0.13396717543E+04  0.50400001928E-02 0. -1.
       -1   -1    0    0    0  501  0.00000000000E+00  0.00000000000E+00 -0.16745754355E+04  0.16745754355E+04  0.50400001928E-02 0.  1.
    10030    2    1    2    0    0  0.00000000000E+00  0.00000000000E+00 -0.33490368122E+03  0.30142471897E+04  0.29955843579E+04 0.  0.
        3    1    3    3  502    0 -0.89733593773E+03 -0.95333729031E+03 -0.89952669348E+03  0.15884621672E+04  0.10100000352E+00 0.  1.
       -3    1    3    3    0  502  0.89733593773E+03  0.95333729031E+03  0.56462301226E+03  0.14257850225E+04  0.10100000352E+00 0. -1.
</event>
<event>
 5   0  0.2862033E-06  0.2985247E+04  0.7818609E-02  0.8247956E-01
       -2   -1    0    0    0  501  0.00000000000E+00  0.00000000000E+00  0.14160512958E+04  0.14160512958E+04  0.25500000920E-02 0. -1.
        2   -1    0    0  501    0  0.00000000000E+00  0.00000000000E+00 -0.15733361463E+04  0.15733361463E+04  0.25500000920E-02 0.  1.
    10030    2    1    2    0    0  0.00000000000E+00  0.00000000000E+00 -0.15728485046E+03  0.29893874421E+04  0.29852468499E+04 0.  0.
        2    1    3    3  502    0 -0.70829474420E+02 -0.80422679832E+03  0.11785379110E+04  0.14285479220E+04  0.25500000920E-02 0. -1.
       -2    1    3    3    0  502  0.70829474420E+02  0.80422679832E+03 -0.13358227615E+04  0.15608395202E+04  0.25500000920E-02 0.  1.
</event>
<event>
 5   0  0.1091075E-06  0.2985141E+04  0.7818609E-02  0.8247987E-01
        1   -1    0    0  501    0  0.00000000000E+00  0.00000000000E+00  0.14200809483E+04  0.14200809483E+04  0.50400001928E-02 0.  1.
       -1   -1    0    0    0  501  0.00000000000E+00  0.00000000000E+00 -0.15687606678E+04  0.15687606678E+04  0.50400001928E-02 0. -1.
    10030    2    1    2    0    0  0.00000000000E+00  0.00000000000E+00 -0.14867971953E+03  0.29888416161E+04  0.29851412944E+04 0.  0.
        1    1    3    3  502    0  0.19945176066E+03  0.54141266429E+03  0.13039050489E+04  0.14258601104E+04  0.50400001928E-02 0.  1.
       -1    1    3    3    0  502 -0.19945176066E+03 -0.54141266429E+03 -0.14525847684E+04  0.15629815057E+04  0.50400001928E-02 0. -1.
</event>
<event>
 5   0  0.2948711E-06  0.3013940E+04  0.7818609E-02  0.8239761E-01
        2   -1    0    0  501    0  0.00000000000E+00  0.00000000000E+00  0.20817383237E+04  0.20817383237E+04  0.25500000920E-02 0.  1.
       -2   -1    0    0    0  501  0.00000000000E+00  0.00000000000E+00 -0.10908953549E+04  0.10908953549E+04  0.25500000920E-02 0. -1.
    10030    2    1    2    0    0  0.00000000000E+00  0.00000000000E+00  0.99084296881E+03  0.31726336786E+04  0.30139400575E+04 0.  0.
        5    1    3    3  502    0 -0.45534889432E+03  0.43616649617E+03 -0.94534998719E+03  0.11363505252E+04  0.46999998093E+01 0. -1.
       -5    1    3    3    0  502  0.45534889432E+03 -0.43616649617E+03  0.19361929560E+04  0.20362831534E+04  0.46999998093E+01 0.  1.
</event>
<event>
 5   0  0.1091076E-06  0.3011020E+04  0.7818609E-02  0.8240591E-01
       -1   -1    0    0    0  501  0.00000000000E+00  0.00000000000E+00  0.14587231483E+04  0.14587231483E+04  0.50400001928E-02 0.  1.
        1   -1    0    0  501    0  0.00000000000E+00  0.00000000000E+00 -0.15537975939E+04  0.15537975939E+04  0.50400001928E-02 0. -1.
    10030    2    1    2    0    0  0.00000000000E+00  0.00000000000E+00 -0.95074445532E+02  0.30125207422E+04  0.30110201049E+04 0.  0.
        3    1    3    3  502    0 -0.40366609063E+03  0.13672191768E+04 -0.53185069923E+03  0.15215451904E+04  0.10100000352E+00 0. -1.
       -3    1    3    3    0  502  0.40366609063E+03 -0.13672191768E+04  0.43677625370E+03  0.14909755518E+04  0.10100000352E+00 0.  1.
</event>
<event>
 5   0  0.2862033E-06  0.2993622E+04  0.7818609E-02  0.8245554E-01
       -2   -1    0    0    0  501  0.00000000000E+00  0.00000000000E+00  0.21303099806E+04  0.21303099806E+04  0.25500000920E-02 0. -1.
        2   -1    0    0  501    0  0.00000000000E+00  0.00000000000E+00 -0.10516983621E+04  0.10516983621E+04  0.25500000920E-02 0.  1.
    10030    2    1    2    0    0  0.00000000000E+00  0.00000000000E+00  0.10786116185E+04  0.31820083427E+04  0.29936222323E+04 0.  0.
        2    1    3    3  502    0 -0.15831210772E+02  0.13445131769E+03 -0.10451774523E+04  0.10539087678E+04  0.25500000920E-02 0.  1.
       -2    1    3    3    0  502  0.15831210772E+02 -0.13445131769E+03  0.21237890707E+04  0.21280995750E+04  0.25500000920E-02 0. -1.
</event>
<event>
 5   0  0.2948711E-06  0.2992130E+04  0.7818609E-02  0.8245982E-01
       -2   -1    0    0    0  501  0.00000000000E+00  0.00000000000E+00  0.10628659624E+04  0.10628659624E+04  0.25500000920E-02 0. -1.
        2   -1    0    0  501    0  0.00000000000E+00  0.00000000000E+00 -0.21058261629E+04  0.21058261629E+04  0.25500000920E-02 0.  1.
    10030    2    1    2    0    0  0.00000000000E+00  0.00000000000E+00 -0.10429602005E+04  0.31686921253E+04  0.29921303121E+04 0.  0.
        5    1    3    3  502    0 -0.12776941757E+04 -0.67103733191E+03 -0.93894364406E+03  0.17217522366E+04  0.46999998093E+01 0.  1.
       -5    1    3    3    0  502  0.12776941757E+04  0.67103733191E+03 -0.10401655647E+03  0.14469398887E+04  0.46999998093E+01 0. -1.
</event>
<event>
 5   0  0.1091075E-06  0.2995921E+04  0.7818609E-02  0.8244897E-01
        1   -1    0    0  501    0  0.00000000000E+00  0.00000000000E+00  0.26105949985E+04  0.26105949985E+04  0.50400001928E-02 0. -1.
       -1   -1    0    0    0  501  0.00000000000E+00  0.00000000000E+00 -0.85953058391E+03  0.85953058393E+03  0.50400001928E-02 0.  1.
    10030    2    1    2    0    0  0.00000000000E+00  0.00000000000E+00  0.17510644146E+04  0.34701255824E+04  0.29959213898E+04 0.  0.
        1    1    3    3  502    0  0.26044533189E+03 -0.71574207135E+03 -0.61850402742E+03  0.98115529636E+03  0.50400001928E-02 0.  1.
       -1    1    3    3    0  502 -0.26044533189E+03  0.71574207135E+03  0.23695684420E+04  0.24889702861E+04  0.50400001928E-02 0. -1.
</event>
<event>
 5   0  0.1097402E-06  0.3001086E+04  0.7818609E-02  0.8243421E-01
       -1   -1    0    0    0  501  0.00000000000E+00  0.00000000000E+00  0.12254554527E+04  0.12254554528E+04  0.50400001928E-02 0. -1.
        1   -1    0    0  501    0  0.00000000000E+00  0.00000000000E+00 -0.18373813539E+04  0.18373813539E+04  0.50400001928E-02 0.  1.
    10030    2    1    2    0    0  0.00000000000E+00  0.00000000000E+00 -0.61192590110E+03  0.30628368066E+04  0.30010858028E+04 0.  0.
        4    1    3    3  502    0 -0.37439001320E+03 -0.10025904581E+04 -0.13793995068E+04  0.17458809011E+04  0.12699999809E+01 0.  1.
       -4    1    3    3    0  502  0.37439001320E+03  0.10025904581E+04  0.76747360566E+03  0.13169559055E+04  0.12699999809E+01 0. -1.
</event>
<event>
 5   0  0.2985941E-06  0.3008881E+04  0.7818609E-02  0.8241199E-01
       -2   -1    0    0    0  501  0.00000000000E+00  0.00000000000E+00  0.12003720215E+04  0.12003720215E+04  0.25500000920E-02 0. -1.
        2   -1    0    0  501    0  0.00000000000E+00  0.00000000000E+00 -0.18855330576E+04  0.18855330576E+04  0.25500000920E-02 0.  1.
    10030    2    1    2    0    0  0.00000000000E+00  0.00000000000E+00 -0.68516103612E+03  0.30859050791E+04  0.30088809401E+04 0.  0.
        3    1    3    3  502    0  0.44897432390E+03 -0.71786042559E+03 -0.16179735467E+04  0.18261270334E+04  0.10100000352E+00 0.  1.
       -3    1    3    3    0  502 -0.44897432390E+03  0.71786042559E+03  0.93281251061E+03  0.12597780457E+04  0.10100000352E+00 0. -1.
</event>
<event>
 5   0  0.1113245E-06  0.3011577E+04  0.7818609E-02  0.8240433E-01
       -1   -1    0    0    0  501  0.00000000000E+00  0.00000000000E+00  0.11505085884E+04  0.11505085884E+04  0.50400001928E-02 0. -1.
        1   -1    0    0  501    0  0.00000000000E+00  0.00000000000E+00 -0.19707795468E+04  0.19707795468E+04  0.50400001928E-02 0.  1.
    10030    2    1    2    0    0  0.00000000000E+00  0.00000000000E+00 -0.82027095841E+03  0.31212881351E+04  0.30115768589E+04 0.  0.
        5    1    3    3  502    0 -0.13273688451E+04  0.38268508833E+03  0.21087610457E+03  0.13974429323E+04  0.46999998093E+01 0.  1.
       -5    1    3    3    0  502  0.13273688451E+04 -0.38268508833E+03 -0.10311470630E+04  0.17238452028E+04  0.46999998093E+01 0. -1.
</event>
<event>
 5   0  0.3113328E-06  0.2993573E+04  0.7818609E-02  0.8245569E-01
       -2   -1    0    0    0  501  0.00000000000E+00  0.00000000000E+00  0.88623626023E+03  0.88623626024E+03  0.25500000920E-02 0. -1.
        2   -1    0    0  501    0  0.00000000000E+00  0.00000000000E+00 -0.25279596357E+04  0.25279596357E+04  0.25500000920E-02 0.  1.
    10030    2    1    2    0    0  0.00000000000E+00  0.00000000000E+00 -0.16417233755E+04  0.34141958959E+04  0.29935727775E+04 0.  0.
        1    1    3    3  502    0  0.28709833019E+03  0.58849750747E+03  0.71422016010E+03  0.96895056872E+03  0.50400001928E-02 0. -1.
       -1    1    3    3    0  502 -0.28709833019E+03 -0.58849750747E+03 -0.23559435356E+04  0.24452453272E+04  0.50400001928E-02 0.  1.
</event>
<event>
 5   0  0.1091075E-06  0.3002279E+04  0.7818609E-02  0.8243080E-01
       -1   -1    0    0    0  501  0.00000000000E+00  0.00000000000E+00  0.94186393281E+03  0.94186393282E+03  0.50400001928E-02 0.  1.
        1   -1    0    0  501    0  0.00000000000E+00  0.00000000000E+00 -0.23925106467E+04  0.23925106467E+04  0.50400001928E-02 0. -1.
    10030    2    1    2    0    0  0.00000000000E+00  0.00000000000E+00 -0.14506467139E+04  0.33343745795E+04  0.30022787925E+04 0.  0.
        1    1    3    3  502    0  0.10090617812E+04 -0.94615681739E+03 -0.13729184058E+04  0.19489287699E+04  0.50400001928E-02 0. -1.
       -1    1    3    3    0  502 -0.10090617812E+04  0.94615681739E+03 -0.77728308119E+02  0.13854458096E+04  0.50400001928E-02 0.  1.
</event>
<event>
 5   0  0.2862033E-06  0.3017461E+04  0.7818609E-02  0.8238762E-01
       -2   -1    0    0    0  501  0.00000000000E+00  0.00000000000E+00  0.99501078656E+03  0.99501078656E+03  0.25500000920E-02 0. -1.
        2   -1    0    0  501    0  0.00000000000E+00  0.00000000000E+00 -0.22876807434E+04  0.22876807434E+04  0.25500000920E-02 0.  1.
    10030    2    1    2    0    0  0.00000000000E+00  0.00000000000E+00 -0.12926699568E+04  0.32826915300E+04  0.30174605322E+04 0.  0.
        2    1    3    3  502    0 -0.52716535415E+03  0.63336943073E+03 -0.20212284853E+04  0.21827562247E+04  0.25500000920E-02 0.  1.
       -2    1    3    3    0  502  0.52716535415E+03 -0.63336943073E+03  0.72855852849E+03  0.10999353053E+04  0.25500000920E-02 0. -1.
</event>
<event>
 5   0  0.1091076E-06  0.3016364E+04  0.7818609E-02  0.8239073E-01
        1   -1    0    0  501    0  0.00000000000E+00  0.00000000000E+00  0.13164175539E+04  0.13164175539E+04  0.50400001928E-02 0.  1.
       -1   -1    0    0    0  501  0.00000000000E+00  0.00000000000E+00 -0.17278807979E+04  0.17278807979E+04  0.50400001928E-02 0. -1.
    10030    2    1    2    0    0  0.00000000000E+00  0.00000000000E+00 -0.41146324399E+03  0.30442983519E+04  0.30163637801E+04 0.  0.
        3    1    3    3  502    0  0.14487965460E+04  0.41752786399E+03 -0.24172213564E+03  0.15270136050E+04  0.10100000352E+00 0. -1.
       -3    1    3    3    0  502 -0.14487965460E+04 -0.41752786399E+03 -0.16974110834E+03  0.15172847468E+04  0.10100000352E+00 0.  1.
</event>
<event>
 5   0  0.2970915E-06  0.3006617E+04  0.7818609E-02  0.8241844E-01
        2   -1    0    0  501    0  0.00000000000E+00  0.00000000000E+00  0.18230190708E+04  0.18230190708E+04  0.25500000920E-02 0. -1.
       -2   -1    0    0    0  501  0.00000000000E+00  0.00000000000E+00 -0.12396668332E+04  0.12396668332E+04  0.25500000920E-02 0.  1.
    10030    2    1    2    0    0  0.00000000000E+00  0.00000000000E+00  0.58335223760E+03  0.30626859039E+04  0.30066168883E+04 0.  0.
        4    1    3    3  502    0  0.13082880835E+04 -0.45602721061E+03 -0.30260394513E+03  0.14181499521E+04  0.12699999809E+01 0.  1.
       -4    1    3    3    0  502 -0.13082880835E+04  0.45602721061E+03  0.88595618273E+03  0.16445359518E+04  0.12699999809E+01 0. -1.
</event>
<event>
 5   0  0.3113328E-06  0.3236013E+04  0.7818609E-02  0.8179370E-01
       -2   -1    0    0    0  501  0.00000000000E+00  0.00000000000E+00  0.15838093503E+04  0.15838093503E+04  0.25500000920E-02 0.  1.
        2   -1    0    0  501    0  0.00000000000E+00  0.00000000000E+00 -0.16529422443E+04  0.16529422443E+04  0.25500000920E-02 0. -1.
    10030    2    1    2    0    0  0.00000000000E+00  0.00000000000E+00 -0.69132893976E+02  0.32367515946E+04  0.32360132150E+04 0.  0.
        1    1    3    3  502    0  0.10034580922E+04 -0.40057171554E+02  0.12343493121E+04  0.15912733719E+04  0.50400001928E-02 0.  1.
       -1    1    3    3    0  502 -0.10034580922E+04  0.40057171554E+02 -0.13034822060E+04  0.16454782227E+04  0.50400001928E-02 0. -1.
</event>
<event>
 5   0  0.1091076E-06  0.3005435E+04  0.7818609E-02  0.8242180E-01
        1   -1    0    0  501    0  0.00000000000E+00  0.00000000000E+00  0.18356148057E+04  0.18356148057E+04  0.50400001928E-02 0. -1.
       -1   -1    0    0    0  501  0.00000000000E+00  0.00000000000E+00 -0.12301930729E+04  0.12301930729E+04  0.50400001928E-02 0.  1.
    10030    2    1    2    0    0  0.00000000000E+00  0.00000000000E+00  0.60542173284E+03  0.30658078786E+04  0.30054354882E+04 0.  0.
        3    1    3    3  502    0 -0.26104441499E+03 -0.30408178321E+03 -0.11746743817E+04  0.12411566504E+04  0.10100000352E+00 0.  1.
       -3    1    3    3    0  502  0.26104441499E+03  0.30408178321E+03  0.17800961145E+04  0.18246512282E+04  0.10100000352E+00 0. -1.
</event>
<event>
 5   0  0.1113245E-06  0.3002674E+04  0.7818609E-02  0.8242968E-01
       -1   -1    0    0    0  501  0.00000000000E+00  0.00000000000E+00  0.24567439804E+04  0.24567439804E+04  0.50400001928E-02 0.  1.
        1   -1    0    0  501    0  0.00000000000E+00  0.00000000000E+00 -0.91747953515E+03  0.91747953517E+03  0.50400001928E-02 0. -1.
    10030    2    1    2    0    0  0.00000000000E+00  0.00000000000E+00  0.15392644452E+04  0.33742235155E+04  0.30026736920E+04 0.  0.
        5    1    3    3  502    0  0.58968202232E+03  0.10025560432E+04  0.18363842181E+04  0.21737462119E+04  0.46999998093E+01 0.  1.
       -5    1    3    3    0  502 -0.58968202232E+03 -0.10025560432E+04 -0.29711977291E+03  0.12004773036E+04  0.46999998093E+01 0. -1.
</event>
<event>
 5   0  0.1091076E-06  0.3010499E+04  0.7818609E-02  0.8240739E-01
        1   -1    0    0  501    0  0.00000000000E+00  0.00000000000E+00  0.15296937133E+04  0.15296937133E+04  0.50400001928E-02 0.  1.
       -1   -1    0    0    0  501  0.00000000000E+00  0.00000000000E+00 -0.14811959241E+04  0.14811959241E+04  0.50400001928E-02 0. -1.
    10030    2    1    2    0    0  0.00000000000E+00  0.00000000000E+00  0.48497789220E+02  0.30108896374E+04  0.30104990239E+04 0.  0.
        3    1    3    3  502    0  0.11915228308E+04 -0.91129649001E+03  0.14911754337E+03  0.15074561357E+04  0.10100000352E+00 0. -1.
       -3    1    3    3    0  502 -0.11915228308E+04  0.91129649001E+03 -0.10061975415E+03  0.15034335017E+04  0.10100000352E+00 0.  1.
</event>
<event>
 5   0  0.9749500E-07  0.2838008E+04  0.7818609E-02  0.8291565E-01
       -3   -1    0    0    0  501  0.00000000000E+00  0.00000000000E+00  0.17627000583E+04  0.17627000611E+04  0.10100000352E+00 0.  1.
        3   -1    0    0  501    0  0.00000000000E+00  0.00000000000E+00 -0.11423229164E+04  0.11423229209E+04  0.10100000352E+00 0. -1.
    10030    2    1    2    0    0  0.00000000000E+00  0.00000000000E+00  0.62037714182E+03  0.29050229821E+04  0.28380082326E+04 0.  0.
        4    1    3    3  502    0 -0.13487300060E+04 -0.22723093527E+03 -0.76710911126E+02  0.13698878435E+04  0.12699999809E+01 0. -1.
       -4    1    3    3    0  502  0.13487300060E+04  0.22723093527E+03  0.69708805294E+03  0.15351351385E+04  0.12699999809E+01 0.  1.
</event>
<event>
 5   0  0.2862033E-06  0.3046504E+04  0.7818609E-02  0.8230575E-01
       -2   -1    0    0    0  501  0.00000000000E+00  0.00000000000E+00  0.13202643358E+04  0.13202643358E+04  0.25500000920E-02 0. -1.
        2   -1    0    0  501    0  0.00000000000E+00  0.00000000000E+00 -0.17574489914E+04  0.17574489914E+04  0.25500000920E-02 0.  1.
    10030    2    1    2    0    0  0.00000000000E+00  0.00000000000E+00 -0.43718465558E+03  0.30777133271E+04  0.30465043740E+04 0.  0.
        2    1    3    3  502    0  0.27133638086E+02 -0.76201056647E+03  0.11135903237E+04  0.13496220755E+04  0.25500000920E-02 0. -1.
       -2    1    3    3    0  502 -0.27133638086E+02  0.76201056647E+03 -0.15507749792E+04  0.17280912516E+04  0.25500000920E-02 0.  1.
</event>
<event>
 5   0  0.1091076E-06  0.2981073E+04  0.7818609E-02  0.8249156E-01
        1   -1    0    0  501    0  0.00000000000E+00  0.00000000000E+00  0.17063535590E+04  0.17063535590E+04  0.50400001928E-02 0. -1.
       -1   -1    0    0    0  501  0.00000000000E+00  0.00000000000E+00 -0.13020160820E+04  0.13020160821E+04  0.50400001928E-02 0.  1.
    10030    2    1    2    0    0  0.00000000000E+00  0.00000000000E+00  0.40433747693E+03  0.30083696410E+04  0.29810734815E+04 0.  0.
        3    1    3    3  502    0 -0.14421126635E+04 -0.12887138747E+03 -0.15519663768E+03  0.14561534175E+04  0.10100000352E+00 0.  1.
       -3    1    3    3    0  502  0.14421126635E+04  0.12887138747E+03  0.55953411461E+03  0.15522162235E+04  0.10100000352E+00 0. -1.
</event>
<event>
 5   0  0.3113328E-06  0.3011049E+04  0.7818609E-02  0.8240583E-01
        2   -1    0    0  501    0  0.00000000000E+00  0.00000000000E+00  0.26144647905E+04  0.26144647905E+04  0.25500000920E-02 0. -1.
       -2   -1    0    0    0  501  0.00000000000E+00  0.00000000000E+00 -0.86694760442E+03  0.86694760442E+03  0.25500000920E-02 0.  1.
    10030    2    1    2    0    0  0.00000000000E+00  0.00000000000E+00  0.17475171861E+04  0.34814123949E+04  0.30110489780E+04 0.  0.
        1    1    3    3  502    0  0.29533623931E+03 -0.14712785129E+04  0.10140373801E+04  0.18111200305E+04  0.50400001928E-02 0.  1.
       -1    1    3    3    0  502 -0.29533623931E+03  0.14712785129E+04  0.73347980601E+03  0.16702923644E+04  0.50400001928E-02 0. -1.
</event>
<event>
 5   0  0.2970915E-06  0.3006766E+04  0.7818609E-02  0.8241801E-01
        2   -1    0    0  501    0  0.00000000000E+00  0.00000000000E+00  0.20017480131E+04  0.20017480131E+04  0.25500000920E-02 0.  1.
       -2   -1    0    0    0  501  0.00000000000E+00  0.00000000000E+00 -0.11290937094E+04  0.11290937094E+04  0.25500000920E-02 0. -1.
    10030    2    1    2    0    0  0.00000000000E+00  0.00000000000E+00  0.87265430372E+03  0.31308417226E+04  0.30067664289E+04 0.  0.
        4    1    3    3  502    0 -0.55128626635E+03 -0.11394892337E+04 -0.40819439892E+03  0.13300287747E+04  0.12699999809E+01 0. -1.
       -4    1    3    3    0  502  0.55128626635E+03  0.11394892337E+04  0.12808487026E+04  0.18008129479E+04  0.12699999809E+01 0.  1.
</event>
<event>
 5   0  0.1113245E-06  0.3117951E+04  0.7818609E-02  0.8210829E-01
       -1   -1    0    0    0  501  0.00000000000E+00  0.00000000000E+00  0.24290864569E+04  0.24290864569E+04  0.50400001928E-02 0. -1.
        1   -1    0    0  501    0  0.00000000000E+00  0.00000000000E+00 -0.10005428805E+04  0.10005428806E+04  0.50400001928E-02 0.  1.
    10030    2    1    2    0    0  0.00000000000E+00  0.00000000000E+00  0.14285435764E+04  0.34296293375E+04  0.31179513535E+04 0.  0.
        5    1    3    3  502    0  0.78945146137E+03 -0.67561035381E+03  0.19926439897E+04  0.22472950674E+04  0.46999998093E+01 0. -1.
       -5    1    3    3    0  502 -0.78945146137E+03  0.67561035381E+03 -0.56410041332E+03  0.11823342701E+04  0.46999998093E+01 0.  1.
</event>
<event>
 5   0  0.2985941E-06  0.3006686E+04  0.7818609E-02  0.8241824E-01
       -2   -1    0    0    0  501  0.00000000000E+00  0.00000000000E+00  0.94949521236E+03  0.94949521236E+03  0.25500000920E-02 0.  1.
        2   -1    0    0  501    0  0.00000000000E+00  0.00000000000E+00 -0.23802546577E+04  0.23802546577E+04  0.25500000920E-02 0. -1.
    10030    2    1    2    0    0  0.00000000000E+00  0.00000000000E+00 -0.14307594454E+04  0.33297498701E+04  0.30066861504E+04 0.  0.
        3    1    3    3  502    0  0.12447614236E+03  0.55551432974E+03  0.82550649906E+03  0.10027718937E+04  0.10100000352E+00 0.  1.
       -3    1    3    3    0  502 -0.12447614236E+03 -0.55551432974E+03 -0.22562659444E+04  0.23269779764E+04  0.10100000352E+00 0. -1.
</event>
<event>
 5   0  0.2985941E-06  0.2975964E+04  0.7818609E-02  0.8250628E-01
       -2   -1    0    0    0  501  0.00000000000E+00  0.00000000000E+00  0.15067377105E+04  0.15067377105E+04  0.25500000920E-02 0.  1.
        2   -1    0    0  501    0  0.00000000000E+00  0.00000000000E+00 -0.14694596295E+04  0.14694596295E+04  0.25500000920E-02 0. -1.
    10030    2    1    2    0    0  0.00000000000E+00  0.00000000000E+00  0.37278081033E+02  0.29761973400E+04  0.29759638693E+04 0.  0.
        3    1    3    3  502    0  0.32357853304E+03  0.38415962784E+03  0.14193946827E+04  0.15056437036E+04  0.10100000352E+00 0.  1.
       -3    1    3    3    0  502 -0.32357853304E+03 -0.38415962784E+03 -0.13821166017E+04  0.14705536364E+04  0.10100000352E+00 0. -1.
</event>
<event>
 5   0  0.1054384E-06  0.2996380E+04  0.7818609E-02  0.8244765E-01
       -1   -1    0    0    0  501  0.00000000000E+00  0.00000000000E+00  0.15395393184E+04  0.15395393184E+04  0.50400001928E-02 0. -1.
        1   -1    0    0  501    0  0.00000000000E+00  0.00000000000E+00 -0.14579513272E+04  0.14579513272E+04  0.50400001928E-02 0.  1.
    10030    2    1    2    0    0  0.00000000000E+00  0.00000000000E+00  0.81587991204E+02  0.29974906456E+04  0.29963800777E+04 0.  0.
        2    1    3    3  502    0  0.21646746131E+03  0.51993174866E+03 -0.13480239160E+04  0.14609434155E+04  0.25500000920E-02 0.  1.
       -2    1    3    3    0  502 -0.21646746131E+03 -0.51993174866E+03  0.14296119072E+04  0.15365472301E+04  0.25500000920E-02 0. -1.
</event>
<event>
 5   0  0.1113245E-06  0.3013638E+04  0.7818609E-02  0.8239847E-01
       -1   -1    0    0    0  501  0.00000000000E+00  0.00000000000E+00  0.14877207199E+04  0.14877207199E+04  0.50400001928E-02 0. -1.
        1   -1    0    0  501    0  0.00000000000E+00  0.00000000000E+00 -0.15261623840E+04  0.15261623840E+04  0.50400001928E-02 0.  1.
    10030    2    1    2    0    0  0.00000000000E+00  0.00000000000E+00 -0.38441664070E+02  0.30138831039E+04  0.30136379348E+04 0.  0.
        5    1    3    3  502    0 -0.95480765623E+03  0.39092041019E+03 -0.11174927090E+04  0.15209498585E+04  0.46999998093E+01 0.  1.
       -5    1    3    3    0  502  0.95480765623E+03 -0.39092041019E+03  0.10790510449E+04  0.14929332453E+04  0.46999998093E+01 0. -1.
</event>
<event>
 5   0  0.1091075E-06  0.2984816E+04  0.7818609E-02  0.8248080E-01
        1   -1    0    0  501    0  0.00000000000E+00  0.00000000000E+00  0.15570461809E+04  0.15570461809E+04  0.50400001928E-02 0. -1.
       -1   -1    0    0    0  501  0.00000000000E+00  0.00000000000E+00 -0.14304533535E+04  0.14304533535E+04  0.50400001928E-02 0.  1.
    10030    2    1    2    0    0  0.00000000000E+00  0.00000000000E+00  0.12659282735E+03  0.29874995344E+04  0.29848161960E+04 0.  0.
        1    1    3    3  502    0  0.12261432135E+04 -0.21673116527E+03  0.88676464583E+03  0.15286435540E+04  0.50400001928E-02 0. -1.
       -1    1    3    3    0  502 -0.12261432135E+04  0.21673116527E+03 -0.76017181848E+03  0.14588559804E+04  0.50400001928E-02 0.  1.
</event>
<event>
 5   0  0.2948711E-06  0.3021889E+04  0.7818609E-02  0.8237508E-01
       -2   -1    0    0    0  501  0.00000000000E+00  0.00000000000E+00  0.22639729165E+04  0.22639729165E+04  0.25500000920E-02 0. -1.
        2   -1    0    0  501    0  0.00000000000E+00  0.00000000000E+00 -0.10083834469E+04  0.10083834469E+04  0.25500000920E-02 0.  1.
    10030    2    1    2    0    0  0.00000000000E+00  0.00000000000E+00  0.12555894696E+04  0.32723563634E+04  0.30218886897E+04 0.  0.
        5    1    3    3  502    0  0.41981360916E+03 -0.14452040850E+04  0.77337086128E+03  0.16920351334E+04  0.46999998093E+01 0.  1.
       -5    1    3    3    0  502 -0.41981360916E+03  0.14452040850E+04  0.48221860836E+03  0.15803212300E+04  0.46999998093E+01 0. -1.
</event>
<event>
 5   0  0.2985941E-06  0.2980935E+04  0.7818609E-02  0.8249196E-01
        2   -1    0    0  501    0  0.00000000000E+00  0.00000000000E+00  0.14661330167E+04  0.14661330167E+04  0.25500000920E-02 0.  1.
       -2   -1    0    0    0  501  0.00000000000E+00  0.00000000000E+00 -0.15152062312E+04  0.15152062312E+04  0.25500000920E-02 0. -1.
    10030    2    1    2    0    0  0.00000000000E+00  0.00000000000E+00 -0.49073214516E+02  0.29813392478E+04  0.29809353449E+04 0.  0.
        3    1    3    3  502    0  0.44579517077E+03  0.36079383730E+03  0.13513635540E+04  0.14680221363E+04  0.10100000352E+00 0.  1.
       -3    1    3    3    0  502 -0.44579517077E+03 -0.36079383730E+03 -0.14004367685E+04  0.15133171116E+04  0.10100000352E+00 0. -1.
</event>
<event>
 5   0  0.2970915E-06  0.3012007E+04  0.7818609E-02  0.8240311E-01
       -2   -1    0    0    0  501  0.00000000000E+00  0.00000000000E+00  0.14383092269E+04  0.14383092269E+04  0.25500000920E-02 0. -1.
        2   -1    0    0  501    0  0.00000000000E+00  0.00000000000E+00 -0.15768838206E+04  0.15768838206E+04  0.25500000920E-02 0.  1.
    10030    2    1    2    0    0  0.00000000000E+00  0.00000000000E+00 -0.13857459372E+03  0.30151930475E+04  0.30120070046E+04 0.  0.
        4    1    3    3  502    0  0.12206136612E+04 -0.88173668775E+03 -0.43036677611E+02  0.15063900773E+04  0.12699999809E+01 0. -1.
       -4    1    3    3    0  502 -0.12206136612E+04  0.88173668775E+03 -0.95537916111E+02  0.15088029702E+04  0.12699999809E+01 0.  1.
</event>
<event>
 5   0  0.2985941E-06  0.3003269E+04  0.7818609E-02  0.8242798E-01
        2   -1    0    0  501    0  0.00000000000E+00  0.00000000000E+00  0.10790330540E+04  0.10790330540E+04  0.25500000920E-02 0.  1.
       -2   -1    0    0    0  501  0.00000000000E+00  0.00000000000E+00 -0.20897472508E+04  0.20897472508E+04  0.25500000920E-02 0. -1.
    10030    2    1    2    0    0  0.00000000000E+00  0.00000000000E+00 -0.10107141968E+04  0.31687803048E+04  0.30032691242E+04 0.  0.
        3    1    3    3  502    0 -0.13019823099E+04  0.24606093246E+03  0.24012329245E+03  0.13466117197E+04  0.10100000352E+00 0.  1.
       -3    1    3    3    0  502  0.13019823099E+04 -0.24606093246E+03 -0.12508374892E+04  0.18221685851E+04  0.10100000352E+00 0. -1.
</event>
<event>
 5   0  0.1113245E-06  0.3006344E+04  0.7818609E-02  0.8241922E-01
        1   -1    0    0  501    0  0.00000000000E+00  0.00000000000E+00  0.22935591617E+04  0.22935591617E+04  0.50400001928E-02 0. -1.
       -1   -1    0    0    0  501  0.00000000000E+00  0.00000000000E+00 -0.98516129327E+03  0.98516129329E+03  0.50400001928E-02 0.  1.
    10030    2    1    2    0    0  0.00000000000E+00  0.00000000000E+00  0.13083978684E+04  0.32787204550E+04  0.30063437661E+04 0.  0.
        5    1    3    3  502    0  0.14049629283E+04 -0.26445173350E+03  0.14774664394E+03  0.14372566611E+04  0.46999998093E+01 0. -1.
       -5    1    3    3    0  502 -0.14049629283E+04  0.26445173350E+03  0.11606512245E+04  0.18414637939E+04  0.46999998093E+01 0.  1.
</event>
<event>
 5   0  0.1097402E-06  0.2985955E+04  0.7818609E-02  0.8247753E-01
       -1   -1    0    0    0  501  0.00000000000E+00  0.00000000000E+00  0.15298357431E+04  0.15298357432E+04  0.50400001928E-02 0. -1.
        1   -1    0    0  501    0  0.00000000000E+00  0.00000000000E+00 -0.14570076703E+04  0.14570076703E+04  0.50400001928E-02 0.  1.
    10030    2    1    2    0    0  0.00000000000E+00  0.00000000000E+00  0.72828072823E+02  0.29868434135E+04  0.29859553996E+04 0.  0.
        4    1    3    3  502    0  0.33432055536E+03  0.13685511945E+04  0.53080609779E+03  0.15054764468E+04  0.12699999809E+01 0. -1.
       -4    1    3    3    0  502 -0.33432055536E+03 -0.13685511945E+04 -0.45797802497E+03  0.14813669666E+04  0.12699999809E+01 0.  1.
</event>
<event>
 5   0  0.1113245E-06  0.3034291E+04  0.7818609E-02  0.8234006E-01
       -1   -1    0    0    0  501  0.00000000000E+00  0.00000000000E+00  0.24737520360E+04  0.24737520360E+04  0.50400001928E-02 0. -1.
        1   -1    0    0  501    0  0.00000000000E+00  0.00000000000E+00 -0.93046141966E+03  0.93046141967E+03  0.50400001928E-02 0.  1.
    10030    2    1    2    0    0  0.00000000000E+00  0.00000000000E+00  0.15432906163E+04  0.34042134556E+04  0.30342912394E+04 0.  0.
        5    1    3    3  502    0  0.54546643732E+03 -0.53113556813E+03  0.22439067421E+04  0.23695523171E+04  0.46999998093E+01 0. -1.
       -5    1    3    3    0  502 -0.54546643732E+03  0.53113556813E+03 -0.70061612580E+03  0.10346611386E+04  0.46999998093E+01 0.  1.
</event>
<event>
 5   0  0.1097402E-06  0.2990622E+04  0.7818609E-02  0.8246414E-01
       -1   -1    0    0    0  501  0.00000000000E+00  0.00000000000E+00  0.18380463804E+04  0.18380463804E+04  0.50400001928E-02 0.  1.
        1   -1    0    0  501    0  0.00000000000E+00  0.00000000000E+00 -0.12164848793E+04  0.12164848793E+04  0.50400001928E-02 0. -1.
    10030    2    1    2    0    0  0.00000000000E+00  0.00000000000E+00  0.62156150109E+03  0.30545312597E+04  0.29906224297E+04 0.  0.
        4    1    3    3  502    0  0.33919819289E+03  0.22715413607E+03  0.17800272843E+04  0.18262401707E+04  0.12699999809E+01 0.  1.
       -4    1    3    3    0  502 -0.33919819289E+03 -0.22715413607E+03 -0.11584657832E+04  0.12282910890E+04  0.12699999809E+01 0. -1.
</event>
<event>
 5   0  0.2985941E-06  0.2942710E+04  0.7818609E-02  0.8260282E-01
       -2   -1    0    0    0  501  0.00000000000E+00  0.00000000000E+00  0.95627472744E+03  0.95627472744E+03  0.25500000920E-02 0.  1.
        2   -1    0    0  501    0  0.00000000000E+00  0.00000000000E+00 -0.22638738390E+04  0.22638738390E+04  0.25500000920E-02 0. -1.
    10030    2    1    2    0    0  0.00000000000E+00  0.00000000000E+00 -0.13075991115E+04  0.32201485664E+04  0.29427098656E+04 0.  0.
        3    1    3    3  502    0  0.28254186544E+03 -0.91267702432E+03  0.57065824302E+03  0.11128612209E+04  0.10100000352E+00 0.  1.
       -3    1    3    3    0  502 -0.28254186544E+03  0.91267702432E+03 -0.18782573545E+04  0.21072873455E+04  0.10100000352E+00 0. -1.
</event>
<event>
 5   0  0.1091076E-06  0.2948578E+04  0.7818609E-02  0.8258569E-01
        1   -1    0    0  501    0  0.00000000000E+00  0.00000000000E+00  0.15537125574E+04  0.15537125574E+04  0.50400001928E-02 0. -1.
       -1   -1    0    0    0  501  0.00000000000E+00  0.00000000000E+00 -0.13989250598E+04  0.13989250598E+04  0.50400001928E-02 0.  1.
    10030    2    1    2    0    0  0.00000000000E+00  0.00000000000E+00  0.15478749756E+03  0.29526376172E+04  0.29485775773E+04 0.  0.
        3    1    3    3  502    0  0.44783139764E+03  0.15002783384E+03 -0.13211201739E+04  0.14030038616E+04  0.10100000352E+00 0.  1.
       -3    1    3    3    0  502 -0.44783139764E+03 -0.15002783384E+03  0.14759076714E+04  0.15496337556E+04  0.10100000352E+00 0. -1.
</event>
<event>
 5   0  0.2948711E-06  0.2860370E+04  0.7818609E-02  0.8284767E-01
        2   -1    0    0  501    0  0.00000000000E+00  0.00000000000E+00  0.15633446690E+04  0.15633446690E+04  0.25500000920E-02 0. -1.
       -2   -1    0    0    0  501  0.00000000000E+00  0.00000000000E+00 -0.13083670354E+04  0.13083670354E+04  0.25500000920E-02 0.  1.
    10030    2    1    2    0    0  0.00000000000E+00  0.00000000000E+00  0.25497763358E+03  0.28717117044E+04  0.28603696474E+04 0.  0.
        5    1    3    3  502    0 -0.92227744226E+03  0.98568216888E+03 -0.34686911202E+03  0.13937378840E+04  0.46999998093E+01 0. -1.
       -5    1    3    3    0  502  0.92227744226E+03 -0.98568216888E+03  0.60184674560E+03  0.14779738204E+04  0.46999998093E+01 0.  1.
</event>
<event>
 5   0  0.2985941E-06  0.2998504E+04  0.7818609E-02  0.8244158E-01
       -2   -1    0    0    0  501  0.00000000000E+00  0.00000000000E+00  0.15056190583E+04  0.15056190583E+04  0.25500000920E-02 0. -1.
        2   -1    0    0  501    0  0.00000000000E+00  0.00000000000E+00 -0.14929117989E+04  0.14929117989E+04  0.25500000920E-02 0.  1.
    10030    2    1    2    0    0  0.00000000000E+00  0.00000000000E+00  0.12707259444E+02  0.29985308572E+04  0.29985039315E+04 0.  0.
        3    1    3    3  502    0  0.90278145350E+00  0.10236249237E+04 -0.10890774259E+04  0.14946231797E+04  0.10100000352E+00 0.  1.
       -3    1    3    3    0  502 -0.90278145350E+00 -0.10236249237E+04  0.11017846853E+04  0.15039076775E+04  0.10100000352E+00 0. -1.
</event>
<event>
 5   0  0.1091076E-06  0.2984558E+04  0.7818609E-02  0.8248154E-01
       -1   -1    0    0    0  501  0.00000000000E+00  0.00000000000E+00  0.13088949617E+04  0.13088949617E+04  0.50400001928E-02 0.  1.
        1   -1    0    0  501    0  0.00000000000E+00  0.00000000000E+00 -0.17013557084E+04  0.17013557084E+04  0.50400001928E-02 0. -1.
    10030    2    1    2    0    0  0.00000000000E+00  0.00000000000E+00 -0.39246074665E+03  0.30102506701E+04  0.29845575316E+04 0.  0.
        3    1    3    3  502    0 -0.10372512037E+04 -0.58016870887E+03 -0.11064459976E+04  0.16237944901E+04  0.10100000352E+00 0. -1.
       -3    1    3    3    0  502  0.10372512037E+04  0.58016870887E+03  0.71398525094E+03  0.13864561800E+04  0.10100000352E+00 0.  1.
</event>
<event>
 5   0  0.2970915E-06  0.3011887E+04  0.7818609E-02  0.8240345E-01
        2   -1    0    0  501    0  0.00000000000E+00  0.00000000000E+00  0.18728716872E+04  0.18728716872E+04  0.25500000920E-02 0.  1.
       -2   -1    0    0    0  501  0.00000000000E+00  0.00000000000E+00 -0.12109027116E+04  0.12109027116E+04  0.25500000920E-02 0. -1.
    10030    2    1    2    0    0  0.00000000000E+00  0.00000000000E+00  0.66196897553E+03  0.30837743988E+04  0.30118867207E+04 0.  0.
        4    1    3    3  502    0 -0.49950230081E+03  0.67983605400E+03  0.16082302292E+04  0.18160632401E+04  0.12699999809E+01 0.  1.
       -4    1    3    3    0  502  0.49950230081E+03 -0.67983605400E+03 -0.94626125370E+03  0.12677111587E+04  0.12699999809E+01 0. -1.
</event>
<event>
 5   0  0.9749500E-07  0.2997301E+04  0.7818609E-02  0.8244502E-01
       -4   -1    0    0    0  501  0.00000000000E+00  0.00000000000E+00  0.11737312194E+04  0.11737319065E+04  0.12699999809E+01 0.  1.
        4   -1    0    0  501    0  0.00000000000E+00  0.00000000000E+00 -0.19135139679E+04  0.19135143893E+04  0.12699999809E+01 0. -1.
    10030    2    1    2    0    0  0.00000000000E+00  0.00000000000E+00 -0.73978274848E+03  0.30872462958E+04  0.29973006482E+04 0.  0.
        1    1    3    3  502    0  0.75136341525E+02  0.12610912096E+04 -0.12002831601E+04  0.17426061440E+04  0.50400001928E-02 0. -1.
       -1    1    3    3    0  502 -0.75136341525E+02 -0.12610912096E+04  0.46050041159E+03  0.13446401518E+04  0.50400001928E-02 0.  1.
</event>
<event>
 5   0  0.1054384E-06  0.3031309E+04  0.7818609E-02  0.8234846E-01
       -1   -1    0    0    0  501  0.00000000000E+00  0.00000000000E+00  0.14581936064E+04  0.14581936064E+04  0.50400001928E-02 0. -1.
        1   -1    0    0  501    0  0.00000000000E+00  0.00000000000E+00 -0.15753800074E+04  0.15753800074E+04  0.50400001928E-02 0.  1.
    10030    2    1    2    0    0  0.00000000000E+00  0.00000000000E+00 -0.11718640107E+03  0.30335736138E+04  0.30313093240E+04 0.  0.
        2    1    3    3  502    0 -0.18336850190E+03  0.14985460818E+04 -0.19265104546E+03  0.15219654372E+04  0.25500000920E-02 0. -1.
       -2    1    3    3    0  502  0.18336850190E+03 -0.14985460818E+04  0.75464644390E+02  0.15116081766E+04  0.25500000920E-02 0.  1.
</event>
<event>
 5   0  0.1097402E-06  0.2989034E+04  0.7818609E-02  0.8246869E-01
       -1   -1    0    0    0  501  0.00000000000E+00  0.00000000000E+00  0.10288148112E+04  0.10288148113E+04  0.50400001928E-02 0.  1.
        1   -1    0    0  501    0  0.00000000000E+00  0.00000000000E+00 -0.21710229146E+04  0.21710229146E+04  0.50400001928E-02 0. -1.
    10030    2    1    2    0    0  0.00000000000E+00  0.00000000000E+00 -0.11422081033E+04  0.31998377258E+04  0.29890336432E+04 0.  0.
        4    1    3    3  502    0 -0.55291728935E+03  0.21472693210E+03 -0.20396195835E+04  0.21241174267E+04  0.12699999809E+01 0. -1.
       -4    1    3    3    0  502  0.55291728935E+03 -0.21472693210E+03  0.89741148018E+03  0.10757202991E+04  0.12699999809E+01 0.  1.
</event>
<event>
 5   0  0.1091076E-06  0.3005308E+04  0.7818609E-02  0.8242217E-01
        1   -1    0    0  501    0  0.00000000000E+00  0.00000000000E+00  0.13496266164E+04  0.13496266164E+04  0.50400001928E-02 0. -1.
       -1   -1    0    0    0  501  0.00000000000E+00  0.00000000000E+00 -0.16730323074E+04  0.16730323074E+04  0.50400001928E-02 0.  1.
    10030    2    1    2    0    0  0.00000000000E+00  0.00000000000E+00 -0.32340569107E+03  0.30226589238E+04  0.30053079258E+04 0.  0.
        3    1    3    3  502    0 -0.67620103944E+03  0.12480529756E+04  0.33418002959E+03  0.14582730808E+04  0.10100000352E+00 0. -1.
       -3    1    3    3    0  502  0.67620103944E+03 -0.12480529756E+04 -0.65758572066E+03  0.15643858431E+04  0.10100000352E+00 0.  1.
</event>
<event>
 5   0  0.1113245E-06  0.2976214E+04  0.7818609E-02  0.8250556E-01
       -1   -1    0    0    0  501  0.00000000000E+00  0.00000000000E+00  0.86093087366E+03  0.86093087367E+03  0.50400001928E-02 0.  1.
        1   -1    0    0  501    0  0.00000000000E+00  0.00000000000E+00 -0.25721724474E+04  0.25721724474E+04  0.50400001928E-02 0. -1.
    10030    2    1    2    0    0  0.00000000000E+00  0.00000000000E+00 -0.17112415737E+04  0.34331033210E+04  0.29762141538E+04 0.  0.
        5    1    3    3  502    0  0.76343942268E+03  0.11469731238E+04 -0.20713122963E+03  0.13933099207E+04  0.46999998093E+01 0.  1.
       -5    1    3    3    0  502 -0.76343942268E+03 -0.11469731238E+04 -0.15041103441E+04  0.20397934003E+04  0.46999998093E+01 0. -1.
</event>
<event>
 5   0  0.2985941E-06  0.3048850E+04  0.7818609E-02  0.8229917E-01
        2   -1    0    0  501    0  0.00000000000E+00  0.00000000000E+00  0.24165361897E+04  0.24165361897E+04  0.25500000920E-02 0.  1.
       -2   -1    0    0    0  501  0.00000000000E+00  0.00000000000E+00 -0.96165402128E+03  0.96165402129E+03  0.25500000920E-02 0. -1.
    10030    2    1    2    0    0  0.00000000000E+00  0.00000000000E+00  0.14548821684E+04  0.33781902110E+04  0.30488501075E+04 0.  0.
        3    1    3    3  502    0 -0.20702393396E+03  0.29915428419E+03  0.23677313186E+04  0.23955174394E+04  0.10100000352E+00 0.  1.
       -3    1    3    3    0  502  0.20702393396E+03 -0.29915428419E+03 -0.91284915017E+03  0.98267277165E+03  0.10100000352E+00 0. -1.
</event>
<event>
 5   0  0.1091075E-06  0.2993488E+04  0.7818609E-02  0.8245593E-01
        1   -1    0    0  501    0  0.00000000000E+00  0.00000000000E+00  0.19881449066E+04  0.19881449066E+04  0.50400001928E-02 0. -1.
       -1   -1    0    0    0  501  0.00000000000E+00  0.00000000000E+00 -0.11268003594E+04  0.11268003594E+04  0.50400001928E-02 0.  1.
    10030    2    1    2    0    0  0.00000000000E+00  0.00000000000E+00  0.86134454719E+03  0.31149452660E+04  0.29934878622E+04 0.  0.
        1    1    3    3  502    0 -0.14359422339E+04  0.52369473582E+02  0.86668357312E+03  0.16780384611E+04  0.50400001928E-02 0. -1.
       -1    1    3    3    0  502  0.14359422339E+04 -0.52369473582E+02 -0.53390259369E+01  0.14369068049E+04  0.50400001928E-02 0.  1.
</event>
<event>
 5   0  0.3113328E-06  0.3010083E+04  0.7818609E-02  0.8240858E-01
        2   -1    0    0  501    0  0.00000000000E+00  0.00000000000E+00  0.15846546531E+04  0.15846546531E+04  0.25500000920E-02 0.  1.
       -2   -1    0    0    0  501  0.00000000000E+00  0.00000000000E+00 -0.14294279805E+04  0.14294279805E+04  0.25500000920E-02 0. -1.
    10030    2    1    2    0    0  0.00000000000E+00  0.00000000000E+00  0.15522667258E+03  0.30140826336E+04  0.30100828564E+04 0.  0.
        1    1    3    3  502    0 -0.66146779765E+02  0.12351253737E+04  0.93621386982E+03  0.15512596479E+04  0.50400001928E-02 0.  1.
       -1    1    3    3    0  502  0.66146779765E+02 -0.12351253737E+04 -0.78098719724E+03  0.14628229857E+04  0.50400001928E-02 0. -1.
</event>
<event>
 5   0  0.1091076E-06  0.2994815E+04  0.7818609E-02  0.8245213E-01
       -1   -1    0    0    0  501  0.00000000000E+00  0.00000000000E+00  0.15232186052E+04  0.15232186052E+04  0.50400001928E-02 0. -1.
        1   -1    0    0  501    0  0.00000000000E+00  0.00000000000E+00 -0.14720337303E+04  0.14720337303E+04  0.50400001928E-02 0.  1.
    10030    2    1    2    0    0  0.00000000000E+00  0.00000000000E+00  0.51184874950E+02  0.29952523355E+04  0.29948149629E+04 0.  0.
        3    1    3    3  502    0 -0.60083499924E+03  0.64121063055E+03 -0.11870512888E+04  0.14769037008E+04  0.10100000352E+00 0.  1.
       -3    1    3    3    0  502  0.60083499924E+03 -0.64121063055E+03  0.12382361637E+04  0.15183486347E+04  0.10100000352E+00 0. -1.
</event>
<event>
 5   0  0.1054384E-06  0.3004363E+04  0.7818609E-02  0.8242486E-01
       -1   -1    0    0    0  501  0.00000000000E+00  0.00000000000E+00  0.73867148486E+03  0.73867148488E+03  0.50400001928E-02 0.  1.
        1   -1    0    0  501    0  0.00000000000E+00  0.00000000000E+00 -0.30548759224E+04  0.30548759224E+04  0.50400001928E-02 0. -1.
    10030    2    1    2    0    0  0.00000000000E+00  0.00000000000E+00 -0.23162044375E+04  0.37935474073E+04  0.30043633160E+04 0.  0.
        2    1    3    3  502    0 -0.67791464289E+03 -0.46879877925E+03  0.42765870818E+03  0.92856476842E+03  0.25500000920E-02 0.  1.
       -2    1    3    3    0  502  0.67791464289E+03  0.46879877925E+03 -0.27438631457E+04  0.28649826388E+04  0.25500000920E-02 0. -1.
</event>
<event>
 5   0  0.1113245E-06  0.3045613E+04  0.7818609E-02  0.8230824E-01
        1   -1    0    0  501    0  0.00000000000E+00  0.00000000000E+00  0.17146530891E+04  0.17146530891E+04  0.50400001928E-02 0.  1.
       -1   -1    0    0    0  501  0.00000000000E+00  0.00000000000E+00 -0.13524253414E+04  0.13524253414E+04  0.50400001928E-02 0. -1.
    10030    2    1    2    0    0  0.00000000000E+00  0.00000000000E+00  0.36222774768E+03  0.30670784306E+04  0.30456134289E+04 0.  0.
        5    1    3    3  502    0 -0.84706940681E+03 -0.11523438767E+04  0.70776736177E+03  0.15957379856E+04  0.46999998093E+01 0.  1.
       -5    1    3    3    0  502  0.84706940681E+03  0.11523438767E+04 -0.34553961409E+03  0.14713404450E+04  0.46999998093E+01 0. -1.
</event>
<event>
 5   0  0.2948711E-06  0.3001548E+04  0.7818609E-02  0.8243289E-01
        2   -1    0    0  501    0  0.00000000000E+00  0.00000000000E+00  0.19925365249E+04  0.19925365249E+04  0.25500000920E-02 0. -1.
       -2   -1    0    0    0  501  0.00000000000E+00  0.00000000000E+00 -0.11303794196E+04  0.11303794196E+04  0.25500000920E-02 0.  1.
    10030    2    1    2    0    0  0.00000000000E+00  0.00000000000E+00  0.86215710528E+03  0.31229159445E+04  0.30015477878E+04 0.  0.
        5    1    3    3  502    0  0.10623649377E+04 -0.68589735864E+01  0.15339564839E+04  0.18659343211E+04  0.46999998093E+01 0. -1.
       -5    1    3    3    0  502 -0.10623649377E+04  0.68589735864E+01 -0.67179937858E+03  0.12569816234E+04  0.46999998093E+01 0.  1.
</event>
<event>
 5   0  0.2948711E-06  0.3017837E+04  0.7818609E-02  0.8238656E-01
       -2   -1    0    0    0  501  0.00000000000E+00  0.00000000000E+00  0.11996300251E+04  0.11996300251E+04  0.25500000920E-02 0. -1.
        2   -1    0    0  501    0  0.00000000000E+00  0.00000000000E+00 -0.18979473703E+04  0.18979473703E+04  0.25500000920E-02 0.  1.
    10030    2    1    2    0    0  0.00000000000E+00  0.00000000000E+00 -0.69831734520E+03  0.30975773955E+04  0.30178367428E+04 0.  0.
        5    1    3    3  502    0  0.11307688380E+04  0.99731021806E+03 -0.41028667608E+03  0.15625693849E+04  0.46999998093E+01 0.  1.
       -5    1    3    3    0  502 -0.11307688380E+04 -0.99731021806E+03 -0.28803066912E+03  0.15350080106E+04  0.46999998093E+01 0. -1.
</event>
<event>
 5   0  0.2948711E-06  0.2996917E+04  0.7818609E-02  0.8244612E-01
        2   -1    0    0  501    0  0.00000000000E+00  0.00000000000E+00  0.29918504543E+04  0.29918504543E+04  0.25500000920E-02 0. -1.
       -2   -1    0    0    0  501  0.00000000000E+00  0.00000000000E+00 -0.75049785979E+03  0.75049785979E+03  0.25500000920E-02 0.  1.
    10030    2    1    2    0    0  0.00000000000E+00  0.00000000000E+00  0.22413525945E+04  0.37423483141E+04  0.29969166574E+04 0.  0.
        5    1    3    3  502    0  0.11037881004E+04 -0.37202243058E+03 -0.56453253719E+02  0.11661723369E+04  0.46999998093E+01 0. -1.
       -5    1    3    3    0  502 -0.11037881004E+04  0.37202243058E+03  0.22978058483E+04  0.25761759772E+04  0.46999998093E+01 0.  1.
</event>
<event>
 5   0  0.1097402E-06  0.2964154E+04  0.7818609E-02  0.8254042E-01
       -1   -1    0    0    0  501  0.00000000000E+00  0.00000000000E+00  0.13537416480E+04  0.13537416480E+04  0.50400001928E-02 0.  1.
        1   -1    0    0  501    0  0.00000000000E+00  0.00000000000E+00 -0.16225786791E+04  0.16225786791E+04  0.50400001928E-02 0. -1.
    10030    2    1    2    0    0  0.00000000000E+00  0.00000000000E+00 -0.26883703114E+03  0.29763203272E+04  0.29641540683E+04 0.  0.
        4    1    3    3  502    0 -0.14198659508E+04 -0.18474460432E+03  0.24977556940E+03  0.14534577170E+04  0.12699999809E+01 0.  1.
       -4    1    3    3    0  502  0.14198659508E+04  0.18474460432E+03 -0.51861260054E+03  0.15228626102E+04  0.12699999809E+01 0. -1.
</event>
<event>
 5   0  0.2862033E-06  0.2993261E+04  0.7818609E-02  0.8245658E-01
        2   -1    0    0  501    0  0.00000000000E+00  0.00000000000E+00  0.16127102439E+04  0.16127102439E+04  0.25500000920E-02 0.  1.
       -2   -1    0    0    0  501  0.00000000000E+00  0.00000000000E+00 -0.13889057146E+04  0.13889057146E+04  0.25500000920E-02 0. -1.
    10030    2    1    2    0    0  0.00000000000E+00  0.00000000000E+00  0.22380452925E+03  0.30016159585E+04  0.29932607462E+04 0.  0.
        2    1    3    3  502    0 -0.46774131237E+03  0.13569239343E+04 -0.31340183627E+03  0.14690967326E+04  0.25500000920E-02 0. -1.
       -2    1    3    3    0  502  0.46774131237E+03 -0.13569239343E+04  0.53720636552E+03  0.15325192259E+04  0.25500000920E-02 0.  1.
</event>
<event>
 5   0  0.2985941E-06  0.2970656E+04  0.7818609E-02  0.8252160E-01
        2   -1    0    0  501    0  0.00000000000E+00  0.00000000000E+00  0.14972246822E+04  0.14972246822E+04  0.25500000920E-02 0. -1.
       -2   -1    0    0    0  501  0.00000000000E+00  0.00000000000E+00 -0.14735257128E+04  0.14735257128E+04  0.25500000920E-02 0.  1.
    10030    2    1    2    0    0  0.00000000000E+00  0.00000000000E+00  0.23698969381E+02  0.29707503950E+04  0.29706558649E+04 0.  0.
        3    1    3    3  502    0 -0.10889119475E+03  0.91373669670E+03 -0.11541323043E+04  0.14760736531E+04  0.10100000352E+00 0.  1.
       -3    1    3    3    0  502  0.10889119475E+03 -0.91373669670E+03  0.11778312737E+04  0.14946767419E+04  0.10100000352E+00 0. -1.
</event>
<event>
 5   0  0.1091076E-06  0.3008204E+04  0.7818609E-02  0.8241392E-01
       -1   -1    0    0    0  501  0.00000000000E+00  0.00000000000E+00  0.17856401872E+04  0.17856401872E+04  0.50400001928E-02 0.  1.
        1   -1    0    0  501    0  0.00000000000E+00  0.00000000000E+00 -0.12669535097E+04  0.12669535097E+04  0.50400001928E-02 0. -1.
    10030    2    1    2    0    0  0.00000000000E+00  0.00000000000E+00  0.51868667752E+03  0.30525936970E+04  0.30082041835E+04 0.  0.
        3    1    3    3  502    0  0.12514780566E+04  0.53459973089E+03  0.90936486929E+03  0.16367463683E+04  0.10100000352E+00 0.  1.
       -3    1    3    3    0  502 -0.12514780566E+04 -0.53459973089E+03 -0.39067819177E+03  0.14158473287E+04  0.10100000352E+00 0. -1.
</event>
<event>
 5   0  0.2985941E-06  0.2990433E+04  0.7818609E-02  0.8246468E-01
        2   -1    0    0  501    0  0.00000000000E+00  0.00000000000E+00  0.16782200947E+04  0.16782200947E+04  0.25500000920E-02 0.  1.
       -2   -1    0    0    0  501  0.00000000000E+00  0.00000000000E+00 -0.13321683445E+04  0.13321683445E+04  0.25500000920E-02 0. -1.
    10030    2    1    2    0    0  0.00000000000E+00  0.00000000000E+00  0.34605175021E+03  0.30103884392E+04  0.29904325341E+04 0.  0.
        3    1    3    3  502    0 -0.79021074306E+03  0.10658159949E+04  0.86702828416E+03  0.15849715484E+04  0.10100000352E+00 0.  1.
       -3    1    3    3    0  502  0.79021074306E+03 -0.10658159949E+04 -0.52097653395E+03  0.14254168908E+04  0.10100000352E+00 0. -1.
</event>
<event>
 5   0  0.1097402E-06  0.3000983E+04  0.7818609E-02  0.8243450E-01
        1   -1    0    0  501    0  0.00000000000E+00  0.00000000000E+00  0.20277013910E+04  0.20277013910E+04  0.50400001928E-02 0.  1.
       -1   -1    0    0    0  501  0.00000000000E+00  0.00000000000E+00 -0.11103584149E+04  0.11103584149E+04  0.50400001928E-02 0. -1.
    10030    2    1    2    0    0  0.00000000000E+00  0.00000000000E+00  0.91734297617E+03  0.31380598059E+04  0.30009833738E+04 0.  0.
        4    1    3    3  502    0 -0.86988068656E+03 -0.79114600195E+03  0.14333802031E+04  0.18539646234E+04  0.12699999809E+01 0.  1.
       -4    1    3    3    0  502  0.86988068656E+03  0.79114600195E+03 -0.51603722694E+03  0.12840951825E+04  0.12699999809E+01 0. -1.
</event>
<event>
 5   0  0.2948711E-06  0.3025825E+04  0.7818609E-02  0.8236395E-01
       -2   -1    0    0    0  501  0.00000000000E+00  0.00000000000E+00  0.13008634808E+04  0.13008634808E+04  0.25500000920E-02 0.  1.
        2   -1    0    0  501    0  0.00000000000E+00  0.00000000000E+00 -0.17595265522E+04  0.17595265522E+04  0.25500000920E-02 0. -1.
    10030    2    1    2    0    0  0.00000000000E+00  0.00000000000E+00 -0.45866307140E+03  0.30603900329E+04  0.30258247373E+04 0.  0.
        5    1    3    3  502    0 -0.72554029922E+03 -0.93720790070E+03 -0.11803462459E+04  0.16727243422E+04  0.46999998093E+01 0. -1.
       -5    1    3    3    0  502  0.72554029922E+03  0.93720790070E+03  0.72168317446E+03  0.13876656907E+04  0.46999998093E+01 0.  1.
</event>
<event>
 5   0  0.1091076E-06  0.3001679E+04  0.7818609E-02  0.8243252E-01
       -1   -1    0    0    0  501  0.00000000000E+00  0.00000000000E+00  0.16283432633E+04  0.16283432633E+04  0.50400001928E-02 0. -1.
        1   -1    0    0  501    0  0.00000000000E+00  0.00000000000E+00 -0.13833194157E+04  0.13833194157E+04  0.50400001928E-02 0.  1.
    10030    2    1    2    0    0  0.00000000000E+00  0.00000000000E+00  0.24502384756E+03  0.30116626790E+04  0.30016787646E+04 0.  0.
        3    1    3    3  502    0 -0.28677359571E+02 -0.47589950695E+03  0.15503461924E+04  0.16219975518E+04  0.10100000352E+00 0. -1.
       -3    1    3    3    0  502  0.28677359571E+02  0.47589950695E+03 -0.13053223448E+04  0.13896651272E+04  0.10100000352E+00 0.  1.
</event>
<event>
 5   0  0.2862033E-06  0.3039199E+04  0.7818609E-02  0.8232625E-01
       -2   -1    0    0    0  501  0.00000000000E+00  0.00000000000E+00  0.15527684471E+04  0.15527684471E+04  0.25500000920E-02 0.  1.
        2   -1    0    0  501    0  0.00000000000E+00  0.00000000000E+00 -0.14871387870E+04  0.14871387870E+04  0.25500000920E-02 0. -1.
    10030    2    1    2    0    0  0.00000000000E+00  0.00000000000E+00  0.65629660075E+02  0.30399072341E+04  0.30391987003E+04 0.  0.
        2    1    3    3  502    0  0.13269767858E+04 -0.58175884507E+03 -0.42540925045E+03  0.15100608512E+04  0.25500000920E-02 0. -1.
       -2    1    3    3    0  502 -0.13269767858E+04  0.58175884507E+03  0.49103891053E+03  0.15298463830E+04  0.25500000920E-02 0.  1.
</event>
<event>
 5   0  0.1113245E-06  0.2998384E+04  0.7818609E-02  0.8244192E-01
       -1   -1    0    0    0  501  0.00000000000E+00  0.00000000000E+00  0.14841440284E+04  0.14841440284E+04  0.50400001928E-02 0.  1.
        1   -1    0    0  501    0  0.00000000000E+00  0.00000000000E+00 -0.15143927985E+04  0.15143927985E+04  0.50400001928E-02 0. -1.
    10030    2    1    2    0    0  0.00000000000E+00  0.00000000000E+00 -0.30248770089E+02  0.29985368270E+04  0.29983842507E+04 0.  0.
        5    1    3    3  502    0 -0.13817704825E+04  0.79414591555E+02 -0.59131218431E+03  0.15050809058E+04  0.46999998093E+01 0. -1.
       -5    1    3    3    0  502  0.13817704825E+04 -0.79414591555E+02  0.56106341422E+03  0.14934559212E+04  0.46999998093E+01 0.  1.
</event>
<event>
 5   0  0.1054384E-06  0.2963917E+04  0.7818609E-02  0.8254110E-01
        1   -1    0    0  501    0  0.00000000000E+00  0.00000000000E+00  0.12436956008E+04  0.12436956008E+04  0.50400001928E-02 0.  1.
       -1   -1    0    0    0  501  0.00000000000E+00  0.00000000000E+00 -0.17658670600E+04  0.17658670600E+04  0.50400001928E-02 0. -1.
    10030    2    1    2    0    0  0.00000000000E+00  0.00000000000E+00 -0.52217145919E+03  0.30095626608E+04  0.29639170664E+04 0.  0.
        2    1    3    3  502    0  0.55008227672E+03 -0.50658382916E+03  0.10380648194E+04  0.12793733843E+04  0.25500000920E-02 0.  1.
       -2    1    3    3    0  502 -0.55008227672E+03  0.50658382916E+03 -0.15602362786E+04  0.17301892764E+04  0.25500000920E-02 0. -1.
</event>
<event>
 5   0  0.1113245E-06  0.2951473E+04  0.7818609E-02  0.8257725E-01
       -1   -1    0    0    0  501  0.00000000000E+00  0.00000000000E+00  0.12294948103E+04  0.12294948103E+04  0.50400001928E-02 0. -1.
        1   -1    0    0  501    0  0.00000000000E+00  0.00000000000E+00 -0.17712951075E+04  0.17712951075E+04  0.50400001928E-02 0.  1.
    10030    2    1    2    0    0  0.00000000000E+00  0.00000000000E+00 -0.54180029713E+03  0.30007899178E+04  0.29514729490E+04 0.  0.
        5    1    3    3  502    0 -0.67947015925E+03 -0.11886114214E+04  0.28902819050E+03  0.13992984647E+04  0.46999998093E+01 0. -1.
       -5    1    3    3    0  502  0.67947015925E+03  0.11886114214E+04 -0.83082848763E+03  0.16014914531E+04  0.46999998093E+01 0.  1.
</event>
<event>
 5   0  0.2948711E-06  0.3001329E+04  0.7818609E-02  0.8243351E-01
       -2   -1    0    0    0  501  0.00000000000E+00  0.00000000000E+00  0.84990827605E+03  0.84990827605E+03  0.25500000920E-02 0.  1.
        2   -1    0    0  501    0  0.00000000000E+00  0.00000000000E+00 -0.26496905787E+04  0.26496905787E+04  0.25500000920E-02 0. -1.
    10030    2    1    2    0    0  0.00000000000E+00  0.00000000000E+00 -0.17997823026E+04  0.34995988547E+04  0.30013290068E+04 0.  0.
        5    1    3    3  502    0  0.11700633360E+04  0.64085278000E+03 -0.98615261567E+02  0.13377172929E+04  0.46999998093E+01 0.  1.
       -5    1    3    3    0  502 -0.11700633360E+04 -0.64085278000E+03 -0.17011670410E+04  0.21618815618E+04  0.46999998093E+01 0. -1.
</event>
<event>
 5   0  0.1113245E-06  0.3009847E+04  0.7818609E-02  0.8240925E-01
       -1   -1    0    0    0  501  0.00000000000E+00  0.00000000000E+00  0.14173217519E+04  0.14173217519E+04  0.50400001928E-02 0. -1.
        1   -1    0    0  501    0  0.00000000000E+00  0.00000000000E+00 -0.15979394242E+04  0.15979394242E+04  0.50400001928E-02 0.  1.
    10030    2    1    2    0    0  0.00000000000E+00  0.00000000000E+00 -0.18061767234E+03  0.30152611761E+04  0.30098467098E+04 0.  0.
        5    1    3    3  502    0 -0.74817493432E+03 -0.12810669926E+04 -0.34349623035E+03  0.15227968092E+04  0.46999998093E+01 0.  1.
       -5    1    3    3    0  502  0.74817493432E+03  0.12810669926E+04  0.16287855802E+03  0.14924643669E+04  0.46999998093E+01 0. -1.
</event>
<event>
 5   0  0.3113328E-06  0.2997368E+04  0.7818609E-02  0.8244483E-01
        2   -1    0    0  501    0  0.00000000000E+00  0.00000000000E+00  0.16097372503E+04  0.16097372503E+04  0.25500000920E-02 0.  1.
       -2   -1    0    0    0  501  0.00000000000E+00  0.00000000000E+00 -0.13952924721E+04  0.13952924721E+04  0.25500000920E-02 0. -1.
    10030    2    1    2    0    0  0.00000000000E+00  0.00000000000E+00  0.21444477819E+03  0.30050297224E+04  0.29973683573E+04 0.  0.
        1    1    3    3  502    0  0.98318307969E+03 -0.10009643637E+04  0.63532836985E+03  0.15402015333E+04  0.50400001928E-02 0.  1.
       -1    1    3    3    0  502 -0.98318307969E+03  0.10009643637E+04 -0.42088359167E+03  0.14648281891E+04  0.50400001928E-02 0. -1.
</event>
<event>
 5   0  0.2948711E-06  0.2994733E+04  0.7818609E-02  0.8245237E-01
        2   -1    0    0  501    0  0.00000000000E+00  0.00000000000E+00  0.14663316522E+04  0.14663316522E+04  0.25500000920E-02 0. -1.
       -2   -1    0    0    0  501  0.00000000000E+00  0.00000000000E+00 -0.15290581029E+04  0.15290581029E+04  0.25500000920E-02 0.  1.
    10030    2    1    2    0    0  0.00000000000E+00  0.00000000000E+00 -0.62726450636E+02  0.29953897551E+04  0.29947329059E+04 0.  0.
        5    1    3    3  502    0  0.12014332000E+04  0.10342548822E+03 -0.91922094162E+03  0.15162875041E+04  0.46999998093E+01 0.  1.
       -5    1    3    3    0  502 -0.12014332000E+04 -0.10342548822E+03  0.85649449098E+03  0.14791022510E+04  0.46999998093E+01 0. -1.
</event>
<event>
 5   0  0.2948711E-06  0.3007299E+04  0.7818609E-02  0.8241650E-01
       -2   -1    0    0    0  501  0.00000000000E+00  0.00000000000E+00  0.20551019307E+04  0.20551019307E+04  0.25500000920E-02 0.  1.
        2   -1    0    0  501    0  0.00000000000E+00  0.00000000000E+00 -0.11001700781E+04  0.11001700781E+04  0.25500000920E-02 0. -1.
    10030    2    1    2    0    0  0.00000000000E+00  0.00000000000E+00  0.95493185258E+03  0.31552720089E+04  0.30072988889E+04 0.  0.
        5    1    3    3  502    0 -0.12890343286E+04 -0.26172203800E+03 -0.28696563546E+03  0.13462835108E+04  0.46999998093E+01 0.  1.
       -5    1    3    3    0  502  0.12890343286E+04  0.26172203800E+03  0.12418974880E+04  0.18089884981E+04  0.46999998093E+01 0. -1.
</event>
<event>
 5   0  0.1113245E-06  0.3009830E+04  0.7818609E-02  0.8240930E-01
       -1   -1    0    0    0  501  0.00000000000E+00  0.00000000000E+00  0.93268616851E+03  0.93268616852E+03  0.50400001928E-02 0.  1.
        1   -1    0    0  501    0  0.00000000000E+00  0.00000000000E+00 -0.24282215526E+04  0.24282215526E+04  0.50400001928E-02 0. -1.
    10030    2    1    2    0    0  0.00000000000E+00  0.00000000000E+00 -0.14955353841E+04  0.33609077211E+04  0.30098296671E+04 0.  0.
        5    1    3    3  502    0 -0.14562316228E+04 -0.34149648557E+03 -0.56253880430E+03  0.15980307836E+04  0.46999998093E+01 0.  1.
       -5    1    3    3    0  502  0.14562316228E+04  0.34149648557E+03 -0.93299657975E+03  0.17628769375E+04  0.46999998093E+01 0. -1.
</event>
<event>
 5   0  0.1113245E-06  0.2912861E+04  0.7818609E-02  0.8269061E-01
        1   -1    0    0  501    0  0.00000000000E+00  0.00000000000E+00  0.11132651088E+04  0.11132651088E+04  0.50400001928E-02 0. -1.
       -1   -1    0    0    0  501  0.00000000000E+00  0.00000000000E+00 -0.19053772876E+04  0.19053772876E+04  0.50400001928E-02 0.  1.
    10030    2    1    2    0    0  0.00000000000E+00  0.00000000000E+00 -0.79211217883E+03  0.30186423964E+04  0.29128611730E+04 0.  0.
        5    1    3    3  502    0 -0.94187825529E+03 -0.55134603211E+03  0.60335745765E+03  0.12470683248E+04  0.46999998093E+01 0. -1.
       -5    1    3    3    0  502  0.94187825529E+03  0.55134603211E+03 -0.13954696365E+04  0.17715740716E+04  0.46999998093E+01 0.  1.
</event>
<event>
 5   0  0.2948711E-06  0.3033056E+04  0.7818609E-02  0.8234354E-01
        2   -1    0    0  501    0  0.00000000000E+00  0.00000000000E+00  0.12738809648E+04  0.12738809648E+04  0.25500000920E-02 0.  1.
       -2   -1    0    0    0  501  0.00000000000E+00  0.00000000000E+00 -0.18053938927E+04  0.18053938927E+04  0.25500000920E-02 0. -1.
    10030    2    1    2    0    0  0.00000000000E+00  0.00000000000E+00 -0.53151292795E+03  0.30792748575E+04  0.30330558279E+04 0.  0.
        5    1    3    3  502    0 -0.33042717360E+03 -0.63917222250E+03  0.10895437205E+04  0.13056993743E+04  0.46999998093E+01 0.  1.
       -5    1    3    3    0  502  0.33042717360E+03  0.63917222250E+03 -0.16210566485E+04  0.17735754832E+04  0.46999998093E+01 0. -1.
</event>
<event>
 5   0  0.1097402E-06  0.3046820E+04  0.7818609E-02  0.8230486E-01
        1   -1    0    0  501    0  0.00000000000E+00  0.00000000000E+00  0.23509747822E+04  0.23509747822E+04  0.50400001928E-02 0.  1.
       -1   -1    0    0    0  501  0.00000000000E+00  0.00000000000E+00 -0.98715550341E+03  0.98715550342E+03  0.50400001928E-02 0. -1.
    10030    2    1    2    0    0  0.00000000000E+00  0.00000000000E+00  0.13638192788E+04  0.33381302856E+04  0.30468197811E+04 0.  0.
        4    1    3    3  502    0  0.35859935993E+03 -0.66920627780E+03 -0.76510450343E+03  0.10778761790E+04  0.12699999809E+01 0. -1.
       -4    1    3    3    0  502 -0.35859935993E+03  0.66920627780E+03  0.21289237822E+04  0.22602541066E+04  0.12699999809E+01 0.  1.
</event>
<event>
 5   0  0.3113328E-06  0.3241352E+04  0.7818609E-02  0.8177981E-01
        2   -1    0    0  501    0  0.00000000000E+00  0.00000000000E+00  0.94220907083E+03  0.94220907083E+03  0.25500000920E-02 0.  1.
       -2   -1    0    0    0  501  0.00000000000E+00  0.00000000000E+00 -0.27876948205E+04  0.27876948205E+04  0.25500000920E-02 0. -1.
    10030    2    1    2    0    0  0.00000000000E+00  0.00000000000E+00 -0.18454857497E+04  0.37299038914E+04  0.32413524009E+04 0.  0.
        1    1    3    3  502    0  0.39623621548E+03 -0.57484902536E+03  0.76028252917E+03  0.10322228755E+04  0.50400001928E-02 0.  1.
       -1    1    3    3    0  502 -0.39623621548E+03  0.57484902536E+03 -0.26057682789E+04  0.26976810159E+04  0.50400001928E-02 0. -1.
</event>
<event>
 5   0  0.1113245E-06  0.2993739E+04  0.7818609E-02  0.8245521E-01
       -1   -1    0    0    0  501  0.00000000000E+00  0.00000000000E+00  0.86507135385E+03  0.86507135386E+03  0.50400001928E-02 0.  1.
        1   -1    0    0  501    0  0.00000000000E+00  0.00000000000E+00 -0.25900958681E+04  0.25900958681E+04  0.50400001928E-02 0. -1.
    10030    2    1    2    0    0  0.00000000000E+00  0.00000000000E+00 -0.17250245143E+04  0.34551672220E+04  0.29937386254E+04 0.  0.
        5    1    3    3  502    0 -0.78108593819E+03  0.31958256821E+03 -0.22893318737E+04  0.24399366341E+04  0.46999998093E+01 0. -1.
       -5    1    3    3    0  502  0.78108593819E+03 -0.31958256821E+03  0.56430735938E+03  0.10152305879E+04  0.46999998093E+01 0.  1.
</event>
<event>
 5   0  0.1091075E-06  0.3001432E+04  0.7818609E-02  0.8243322E-01
       -1   -1    0    0    0  501  0.00000000000E+00  0.00000000000E+00  0.16919556926E+04  0.16919556926E+04  0.50400001928E-02 0. -1.
        1   -1    0    0  501    0  0.00000000000E+00  0.00000000000E+00 -0.13310915430E+04  0.13310915430E+04  0.50400001928E-02 0.  1.
    10030    2    1    2    0    0  0.00000000000E+00  0.00000000000E+00  0.36086414954E+03  0.30230472356E+04  0.30014316008E+04 0.  0.
        1    1    3    3  502    0  0.29900454722E+03 -0.26246844819E+03 -0.12770047316E+04  0.13375479394E+04  0.50400001928E-02 0.  1.
       -1    1    3    3    0  502 -0.29900454722E+03  0.26246844819E+03  0.16378688812E+04  0.16854992962E+04  0.50400001928E-02 0. -1.
</event>
<event>
 5   0  0.1091075E-06  0.3008152E+04  0.7818609E-02  0.8241407E-01
       -1   -1    0    0    0  501  0.00000000000E+00  0.00000000000E+00  0.24619981199E+04  0.24619981199E+04  0.50400001928E-02 0.  1.
        1   -1    0    0  501    0  0.00000000000E+00  0.00000000000E+00 -0.91886509331E+03  0.91886509332E+03  0.50400001928E-02 0. -1.
    10030    2    1    2    0    0  0.00000000000E+00  0.00000000000E+00  0.15431330266E+04  0.33808632132E+04  0.30081516798E+04 0.  0.
        1    1    3    3  502    0 -0.33157735358E+03 -0.10596737387E+04  0.19118643406E+04  0.22108996429E+04  0.50400001928E-02 0.  1.
       -1    1    3    3    0  502  0.33157735358E+03  0.10596737387E+04 -0.36873131406E+03  0.11699635703E+04  0.50400001928E-02 0. -1.
</event>
<event>
 5   0  0.1097402E-06  0.2985476E+04  0.7818609E-02  0.8247891E-01
        1   -1    0    0  501    0  0.00000000000E+00  0.00000000000E+00  0.20576515472E+04  0.20576515472E+04  0.50400001928E-02 0. -1.
       -1   -1    0    0    0  501  0.00000000000E+00  0.00000000000E+00 -0.10829173215E+04  0.10829173215E+04  0.50400001928E-02 0.  1.
    10030    2    1    2    0    0  0.00000000000E+00  0.00000000000E+00  0.97473422571E+03  0.31405688688E+04  0.29854758429E+04 0.  0.
        4    1    3    3  502    0  0.64947867390E+03  0.11243215131E+04 -0.28733005864E+03  0.13298426930E+04  0.12699999809E+01 0.  1.
       -4    1    3    3    0  502 -0.64947867390E+03 -0.11243215131E+04  0.12620642844E+04  0.18107261757E+04  0.12699999809E+01 0. -1.
</event>
<event>
 5   0  0.2970915E-06  0.3009968E+04  0.7818609E-02  0.8240890E-01
       -2   -1    0    0    0  501  0.00000000000E+00  0.00000000000E+00  0.11531137905E+04  0.11531137905E+04  0.25500000920E-02 0. -1.
        2   -1    0    0  501    0  0.00000000000E+00  0.00000000000E+00 -0.19642260120E+04  0.19642260120E+04  0.25500000920E-02 0.  1.
    10030    2    1    2    0    0  0.00000000000E+00  0.00000000000E+00 -0.81111222146E+03  0.31173398025E+04  0.30099675095E+04 0.  0.
        4    1    3    3  502    0  0.57876299998E+03 -0.43296114493E+03  0.96159108494E+03  0.12029467946E+04  0.12699999809E+01 0. -1.
       -4    1    3    3    0  502 -0.57876299998E+03  0.43296114493E+03 -0.17727033064E+04  0.19143930079E+04  0.12699999809E+01 0.  1.
</event>
<event>
 5   0  0.2985941E-06  0.3023455E+04  0.7818609E-02  0.8237065E-01
       -2   -1    0    0    0  501  0.00000000000E+00  0.00000000000E+00  0.17606134156E+04  0.17606134156E+04  0.25500000920E-02 0. -1.
        2   -1    0    0  501    0  0.00000000000E+00  0.00000000000E+00 -0.12980246336E+04  0.12980246336E+04  0.25500000920E-02 0.  1.
    10030    2    1    2    0    0  0.00000000000E+00  0.00000000000E+00  0.46258878196E+03  0.30586380492E+04  0.30234547019E+04 0.  0.
        3    1    3    3  502    0  0.68584747743E+03  0.13108982688E+04  0.54551884617E+03  0.15768423685E+04  0.10100000352E+00 0.  1.
       -3    1    3    3    0  502 -0.68584747743E+03 -0.13108982688E+04 -0.82930064205E+02  0.14817956806E+04  0.10100000352E+00 0. -1.
</event>
<event>
 5   0  0.1097402E-06  0.2979362E+04  0.7818609E-02  0.8249649E-01
       -1   -1    0    0    0  501  0.00000000000E+00  0.00000000000E+00  0.29717490755E+04  0.29717490755E+04  0.50400001928E-02 0.  1.
        1   -1    0    0  501    0  0.00000000000E+00  0.00000000000E+00 -0.74674876192E+03  0.74674876194E+03  0.50400001928E-02 0. -1.
    10030    2    1    2    0    0  0.00000000000E+00  0.00000000000E+00  0.22250003136E+04  0.37184978375E+04  0.29793623096E+04 0.  0.
        4    1    3    3  502    0 -0.38713505892E+03 -0.80719176080E+03  0.25985688004E+04  0.27484529314E+04  0.12699999809E+01 0.  1.
       -4    1    3    3    0  502  0.38713505892E+03  0.80719176080E+03 -0.37356848684E+03  0.97004490608E+03  0.12699999809E+01 0. -1.
</event>
<event>
 5   0  0.2948711E-06  0.2998899E+04  0.7818609E-02  0.8244045E-01
       -2   -1    0    0    0  501  0.00000000000E+00  0.00000000000E+00  0.13543767080E+04  0.13543767080E+04  0.25500000920E-02 0.  1.
        2   -1    0    0  501    0  0.00000000000E+00  0.00000000000E+00 -0.16600612319E+04  0.16600612319E+04  0.25500000920E-02 0. -1.
    10030    2    1    2    0    0  0.00000000000E+00  0.00000000000E+00 -0.30568452387E+03  0.30144379399E+04  0.29988986420E+04 0.  0.
        5    1    3    3  502    0 -0.51300207633E+03 -0.10987944319E+04 -0.10393451609E+04  0.15971163976E+04  0.46999998093E+01 0. -1.
       -5    1    3    3    0  502  0.51300207633E+03  0.10987944319E+04  0.73366063704E+03  0.14173215423E+04  0.46999998093E+01 0.  1.
</event>
<event>
 5   0  0.2985941E-06  0.3032499E+04  0.7818609E-02  0.8234511E-01
       -2   -1    0    0    0  501  0.00000000000E+00  0.00000000000E+00  0.92451457753E+03  0.92451457753E+03  0.25500000920E-02 0.  1.
        2   -1    0    0  501    0  0.00000000000E+00  0.00000000000E+00 -0.24867242436E+04  0.24867242436E+04  0.25500000920E-02 0. -1.
    10030    2    1    2    0    0  0.00000000000E+00  0.00000000000E+00 -0.15622096661E+04  0.34112388212E+04  0.30324991763E+04 0.  0.
        3    1    3    3  502    0  0.20202317476E+03 -0.93796017897E+03 -0.21018037286E+04  0.23104461872E+04  0.10100000352E+00 0. -1.
       -3    1    3    3    0  502 -0.20202317476E+03  0.93796017897E+03  0.53959406247E+03  0.11007926339E+04  0.10100000352E+00 0.  1.
</event>
<event>
 5   0  0.2970915E-06  0.2998624E+04  0.7818609E-02  0.8244124E-01
        2   -1    0    0  501    0  0.00000000000E+00  0.00000000000E+00  0.17119449951E+04  0.17119449951E+04  0.25500000920E-02 0. -1.
       -2   -1    0    0    0  501  0.00000000000E+00  0.00000000000E+00 -0.13130888824E+04  0.13130888824E+04  0.25500000920E-02 0.  1.
    10030    2    1    2    0    0  0.00000000000E+00  0.00000000000E+00  0.39885611276E+03  0.30250338775E+04  0.29986236445E+04 0.  0.
        4    1    3    3  502    0  0.46760997105E+03  0.37632527643E+02 -0.12371431670E+04  0.13231024604E+04  0.12699999809E+01 0.  1.
       -4    1    3    3    0  502 -0.46760997105E+03 -0.37632527643E+02  0.16359992798E+04  0.17019314171E+04  0.12699999809E+01 0. -1.
</event>
<event>
 5   0  0.2862033E-06  0.3005369E+04  0.7818609E-02  0.8242200E-01
       -2   -1    0    0    0  501  0.00000000000E+00  0.00000000000E+00  0.77605724527E+03  0.77605724527E+03  0.25500000920E-02 0. -1.
        2   -1    0    0  501    0  0.00000000000E+00  0.00000000000E+00 -0.29096564881E+04  0.29096564881E+04  0.25500000920E-02 0.  1.
    10030    2    1    2    0    0  0.00000000000E+00  0.00000000000E+00 -0.21335992428E+04  0.36857137334E+04  0.30053685290E+04 0.  0.
        2    1    3    3  502    0 -0.53003678758E+03  0.12261641305E+04 -0.19108127684E+04  0.23314422376E+04  0.25500000920E-02 0.  1.
       -2    1    3    3    0  502  0.53003678758E+03 -0.12261641305E+04 -0.22278647442E+03  0.13542714958E+04  0.25500000920E-02 0. -1.
</event>
<event>
 5   0  0.2862033E-06  0.3007915E+04  0.7818609E-02  0.8241474E-01
       -2   -1    0    0    0  501  0.00000000000E+00  0.00000000000E+00  0.87490096186E+03  0.87490096186E+03  0.25500000920E-02 0.  1.
        2   -1    0    0  501    0  0.00000000000E+00  0.00000000000E+00 -0.25853079337E+04  0.25853079337E+04  0.25500000920E-02 0. -1.
    10030    2    1    2    0    0  0.00000000000E+00  0.00000000000E+00 -0.17104069718E+04  0.34602088955E+04  0.30079151570E+04 0.  0.
        2    1    3    3  502    0  0.61899689761E+03  0.59095401272E+03 -0.22778995465E+04  0.24333536834E+04  0.25500000920E-02 0. -1.
       -2    1    3    3    0  502 -0.61899689761E+03 -0.59095401272E+03  0.56749257470E+03  0.10268552122E+04  0.25500000920E-02 0.  1.
</event>
<event>
 5   0  0.2862033E-06  0.3005639E+04  0.7818609E-02  0.8242122E-01
       -2   -1    0    0    0  501  0.00000000000E+00  0.00000000000E+00  0.16969046545E+04  0.16969046545E+04  0.25500000920E-02 0. -1.
        2   -1    0    0  501    0  0.00000000000E+00  0.00000000000E+00 -0.13309331992E+04  0.13309331992E+04  0.25500000920E-02 0.  1.
    10030    2    1    2    0    0  0.00000000000E+00  0.00000000000E+00  0.36597145533E+03  0.30278378537E+04  0.30056391936E+04 0.  0.
        2    1    3    3  502    0 -0.11487708405E+04 -0.23936309362E+03  0.11288010327E+04  0.16282385901E+04  0.25500000920E-02 0. -1.
       -2    1    3    3    0  502  0.11487708405E+04  0.23936309362E+03 -0.76282957741E+03  0.13995992636E+04  0.25500000920E-02 0.  1.
</event>
<event>
 5   0  0.2985941E-06  0.3004025E+04  0.7818609E-02  0.8242582E-01
        2   -1    0    0  501    0  0.00000000000E+00  0.00000000000E+00  0.24188003986E+04  0.24188003986E+04  0.25500000920E-02 0. -1.
       -2   -1    0    0    0  501  0.00000000000E+00  0.00000000000E+00 -0.93271103561E+03  0.93271103561E+03  0.25500000920E-02 0.  1.
    10030    2    1    2    0    0  0.00000000000E+00  0.00000000000E+00  0.14860893630E+04  0.33515114342E+04  0.30040251828E+04 0.  0.
        3    1    3    3  502    0  0.67007109736E+02 -0.51528850960E+03  0.23153250662E+04  0.23729185349E+04  0.10100000352E+00 0. -1.
       -3    1    3    3    0  502 -0.67007109736E+02  0.51528850960E+03 -0.82923570322E+03  0.97859289931E+03  0.10100000352E+00 0.  1.
</event>
<event>
 5   0  0.2970915E-06  0.3016586E+04  0.7818609E-02  0.8239010E-01
        2   -1    0    0  501    0  0.00000000000E+00  0.00000000000E+00  0.19033537608E+04  0.19033537608E+04  0.25500000920E-02 0.  1.
       -2   -1    0    0    0  501  0.00000000000E+00  0.00000000000E+00 -0.11952313693E+04  0.11952313693E+04  0.25500000920E-02 0. -1.
    10030    2    1    2    0    0  0.00000000000E+00  0.00000000000E+00  0.70812239143E+03  0.30985851301E+04  0.30165862307E+04 0.  0.
        4    1    3    3  502    0 -0.10995870532E+04  0.10816150570E+03  0.14086911736E+04  0.17903080836E+04  0.12699999809E+01 0.  1.
       -4    1    3    3    0  502  0.10995870532E+04 -0.10816150570E+03 -0.70056878215E+03  0.13082770465E+04  0.12699999809E+01 0. -1.
</event>
<event>
 5   0  0.3113328E-06  0.2970958E+04  0.7818609E-02  0.8252073E-01
       -2   -1    0    0    0  501  0.00000000000E+00  0.00000000000E+00  0.18501461777E+04  0.18501461777E+04  0.25500000920E-02 0. -1.
        2   -1    0    0  501    0  0.00000000000E+00  0.00000000000E+00 -0.11926885638E+04  0.11926885638E+04  0.25500000920E-02 0.  1.
    10030    2    1    2    0    0  0.00000000000E+00  0.00000000000E+00  0.65745761387E+03  0.30428347415E+04  0.29709582209E+04 0.  0.
        1    1    3    3  502    0 -0.11369301854E+04 -0.94700671163E+03  0.19434379313E+03  0.14923811404E+04  0.50400001928E-02 0. -1.
       -1    1    3    3    0  502  0.11369301854E+04  0.94700671163E+03  0.46311382074E+03  0.15504536011E+04  0.50400001928E-02 0.  1.
</event>
<event>
 5   0  0.1091075E-06  0.3002298E+04  0.7818609E-02  0.8243075E-01
        1   -1    0    0  501    0  0.00000000000E+00  0.00000000000E+00  0.17958160045E+04  0.17958160045E+04  0.50400001928E-02 0. -1.
       -1   -1    0    0    0  501  0.00000000000E+00  0.00000000000E+00 -0.12548328147E+04  0.12548328147E+04  0.50400001928E-02 0.  1.
    10030    2    1    2    0    0  0.00000000000E+00  0.00000000000E+00  0.54098318979E+03  0.30506488192E+04  0.30022983541E+04 0.  0.
        1    1    3    3  502    0  0.11112715898E+04 -0.10058117751E+04  0.18628982750E+03  0.15103925891E+04  0.50400001928E-02 0.  1.
       -1    1    3    3    0  502 -0.11112715898E+04  0.10058117751E+04  0.35469336228E+03  0.15402562302E+04  0.50400001928E-02 0. -1.
</event>
<event>
 5   0  0.1091076E-06  0.3187679E+04  0.7818609E-02  0.8192079E-01
        1   -1    0    0  501    0  0.00000000000E+00  0.00000000000E+00  0.15648358706E+04  0.15648358706E+04  0.50400001928E-02 0. -1.
       -1   -1    0    0    0  501  0.00000000000E+00  0.00000000000E+00 -0.16233805266E+04  0.16233805266E+04  0.50400001928E-02 0.  1.
    10030    2    1    2    0    0  0.00000000000E+00  0.00000000000E+00 -0.58544655986E+02  0.31882163972E+04  0.31876788293E+04 0.  0.
        3    1    3    3  502    0  0.14299162270E+04  0.41449620528E+03  0.53990759790E+03  0.15836564479E+04  0.10100000352E+00 0.  1.
       -3    1    3    3    0  502 -0.14299162270E+04 -0.41449620528E+03 -0.59845225389E+03  0.16045599493E+04  0.10100000352E+00 0. -1.
</event>
<event>
 5   0  0.1091075E-06  0.2997575E+04  0.7818609E-02  0.8244424E-01
       -1   -1    0    0    0  501  0.00000000000E+00  0.00000000000E+00  0.11729861599E+04  0.11729861599E+04  0.50400001928E-02 0. -1.
        1   -1    0    0  501    0  0.00000000000E+00  0.00000000000E+00 -0.19150809523E+04  0.19150809523E+04  0.50400001928E-02 0.  1.
    10030    2    1    2    0    0  0.00000000000E+00  0.00000000000E+00 -0.74209479232E+03  0.30880671122E+04  0.29975746544E+04 0.  0.
        1    1    3    3  502    0  0.13049408139E+04 -0.72655406383E+03 -0.49976786660E+03  0.15749664301E+04  0.50400001928E-02 0.  1.
       -1    1    3    3    0  502 -0.13049408139E+04  0.72655406383E+03 -0.24232692572E+03  0.15131006821E+04  0.50400001928E-02 0. -1.
</event>
<event>
 5   0  0.2970915E-06  0.2961138E+04  0.7818609E-02  0.8254916E-01
       -2   -1    0    0    0  501  0.00000000000E+00  0.00000000000E+00  0.15976390534E+04  0.15976390534E+04  0.25500000920E-02 0. -1.
        2   -1    0    0  501    0  0.00000000000E+00  0.00000000000E+00 -0.13720770205E+04  0.13720770205E+04  0.25500000920E-02 0.  1.
    10030    2    1    2    0    0  0.00000000000E+00  0.00000000000E+00  0.22556203291E+03  0.29697160740E+04  0.29611375060E+04 0.  0.
        4    1    3    3  502    0  0.18946585935E+03 -0.60479665161E+03 -0.12291559198E+04  0.13829324603E+04  0.12699999809E+01 0.  1.
       -4    1    3    3    0  502 -0.18946585935E+03  0.60479665161E+03  0.14547179527E+04  0.15867836137E+04  0.12699999809E+01 0. -1.
</event>
<event>
 5   0  0.2862033E-06  0.2964955E+04  0.7818609E-02  0.8253810E-01
       -2   -1    0    0    0  501  0.00000000000E+00  0.00000000000E+00  0.78342334411E+03  0.78342334412E+03  0.25500000920E-02 0. -1.
        2   -1    0    0  501    0  0.00000000000E+00  0.00000000000E+00 -0.28053022098E+04  0.28053022098E+04  0.25500000920E-02 0.  1.
    10030    2    1    2    0    0  0.00000000000E+00  0.00000000000E+00 -0.20218788657E+04  0.35887255539E+04  0.29649547979E+04 0.  0.
        2    1    3    3  502    0  0.11631063634E+04  0.17734707692E+03  0.80735065593E+02  0.11793161362E+04  0.25500000920E-02 0. -1.
       -2    1    3    3    0  502 -0.11631063634E+04 -0.17734707692E+03 -0.21026139313E+04  0.24094094177E+04  0.25500000920E-02 0.  1.
</event>
<event>
 5   0  0.2862033E-06  0.2988963E+04  0.7818609E-02  0.8246889E-01
        2   -1    0    0  501    0  0.00000000000E+00  0.00000000000E+00  0.21656370932E+04  0.21656370932E+04  0.25500000920E-02 0.  1.
       -2   -1    0    0    0  501  0.00000000000E+00  0.00000000000E+00 -0.10313249361E+04  0.10313249361E+04  0.25500000920E-02 0. -1.
    10030    2    1    2    0    0  0.00000000000E+00  0.00000000000E+00  0.11343121570E+04  0.31969620293E+04  0.29889633901E+04 0.  0.
        2    1    3    3  502    0 -0.53222577571E+03  0.11386462637E+04 -0.29762221199E+03  0.12916495543E+04  0.25500000920E-02 0. -1.
       -2    1    3    3    0  502  0.53222577571E+03 -0.11386462637E+04  0.14319343690E+04  0.19053124750E+04  0.25500000920E-02 0.  1.
</event>
<event>
 5   0  0.3113328E-06  0.2993909E+04  0.7818609E-02  0.8245472E-01
       -2   -1    0    0    0  501  0.00000000000E+00  0.00000000000E+00  0.81927480641E+03  0.81927480642E+03  0.25500000920E-02 0. -1.
        2   -1    0    0  501    0  0.00000000000E+00  0.00000000000E+00 -0.27351909349E+04  0.27351909349E+04  0.25500000920E-02 0.  1.
    10030    2    1    2    0    0  0.00000000000E+00  0.00000000000E+00 -0.19159161285E+04  0.35544657413E+04  0.29939091661E+04 0.  0.
        1    1    3    3  502    0 -0.96857689413E+03 -0.16577800543E+03  0.38274712355E+03  0.10545704849E+04  0.50400001928E-02 0. -1.
       -1    1    3    3    0  502  0.96857689413E+03  0.16577800543E+03 -0.22986632520E+04  0.24998952564E+04  0.50400001928E-02 0.  1.
</event>
<event>
 5   0  0.2948711E-06  0.3074735E+04  0.7818609E-02  0.8222706E-01
        2   -1    0    0  501    0  0.00000000000E+00  0.00000000000E+00  0.28221760147E+04  0.28221760147E+04  0.25500000920E-02 0.  1.
       -2   -1    0    0    0  501  0.00000000000E+00  0.00000000000E+00 -0.83747384503E+03  0.83747384504E+03  0.25500000920E-02 0. -1.
    10030    2    1    2    0    0  0.00000000000E+00  0.00000000000E+00  0.19847021697E+04  0.36596498597E+04  0.30747348493E+04 0.  0.
        5    1    3    3  502    0 -0.39600314888E+03  0.14754260874E+04  0.11977339148E+04  0.19412081944E+04  0.46999998093E+01 0.  1.
       -5    1    3    3    0  502  0.39600314888E+03 -0.14754260874E+04  0.78696825484E+03  0.17184416654E+04  0.46999998093E+01 0. -1.
</event>
<event>
 5   0  0.1054384E-06  0.2694682E+04  0.7818609E-02  0.8336732E-01
       -1   -1    0    0    0  501  0.00000000000E+00  0.00000000000E+00  0.11838303006E+04  0.11838303006E+04  0.50400001928E-02 0. -1.
        1   -1    0    0  501    0  0.00000000000E+00  0.00000000000E+00 -0.15334361621E+04  0.15334361622E+04  0.50400001928E-02 0.  1.
    10030    2    1    2    0    0  0.00000000000E+00  0.00000000000E+00 -0.34960586157E+03  0.27172664627E+04  0.26946823136E+04 0.  0.
        2    1    3    3  502    0 -0.10467185821E+04  0.47506534991E+03  0.53395429704E+03  0.12674439113E+04  0.25500000920E-02 0. -1.
       -2    1    3    3    0  502  0.10467185821E+04 -0.47506534991E+03 -0.88356015861E+03  0.14498225515E+04  0.25500000920E-02 0.  1.
</event>
<event>
 5   0  0.1091076E-06  0.3340367E+04  0.7818609E-02  0.8152699E-01
       -1   -1    0    0    0  501  0.00000000000E+00  0.00000000000E+00  0.12018777418E+04  0.12018777418E+04  0.50400001928E-02 0. -1.
        1   -1    0    0  501    0  0.00000000000E+00  0.00000000000E+00 -0.23209628917E+04  0.23209628917E+04  0.50400001928E-02 0.  1.
    10030    2    1    2    0    0  0.00000000000E+00  0.00000000000E+00 -0.11190851500E+04  0.35228406335E+04  0.33403674284E+04 0.  0.
        3    1    3    3  502    0  0.16225534799E+04  0.22798014769E+03 -0.21803418590E+03  0.16529348624E+04  0.10100000352E+00 0. -1.
       -3    1    3    3    0  502 -0.16225534799E+04 -0.22798014769E+03 -0.90105096406E+03  0.18699057711E+04  0.10100000352E+00 0.  1.
</event>
<event>
 5   0  0.1091075E-06  0.2990379E+04  0.7818609E-02  0.8246483E-01
        1   -1    0    0  501    0  0.00000000000E+00  0.00000000000E+00  0.22829290037E+04  0.22829290037E+04  0.50400001928E-02 0.  1.
       -1   -1    0    0    0  501  0.00000000000E+00  0.00000000000E+00 -0.97926477315E+03  0.97926477316E+03  0.50400001928E-02 0. -1.
    10030    2    1    2    0    0  0.00000000000E+00  0.00000000000E+00  0.13036642306E+04  0.32621937769E+04  0.29903792087E+04 0.  0.
        1    1    3    3  502    0  0.67693426558E+01  0.17453079683E+03 -0.96809759509E+03  0.98372749107E+03  0.50400001928E-02 0. -1.
       -1    1    3    3    0  502 -0.67693426558E+01 -0.17453079683E+03  0.22717618257E+04  0.22784662858E+04  0.50400001928E-02 0.  1.
</event>
<event>
 5   0  0.1054384E-06  0.3043309E+04  0.7818609E-02  0.8231471E-01
        1   -1    0    0  501    0  0.00000000000E+00  0.00000000000E+00  0.14388150717E+04  0.14388150717E+04  0.50400001928E-02 0.  1.
       -1   -1    0    0    0  501  0.00000000000E+00  0.00000000000E+00 -0.16092631133E+04  0.16092631133E+04  0.50400001928E-02 0. -1.
    10030    2    1    2    0    0  0.00000000000E+00  0.00000000000E+00 -0.17044804159E+03  0.30480781851E+04  0.30433087401E+04 0.  0.
        2    1    3    3  502    0 -0.33896933824E+03  0.17705270953E+03  0.13898992031E+04  0.14415504393E+04  0.25500000920E-02 0.  1.
       -2    1    3    3    0  502  0.33896933824E+03 -0.17705270953E+03 -0.15603472447E+04  0.16065277458E+04  0.25500000920E-02 0. -1.
</event>
<event>
 5   0  0.2985941E-06  0.2966447E+04  0.7818609E-02  0.8253378E-01
        2   -1    0    0  501    0  0.00000000000E+00  0.00000000000E+00  0.23057533529E+04  0.23057533529E+04  0.25500000920E-02 0. -1.
       -2   -1    0    0    0  501  0.00000000000E+00  0.00000000000E+00 -0.95411421361E+03  0.95411421362E+03  0.25500000920E-02 0.  1.
    10030    2    1    2    0    0  0.00000000000E+00  0.00000000000E+00  0.13516391392E+04  0.32598675665E+04  0.29664470648E+04 0.  0.
        3    1    3    3  502    0 -0.88868048873E+02 -0.79107876462E+03  0.20511078524E+04  0.22001696695E+04  0.10100000352E+00 0. -1.
       -3    1    3    3    0  502  0.88868048873E+02  0.79107876462E+03 -0.69946871320E+03  0.10596978970E+04  0.10100000352E+00 0.  1.
</event>
<event>
 5   0  0.1054384E-06  0.2975575E+04  0.7818609E-02  0.8250740E-01
        1   -1    0    0  501    0  0.00000000000E+00  0.00000000000E+00  0.14996999093E+04  0.14996999093E+04  0.50400001928E-02 0. -1.
       -1   -1    0    0    0  501  0.00000000000E+00  0.00000000000E+00 -0.14759696689E+04  0.14759696689E+04  0.50400001928E-02 0.  1.
    10030    2    1    2    0    0  0.00000000000E+00  0.00000000000E+00  0.23730240453E+02  0.29756695782E+04  0.29755749553E+04 0.  0.
        2    1    3    3  502    0  0.14511887730E+04  0.32792857641E+03  0.68080212347E+01  0.14877944600E+04  0.25500000920E-02 0. -1.
       -2    1    3    3    0  502 -0.14511887730E+04 -0.32792857641E+03  0.16922219218E+02  0.14878751182E+04  0.25500000920E-02 0.  1.
</event>
<event>
 5   0  0.2948711E-06  0.2998764E+04  0.7818609E-02  0.8244084E-01
       -2   -1    0    0    0  501  0.00000000000E+00  0.00000000000E+00  0.14455988582E+04  0.14455988582E+04  0.25500000920E-02 0.  1.
        2   -1    0    0  501    0  0.00000000000E+00  0.00000000000E+00 -0.15551656622E+04  0.15551656623E+04  0.25500000920E-02 0. -1.
    10030    2    1    2    0    0  0.00000000000E+00  0.00000000000E+00 -0.10956680406E+03  0.30007645204E+04  0.29987635490E+04 0.  0.
        5    1    3    3  502    0 -0.12502686314E+04 -0.41949945398E+03  0.65911549767E+03  0.14743156961E+04  0.46999998093E+01 0. -1.
       -5    1    3    3    0  502  0.12502686314E+04  0.41949945398E+03 -0.76868230173E+03  0.15264488244E+04  0.46999998093E+01 0.  1.
</event>
<event>
 5   0  0.2970915E-06  0.3038554E+04  0.7818609E-02  0.8232807E-01
        2   -1    0    0  501    0  0.00000000000E+00  0.00000000000E+00  0.20391066677E+04  0.20391066677E+04  0.25500000920E-02 0. -1.
       -2   -1    0    0    0  501  0.00000000000E+00  0.00000000000E+00 -0.11319672209E+04  0.11319672209E+04  0.25500000920E-02 0.  1.
    10030    2    1    2    0    0  0.00000000000E+00  0.00000000000E+00  0.90713944677E+03  0.31710738886E+04  0.30385535426E+04 0.  0.
        4    1    3    3  502    0 -0.57190616667E+03 -0.14004783793E+04  0.60035951980E+03  0.16275286542E+04  0.12699999809E+01 0. -1.
       -4    1    3    3    0  502  0.57190616667E+03  0.14004783793E+04  0.30677992698E+03  0.15435452344E+04  0.12699999809E+01 0.  1.
</event>
<event>
 5   0  0.1113245E-06  0.3026174E+04  0.7818609E-02  0.8236296E-01
       -1   -1    0    0    0  501  0.00000000000E+00  0.00000000000E+00  0.15424594461E+04  0.15424594461E+04  0.50400001928E-02 0. -1.
        1   -1    0    0  501    0  0.00000000000E+00  0.00000000000E+00 -0.14842737281E+04  0.14842737281E+04  0.50400001928E-02 0.  1.
    10030    2    1    2    0    0  0.00000000000E+00  0.00000000000E+00  0.58185718041E+02  0.30267331742E+04  0.30261738434E+04 0.  0.
        5    1    3    3  502    0 -0.39438380667E+03 -0.13773300991E+04  0.51583787435E+03  0.15227237411E+04  0.46999998093E+01 0. -1.
       -5    1    3    3    0  502  0.39438380667E+03  0.13773300991E+04 -0.45765215631E+03  0.15040094332E+04  0.46999998093E+01 0.  1.
</event>
<event>
 5   0  0.1091076E-06  0.3035300E+04  0.7818609E-02  0.8233722E-01
       -1   -1    0    0    0  501  0.00000000000E+00  0.00000000000E+00  0.12874240105E+04  0.12874240105E+04  0.50400001928E-02 0.  1.
        1   -1    0    0  501    0  0.00000000000E+00  0.00000000000E+00 -0.17890460965E+04  0.17890460965E+04  0.50400001928E-02 0. -1.
    10030    2    1    2    0    0  0.00000000000E+00  0.00000000000E+00 -0.50162208595E+03  0.30764701070E+04  0.30352995902E+04 0.  0.
        3    1    3    3  502    0 -0.86001402968E+03  0.91539470405E+03  0.61261768534E+03  0.13974519792E+04  0.10100000352E+00 0.  1.
       -3    1    3    3    0  502  0.86001402968E+03 -0.91539470405E+03 -0.11142397713E+04  0.16790181278E+04  0.10100000352E+00 0. -1.
</event>
<event>
 5   0  0.1091075E-06  0.2980656E+04  0.7818609E-02  0.8249276E-01
       -1   -1    0    0    0  501  0.00000000000E+00  0.00000000000E+00  0.10305039018E+04  0.10305039018E+04  0.50400001928E-02 0. -1.
        1   -1    0    0  501    0  0.00000000000E+00  0.00000000000E+00 -0.21553317803E+04  0.21553317804E+04  0.50400001928E-02 0.  1.
    10030    2    1    2    0    0  0.00000000000E+00  0.00000000000E+00 -0.11248278785E+04  0.31858356822E+04  0.29806561757E+04 0.  0.
        1    1    3    3  502    0 -0.12808390233E+04 -0.41423691843E+03 -0.12459157717E+04  0.18342428788E+04  0.50400001928E-02 0.  1.
       -1    1    3    3    0  502  0.12808390233E+04  0.41423691843E+03  0.12108789314E+03  0.13515928034E+04  0.50400001928E-02 0. -1.
</event>
<event>
 5   0  0.1113245E-06  0.3004866E+04  0.7818609E-02  0.8242343E-01
       -1   -1    0    0    0  501  0.00000000000E+00  0.00000000000E+00  0.10753863116E+04  0.10753863116E+04  0.50400001928E-02 0. -1.
        1   -1    0    0  501    0  0.00000000000E+00  0.00000000000E+00 -0.20990639235E+04  0.20990639235E+04  0.50400001928E-02 0.  1.
    10030    2    1    2    0    0  0.00000000000E+00  0.00000000000E+00 -0.10236776119E+04  0.31744502351E+04  0.30048657943E+04 0.  0.
        5    1    3    3  502    0 -0.92693806567E+03 -0.60718487741E+03  0.56001225575E+03  0.12415810362E+04  0.46999998093E+01 0. -1.
       -5    1    3    3    0  502  0.92693806567E+03  0.60718487741E+03 -0.15836898677E+04  0.19328691989E+04  0.46999998093E+01 0.  1.
</event>
<event>
 5   0  0.2862033E-06  0.2981831E+04  0.7818609E-02  0.8248938E-01
       -2   -1    0    0    0  501  0.00000000000E+00  0.00000000000E+00  0.11960409053E+04  0.11960409053E+04  0.25500000920E-02 0.  1.
        2   -1    0    0  501    0  0.00000000000E+00  0.00000000000E+00 -0.18584896566E+04  0.18584896566E+04  0.25500000920E-02 0. -1.
    10030    2    1    2    0    0  0.00000000000E+00  0.00000000000E+00 -0.66244875128E+03  0.30545305619E+04  0.29818314180E+04 0.  0.
        2    1    3    3  502    0  0.10346251421E+04 -0.13546082066E+03  0.75964768734E+03  0.12906833181E+04  0.25500000920E-02 0.  1.
       -2    1    3    3    0  502 -0.10346251421E+04  0.13546082066E+03 -0.14220964386E+04  0.17638472438E+04  0.25500000920E-02 0. -1.
</event>
<event>
 5   0  0.1054384E-06  0.2895467E+04  0.7818609E-02  0.8274227E-01
        1   -1    0    0  501    0  0.00000000000E+00  0.00000000000E+00  0.14538962525E+04  0.14538962525E+04  0.50400001928E-02 0.  1.
       -1   -1    0    0    0  501  0.00000000000E+00  0.00000000000E+00 -0.14415971947E+04  0.14415971947E+04  0.50400001928E-02 0. -1.
    10030    2    1    2    0    0  0.00000000000E+00  0.00000000000E+00  0.12299057827E+02  0.28954934472E+04  0.28954673260E+04 0.  0.
        2    1    3    3  502    0 -0.53180345699E+03  0.35706949418E+03  0.13044752322E+04  0.14532615635E+04  0.25500000920E-02 0.  1.
       -2    1    3    3    0  502  0.53180345699E+03 -0.35706949418E+03 -0.12921761744E+04  0.14422318837E+04  0.25500000920E-02 0. -1.
</event>
<event>
 5   0  0.2948711E-06  0.2994047E+04  0.7818609E-02  0.8245433E-01
        2   -1    0    0  501    0  0.00000000000E+00  0.00000000000E+00  0.15725800905E+04  0.15725800905E+04  0.25500000920E-02 0.  1.
       -2   -1    0    0    0  501  0.00000000000E+00  0.00000000000E+00 -0.14250970060E+04  0.14250970060E+04  0.25500000920E-02 0. -1.
    10030    2    1    2    0    0  0.00000000000E+00  0.00000000000E+00  0.14748308451E+03  0.29976770966E+04  0.29940468792E+04 0.  0.
        5    1    3    3  502    0 -0.13274907227E+04 -0.29023373469E+03  0.70266704861E+03  0.15297811317E+04  0.46999998093E+01 0.  1.
       -5    1    3    3    0  502  0.13274907227E+04  0.29023373469E+03 -0.55518396410E+03  0.14678959649E+04  0.46999998093E+01 0. -1.
</event>
<event>
 5   0  0.1091075E-06  0.3020287E+04  0.7818609E-02  0.8237962E-01
       -1   -1    0    0    0  501  0.00000000000E+00  0.00000000000E+00  0.13347873735E+04  0.13347873735E+04  0.50400001928E-02 0.  1.
        1   -1    0    0  501    0  0.00000000000E+00  0.00000000000E+00 -0.17085363840E+04  0.17085363840E+04  0.50400001928E-02 0. -1.
    10030    2    1    2    0    0  0.00000000000E+00  0.00000000000E+00 -0.37374901051E+03  0.30433237574E+04  0.30202866039E+04 0.  0.
        1    1    3    3  502    0 -0.45634121612E+02  0.33666157479E+03  0.12957798341E+04  0.13395778691E+04  0.50400001928E-02 0.  1.
       -1    1    3    3    0  502  0.45634121612E+02 -0.33666157479E+03 -0.16695288446E+04  0.17037458883E+04  0.50400001928E-02 0. -1.
</event>
<event>
 5   0  0.2985941E-06  0.3005265E+04  0.7818609E-02  0.8242229E-01
       -2   -1    0    0    0  501  0.00000000000E+00  0.00000000000E+00  0.14122933256E+04  0.14122933256E+04  0.25500000920E-02 0. -1.
        2   -1    0    0  501    0  0.00000000000E+00  0.00000000000E+00 -0.15987500489E+04  0.15987500489E+04  0.25500000920E-02 0.  1.
    10030    2    1    2    0    0  0.00000000000E+00  0.00000000000E+00 -0.18645672333E+03  0.30110433745E+04  0.30052647293E+04 0.  0.
        3    1    3    3  502    0 -0.13258088939E+04  0.60043402002E+03  0.28113937720E+03  0.14823392308E+04  0.10100000352E+00 0. -1.
       -3    1    3    3    0  502  0.13258088939E+04 -0.60043402002E+03 -0.46759610053E+03  0.15287041437E+04  0.10100000352E+00 0.  1.
</event>
<event>
 5   0  0.2948711E-06  0.2997202E+04  0.7818609E-02  0.8244530E-01
        2   -1    0    0  501    0  0.00000000000E+00  0.00000000000E+00  0.14164433357E+04  0.14164433357E+04  0.25500000920E-02 0.  1.
       -2   -1    0    0    0  501  0.00000000000E+00  0.00000000000E+00 -0.15855237805E+04  0.15855237805E+04  0.25500000920E-02 0. -1.
    10030    2    1    2    0    0  0.00000000000E+00  0.00000000000E+00 -0.16908044478E+03  0.30019671161E+04  0.29972017566E+04 0.  0.
        5    1    3    3  502    0  0.86648690989E+03  0.66042255074E+03  0.94608803108E+03  0.14429352595E+04  0.46999998093E+01 0.  1.
       -5    1    3    3    0  502 -0.86648690989E+03 -0.66042255074E+03 -0.11151684759E+04  0.15590318567E+04  0.46999998093E+01 0. -1.
</event>
<event>
 5   0  0.2948711E-06  0.3002399E+04  0.7818609E-02  0.8243046E-01
        2   -1    0    0  501    0  0.00000000000E+00  0.00000000000E+00  0.12569669612E+04  0.12569669612E+04  0.25500000920E-02 0. -1.
       -2   -1    0    0    0  501  0.00000000000E+00  0.00000000000E+00 -0.17928876787E+04  0.17928876787E+04  0.25500000920E-02 0.  1.
    10030    2    1    2    0    0  0.00000000000E+00  0.00000000000E+00 -0.53592071753E+03  0.30498546399E+04  0.30023994253E+04 0.  0.
        5    1    3    3  502    0 -0.12194436138E+04  0.26010375253E+03  0.58124463095E+03  0.13757049467E+04  0.46999998093E+01 0. -1.
       -5    1    3    3    0  502  0.12194436138E+04 -0.26010375253E+03 -0.11171653485E+04  0.16741496932E+04  0.46999998093E+01 0.  1.
</event>
<event>
 5   0  0.2985941E-06  0.2964514E+04  0.7818609E-02  0.8253937E-01
       -2   -1    0    0    0  501  0.00000000000E+00  0.00000000000E+00  0.89470126353E+03  0.89470126353E+03  0.25500000920E-02 0.  1.
        2   -1    0    0  501    0  0.00000000000E+00  0.00000000000E+00 -0.24556634016E+04  0.24556634016E+04  0.25500000920E-02 0. -1.
    10030    2    1    2    0    0  0.00000000000E+00  0.00000000000E+00 -0.15609621381E+04  0.33503646651E+04  0.29645135508E+04 0.  0.
        3    1    3    3  502    0  0.42272166063E+03 -0.10019136457E+04 -0.19188358408E+04  0.22055510763E+04  0.10100000352E+00 0. -1.
       -3    1    3    3    0  502 -0.42272166063E+03  0.10019136457E+04  0.35787370275E+03  0.11448135888E+04  0.10100000352E+00 0.  1.
</event>
<event>
 5   0  0.1091075E-06  0.3036768E+04  0.7818609E-02  0.8233309E-01
        1   -1    0    0  501    0  0.00000000000E+00  0.00000000000E+00  0.16539373379E+04  0.16539373379E+04  0.50400001928E-02 0.  1.
       -1   -1    0    0    0  501  0.00000000000E+00  0.00000000000E+00 -0.13939400664E+04  0.13939400664E+04  0.50400001928E-02 0. -1.
    10030    2    1    2    0    0  0.00000000000E+00  0.00000000000E+00  0.25999727152E+03  0.30478774043E+04  0.30367677044E+04 0.  0.
        1    1    3    3  502    0 -0.94918043210E+03  0.79998914323E+03 -0.74759340231E+03  0.14490762634E+04  0.50400001928E-02 0. -1.
       -1    1    3    3    0  502  0.94918043210E+03 -0.79998914323E+03  0.10075906738E+04  0.15988011408E+04  0.50400001928E-02 0.  1.
</event>
<event>
 5   0  0.1097402E-06  0.3006015E+04  0.7818609E-02  0.8242015E-01
        1   -1    0    0  501    0  0.00000000000E+00  0.00000000000E+00  0.12994570450E+04  0.12994570450E+04  0.50400001928E-02 0. -1.
       -1   -1    0    0    0  501  0.00000000000E+00  0.00000000000E+00 -0.17384432133E+04  0.17384432133E+04  0.50400001928E-02 0.  1.
    10030    2    1    2    0    0  0.00000000000E+00  0.00000000000E+00 -0.43898616827E+03  0.30379002583E+04  0.30060154896E+04 0.  0.
        4    1    3    3  502    0 -0.14667695825E+04 -0.64963542100E+02 -0.54445846841E+03  0.15659086521E+04  0.12699999809E+01 0.  1.
       -4    1    3    3    0  502  0.14667695825E+04  0.64963542100E+02  0.10547230014E+03  0.14719916063E+04  0.12699999809E+01 0. -1.
</event>
<event>
 5   0  0.1113245E-06  0.3012412E+04  0.7818609E-02  0.8240195E-01
       -1   -1    0    0    0  501  0.00000000000E+00  0.00000000000E+00  0.15089247815E+04  0.15089247815E+04  0.50400001928E-02 0. -1.
        1   -1    0    0  501    0  0.00000000000E+00  0.00000000000E+00 -0.15034920143E+04  0.15034920143E+04  0.50400001928E-02 0.  1.
    10030    2    1    2    0    0  0.00000000000E+00  0.00000000000E+00  0.54327671882E+01  0.30124167958E+04  0.30124118970E+04 0.  0.
        5    1    3    3  502    0 -0.28139325398E+03  0.70576198212E+03 -0.12978056775E+04  0.15038629610E+04  0.46999998093E+01 0.  1.
       -5    1    3    3    0  502  0.28139325398E+03 -0.70576198212E+03  0.13032384447E+04  0.15085538348E+04  0.46999998093E+01 0. -1.
</event>
<event>
 5   0  0.2862033E-06  0.3006399E+04  0.7818609E-02  0.8241906E-01
        2   -1    0    0  501    0  0.00000000000E+00  0.00000000000E+00  0.20580455629E+04  0.20580455629E+04  0.25500000920E-02 0.  1.
       -2   -1    0    0    0  501  0.00000000000E+00  0.00000000000E+00 -0.10979392900E+04  0.10979392900E+04  0.25500000920E-02 0. -1.
    10030    2    1    2    0    0  0.00000000000E+00  0.00000000000E+00  0.96010627289E+03  0.31559848529E+04  0.30063992311E+04 0.  0.
        2    1    3    3  502    0 -0.56468943899E+03 -0.13482764122E+04  0.84804551366E+03  0.16899422001E+04  0.25500000920E-02 0. -1.
       -2    1    3    3    0  502  0.56468943899E+03  0.13482764122E+04  0.11206075923E+03  0.14660426529E+04  0.25500000920E-02 0.  1.
</event>
<event>
 5   0  0.1091076E-06  0.2998680E+04  0.7818609E-02  0.8244108E-01
       -1   -1    0    0    0  501  0.00000000000E+00  0.00000000000E+00  0.16662785794E+04  0.16662785794E+04  0.50400001928E-02 0.  1.
        1   -1    0    0  501    0  0.00000000000E+00  0.00000000000E+00 -0.13491259639E+04  0.13491259639E+04  0.50400001928E-02 0. -1.
    10030    2    1    2    0    0  0.00000000000E+00  0.00000000000E+00  0.31715261557E+03  0.30154045433E+04  0.29986795058E+04 0.  0.
        3    1    3    3  502    0  0.89771254068E+03 -0.97129177764E+03  0.86871918873E+03  0.15823933020E+04  0.10100000352E+00 0.  1.
       -3    1    3    3    0  502 -0.89771254068E+03  0.97129177764E+03 -0.55156657316E+03  0.14330112413E+04  0.10100000352E+00 0. -1.
</event>
<event>
 5   0  0.1097402E-06  0.2982328E+04  0.7818609E-02  0.8248795E-01
        1   -1    0    0  501    0  0.00000000000E+00  0.00000000000E+00  0.24799782004E+04  0.24799782004E+04  0.50400001928E-02 0.  1.
       -1   -1    0    0    0  501  0.00000000000E+00  0.00000000000E+00 -0.89660876828E+03  0.89660876830E+03  0.50400001928E-02 0. -1.
    10030    2    1    2    0    0  0.00000000000E+00  0.00000000000E+00  0.15833694321E+04  0.33765869687E+04  0.29823280836E+04 0.  0.
        4    1    3    3  502    0  0.11050373768E+04  0.34187279930E+03 -0.27377588703E+03  0.11886713020E+04  0.12699999809E+01 0. -1.
       -4    1    3    3    0  502 -0.11050373768E+04 -0.34187279930E+03  0.18571453191E+04  0.21879156666E+04  0.12699999809E+01 0.  1.
</event>
<event>
 5   0  0.2970915E-06  0.2997665E+04  0.7818609E-02  0.8244398E-01
        2   -1    0    0  501    0  0.00000000000E+00  0.00000000000E+00  0.15715499257E+04  0.15715499257E+04  0.25500000920E-02 0. -1.
       -2   -1    0    0    0  501  0.00000000000E+00  0.00000000000E+00 -0.14294796320E+04  0.14294796320E+04  0.25500000920E-02 0.  1.
    10030    2    1    2    0    0  0.00000000000E+00  0.00000000000E+00  0.14207029372E+03  0.30010295577E+04  0.29976648308E+04 0.  0.
        4    1    3    3  502    0  0.14120103787E+04  0.34873325314E+03 -0.29146077926E+03  0.14833540340E+04  0.12699999809E+01 0.  1.
       -4    1    3    3    0  502 -0.14120103787E+04 -0.34873325314E+03  0.43353107299E+03  0.15176755238E+04  0.12699999809E+01 0. -1.
</event>
<event>
 5   0  0.1097402E-06  0.3218075E+04  0.7818609E-02  0.8184060E-01
        1   -1    0    0  501    0  0.00000000000E+00  0.00000000000E+00  0.23868850275E+04  0.23868850275E+04  0.50400001928E-02 0. -1.
       -1   -1    0    0    0  501  0.00000000000E+00  0.00000000000E+00 -0.10846780336E+04  0.10846780336E+04  0.50400001928E-02 0.  1.
    10030    2    1    2    0    0  0.00000000000E+00  0.00000000000E+00  0.13022069939E+04  0.34715630611E+04  0.32180750507E+04 0.  0.
        4    1    3    3  502    0  0.13689233887E+04 -0.81347058191E+03  0.90019081426E+03  0.18292158830E+04  0.12699999809E+01 0.  1.
       -4    1    3    3    0  502 -0.13689233887E+04  0.81347058191E+03  0.40201617962E+03  0.16423471781E+04  0.12699999809E+01 0. -1.
</event>
<event>
 5   0  0.1097402E-06  0.2968880E+04  0.7818609E-02  0.8252674E-01
       -1   -1    0    0    0  501  0.00000000000E+00  0.00000000000E+00  0.10686785999E+04  0.10686785999E+04  0.50400001928E-02 0. -1.
        1   -1    0    0  501    0  0.00000000000E+00  0.00000000000E+00 -0.20619505483E+04  0.20619505483E+04  0.50400001928E-02 0.  1.
    10030    2    1    2    0    0  0.00000000000E+00  0.00000000000E+00 -0.99327194842E+03  0.31306291483E+04  0.29688802099E+04 0.  0.
        4    1    3    3  502    0 -0.12326263693E+04 -0.21479137531E+03 -0.13389401048E+04  0.18325570437E+04  0.12699999809E+01 0.  1.
       -4    1    3    3    0  502  0.12326263693E+04  0.21479137531E+03  0.34566815641E+03  0.12980721045E+04  0.12699999809E+01 0. -1.
</event>
<event>
 5   0  0.1091075E-06  0.3020930E+04  0.7818609E-02  0.8237779E-01
       -1   -1    0    0    0  501  0.00000000000E+00  0.00000000000E+00  0.13956157149E+04  0.13956157149E+04  0.50400001928E-02 0.  1.
        1   -1    0    0  501    0  0.00000000000E+00  0.00000000000E+00 -0.16347657971E+04  0.16347657971E+04  0.50400001928E-02 0. -1.
    10030    2    1    2    0    0  0.00000000000E+00  0.00000000000E+00 -0.23915008217E+03  0.30303815120E+04  0.30209302121E+04 0.  0.
        1    1    3    3  502    0 -0.21462811159E+03 -0.76117433174E+03 -0.14104784970E+04  0.16170656078E+04  0.50400001928E-02 0. -1.
       -1    1    3    3    0  502  0.21462811159E+03  0.76117433174E+03  0.11713284148E+04  0.14133159041E+04  0.50400001928E-02 0.  1.
</event>
<event>
 5   0  0.3113328E-06  0.3001618E+04  0.7818609E-02  0.8243269E-01
       -2   -1    0    0    0  501  0.00000000000E+00  0.00000000000E+00  0.91177919963E+03  0.91177919963E+03  0.25500000920E-02 0.  1.
        2   -1    0    0  501    0  0.00000000000E+00  0.00000000000E+00 -0.24703649519E+04  0.24703649519E+04  0.25500000920E-02 0. -1.
    10030    2    1    2    0    0  0.00000000000E+00  0.00000000000E+00 -0.15585857522E+04  0.33821441515E+04  0.30016178162E+04 0.  0.
        1    1    3    3  502    0 -0.80576340896E+03 -0.45561769666E+03 -0.21104058010E+04  0.23044857998E+04  0.50400001928E-02 0. -1.
       -1    1    3    3    0  502  0.80576340896E+03  0.45561769666E+03  0.55182004874E+03  0.10776583517E+04  0.50400001928E-02 0.  1.
</event>
<event>
 5   0  0.1091076E-06  0.2983898E+04  0.7818609E-02  0.8248344E-01
       -1   -1    0    0    0  501  0.00000000000E+00  0.00000000000E+00  0.17545054053E+04  0.17545054053E+04  0.50400001928E-02 0. -1.
        1   -1    0    0  501    0  0.00000000000E+00  0.00000000000E+00 -0.12686831157E+04  0.12686831157E+04  0.50400001928E-02 0.  1.
    10030    2    1    2    0    0  0.00000000000E+00  0.00000000000E+00  0.48582228958E+03  0.30231885210E+04  0.29838977087E+04 0.  0.
        3    1    3    3  502    0 -0.16358382353E+03  0.45804593180E+03  0.16719249394E+04  0.17412348365E+04  0.10100000352E+00 0. -1.
       -3    1    3    3    0  502  0.16358382353E+03 -0.45804593180E+03 -0.11861026498E+04  0.12819536844E+04  0.10100000352E+00 0.  1.
</event>
<event>
 5   0  0.2862033E-06  0.3002634E+04  0.7818609E-02  0.8242979E-01
       -2   -1    0    0    0  501  0.00000000000E+00  0.00000000000E+00  0.78070349031E+03  0.78070349031E+03  0.25500000920E-02 0. -1.
        2   -1    0    0  501    0  0.00000000000E+00  0.00000000000E+00 -0.28870799449E+04  0.28870799449E+04  0.25500000920E-02 0.  1.
    10030    2    1    2    0    0  0.00000000000E+00  0.00000000000E+00 -0.21063764546E+04  0.36677834352E+04  0.30026344365E+04 0.  0.
        2    1    3    3  502    0 -0.13020117720E+04 -0.63216471779E+03 -0.56597631987E+03  0.15540901131E+04  0.25500000920E-02 0. -1.
       -2    1    3    3    0  502  0.13020117720E+04  0.63216471779E+03 -0.15404001347E+04  0.21136933221E+04  0.25500000920E-02 0.  1.
</event>
<event>
 5   0  0.2985941E-06  0.3011469E+04  0.7818609E-02  0.8240463E-01
        2   -1    0    0  501    0  0.00000000000E+00  0.00000000000E+00  0.14048753971E+04  0.14048753971E+04  0.25500000920E-02 0.  1.
       -2   -1    0    0    0  501  0.00000000000E+00  0.00000000000E+00 -0.16138349043E+04  0.16138349043E+04  0.25500000920E-02 0. -1.
    10030    2    1    2    0    0  0.00000000000E+00  0.00000000000E+00 -0.20895950719E+03  0.30187103014E+04  0.30114693769E+04 0.  0.
        3    1    3    3  502    0  0.57002095460E+03  0.45343262352E+02  0.12918005754E+04  0.14127026003E+04  0.10100000352E+00 0.  1.
       -3    1    3    3    0  502 -0.57002095460E+03 -0.45343262352E+02 -0.15007600826E+04  0.16060077011E+04  0.10100000352E+00 0. -1.
</event>
<event>
 5   0  0.1113245E-06  0.3000661E+04  0.7818609E-02  0.8243542E-01
       -1   -1    0    0    0  501  0.00000000000E+00  0.00000000000E+00  0.17117551972E+04  0.17117551972E+04  0.50400001928E-02 0.  1.
        1   -1    0    0  501    0  0.00000000000E+00  0.00000000000E+00 -0.13150193941E+04  0.13150193942E+04  0.50400001928E-02 0. -1.
    10030    2    1    2    0    0  0.00000000000E+00  0.00000000000E+00  0.39673580305E+03  0.30267745914E+04  0.30006607821E+04 0.  0.
        5    1    3    3  502    0 -0.66397433370E+03 -0.13005207456E+04 -0.14923676219E+03  0.14678248624E+04  0.46999998093E+01 0.  1.
       -5    1    3    3    0  502  0.66397433370E+03  0.13005207456E+04  0.54597256524E+03  0.15589497290E+04  0.46999998093E+01 0. -1.
</event>
<event>
 5   0  0.2970915E-06  0.3000328E+04  0.7818609E-02  0.8243637E-01
        2   -1    0    0  501    0  0.00000000000E+00  0.00000000000E+00  0.29239005250E+04  0.29239005250E+04  0.25500000920E-02 0.  1.
       -2   -1    0    0    0  501  0.00000000000E+00  0.00000000000E+00 -0.76968820023E+03  0.76968820024E+03  0.25500000920E-02 0. -1.
    10030    2    1    2    0    0  0.00000000000E+00  0.00000000000E+00  0.21542123248E+04  0.36935887252E+04  0.30003278039E+04 0.  0.
        4    1    3    3  502    0  0.64689779757E+03  0.54232598766E+02 -0.58782105082E+03  0.87575860598E+03  0.12699999809E+01 0. -1.
       -4    1    3    3    0  502 -0.64689779757E+03 -0.54232598766E+02  0.27420333756E+04  0.28178301192E+04  0.12699999809E+01 0.  1.
</event>
<event>
 5   0  0.2970915E-06  0.2689537E+04  0.7818609E-02  0.8338408E-01
       -2   -1    0    0    0  501  0.00000000000E+00  0.00000000000E+00  0.14978656515E+04  0.14978656515E+04  0.25500000920E-02 0. -1.
        2   -1    0    0  501    0  0.00000000000E+00  0.00000000000E+00 -0.12073192101E+04  0.12073192101E+04  0.25500000920E-02 0.  1.
    10030    2    1    2    0    0  0.00000000000E+00  0.00000000000E+00  0.29054644144E+03  0.27051848616E+04  0.26895367447E+04 0.  0.
        4    1    3    3  502    0 -0.48208752562E+03 -0.93110610927E+03 -0.70166710417E+03  0.12616280383E+04  0.12699999809E+01 0.  1.
       -4    1    3    3    0  502  0.48208752562E+03  0.93110610927E+03  0.99221354561E+03  0.14435568233E+04  0.12699999809E+01 0. -1.
</event>
<event>
 5   0  0.2862033E-06  0.3056812E+04  0.7818609E-02  0.8227691E-01
        2   -1    0    0  501    0  0.00000000000E+00  0.00000000000E+00  0.16507140541E+04  0.16507140541E+04  0.25500000920E-02 0.  1.
       -2   -1    0    0    0  501  0.00000000000E+00  0.00000000000E+00 -0.14151606210E+04  0.14151606210E+04  0.25500000920E-02 0. -1.
    10030    2    1    2    0    0  0.00000000000E+00  0.00000000000E+00  0.23555343316E+03  0.30658746751E+04  0.30568124090E+04 0.  0.
        2    1    3    3  502    0  0.27365926276E+03 -0.14779177293E+04  0.39589885659E+03  0.15543056686E+04  0.25500000920E-02 0. -1.
       -2    1    3    3    0  502 -0.27365926276E+03  0.14779177293E+04 -0.16034542343E+03  0.15115690065E+04  0.25500000920E-02 0.  1.
</event>
<event>
 5   0  0.1113245E-06  0.2999238E+04  0.7818609E-02  0.8243949E-01
        1   -1    0    0  501    0  0.00000000000E+00  0.00000000000E+00  0.77087351141E+03  0.77087351143E+03  0.50400001928E-02 0. -1.
       -1   -1    0    0    0  501  0.00000000000E+00  0.00000000000E+00 -0.29172842616E+04  0.29172842616E+04  0.50400001928E-02 0.  1.
    10030    2    1    2    0    0  0.00000000000E+00  0.00000000000E+00 -0.21464107502E+04  0.36881577731E+04  0.29992380116E+04 0.  0.
        5    1    3    3  502    0 -0.32674205887E+03  0.13186668214E+04 -0.29237843423E+03  0.13896581586E+04  0.46999998093E+01 0. -1.
       -5    1    3    3    0  502  0.32674205887E+03 -0.13186668214E+04 -0.18540323160E+04  0.22984996145E+04  0.46999998093E+01 0.  1.
</event>
<event>
 5   0  0.2985941E-06  0.3013015E+04  0.7818609E-02  0.8240024E-01
        2   -1    0    0  501    0  0.00000000000E+00  0.00000000000E+00  0.19378018999E+04  0.19378018999E+04  0.25500000920E-02 0. -1.
       -2   -1    0    0    0  501  0.00000000000E+00  0.00000000000E+00 -0.11712061873E+04  0.11712061873E+04  0.25500000920E-02 0.  1.
    10030    2    1    2    0    0  0.00000000000E+00  0.00000000000E+00  0.76659571259E+03  0.31090080872E+04  0.30130154828E+04 0.  0.
        3    1    3    3  502    0 -0.54859736999E+03  0.94518712657E+03  0.14532657050E+04  0.18183286277E+04  0.10100000352E+00 0. -1.
       -3    1    3    3    0  502  0.54859736999E+03 -0.94518712657E+03 -0.68666999244E+03  0.12906794596E+04  0.10100000352E+00 0.  1.
</event>
<event>
 5   0  0.9749500E-07  0.3000963E+04  0.7818609E-02  0.8243456E-01
        3   -1    0    0  501    0  0.00000000000E+00  0.00000000000E+00  0.15707312341E+04  0.15707312374E+04  0.10100000352E+00 0. -1.
       -3   -1    0    0    0  501  0.00000000000E+00  0.00000000000E+00 -0.14333738234E+04  0.14333738270E+04  0.10100000352E+00 0.  1.
    10030    2    1    2    0    0  0.00000000000E+00  0.00000000000E+00  0.13735741070E+03  0.30041050644E+04  0.30009632086E+04 0.  0.
        5    1    3    3  502    0  0.14326015365E+02  0.13164533248E+04  0.78927146392E+03  0.15350003664E+04  0.46999998093E+01 0. -1.
       -5    1    3    3    0  502 -0.14326015365E+02 -0.13164533248E+04 -0.65191405322E+03  0.14691046980E+04  0.46999998093E+01 0.  1.
</event>
<event>
 5   0  0.1091076E-06  0.2992287E+04  0.7818609E-02  0.8245937E-01
       -1   -1    0    0    0  501  0.00000000000E+00  0.00000000000E+00  0.13029798206E+04  0.13029798206E+04  0.50400001928E-02 0.  1.
        1   -1    0    0  501    0  0.00000000000E+00  0.00000000000E+00 -0.17179435508E+04  0.17179435508E+04  0.50400001928E-02 0. -1.
    10030    2    1    2    0    0  0.00000000000E+00  0.00000000000E+00 -0.41496373020E+03  0.30209233714E+04  0.29922872721E+04 0.  0.
        3    1    3    3  502    0  0.39048029006E+03 -0.86070856528E+03  0.96342419233E+03  0.13496222715E+04  0.10100000352E+00 0.  1.
       -3    1    3    3    0  502 -0.39048029006E+03  0.86070856528E+03 -0.13783879225E+04  0.16713010999E+04  0.10100000352E+00 0. -1.
</event>
<event>
 5   0  0.2970915E-06  0.2974623E+04  0.7818609E-02  0.8251015E-01
        2   -1    0    0  501    0  0.00000000000E+00  0.00000000000E+00  0.21840129933E+04  0.21840129933E+04  0.25500000920E-02 0.  1.
       -2   -1    0    0    0  501  0.00000000000E+00  0.00000000000E+00 -0.10128579748E+04  0.10128579748E+04  0.25500000920E-02 0. -1.
    10030    2    1    2    0    0  0.00000000000E+00  0.00000000000E+00  0.11711550185E+04  0.31968709681E+04  0.29746226499E+04 0.  0.
        4    1    3    3  502    0 -0.14146586686E+04  0.43372983744E+03  0.74754470810E+03  0.16577712219E+04  0.12699999809E+01 0.  1.
       -4    1    3    3    0  502  0.14146586686E+04 -0.43372983744E+03  0.42361031042E+03  0.15390997462E+04  0.12699999809E+01 0. -1.
</event>
<event>
 5   0  0.1097402E-06  0.2997198E+04  0.7818609E-02  0.8244532E-01
        1   -1    0    0  501    0  0.00000000000E+00  0.00000000000E+00  0.26477809467E+04  0.26477809467E+04  0.50400001928E-02 0. -1.
       -1   -1    0    0    0  501  0.00000000000E+00  0.00000000000E+00 -0.84818131069E+03  0.84818131070E+03  0.50400001928E-02 0.  1.
    10030    2    1    2    0    0  0.00000000000E+00  0.00000000000E+00  0.17995996360E+04  0.34959622574E+04  0.29971975669E+04 0.  0.
        4    1    3    3  502    0  0.80843941052E+03  0.23939538651E+03 -0.54528434912E+03  0.10041021192E+04  0.12699999809E+01 0.  1.
       -4    1    3    3    0  502 -0.80843941052E+03 -0.23939538651E+03  0.23448839851E+04  0.24918601381E+04  0.12699999809E+01 0. -1.
</event>
<event>
 5   0  0.1091076E-06  0.3057075E+04  0.7818609E-02  0.8227618E-01
       -1   -1    0    0    0  501  0.00000000000E+00  0.00000000000E+00  0.10776309262E+04  0.10776309262E+04  0.50400001928E-02 0.  1.
        1   -1    0    0  501    0  0.00000000000E+00  0.00000000000E+00 -0.21681135587E+04  0.21681135587E+04  0.50400001928E-02 0. -1.
    10030    2    1    2    0    0  0.00000000000E+00  0.00000000000E+00 -0.10904826325E+04  0.32457444849E+04  0.30570745639E+04 0.  0.
        3    1    3    3  502    0 -0.34911038150E+02  0.15060564140E+04 -0.82006274272E+03  0.17152048318E+04  0.10100000352E+00 0. -1.
       -3    1    3    3    0  502  0.34911038150E+02 -0.15060564140E+04 -0.27041988980E+03  0.15305396531E+04  0.10100000352E+00 0.  1.
</event>
<event>
 5   0  0.2862033E-06  0.3011759E+04  0.7818609E-02  0.8240381E-01
       -2   -1    0    0    0  501  0.00000000000E+00  0.00000000000E+00  0.11145294505E+04  0.11145294505E+04  0.25500000920E-02 0.  1.
        2   -1    0    0  501    0  0.00000000000E+00  0.00000000000E+00 -0.20346464072E+04  0.20346464072E+04  0.25500000920E-02 0. -1.
    10030    2    1    2    0    0  0.00000000000E+00  0.00000000000E+00 -0.92011695671E+03  0.31491758578E+04  0.30117591818E+04 0.  0.
        2    1    3    3  502    0  0.58948456679E+03  0.32173773990E+03  0.94927649125E+03  0.11628125750E+04  0.25500000920E-02 0.  1.
       -2    1    3    3    0  502 -0.58948456679E+03 -0.32173773990E+03 -0.18693934480E+04  0.19863632827E+04  0.25500000920E-02 0. -1.
</event>
<event>
 5   0  0.1091076E-06  0.2983853E+04  0.7818609E-02  0.8248357E-01
        1   -1    0    0  501    0  0.00000000000E+00  0.00000000000E+00  0.14703530296E+04  0.14703530296E+04  0.50400001928E-02 0.  1.
       -1   -1    0    0    0  501  0.00000000000E+00  0.00000000000E+00 -0.15138169829E+04  0.15138169829E+04  0.50400001928E-02 0. -1.
    10030    2    1    2    0    0  0.00000000000E+00  0.00000000000E+00 -0.43463953296E+02  0.29841700124E+04  0.29838534729E+04 0.  0.
        3    1    3    3  502    0  0.43670249052E+03 -0.91253810438E+03  0.10749291590E+04  0.14761123142E+04  0.10100000352E+00 0.  1.
       -3    1    3    3    0  502 -0.43670249052E+03  0.91253810438E+03 -0.11183931123E+04  0.15080576982E+04  0.10100000352E+00 0. -1.
</event>
<event>
 5   0  0.2970915E-06  0.3010487E+04  0.7818609E-02  0.8240743E-01
        2   -1    0    0  501    0  0.00000000000E+00  0.00000000000E+00  0.17458978121E+04  0.17458978121E+04  0.25500000920E-02 0. -1.
       -2   -1    0    0    0  501  0.00000000000E+00  0.00000000000E+00 -0.12977606976E+04  0.12977606976E+04  0.25500000920E-02 0.  1.
    10030    2    1    2    0    0  0.00000000000E+00  0.00000000000E+00  0.44813711455E+03  0.30436585097E+04  0.30104867132E+04 0.  0.
        4    1    3    3  502    0  0.96885132379E+03 -0.69891051949E+03  0.11499139916E+04  0.16581473405E+04  0.12699999809E+01 0. -1.
       -4    1    3    3    0  502 -0.96885132379E+03  0.69891051949E+03 -0.70177687706E+03  0.13855111692E+04  0.12699999809E+01 0.  1.
</event>
<event>
 5   0  0.3113328E-06  0.2999026E+04  0.7818609E-02  0.8244009E-01
       -2   -1    0    0    0  501  0.00000000000E+00  0.00000000000E+00  0.19076942387E+04  0.19076942387E+04  0.25500000920E-02 0.  1.
        2   -1    0    0  501    0  0.00000000000E+00  0.00000000000E+00 -0.11786685012E+04  0.11786685012E+04  0.25500000920E-02 0. -1.
    10030    2    1    2    0    0  0.00000000000E+00  0.00000000000E+00  0.72902573750E+03  0.30863627398E+04  0.29990259145E+04 0.  0.
        1    1    3    3  502    0 -0.16036416380E+03 -0.29604731039E+03 -0.11392655088E+04  0.11879758308E+04  0.50400001928E-02 0. -1.
       -1    1    3    3    0  502  0.16036416380E+03  0.29604731039E+03  0.18682912463E+04  0.18983869090E+04  0.50400001928E-02 0.  1.
</event>
<event>
 5   0  0.2985941E-06  0.3002022E+04  0.7818609E-02  0.8243154E-01
        2   -1    0    0  501    0  0.00000000000E+00  0.00000000000E+00  0.19194716984E+04  0.19194716984E+04  0.25500000920E-02 0. -1.
       -2   -1    0    0    0  501  0.00000000000E+00  0.00000000000E+00 -0.11737784821E+04  0.11737784821E+04  0.25500000920E-02 0.  1.
    10030    2    1    2    0    0  0.00000000000E+00  0.00000000000E+00  0.74569321636E+03  0.30932501805E+04  0.30020223694E+04 0.  0.
        3    1    3    3  502    0  0.12176191959E+04 -0.56208384743E+03  0.10674997036E+04  0.17140858745E+04  0.10100000352E+00 0. -1.
       -3    1    3    3    0  502 -0.12176191959E+04  0.56208384743E+03 -0.32180648721E+03  0.13791643061E+04  0.10100000352E+00 0.  1.
</event>
<event>
 5   0  0.2985941E-06  0.3005406E+04  0.7818609E-02  0.8242189E-01
       -2   -1    0    0    0  501  0.00000000000E+00  0.00000000000E+00  0.21250053889E+04  0.21250053889E+04  0.25500000920E-02 0. -1.
        2   -1    0    0  501    0  0.00000000000E+00  0.00000000000E+00 -0.10626403166E+04  0.10626403166E+04  0.25500000920E-02 0.  1.
    10030    2    1    2    0    0  0.00000000000E+00  0.00000000000E+00  0.10623650723E+04  0.31876457055E+04  0.30054060619E+04 0.  0.
        3    1    3    3  502    0 -0.53113052230E+03  0.86015112620E+03  0.17104265161E+04  0.19868362965E+04  0.10100000352E+00 0. -1.
       -3    1    3    3    0  502  0.53113052230E+03 -0.86015112620E+03 -0.64806144381E+03  0.12008094090E+04  0.10100000352E+00 0.  1.
</event>
<event>
 5   0  0.2948711E-06  0.3060052E+04  0.7818609E-02  0.8226788E-01
        2   -1    0    0  501    0  0.00000000000E+00  0.00000000000E+00  0.18313144706E+04  0.18313144706E+04  0.25500000920E-02 0.  1.
       -2   -1    0    0    0  501  0.00000000000E+00  0.00000000000E+00 -0.12783053781E+04  0.12783053781E+04  0.25500000920E-02 0. -1.
    10030    2    1    2    0    0  0.00000000000E+00  0.00000000000E+00  0.55300909252E+03  0.31096198488E+04  0.30600517230E+04 0.  0.
        5    1    3    3  502    0  0.24399634175E+03  0.84297369219E+03 -0.99712021205E+03  0.13283108325E+04  0.46999998093E+01 0. -1.
       -5    1    3    3    0  502 -0.24399634175E+03 -0.84297369219E+03  0.15501293046E+04  0.17813090163E+04  0.46999998093E+01 0.  1.
</event>
<event>
 5   0  0.1091076E-06  0.3008084E+04  0.7818609E-02  0.8241426E-01
       -1   -1    0    0    0  501  0.00000000000E+00  0.00000000000E+00  0.11263210749E+04  0.11263210749E+04  0.50400001928E-02 0. -1.
        1   -1    0    0  501    0  0.00000000000E+00  0.00000000000E+00 -0.20084348233E+04  0.20084348233E+04  0.50400001928E-02 0.  1.
    10030    2    1    2    0    0  0.00000000000E+00  0.00000000000E+00 -0.88211374838E+03  0.31347558982E+04  0.30080840872E+04 0.  0.
        3    1    3    3  502    0  0.67337114451E+03 -0.27389377471E+02 -0.18422841905E+04  0.19616803830E+04  0.10100000352E+00 0.  1.
       -3    1    3    3    0  502 -0.67337114451E+03  0.27389377471E+02  0.96017044210E+03  0.11730755152E+04  0.10100000352E+00 0. -1.
</event>
<event>
 5   0  0.1097402E-06  0.2974797E+04  0.7818609E-02  0.8250965E-01
        1   -1    0    0  501    0  0.00000000000E+00  0.00000000000E+00  0.14608065376E+04  0.14608065376E+04  0.50400001928E-02 0.  1.
       -1   -1    0    0    0  501  0.00000000000E+00  0.00000000000E+00 -0.15144741227E+04  0.15144741227E+04  0.50400001928E-02 0. -1.
    10030    2    1    2    0    0  0.00000000000E+00  0.00000000000E+00 -0.53667585099E+02  0.29752806603E+04  0.29747965977E+04 0.  0.
        4    1    3    3  502    0 -0.96149621926E+03 -0.36185794393E+03 -0.11026183816E+04  0.15070451418E+04  0.12699999809E+01 0. -1.
       -4    1    3    3    0  502  0.96149621926E+03  0.36185794393E+03  0.10489507965E+04  0.14682355184E+04  0.12699999809E+01 0.  1.
</event>
<event>
 5   0  0.2970915E-06  0.2997098E+04  0.7818609E-02  0.8244560E-01
       -2   -1    0    0    0  501  0.00000000000E+00  0.00000000000E+00  0.13157338314E+04  0.13157338314E+04  0.25500000920E-02 0.  1.
        2   -1    0    0  501    0  0.00000000000E+00  0.00000000000E+00 -0.17067650900E+04  0.17067650900E+04  0.25500000920E-02 0. -1.
    10030    2    1    2    0    0  0.00000000000E+00  0.00000000000E+00 -0.39103125859E+03  0.30224989214E+04  0.29970976435E+04 0.  0.
        4    1    3    3  502    0  0.58853781516E+03 -0.11750142439E+04 -0.92176610179E+03  0.16052070248E+04  0.12699999809E+01 0. -1.
       -4    1    3    3    0  502 -0.58853781516E+03  0.11750142439E+04  0.53073484320E+03  0.14172918965E+04  0.12699999809E+01 0.  1.
</event>
<event>
 5   0  0.1091076E-06  0.3008071E+04  0.7818609E-02  0.8241430E-01
       -1   -1    0    0    0  501  0.00000000000E+00  0.00000000000E+00  0.10479448672E+04  0.10479448672E+04  0.50400001928E-02 0. -1.
        1   -1    0    0  501    0  0.00000000000E+00  0.00000000000E+00 -0.21586277039E+04  0.21586277039E+04  0.50400001928E-02 0.  1.
    10030    2    1    2    0    0  0.00000000000E+00  0.00000000000E+00 -0.11106828368E+04  0.32065725711E+04  0.30080710248E+04 0.  0.
        3    1    3    3  502    0  0.14810212807E+04 -0.17637349647E+03 -0.34866263408E+03  0.15316975180E+04  0.10100000352E+00 0.  1.
       -3    1    3    3    0  502 -0.14810212807E+04  0.17637349647E+03 -0.76202020269E+03  0.16748750531E+04  0.10100000352E+00 0. -1.
</event>
<event>
 5   0  0.1054384E-06  0.2994899E+04  0.7818609E-02  0.8245189E-01
       -1   -1    0    0    0  501  0.00000000000E+00  0.00000000000E+00  0.17502364363E+04  0.17502364363E+04  0.50400001928E-02 0. -1.
        1   -1    0    0  501    0  0.00000000000E+00  0.00000000000E+00 -0.12811722621E+04  0.12811722621E+04  0.50400001928E-02 0.  1.
    10030    2    1    2    0    0  0.00000000000E+00  0.00000000000E+00  0.46906417415E+03  0.30314086984E+04  0.29948985788E+04 0.  0.
        2    1    3    3  502    0  0.77081368829E+03  0.11244679829E+04 -0.39251367182E+03  0.14186785997E+04  0.25500000920E-02 0.  1.
       -2    1    3    3    0  502 -0.77081368829E+03 -0.11244679829E+04  0.86157784597E+03  0.16127300987E+04  0.25500000920E-02 0. -1.
</event>
<event>
 5   0  0.1113245E-06  0.2965433E+04  0.7818609E-02  0.8253671E-01
        1   -1    0    0  501    0  0.00000000000E+00  0.00000000000E+00  0.18183267172E+04  0.18183267172E+04  0.50400001928E-02 0.  1.
       -1   -1    0    0    0  501  0.00000000000E+00  0.00000000000E+00 -0.12090501302E+04  0.12090501302E+04  0.50400001928E-02 0. -1.
    10030    2    1    2    0    0  0.00000000000E+00  0.00000000000E+00  0.60927658701E+03  0.30273768475E+04  0.29654329561E+04 0.  0.
        5    1    3    3  502    0 -0.74825346926E+03 -0.84669667549E+03  0.12847166801E+04  0.17109347014E+04  0.46999998093E+01 0.  1.
       -5    1    3    3    0  502  0.74825346926E+03  0.84669667549E+03 -0.67544009307E+03  0.13164421460E+04  0.46999998093E+01 0. -1.
</event>
<event>
 5   0  0.1091076E-06  0.2979958E+04  0.7818609E-02  0.8249477E-01
        1   -1    0    0  501    0  0.00000000000E+00  0.00000000000E+00  0.13845603178E+04  0.13845603178E+04  0.50400001928E-02 0.  1.
       -1   -1    0    0    0  501  0.00000000000E+00  0.00000000000E+00 -0.16034239607E+04  0.16034239607E+04  0.50400001928E-02 0. -1.
    10030    2    1    2    0    0  0.00000000000E+00  0.00000000000E+00 -0.21886364292E+03  0.29879842785E+04  0.29799578444E+04 0.  0.
        3    1    3    3  502    0 -0.70274193100E+03 -0.10487785146E+03 -0.14226125702E+04  0.15901799019E+04  0.10100000352E+00 0. -1.
       -3    1    3    3    0  502  0.70274193100E+03  0.10487785146E+03  0.12037489273E+04  0.13978043767E+04  0.10100000352E+00 0.  1.
</event>
<event>
 5   0  0.1113245E-06  0.3042599E+04  0.7818609E-02  0.8231670E-01
       -1   -1    0    0    0  501  0.00000000000E+00  0.00000000000E+00  0.10460655048E+04  0.10460655049E+04  0.50400001928E-02 0.  1.
        1   -1    0    0  501    0  0.00000000000E+00  0.00000000000E+00 -0.22124354875E+04  0.22124354875E+04  0.50400001928E-02 0. -1.
    10030    2    1    2    0    0  0.00000000000E+00  0.00000000000E+00 -0.11663699826E+04  0.32585009923E+04  0.30425991817E+04 0.  0.
        5    1    3    3  502    0  0.15940998343E+03 -0.11632443677E+04  0.45281632450E+03  0.12584171469E+04  0.46999998093E+01 0.  1.
       -5    1    3    3    0  502 -0.15940998343E+03  0.11632443677E+04 -0.16191863071E+04  0.20000838455E+04  0.46999998093E+01 0. -1.
</event>
<event>
 5   0  0.1054384E-06  0.3006319E+04  0.7818609E-02  0.8241929E-01
       -1   -1    0    0    0  501  0.00000000000E+00  0.00000000000E+00  0.11530807244E+04  0.11530807244E+04  0.50400001928E-02 0. -1.
        1   -1    0    0  501    0  0.00000000000E+00  0.00000000000E+00 -0.19595232154E+04  0.19595232154E+04  0.50400001928E-02 0.  1.
    10030    2    1    2    0    0  0.00000000000E+00  0.00000000000E+00 -0.80644249097E+03  0.31126039399E+04  0.30063189776E+04 0.  0.
        2    1    3    3  502    0  0.88628323934E+03 -0.13311845398E+03 -0.16526449688E+04  0.18800143340E+04  0.25500000920E-02 0.  1.
       -2    1    3    3    0  502 -0.88628323934E+03  0.13311845398E+03  0.84620247780E+03  0.12325896059E+04  0.25500000920E-02 0. -1.
</event>
<event>
 5   0  0.1054384E-06  0.3014309E+04  0.7818609E-02  0.8239657E-01
       -1   -1    0    0    0  501  0.00000000000E+00  0.00000000000E+00  0.14510365062E+04  0.14510365062E+04  0.50400001928E-02 0.  1.
        1   -1    0    0  501    0  0.00000000000E+00  0.00000000000E+00 -0.15654427046E+04  0.15654427046E+04  0.50400001928E-02 0. -1.
    10030    2    1    2    0    0  0.00000000000E+00  0.00000000000E+00 -0.11440619835E+03  0.30164792108E+04  0.30143088845E+04 0.  0.
        2    1    3    3  502    0 -0.11462422778E+04 -0.29834316240E+03 -0.98987978950E+03  0.15436132934E+04  0.25500000920E-02 0. -1.
       -2    1    3    3    0  502  0.11462422778E+04  0.29834316240E+03  0.87547359115E+03  0.14728659174E+04  0.25500000920E-02 0.  1.
</event>
<event>
 5   0  0.2948711E-06  0.2956114E+04  0.7818609E-02  0.8256375E-01
        2   -1    0    0  501    0  0.00000000000E+00  0.00000000000E+00  0.93600474404E+03  0.93600474404E+03  0.25500000920E-02 0. -1.
       -2   -1    0    0    0  501  0.00000000000E+00  0.00000000000E+00 -0.23340181855E+04  0.23340181855E+04  0.25500000920E-02 0.  1.
    10030    2    1    2    0    0  0.00000000000E+00  0.00000000000E+00 -0.13980134414E+04  0.32700229295E+04  0.29561137287E+04 0.  0.
        5    1    3    3  502    0 -0.25003683075E+03 -0.27071411935E+03  0.88436228714E+03  0.95808313629E+03  0.46999998093E+01 0. -1.
       -5    1    3    3    0  502  0.25003683075E+03  0.27071411935E+03 -0.22823757285E+04  0.23119397932E+04  0.46999998093E+01 0.  1.
</event>
<event>
 5   0  0.1091076E-06  0.2708004E+04  0.7818609E-02  0.8332413E-01
       -1   -1    0    0    0  501  0.00000000000E+00  0.00000000000E+00  0.10459604529E+04  0.10459604529E+04  0.50400001928E-02 0.  1.
        1   -1    0    0  501    0  0.00000000000E+00  0.00000000000E+00 -0.17527632442E+04  0.17527632443E+04  0.50400001928E-02 0. -1.
    10030    2    1    2    0    0  0.00000000000E+00  0.00000000000E+00 -0.70680279134E+03  0.27987236972E+04  0.27080037200E+04 0.  0.
        3    1    3    3  502    0 -0.60426210681E+02 -0.60832467379E+03 -0.16020185612E+04  0.17146934759E+04  0.10100000352E+00 0. -1.
       -3    1    3    3    0  502  0.60426210681E+02  0.60832467379E+03  0.89521576990E+03  0.10840302212E+04  0.10100000352E+00 0.  1.
</event>
<event>
 5   0  0.2948711E-06  0.2989954E+04  0.7818609E-02  0.8246605E-01
       -2   -1    0    0    0  501  0.00000000000E+00  0.00000000000E+00  0.17130608986E+04  0.17130608986E+04  0.25500000920E-02 0. -1.
        2   -1    0    0  501    0  0.00000000000E+00  0.00000000000E+00 -0.13046569700E+04  0.13046569700E+04  0.25500000920E-02 0.  1.
    10030    2    1    2    0    0  0.00000000000E+00  0.00000000000E+00  0.40840392859E+03  0.30177178686E+04  0.29899544086E+04 0.  0.
        5    1    3    3  502    0  0.92102298113E+03  0.11696995192E+04  0.34131055666E+03  0.15274145747E+04  0.46999998093E+01 0. -1.
       -5    1    3    3    0  502 -0.92102298113E+03 -0.11696995192E+04  0.67093371936E+02  0.14903032938E+04  0.46999998093E+01 0.  1.
</event>
<event>
 5   0  0.1091076E-06  0.2999711E+04  0.7818609E-02  0.8243813E-01
        1   -1    0    0  501    0  0.00000000000E+00  0.00000000000E+00  0.18011596983E+04  0.18011596983E+04  0.50400001928E-02 0.  1.
       -1   -1    0    0    0  501  0.00000000000E+00  0.00000000000E+00 -0.12489546669E+04  0.12489546669E+04  0.50400001928E-02 0. -1.
    10030    2    1    2    0    0  0.00000000000E+00  0.00000000000E+00  0.55220503138E+03  0.30501143651E+04  0.29997111934E+04 0.  0.
        3    1    3    3  502    0  0.10780189751E+04 -0.84715098553E+03 -0.34220807429E+03  0.14131157345E+04  0.10100000352E+00 0. -1.
       -3    1    3    3    0  502 -0.10780189751E+04  0.84715098553E+03  0.89441310567E+03  0.16369986306E+04  0.10100000352E+00 0.  1.
</event>
<event>
 5   0  0.2970915E-06  0.3074032E+04  0.7818609E-02  0.8222901E-01
        2   -1    0    0  501    0  0.00000000000E+00  0.00000000000E+00  0.12677139312E+04  0.12677139312E+04  0.25500000920E-02 0. -1.
       -2   -1    0    0    0  501  0.00000000000E+00  0.00000000000E+00 -0.18635268157E+04  0.18635268157E+04  0.25500000920E-02 0.  1.
    10030    2    1    2    0    0  0.00000000000E+00  0.00000000000E+00 -0.59581288443E+03  0.31312407469E+04  0.30740324692E+04 0.  0.
        4    1    3    3  502    0  0.11438353757E+04  0.39650697121E+03  0.66673414341E+03  0.13820684411E+04  0.12699999809E+01 0. -1.
       -4    1    3    3    0  502 -0.11438353757E+04 -0.39650697121E+03 -0.12625470278E+04  0.17491723058E+04  0.12699999809E+01 0.  1.
</event>
<event>
 5   0  0.1097402E-06  0.3008133E+04  0.7818609E-02  0.8241412E-01
       -1   -1    0    0    0  501  0.00000000000E+00  0.00000000000E+00  0.14266995713E+04  0.14266995713E+04  0.50400001928E-02 0. -1.
        1   -1    0    0  501    0  0.00000000000E+00  0.00000000000E+00 -0.15856287723E+04  0.15856287723E+04  0.50400001928E-02 0.  1.
    10030    2    1    2    0    0  0.00000000000E+00  0.00000000000E+00 -0.15892920100E+03  0.30123283436E+04  0.30081329025E+04 0.  0.
        4    1    3    3  502    0 -0.36664741720E+03  0.11564988776E+04 -0.96968944714E+03  0.15531320676E+04  0.12699999809E+01 0.  1.
       -4    1    3    3    0  502  0.36664741720E+03 -0.11564988776E+04  0.81076024614E+03  0.14591962761E+04  0.12699999809E+01 0. -1.
</event>
<event>
 5   0  0.2970915E-06  0.3008469E+04  0.7818609E-02  0.8241317E-01
       -2   -1    0    0    0  501  0.00000000000E+00  0.00000000000E+00  0.16248226630E+04  0.16248226630E+04  0.25500000920E-02 0. -1.
        2   -1    0    0  501    0  0.00000000000E+00  0.00000000000E+00 -0.13925955372E+04  0.13925955372E+04  0.25500000920E-02 0.  1.
    10030    2    1    2    0    0  0.00000000000E+00  0.00000000000E+00  0.23222712580E+03  0.30174182001E+04  0.30084685733E+04 0.  0.
        4    1    3    3  502    0 -0.10094410313E+04 -0.10285513352E+04 -0.31624901068E+03  0.14754335277E+04  0.12699999809E+01 0.  1.
       -4    1    3    3    0  502  0.10094410313E+04  0.10285513352E+04  0.54847613648E+03  0.15419846724E+04  0.12699999809E+01 0. -1.
</event>
<event>
 5   0  0.2862033E-06  0.3004140E+04  0.7818609E-02  0.8242550E-01
        2   -1    0    0  501    0  0.00000000000E+00  0.00000000000E+00  0.12019999494E+04  0.12019999494E+04  0.25500000920E-02 0.  1.
       -2   -1    0    0    0  501  0.00000000000E+00  0.00000000000E+00 -0.18770508423E+04  0.18770508423E+04  0.25500000920E-02 0. -1.
    10030    2    1    2    0    0  0.00000000000E+00  0.00000000000E+00 -0.67505089288E+03  0.30790507916E+04  0.30041404876E+04 0.  0.
        2    1    3    3  502    0  0.67005264394E+03  0.14140580407E+03 -0.17077417485E+04  0.18399315277E+04  0.25500000920E-02 0. -1.
       -2    1    3    3    0  502 -0.67005264394E+03 -0.14140580407E+03  0.10326908556E+04  0.12391192640E+04  0.25500000920E-02 0.  1.
</event>
<event>
 5   0  0.1091075E-06  0.3009393E+04  0.7818609E-02  0.8241054E-01
        1   -1    0    0  501    0  0.00000000000E+00  0.00000000000E+00  0.23981854169E+04  0.23981854169E+04  0.50400001928E-02 0.  1.
       -1   -1    0    0    0  501  0.00000000000E+00  0.00000000000E+00 -0.94409382602E+03  0.94409382603E+03  0.50400001928E-02 0. -1.
    10030    2    1    2    0    0  0.00000000000E+00  0.00000000000E+00  0.14540915909E+04  0.33422792430E+04  0.30093933248E+04 0.  0.
        1    1    3    3  502    0  0.56994131016E+03 -0.82478094214E+03  0.19732215298E+04  0.22133006812E+04  0.50400001928E-02 0.  1.
       -1    1    3    3    0  502 -0.56994131016E+03  0.82478094214E+03 -0.51912993889E+03  0.11289785618E+04  0.50400001928E-02 0. -1.
</event>
<event>
 5   0  0.1091075E-06  0.2989047E+04  0.7818609E-02  0.8246866E-01
        1   -1    0    0  501    0  0.00000000000E+00  0.00000000000E+00  0.21463811823E+04  0.21463811823E+04  0.50400001928E-02 0. -1.
       -1   -1    0    0    0  501  0.00000000000E+00  0.00000000000E+00 -0.10406354477E+04  0.10406354477E+04  0.50400001928E-02 0.  1.
    10030    2    1    2    0    0  0.00000000000E+00  0.00000000000E+00  0.11057457346E+04  0.31870166301E+04  0.29890469001E+04 0.  0.
        1    1    3    3  502    0  0.12581001744E+04 -0.80313274346E+03  0.47193688716E+03  0.15654273148E+04  0.50400001928E-02 0.  1.
       -1    1    3    3    0  502 -0.12581001744E+04  0.80313274346E+03  0.63380884745E+03  0.16215893153E+04  0.50400001928E-02 0. -1.
</event>
<event>
 5   0  0.2948711E-06  0.2995217E+04  0.7818609E-02  0.8245098E-01
       -2   -1    0    0    0  501  0.00000000000E+00  0.00000000000E+00  0.10308097938E+04  0.10308097938E+04  0.25500000920E-02 0. -1.
        2   -1    0    0  501    0  0.00000000000E+00  0.00000000000E+00 -0.21757956527E+04  0.21757956527E+04  0.25500000920E-02 0.  1.
    10030    2    1    2    0    0  0.00000000000E+00  0.00000000000E+00 -0.11449858589E+04  0.32066054465E+04  0.29952171662E+04 0.  0.
        5    1    3    3  502    0 -0.39357638913E+03 -0.14449495345E+04 -0.56684351255E+03  0.16012854802E+04  0.46999998093E+01 0.  1.
       -5    1    3    3    0  502  0.39357638913E+03  0.14449495345E+04 -0.57814234639E+03  0.16053199663E+04  0.46999998093E+01 0. -1.
</event>
<event>
 5   0  0.2985941E-06  0.3003988E+04  0.7818609E-02  0.8242593E-01
       -2   -1    0    0    0  501  0.00000000000E+00  0.00000000000E+00  0.11428279847E+04  0.11428279847E+04  0.25500000920E-02 0. -1.
        2   -1    0    0  501    0  0.00000000000E+00  0.00000000000E+00 -0.19740380766E+04  0.19740380766E+04  0.25500000920E-02 0.  1.
    10030    2    1    2    0    0  0.00000000000E+00  0.00000000000E+00 -0.83121009191E+03  0.31168660614E+04  0.30039879873E+04 0.  0.
        3    1    3    3  502    0  0.12537966211E+04 -0.82204720512E+03 -0.32154333995E+03  0.15333485267E+04  0.10100000352E+00 0. -1.
       -3    1    3    3    0  502 -0.12537966211E+04  0.82204720512E+03 -0.50966675196E+03  0.15835175347E+04  0.10100000352E+00 0.  1.
</event>
<event>
 5   0  0.2948711E-06  0.2778108E+04  0.7818609E-02  0.8310097E-01
       -2   -1    0    0    0  501  0.00000000000E+00  0.00000000000E+00  0.10436853634E+04  0.10436853634E+04  0.25500000920E-02 0.  1.
        2   -1    0    0  501    0  0.00000000000E+00  0.00000000000E+00 -0.18487093113E+04  0.18487093113E+04  0.25500000920E-02 0. -1.
    10030    2    1    2    0    0  0.00000000000E+00  0.00000000000E+00 -0.80502394794E+03  0.28923946747E+04  0.27781078808E+04 0.  0.
        5    1    3    3  502    0 -0.98674098189E+03  0.47916722963E+03  0.48471248750E+03  0.11992611412E+04  0.46999998093E+01 0.  1.
       -5    1    3    3    0  502  0.98674098189E+03 -0.47916722963E+03 -0.12897364354E+04  0.16931335335E+04  0.46999998093E+01 0. -1.
</event>
<event>
 5   0  0.1054384E-06  0.3001602E+04  0.7818609E-02  0.8243274E-01
       -1   -1    0    0    0  501  0.00000000000E+00  0.00000000000E+00  0.10617175620E+04  0.10617175621E+04  0.50400001928E-02 0.  1.
        1   -1    0    0  501    0  0.00000000000E+00  0.00000000000E+00 -0.21214714365E+04  0.21214714365E+04  0.50400001928E-02 0. -1.
    10030    2    1    2    0    0  0.00000000000E+00  0.00000000000E+00 -0.10597538745E+04  0.31831889986E+04  0.30016018934E+04 0.  0.
        2    1    3    3  502    0 -0.73988820036E+03 -0.92058667479E+03 -0.15119044162E+04  0.19185331216E+04  0.25500000920E-02 0. -1.
       -2    1    3    3    0  502  0.73988820036E+03  0.92058667479E+03  0.45215054174E+03  0.12646558770E+04  0.25500000920E-02 0.  1.
</event>
<event>
 5   0  0.2970915E-06  0.3001457E+04  0.7818609E-02  0.8243315E-01
        2   -1    0    0  501    0  0.00000000000E+00  0.00000000000E+00  0.21578280610E+04  0.21578280610E+04  0.25500000920E-02 0. -1.
       -2   -1    0    0    0  501  0.00000000000E+00  0.00000000000E+00 -0.10437281119E+04  0.10437281119E+04  0.25500000920E-02 0.  1.
    10030    2    1    2    0    0  0.00000000000E+00  0.00000000000E+00  0.11140999491E+04  0.32015561729E+04  0.30014568516E+04 0.  0.
        4    1    3    3  502    0 -0.75329887474E+03 -0.59911073198E+03  0.17852429503E+04  0.20281732836E+04  0.12699999809E+01 0. -1.
       -4    1    3    3    0  502  0.75329887474E+03  0.59911073198E+03 -0.67114300124E+03  0.11733828893E+04  0.12699999809E+01 0.  1.
</event>
<event>
 5   0  0.1091075E-06  0.2963434E+04  0.7818609E-02  0.8254250E-01
       -1   -1    0    0    0  501  0.00000000000E+00  0.00000000000E+00  0.10889176016E+04  0.10889176016E+04  0.50400001928E-02 0.  1.
        1   -1    0    0  501    0  0.00000000000E+00  0.00000000000E+00 -0.20162088105E+04  0.20162088105E+04  0.50400001928E-02 0. -1.
    10030    2    1    2    0    0  0.00000000000E+00  0.00000000000E+00 -0.92729120894E+03  0.31051264121E+04  0.29634339961E+04 0.  0.
        1    1    3    3  502    0 -0.21911670874E+03  0.37000905643E+03  0.10220958462E+04  0.11088727397E+04  0.50400001928E-02 0.  1.
       -1    1    3    3    0  502  0.21911670874E+03 -0.37000905643E+03 -0.19493870552E+04  0.19962536724E+04  0.50400001928E-02 0. -1.
</event>
<event>
 5   0  0.2985941E-06  0.2964552E+04  0.7818609E-02  0.8253926E-01
        2   -1    0    0  501    0  0.00000000000E+00  0.00000000000E+00  0.14989167450E+04  0.14989167450E+04  0.25500000920E-02 0.  1.
       -2   -1    0    0    0  501  0.00000000000E+00  0.00000000000E+00 -0.14658197071E+04  0.14658197071E+04  0.25500000920E-02 0. -1.
    10030    2    1    2    0    0  0.00000000000E+00  0.00000000000E+00  0.33097037924E+02  0.29647364522E+04  0.29645517059E+04 0.  0.
        3    1    3    3  502    0 -0.14150080748E+03  0.37530686419E+03 -0.14105176234E+04  0.14664370757E+04  0.10100000352E+00 0. -1.
       -3    1    3    3    0  502  0.14150080748E+03 -0.37530686419E+03  0.14436146613E+04  0.14982993765E+04  0.10100000352E+00 0.  1.
</event>
<event>
 5   0  0.1091075E-06  0.3005936E+04  0.7818609E-02  0.8242038E-01
        1   -1    0    0  501    0  0.00000000000E+00  0.00000000000E+00  0.16563900138E+04  0.16563900139E+04  0.50400001928E-02 0.  1.
       -1   -1    0    0    0  501  0.00000000000E+00  0.00000000000E+00 -0.13637562276E+04  0.13637562276E+04  0.50400001928E-02 0. -1.
    10030    2    1    2    0    0  0.00000000000E+00  0.00000000000E+00  0.29263378629E+03  0.30201462414E+04  0.30059355926E+04 0.  0.
        1    1    3    3  502    0 -0.21939831446E+03 -0.14688298438E+04 -0.85676120820E+02  0.14875944099E+04  0.50400001928E-02 0. -1.
       -1    1    3    3    0  502  0.21939831446E+03  0.14688298438E+04  0.37830990711E+03  0.15325518316E+04  0.50400001928E-02 0.  1.
</event>
<event>
 5   0  0.2948711E-06  0.2994288E+04  0.7818609E-02  0.8245364E-01
       -2   -1    0    0    0  501  0.00000000000E+00  0.00000000000E+00  0.15962134818E+04  0.15962134818E+04  0.25500000920E-02 0.  1.
        2   -1    0    0  501    0  0.00000000000E+00  0.00000000000E+00 -0.14042231782E+04  0.14042231782E+04  0.25500000920E-02 0. -1.
    10030    2    1    2    0    0  0.00000000000E+00  0.00000000000E+00  0.19199030355E+03  0.30004366600E+04  0.29942878743E+04 0.  0.
        5    1    3    3  502    0 -0.20181732817E+03  0.67579950818E+03 -0.12273160658E+04  0.14155430140E+04  0.46999998093E+01 0. -1.
       -5    1    3    3    0  502  0.20181732817E+03 -0.67579950818E+03  0.14193063693E+04  0.15848936460E+04  0.46999998093E+01 0.  1.
</event>
<event>
 5   0  0.1097402E-06  0.3144144E+04  0.7818609E-02  0.8203726E-01
       -1   -1    0    0    0  501  0.00000000000E+00  0.00000000000E+00  0.10795411151E+04  0.10795411151E+04  0.50400001928E-02 0. -1.
        1   -1    0    0  501    0  0.00000000000E+00  0.00000000000E+00 -0.22893156509E+04  0.22893156510E+04  0.50400001928E-02 0.  1.
    10030    2    1    2    0    0  0.00000000000E+00  0.00000000000E+00 -0.12097745358E+04  0.33688567661E+04  0.31441439984E+04 0.  0.
        4    1    3    3  502    0  0.11803811013E+04  0.47865377784E+03 -0.15921526428E+04  0.20389606750E+04  0.12699999809E+01 0.  1.
       -4    1    3    3    0  502 -0.11803811013E+04 -0.47865377784E+03  0.38237810699E+03  0.13298960911E+04  0.12699999809E+01 0. -1.
</event>
<event>
 5   0  0.2862033E-06  0.2992693E+04  0.7818609E-02  0.8245820E-01
        2   -1    0    0  501    0  0.00000000000E+00  0.00000000000E+00  0.24357777628E+04  0.24357777628E+04  0.25500000920E-02 0. -1.
       -2   -1    0    0    0  501  0.00000000000E+00  0.00000000000E+00 -0.91923544793E+03  0.91923544793E+03  0.25500000920E-02 0.  1.
    10030    2    1    2    0    0  0.00000000000E+00  0.00000000000E+00  0.15165423149E+04  0.33550132107E+04  0.29926932772E+04 0.  0.
        2    1    3    3  502    0  0.31148991119E+03  0.14635233160E+04  0.77089508599E+03  0.16832129083E+04  0.25500000920E-02 0. -1.
       -2    1    3    3    0  502 -0.31148991119E+03 -0.14635233160E+04  0.74564722887E+03  0.16718003024E+04  0.25500000920E-02 0.  1.
</event>
<event>
 5   0  0.2985941E-06  0.3002412E+04  0.7818609E-02  0.8243042E-01
       -2   -1    0    0    0  501  0.00000000000E+00  0.00000000000E+00  0.10534287784E+04  0.10534287784E+04  0.25500000920E-02 0. -1.
        2   -1    0    0  501    0  0.00000000000E+00  0.00000000000E+00 -0.21393185512E+04  0.21393185512E+04  0.25500000920E-02 0.  1.
    10030    2    1    2    0    0  0.00000000000E+00  0.00000000000E+00 -0.10858897728E+04  0.31927473296E+04  0.30024121822E+04 0.  0.
        3    1    3    3  502    0 -0.15279784919E+03 -0.14040658467E+04 -0.18960483848E+01  0.14123567856E+04  0.10100000352E+00 0.  1.
       -3    1    3    3    0  502  0.15279784919E+03  0.14040658467E+04 -0.10839937244E+04  0.17803905440E+04  0.10100000352E+00 0. -1.
</event>
<event>
 5   0  0.1113245E-06  0.2983591E+04  0.7818609E-02  0.8248432E-01
       -1   -1    0    0    0  501  0.00000000000E+00  0.00000000000E+00  0.88807105356E+03  0.88807105357E+03  0.50400001928E-02 0.  1.
        1   -1    0    0  501    0  0.00000000000E+00  0.00000000000E+00 -0.25059405807E+04  0.25059405808E+04  0.50400001928E-02 0. -1.
    10030    2    1    2    0    0  0.00000000000E+00  0.00000000000E+00 -0.16178695272E+04  0.33940116343E+04  0.29835906500E+04 0.  0.
        5    1    3    3  502    0 -0.12010899488E+03  0.17205201761E+03 -0.24890615490E+04  0.24978946239E+04  0.46999998093E+01 0. -1.
       -5    1    3    3    0  502  0.12010899488E+03 -0.17205201761E+03  0.87119202183E+03  0.89611701039E+03  0.46999998093E+01 0.  1.
</event>
<event>
 5   0  0.1054384E-06  0.3021417E+04  0.7818609E-02  0.8237642E-01
        1   -1    0    0  501    0  0.00000000000E+00  0.00000000000E+00  0.11622070845E+04  0.11622070845E+04  0.50400001928E-02 0.  1.
       -1   -1    0    0    0  501  0.00000000000E+00  0.00000000000E+00 -0.19637116949E+04  0.19637116949E+04  0.50400001928E-02 0. -1.
    10030    2    1    2    0    0  0.00000000000E+00  0.00000000000E+00 -0.80150461041E+03  0.31259187794E+04  0.30214166503E+04 0.  0.
        2    1    3    3  502    0  0.26552270725E+03  0.97777018290E+03 -0.15600914597E+04  0.18602210087E+04  0.25500000920E-02 0. -1.
       -2    1    3    3    0  502 -0.26552270725E+03 -0.97777018290E+03  0.75858684930E+03  0.12656977706E+04  0.25500000920E-02 0.  1.
</event>
<event>
 5   0  0.2970915E-06  0.3012755E+04  0.7818609E-02  0.8240098E-01
       -2   -1    0    0    0  501  0.00000000000E+00  0.00000000000E+00  0.13931629408E+04  0.13931629408E+04  0.25500000920E-02 0.  1.
        2   -1    0    0  501    0  0.00000000000E+00  0.00000000000E+00 -0.16287923099E+04  0.16287923099E+04  0.25500000920E-02 0. -1.
    10030    2    1    2    0    0  0.00000000000E+00  0.00000000000E+00 -0.23562936915E+03  0.30219552507E+04  0.30127549415E+04 0.  0.
        4    1    3    3  502    0  0.11025281344E+04  0.26673783850E+03  0.87640042359E+03  0.14334561999E+04  0.12699999809E+01 0.  1.
       -4    1    3    3    0  502 -0.11025281344E+04 -0.26673783850E+03 -0.11120297927E+04  0.15884990508E+04  0.12699999809E+01 0. -1.
</event>
<event>
 5   0  0.2862033E-06  0.3002982E+04  0.7818609E-02  0.8242880E-01
        2   -1    0    0  501    0  0.00000000000E+00  0.00000000000E+00  0.28578350903E+04  0.28578350903E+04  0.25500000920E-02 0. -1.
       -2   -1    0    0    0  501  0.00000000000E+00  0.00000000000E+00 -0.78887529120E+03  0.78887529120E+03  0.25500000920E-02 0.  1.
    10030    2    1    2    0    0  0.00000000000E+00  0.00000000000E+00  0.20689597991E+04  0.36467103815E+04  0.30029821772E+04 0.  0.
        2    1    3    3  502    0 -0.96063821410E+02 -0.14984144536E+04  0.10358941963E+04  0.18241575915E+04  0.25500000920E-02 0. -1.
       -2    1    3    3    0  502  0.96063821410E+02  0.14984144536E+04  0.10330656028E+04  0.18225527900E+04  0.25500000920E-02 0.  1.
</event>
<event>
 5   0  0.1054384E-06  0.2990308E+04  0.7818609E-02  0.8246504E-01
        1   -1    0    0  501    0  0.00000000000E+00  0.00000000000E+00  0.72467314442E+03  0.72467314444E+03  0.50400001928E-02 0. -1.
       -1   -1    0    0    0  501  0.00000000000E+00  0.00000000000E+00 -0.30848196474E+04  0.30848196474E+04  0.50400001928E-02 0.  1.
    10030    2    1    2    0    0  0.00000000000E+00  0.00000000000E+00 -0.23601465030E+04  0.38094927919E+04  0.29903083145E+04 0.  0.
        2    1    3    3  502    0 -0.61198887746E+03  0.12846120546E+04 -0.17648791309E+04  0.22670590781E+04  0.25500000920E-02 0.  1.
       -2    1    3    3    0  502  0.61198887746E+03 -0.12846120546E+04 -0.59526737213E+03  0.15424337138E+04  0.25500000920E-02 0. -1.
</event>
<event>
 5   0  0.2862033E-06  0.2991345E+04  0.7818609E-02  0.8246207E-01
        2   -1    0    0  501    0  0.00000000000E+00  0.00000000000E+00  0.17745358403E+04  0.17745358403E+04  0.25500000920E-02 0. -1.
       -2   -1    0    0    0  501  0.00000000000E+00  0.00000000000E+00 -0.12606317591E+04  0.12606317591E+04  0.25500000920E-02 0.  1.
    10030    2    1    2    0    0  0.00000000000E+00  0.00000000000E+00  0.51390408120E+03  0.30351675993E+04  0.29913450071E+04 0.  0.
        2    1    3    3  502    0  0.30453086180E+03 -0.49577211107E+03  0.16550007311E+04  0.17542965690E+04  0.25500000920E-02 0. -1.
       -2    1    3    3    0  502 -0.30453086180E+03  0.49577211107E+03 -0.11410966499E+04  0.12808710303E+04  0.25500000920E-02 0.  1.
</event>
<event>
 5   0  0.2948711E-06  0.2998299E+04  0.7818609E-02  0.8244217E-01
        2   -1    0    0  501    0  0.00000000000E+00  0.00000000000E+00  0.22046407173E+04  0.22046407173E+04  0.25500000920E-02 0. -1.
       -2   -1    0    0    0  501  0.00000000000E+00  0.00000000000E+00 -0.10194173998E+04  0.10194173998E+04  0.25500000920E-02 0.  1.
    10030    2    1    2    0    0  0.00000000000E+00  0.00000000000E+00  0.11852233176E+04  0.32240581171E+04  0.29982989227E+04 0.  0.
        5    1    3    3  502    0  0.34014458685E+03 -0.80055529996E+03  0.19055472919E+04  0.20946884494E+04  0.46999998093E+01 0. -1.
       -5    1    3    3    0  502 -0.34014458685E+03  0.80055529996E+03 -0.72032397435E+03  0.11293696677E+04  0.46999998093E+01 0.  1.
</event>
<event>
 5   0  0.2970915E-06  0.3020775E+04  0.7818609E-02  0.8237823E-01
        2   -1    0    0  501    0  0.00000000000E+00  0.00000000000E+00  0.19256618220E+04  0.19256618220E+04  0.25500000920E-02 0. -1.
       -2   -1    0    0    0  501  0.00000000000E+00  0.00000000000E+00 -0.11846679431E+04  0.11846679431E+04  0.25500000920E-02 0.  1.
    10030    2    1    2    0    0  0.00000000000E+00  0.00000000000E+00  0.74099387889E+03  0.31103297651E+04  0.30207746223E+04 0.  0.
        4    1    3    3  502    0  0.13841340843E+04  0.50766045659E+03  0.32556516121E+02  0.14746551604E+04  0.12699999809E+01 0.  1.
       -4    1    3    3    0  502 -0.13841340843E+04 -0.50766045659E+03  0.70843736277E+03  0.16356746047E+04  0.12699999809E+01 0. -1.
</event>
<event>
 5   0  0.2862033E-06  0.3009769E+04  0.7818609E-02  0.8240947E-01
       -2   -1    0    0    0  501  0.00000000000E+00  0.00000000000E+00  0.98847954187E+03  0.98847954188E+03  0.25500000920E-02 0. -1.
        2   -1    0    0  501    0  0.00000000000E+00  0.00000000000E+00 -0.22910712112E+04  0.22910712112E+04  0.25500000920E-02 0.  1.
    10030    2    1    2    0    0  0.00000000000E+00  0.00000000000E+00 -0.13025916693E+04  0.32795507531E+04  0.30097687760E+04 0.  0.
        2    1    3    3  502    0 -0.46934636701E+02 -0.14900093942E+04 -0.87552302424E+03  0.17288352787E+04  0.25500000920E-02 0.  1.
       -2    1    3    3    0  502  0.46934636701E+02  0.14900093942E+04 -0.42706864511E+03  0.15507154744E+04  0.25500000920E-02 0. -1.
</event>
<event>
 5   0  0.2948711E-06  0.3027597E+04  0.7818609E-02  0.8235894E-01
        2   -1    0    0  501    0  0.00000000000E+00  0.00000000000E+00  0.28377480060E+04  0.28377480060E+04  0.25500000920E-02 0.  1.
       -2   -1    0    0    0  501  0.00000000000E+00  0.00000000000E+00 -0.80753678666E+03  0.80753678667E+03  0.25500000920E-02 0. -1.
    10030    2    1    2    0    0  0.00000000000E+00  0.00000000000E+00  0.20302112194E+04  0.36452847927E+04  0.30275970050E+04 0.  0.
        5    1    3    3  502    0  0.97897675218E+03 -0.41090347873E+03  0.23142900748E+04  0.25462124401E+04  0.46999998093E+01 0.  1.
       -5    1    3    3    0  502 -0.97897675218E+03  0.41090347873E+03 -0.28407885538E+03  0.10990723526E+04  0.46999998093E+01 0. -1.
</event>
<event>
 5   0  0.1091075E-06  0.3020330E+04  0.7818609E-02  0.8237949E-01
       -1   -1    0    0    0  501  0.00000000000E+00  0.00000000000E+00  0.10377589231E+04  0.10377589231E+04  0.50400001928E-02 0.  1.
        1   -1    0    0  501    0  0.00000000000E+00  0.00000000000E+00 -0.21976191108E+04  0.21976191108E+04  0.50400001928E-02 0. -1.
    10030    2    1    2    0    0  0.00000000000E+00  0.00000000000E+00 -0.11598601877E+04  0.32353780339E+04  0.30203303408E+04 0.  0.
        1    1    3    3  502    0  0.11449858339E+03  0.33979631055E+03  0.99149789387E+03  0.10543431755E+04  0.50400001928E-02 0.  1.
       -1    1    3    3    0  502 -0.11449858339E+03 -0.33979631055E+03 -0.21513580816E+04  0.21810348584E+04  0.50400001928E-02 0. -1.
</event>
<event>
 5   0  0.2985941E-06  0.2973493E+04  0.7818609E-02  0.8251341E-01
       -2   -1    0    0    0  501  0.00000000000E+00  0.00000000000E+00  0.18698229545E+04  0.18698229545E+04  0.25500000920E-02 0.  1.
        2   -1    0    0  501    0  0.00000000000E+00  0.00000000000E+00 -0.11821520428E+04  0.11821520428E+04  0.25500000920E-02 0. -1.
    10030    2    1    2    0    0  0.00000000000E+00  0.00000000000E+00  0.68767091166E+03  0.30519749973E+04  0.29734929126E+04 0.  0.
        3    1    3    3  502    0  0.54083172803E+03  0.81159259937E+03  0.14956092683E+04  0.17855051383E+04  0.10100000352E+00 0.  1.
       -3    1    3    3    0  502 -0.54083172803E+03 -0.81159259937E+03 -0.80793835659E+03  0.12664698590E+04  0.10100000352E+00 0. -1.
</event>
<event>
 5   0  0.1091075E-06  0.2998231E+04  0.7818609E-02  0.8244236E-01
        1   -1    0    0  501    0  0.00000000000E+00  0.00000000000E+00  0.13705399390E+04  0.13705399390E+04  0.50400001928E-02 0.  1.
       -1   -1    0    0    0  501  0.00000000000E+00  0.00000000000E+00 -0.16397536293E+04  0.16397536293E+04  0.50400001928E-02 0. -1.
    10030    2    1    2    0    0  0.00000000000E+00  0.00000000000E+00 -0.26921369026E+03  0.30102935683E+04  0.29982313713E+04 0.  0.
        1    1    3    3  502    0  0.75372214177E+03 -0.12497265351E+04 -0.47867248056E+03  0.15359169324E+04  0.50400001928E-02 0. -1.
       -1    1    3    3    0  502 -0.75372214177E+03  0.12497265351E+04  0.20945879029E+03  0.14743766359E+04  0.50400001928E-02 0.  1.
</event>
<event>
 5   0  0.2862033E-06  0.3014765E+04  0.7818609E-02  0.8239527E-01
        2   -1    0    0  501    0  0.00000000000E+00  0.00000000000E+00  0.24416738136E+04  0.24416738136E+04  0.25500000920E-02 0. -1.
       -2   -1    0    0    0  501  0.00000000000E+00  0.00000000000E+00 -0.93059185602E+03  0.93059185602E+03  0.25500000920E-02 0.  1.
    10030    2    1    2    0    0  0.00000000000E+00  0.00000000000E+00  0.15110819576E+04  0.33722656697E+04  0.30147648439E+04 0.  0.
        2    1    3    3  502    0  0.11916028835E+03  0.11390561400E+04  0.18518403478E+04  0.21773747353E+04  0.25500000920E-02 0. -1.
       -2    1    3    3    0  502 -0.11916028835E+03 -0.11390561400E+04 -0.34075839016E+03  0.11948909343E+04  0.25500000920E-02 0.  1.
</event>
<event>
 5   0  0.2948711E-06  0.3046660E+04  0.7818609E-02  0.8230531E-01
        2   -1    0    0  501    0  0.00000000000E+00  0.00000000000E+00  0.13238983721E+04  0.13238983721E+04  0.25500000920E-02 0. -1.
       -2   -1    0    0    0  501  0.00000000000E+00  0.00000000000E+00 -0.17528040659E+04  0.17528040659E+04  0.25500000920E-02 0.  1.
    10030    2    1    2    0    0  0.00000000000E+00  0.00000000000E+00 -0.42890569381E+03  0.30767024380E+04  0.30466601054E+04 0.  0.
        5    1    3    3  502    0 -0.92070760269E+03  0.10760748348E+02  0.10110596942E+04  0.13675094437E+04  0.46999998093E+01 0. -1.
       -5    1    3    3    0  502  0.92070760269E+03 -0.10760748348E+02 -0.14399653880E+04  0.17091929944E+04  0.46999998093E+01 0.  1.
</event>
<event>
 5   0  0.1091076E-06  0.3003955E+04  0.7818609E-02  0.8242602E-01
       -1   -1    0    0    0  501  0.00000000000E+00  0.00000000000E+00  0.16458499003E+04  0.16458499003E+04  0.50400001928E-02 0.  1.
        1   -1    0    0  501    0  0.00000000000E+00  0.00000000000E+00 -0.13706818110E+04  0.13706818110E+04  0.50400001928E-02 0. -1.
    10030    2    1    2    0    0  0.00000000000E+00  0.00000000000E+00  0.27516808933E+03  0.30165317113E+04  0.30039550742E+04 0.  0.
        3    1    3    3  502    0  0.12063460966E+04  0.74832164803E+03  0.63022980585E+03  0.15532050129E+04  0.10100000352E+00 0.  1.
       -3    1    3    3    0  502 -0.12063460966E+04 -0.74832164803E+03 -0.35506171652E+03  0.14633266984E+04  0.10100000352E+00 0. -1.
</event>
<event>
 5   0  0.1091075E-06  0.3009231E+04  0.7818609E-02  0.8241100E-01
       -1   -1    0    0    0  501  0.00000000000E+00  0.00000000000E+00  0.12397361436E+04  0.12397361436E+04  0.50400001928E-02 0.  1.
        1   -1    0    0  501    0  0.00000000000E+00  0.00000000000E+00 -0.18260885780E+04  0.18260885780E+04  0.50400001928E-02 0. -1.
    10030    2    1    2    0    0  0.00000000000E+00  0.00000000000E+00 -0.58635243441E+03  0.30658247215E+04  0.30092311387E+04 0.  0.
        1    1    3    3  502    0 -0.99326446591E+03  0.81063706988E+02  0.85528706665E+03  0.13132637169E+04  0.50400001928E-02 0.  1.
       -1    1    3    3    0  502  0.99326446591E+03 -0.81063706988E+02 -0.14416395011E+04  0.17525610046E+04  0.50400001928E-02 0. -1.
</event>
<event>
 5   0  0.1113245E-06  0.3000592E+04  0.7818609E-02  0.8243562E-01
        1   -1    0    0  501    0  0.00000000000E+00  0.00000000000E+00  0.20373319411E+04  0.20373319411E+04  0.50400001928E-02 0. -1.
       -1   -1    0    0    0  501  0.00000000000E+00  0.00000000000E+00 -0.11048214158E+04  0.11048214158E+04  0.50400001928E-02 0.  1.
    10030    2    1    2    0    0  0.00000000000E+00  0.00000000000E+00  0.93251052534E+03  0.31421533569E+04  0.30005919146E+04 0.  0.
        5    1    3    3  502    0 -0.12426553012E+04 -0.65291302905E+03  0.10207438375E+04  0.17356346657E+04  0.46999998093E+01 0. -1.
       -5    1    3    3    0  502  0.12426553012E+04  0.65291302905E+03 -0.88233312174E+02  0.14065186911E+04  0.46999998093E+01 0.  1.
</event>
<event>
 5   0  0.9749500E-07  0.3004558E+04  0.7818609E-02  0.8242431E-01
        3   -1    0    0  501    0  0.00000000000E+00  0.00000000000E+00  0.11708455051E+04  0.11708455094E+04  0.10100000352E+00 0.  1.
       -3   -1    0    0    0  501  0.00000000000E+00  0.00000000000E+00 -0.19275314178E+04  0.19275314204E+04  0.10100000352E+00 0. -1.
    10030    2    1    2    0    0  0.00000000000E+00  0.00000000000E+00 -0.75668591275E+03  0.30983769299E+04  0.30045575430E+04 0.  0.
        5    1    3    3  502    0 -0.42388458514E+03 -0.95569165328E+03  0.73413629351E+03  0.12774986752E+04  0.46999998093E+01 0.  1.
       -5    1    3    3    0  502  0.42388458514E+03  0.95569165328E+03 -0.14908222063E+04  0.18208782547E+04  0.46999998093E+01 0. -1.
</event>
<event>
 5   0  0.1091076E-06  0.2960804E+04  0.7818609E-02  0.8255013E-01
       -1   -1    0    0    0  501  0.00000000000E+00  0.00000000000E+00  0.11248698673E+04  0.11248698673E+04  0.50400001928E-02 0. -1.
        1   -1    0    0  501    0  0.00000000000E+00  0.00000000000E+00 -0.19483055112E+04  0.19483055112E+04  0.50400001928E-02 0.  1.
    10030    2    1    2    0    0  0.00000000000E+00  0.00000000000E+00 -0.82343564395E+03  0.30731753785E+04  0.29608040542E+04 0.  0.
        3    1    3    3  502    0  0.48542004724E+03  0.13716425231E+04 -0.69512711048E+03  0.16125252070E+04  0.10100000352E+00 0.  1.
       -3    1    3    3    0  502 -0.48542004724E+03 -0.13716425231E+04 -0.12830853346E+03  0.14606501714E+04  0.10100000352E+00 0. -1.
</event>
<event>
 5   0  0.2948711E-06  0.2998058E+04  0.7818609E-02  0.8244286E-01
       -2   -1    0    0    0  501  0.00000000000E+00  0.00000000000E+00  0.24161243630E+04  0.24161243630E+04  0.25500000920E-02 0. -1.
        2   -1    0    0  501    0  0.00000000000E+00  0.00000000000E+00 -0.93003826617E+03  0.93003826617E+03  0.25500000920E-02 0.  1.
    10030    2    1    2    0    0  0.00000000000E+00  0.00000000000E+00  0.14860860969E+04  0.33461626292E+04  0.29980581138E+04 0.  0.
        5    1    3    3  502    0 -0.35257077727E+03  0.78472944552E+03 -0.62707440228E+03  0.10645895226E+04  0.46999998093E+01 0.  1.
       -5    1    3    3    0  502  0.35257077727E+03 -0.78472944552E+03  0.21131604992E+04  0.22815731066E+04  0.46999998093E+01 0. -1.
</event>
<event>
 5   0  0.9749500E-07  0.2996150E+04  0.7818609E-02  0.8244831E-01
        3   -1    0    0  501    0  0.00000000000E+00  0.00000000000E+00  0.16898044323E+04  0.16898044353E+04  0.10100000352E+00 0. -1.
       -3   -1    0    0    0  501  0.00000000000E+00  0.00000000000E+00 -0.13280992911E+04  0.13280992949E+04  0.10100000352E+00 0.  1.
    10030    2    1    2    0    0  0.00000000000E+00  0.00000000000E+00  0.36170514126E+03  0.30179037302E+04  0.29961495817E+04 0.  0.
        5    1    3    3  502    0 -0.81363524023E+03  0.12481521925E+04  0.33793289642E+03  0.15277784303E+04  0.46999998093E+01 0.  1.
       -5    1    3    3    0  502  0.81363524023E+03 -0.12481521925E+04  0.23772244831E+02  0.14901252999E+04  0.46999998093E+01 0. -1.
</event>
<event>
 5   0  0.2948711E-06  0.3005408E+04  0.7818609E-02  0.8242188E-01
        2   -1    0    0  501    0  0.00000000000E+00  0.00000000000E+00  0.14603829351E+04  0.14603829351E+04  0.25500000920E-02 0.  1.
       -2   -1    0    0    0  501  0.00000000000E+00  0.00000000000E+00 -0.15462518234E+04  0.15462518234E+04  0.25500000920E-02 0. -1.
    10030    2    1    2    0    0  0.00000000000E+00  0.00000000000E+00 -0.85868888258E+02  0.30066347586E+04  0.30054083093E+04 0.  0.
        5    1    3    3  502    0  0.11757146603E+04  0.56054644136E+02 -0.97747335173E+03  0.15300076238E+04  0.46999998093E+01 0. -1.
       -5    1    3    3    0  502 -0.11757146603E+04 -0.56054644136E+02  0.89160446347E+03  0.14766271347E+04  0.46999998093E+01 0.  1.
</event>
<event>
 5   0  0.1091075E-06  0.3044134E+04  0.7818609E-02  0.8231239E-01
        1   -1    0    0  501    0  0.00000000000E+00  0.00000000000E+00  0.14445463670E+04  0.14445463670E+04  0.50400001928E-02 0.  1.
       -1   -1    0    0    0  501  0.00000000000E+00  0.00000000000E+00 -0.16037479796E+04  0.16037479796E+04  0.50400001928E-02 0. -1.
    10030    2    1    2    0    0  0.00000000000E+00  0.00000000000E+00 -0.15920161255E+03  0.30482943466E+04  0.30441342398E+04 0.  0.
        1    1    3    3  502    0  0.29763313571E+03 -0.14183324635E+04 -0.54546325662E+03  0.15484775184E+04  0.50400001928E-02 0. -1.
       -1    1    3    3    0  502 -0.29763313571E+03  0.14183324635E+04  0.38626164407E+03  0.14998168282E+04  0.50400001928E-02 0.  1.
</event>
<event>
 5   0  0.1113245E-06  0.3017180E+04  0.7818609E-02  0.8238842E-01
       -1   -1    0    0    0  501  0.00000000000E+00  0.00000000000E+00  0.17613824165E+04  0.17613824165E+04  0.50400001928E-02 0. -1.
        1   -1    0    0  501    0  0.00000000000E+00  0.00000000000E+00 -0.12920780440E+04  0.12920780440E+04  0.50400001928E-02 0.  1.
    10030    2    1    2    0    0  0.00000000000E+00  0.00000000000E+00  0.46930437248E+03  0.30534604605E+04  0.30171798404E+04 0.  0.
        5    1    3    3  502    0  0.12518844389E+04 -0.79249465625E+03  0.52189436638E+03  0.15708781774E+04  0.46999998093E+01 0. -1.
       -5    1    3    3    0  502 -0.12518844389E+04  0.79249465625E+03 -0.52589993904E+02  0.14825822831E+04  0.46999998093E+01 0.  1.
</event>
<event>
 5   0  0.2985941E-06  0.2980328E+04  0.7818609E-02  0.8249371E-01
       -2   -1    0    0    0  501  0.00000000000E+00  0.00000000000E+00  0.95335301986E+03  0.95335301987E+03  0.25500000920E-02 0.  1.
        2   -1    0    0  501    0  0.00000000000E+00  0.00000000000E+00 -0.23292403254E+04  0.23292403254E+04  0.25500000920E-02 0. -1.
    10030    2    1    2    0    0  0.00000000000E+00  0.00000000000E+00 -0.13758873055E+04  0.32825933453E+04  0.29803276989E+04 0.  0.
        3    1    3    3  502    0  0.58898039303E+03  0.61273028983E+03  0.66022894380E+03  0.10762149320E+04  0.10100000352E+00 0.  1.
       -3    1    3    3    0  502 -0.58898039303E+03 -0.61273028983E+03 -0.20361162493E+04  0.22063784132E+04  0.10100000352E+00 0. -1.
</event>
<event>
 5   0  0.2948711E-06  0.3075428E+04  0.7818609E-02  0.8222514E-01
       -2   -1    0    0    0  501  0.00000000000E+00  0.00000000000E+00  0.11222498010E+04  0.11222498010E+04  0.25500000920E-02 0.  1.
        2   -1    0    0  501    0  0.00000000000E+00  0.00000000000E+00 -0.21069863881E+04  0.21069863881E+04  0.25500000920E-02 0. -1.
    10030    2    1    2    0    0  0.00000000000E+00  0.00000000000E+00 -0.98473658705E+03  0.32292361891E+04  0.30754284611E+04 0.  0.
        5    1    3    3  502    0 -0.36463915338E+03 -0.14819864963E+04 -0.29509659410E+03  0.15544612498E+04  0.46999998093E+01 0.  1.
       -5    1    3    3    0  502  0.36463915338E+03  0.14819864963E+04 -0.68963999295E+03  0.16747749393E+04  0.46999998093E+01 0. -1.
</event>
<event>
 5   0  0.2970915E-06  0.3013847E+04  0.7818609E-02  0.8239788E-01
        2   -1    0    0  501    0  0.00000000000E+00  0.00000000000E+00  0.14851598836E+04  0.14851598836E+04  0.25500000920E-02 0.  1.
       -2   -1    0    0    0  501  0.00000000000E+00  0.00000000000E+00 -0.15290056079E+04  0.15290056079E+04  0.25500000920E-02 0. -1.
    10030    2    1    2    0    0  0.00000000000E+00  0.00000000000E+00 -0.43845724323E+02  0.30141654915E+04  0.30138465725E+04 0.  0.
        4    1    3    3  502    0 -0.28059710967E+03 -0.71582123483E+03  0.12742395116E+04  0.14882280484E+04  0.12699999809E+01 0.  1.
       -4    1    3    3    0  502  0.28059710967E+03  0.71582123483E+03 -0.13180852359E+04  0.15259374431E+04  0.12699999809E+01 0. -1.
</event>
<event>
 5   0  0.1091076E-06  0.3007197E+04  0.7818609E-02  0.8241679E-01
       -1   -1    0    0    0  501  0.00000000000E+00  0.00000000000E+00  0.14405116062E+04  0.14405116062E+04  0.50400001928E-02 0. -1.
        1   -1    0    0  501    0  0.00000000000E+00  0.00000000000E+00 -0.15694481240E+04  0.15694481240E+04  0.50400001928E-02 0.  1.
    10030    2    1    2    0    0  0.00000000000E+00  0.00000000000E+00 -0.12893651783E+03  0.30099597303E+04  0.30071968596E+04 0.  0.
        3    1    3    3  502    0  0.31356238235E+03  0.12358916023E+03  0.14022150428E+04  0.14421521018E+04  0.10100000352E+00 0. -1.
       -3    1    3    3    0  502 -0.31356238235E+03 -0.12358916023E+03 -0.15311515606E+04  0.15678076285E+04  0.10100000352E+00 0.  1.
</event>
<event>
 5   0  0.1097402E-06  0.3006332E+04  0.7818609E-02  0.8241925E-01
       -1   -1    0    0    0  501  0.00000000000E+00  0.00000000000E+00  0.11132562319E+04  0.11132562319E+04  0.50400001928E-02 0.  1.
        1   -1    0    0  501    0  0.00000000000E+00  0.00000000000E+00 -0.20296388181E+04  0.20296388181E+04  0.50400001928E-02 0. -1.
    10030    2    1    2    0    0  0.00000000000E+00  0.00000000000E+00 -0.91638258613E+03  0.31428950500E+04  0.30063320261E+04 0.  0.
        4    1    3    3  502    0 -0.66256773114E+03 -0.11782139184E+04 -0.11455711665E+04  0.17718687723E+04  0.12699999809E+01 0. -1.
       -4    1    3    3    0  502  0.66256773114E+03  0.11782139184E+04  0.22918858032E+03  0.13710262777E+04  0.12699999809E+01 0.  1.
</event>
<event>
 5   0  0.1097402E-06  0.3023753E+04  0.7818609E-02  0.8236981E-01
        1   -1    0    0  501    0  0.00000000000E+00  0.00000000000E+00  0.18549346176E+04  0.18549346177E+04  0.50400001928E-02 0.  1.
       -1   -1    0    0    0  501  0.00000000000E+00  0.00000000000E+00 -0.12322644707E+04  0.12322644707E+04  0.50400001928E-02 0. -1.
    10030    2    1    2    0    0  0.00000000000E+00  0.00000000000E+00  0.62267014699E+03  0.30871990883E+04  0.30237526518E+04 0.  0.
        4    1    3    3  502    0 -0.22137179566E+03  0.36707650997E+03 -0.11689200306E+04  0.12450406768E+04  0.12699999809E+01 0. -1.
       -4    1    3    3    0  502  0.22137179566E+03 -0.36707650997E+03  0.17915901775E+04  0.18421584116E+04  0.12699999809E+01 0.  1.
</event>
<event>
 5   0  0.1097402E-06  0.2996742E+04  0.7818609E-02  0.8244662E-01
       -1   -1    0    0    0  501  0.00000000000E+00  0.00000000000E+00  0.95091646649E+03  0.95091646650E+03  0.50400001928E-02 0. -1.
        1   -1    0    0  501    0  0.00000000000E+00  0.00000000000E+00 -0.23610017704E+04  0.23610017704E+04  0.50400001928E-02 0.  1.
    10030    2    1    2    0    0  0.00000000000E+00  0.00000000000E+00 -0.14100853039E+04  0.33119182369E+04  0.29967418714E+04 0.  0.
        4    1    3    3  502    0 -0.56116549793E+03 -0.32131065086E+03  0.78876807659E+03  0.10199529116E+04  0.12699999809E+01 0. -1.
       -4    1    3    3    0  502  0.56116549793E+03  0.32131065086E+03 -0.21988533805E+04  0.22919653252E+04  0.12699999809E+01 0.  1.
</event>
<event>
 5   0  0.1091075E-06  0.3003353E+04  0.7818609E-02  0.8242774E-01
        1   -1    0    0  501    0  0.00000000000E+00  0.00000000000E+00  0.16967994333E+04  0.16967994334E+04  0.50400001928E-02 0. -1.
       -1   -1    0    0    0  501  0.00000000000E+00  0.00000000000E+00 -0.13289920429E+04  0.13289920429E+04  0.50400001928E-02 0.  1.
    10030    2    1    2    0    0  0.00000000000E+00  0.00000000000E+00  0.36780739043E+03  0.30257914763E+04  0.30033534227E+04 0.  0.
        1    1    3    3  502    0 -0.10437963682E+04 -0.38942105275E+03 -0.83053172239E+03  0.13895835910E+04  0.50400001928E-02 0.  1.
       -1    1    3    3    0  502  0.10437963682E+04  0.38942105275E+03  0.11983391128E+04  0.16362078853E+04  0.50400001928E-02 0. -1.
</event>
<event>
 5   0  0.1113245E-06  0.2970855E+04  0.7818609E-02  0.8252103E-01
        1   -1    0    0  501    0  0.00000000000E+00  0.00000000000E+00  0.14622664219E+04  0.14622664219E+04  0.50400001928E-02 0. -1.
       -1   -1    0    0    0  501  0.00000000000E+00  0.00000000000E+00 -0.15089556938E+04  0.15089556938E+04  0.50400001928E-02 0.  1.
    10030    2    1    2    0    0  0.00000000000E+00  0.00000000000E+00 -0.46689271924E+02  0.29712221157E+04  0.29708552595E+04 0.  0.
        5    1    3    3  502    0 -0.92026231273E+03  0.88536803582E+03  0.73550716976E+03  0.14736865915E+04  0.46999998093E+01 0. -1.
       -5    1    3    3    0  502  0.92026231273E+03 -0.88536803582E+03 -0.78219644168E+03  0.14975355243E+04  0.46999998093E+01 0.  1.
</event>
<event>
 5   0  0.2970915E-06  0.3298189E+04  0.7818609E-02  0.8163356E-01
        2   -1    0    0  501    0  0.00000000000E+00  0.00000000000E+00  0.16170986403E+04  0.16170986403E+04  0.25500000920E-02 0. -1.
       -2   -1    0    0    0  501  0.00000000000E+00  0.00000000000E+00 -0.16817233743E+04  0.16817233743E+04  0.25500000920E-02 0.  1.
    10030    2    1    2    0    0  0.00000000000E+00  0.00000000000E+00 -0.64624733954E+02  0.32988220146E+04  0.32981889466E+04 0.  0.
        4    1    3    3  502    0 -0.15005128064E+03 -0.80316276247E+03  0.14004168275E+04  0.16213434903E+04  0.12699999809E+01 0. -1.
       -4    1    3    3    0  502  0.15005128064E+03  0.80316276247E+03 -0.14650415615E+04  0.16774785243E+04  0.12699999809E+01 0.  1.
</event>
<event>
 5   0  0.1113245E-06  0.2989776E+04  0.7818609E-02  0.8246656E-01
       -1   -1    0    0    0  501  0.00000000000E+00  0.00000000000E+00  0.15261642820E+04  0.15261642821E+04  0.50400001928E-02 0. -1.
        1   -1    0    0  501    0  0.00000000000E+00  0.00000000000E+00 -0.14642524719E+04  0.14642524719E+04  0.50400001928E-02 0.  1.
    10030    2    1    2    0    0  0.00000000000E+00  0.00000000000E+00  0.61911810109E+02  0.29904167540E+04  0.29897757927E+04 0.  0.
        5    1    3    3  502    0 -0.77585054653E+03 -0.46067699166E+03 -0.11611470699E+04  0.14705277859E+04  0.46999998093E+01 0.  1.
       -5    1    3    3    0  502  0.77585054653E+03  0.46067699166E+03  0.12230588800E+04  0.15198889681E+04  0.46999998093E+01 0. -1.
</event>
<event>
 5   0  0.2970915E-06  0.3007565E+04  0.7818609E-02  0.8241574E-01
        2   -1    0    0  501    0  0.00000000000E+00  0.00000000000E+00  0.19299730270E+04  0.19299730270E+04  0.25500000920E-02 0. -1.
       -2   -1    0    0    0  501  0.00000000000E+00  0.00000000000E+00 -0.11717065188E+04  0.11717065188E+04  0.25500000920E-02 0.  1.
    10030    2    1    2    0    0  0.00000000000E+00  0.00000000000E+00  0.75826650818E+03  0.31016795458E+04  0.30075651128E+04 0.  0.
        4    1    3    3  502    0  0.12462141668E+04  0.30067097098E+03  0.11898024104E+04  0.17490237766E+04  0.12699999809E+01 0. -1.
       -4    1    3    3    0  502 -0.12462141668E+04 -0.30067097098E+03 -0.43153590226E+03  0.13526557692E+04  0.12699999809E+01 0.  1.
</event>
<event>
 5   0  0.1091075E-06  0.2996289E+04  0.7818609E-02  0.8244791E-01
        1   -1    0    0  501    0  0.00000000000E+00  0.00000000000E+00  0.17280019133E+04  0.17280019133E+04  0.50400001928E-02 0.  1.
       -1   -1    0    0    0  501  0.00000000000E+00  0.00000000000E+00 -0.12988629389E+04  0.12988629389E+04  0.50400001928E-02 0. -1.
    10030    2    1    2    0    0  0.00000000000E+00  0.00000000000E+00  0.42913897443E+03  0.30268648522E+04  0.29962894677E+04 0.  0.
        1    1    3    3  502    0 -0.10075205078E+04 -0.16269147550E+03 -0.89337726808E+03  0.13563513678E+04  0.50400001928E-02 0. -1.
       -1    1    3    3    0  502  0.10075205078E+04  0.16269147550E+03  0.13225162425E+04  0.16705134844E+04  0.50400001928E-02 0.  1.
</event>
<event>
 5   0  0.3113328E-06  0.3026519E+04  0.7818609E-02  0.8236198E-01
        2   -1    0    0  501    0  0.00000000000E+00  0.00000000000E+00  0.22367557795E+04  0.22367557795E+04  0.25500000920E-02 0.  1.
       -2   -1    0    0    0  501  0.00000000000E+00  0.00000000000E+00 -0.10237838893E+04  0.10237838893E+04  0.25500000920E-02 0. -1.
    10030    2    1    2    0    0  0.00000000000E+00  0.00000000000E+00  0.12129718902E+04  0.32605396688E+04  0.30265191434E+04 0.  0.
        1    1    3    3  502    0 -0.11288867791E+04 -0.97603220785E+03  0.33622955875E+03  0.15297302204E+04  0.50400001928E-02 0. -1.
       -1    1    3    3    0  502  0.11288867791E+04  0.97603220785E+03  0.87674233144E+03  0.17308094484E+04  0.50400001928E-02 0.  1.
</event>
<event>
 5   0  0.1091076E-06  0.2985567E+04  0.7818609E-02  0.8247864E-01
       -1   -1    0    0    0  501  0.00000000000E+00  0.00000000000E+00  0.15199335369E+04  0.15199335369E+04  0.50400001928E-02 0. -1.
        1   -1    0    0  501    0  0.00000000000E+00  0.00000000000E+00 -0.14661187951E+04  0.14661187951E+04  0.50400001928E-02 0.  1.
    10030    2    1    2    0    0  0.00000000000E+00  0.00000000000E+00  0.53814741811E+02  0.29860523320E+04  0.29855673670E+04 0.  0.
        3    1    3    3  502    0 -0.86493692952E+03 -0.37662452191E+02 -0.11893776477E+04  0.14711062339E+04  0.10100000352E+00 0.  1.
       -3    1    3    3    0  502  0.86493692952E+03  0.37662452191E+02  0.12431923896E+04  0.15149460981E+04  0.10100000352E+00 0. -1.
</event>
<event>
 5   0  0.2862033E-06  0.2967289E+04  0.7818609E-02  0.8253134E-01
       -2   -1    0    0    0  501  0.00000000000E+00  0.00000000000E+00  0.16020471597E+04  0.16020471597E+04  0.25500000920E-02 0.  1.
        2   -1    0    0  501    0  0.00000000000E+00  0.00000000000E+00 -0.13739923204E+04  0.13739923204E+04  0.25500000920E-02 0. -1.
    10030    2    1    2    0    0  0.00000000000E+00  0.00000000000E+00  0.22805483925E+03  0.29760394801E+04  0.29672886576E+04 0.  0.
        2    1    3    3  502    0 -0.11785286885E+03  0.14470137032E+04 -0.19259060269E+03  0.14645235048E+04  0.25500000920E-02 0. -1.
       -2    1    3    3    0  502  0.11785286885E+03 -0.14470137032E+04  0.42064544193E+03  0.15115159753E+04  0.25500000920E-02 0.  1.
</event>
<event>
 5   0  0.1091075E-06  0.2985213E+04  0.7818609E-02  0.8247966E-01
       -1   -1    0    0    0  501  0.00000000000E+00  0.00000000000E+00  0.12760159985E+04  0.12760159985E+04  0.50400001928E-02 0. -1.
        1   -1    0    0  501    0  0.00000000000E+00  0.00000000000E+00 -0.17459606960E+04  0.17459606960E+04  0.50400001928E-02 0.  1.
    10030    2    1    2    0    0  0.00000000000E+00  0.00000000000E+00 -0.46994469750E+03  0.30219766946E+04  0.29852127435E+04 0.  0.
        1    1    3    3  502    0 -0.70050710355E+02  0.75836462707E+03 -0.15344674057E+04  0.17130715773E+04  0.50400001928E-02 0.  1.
       -1    1    3    3    0  502  0.70050710355E+02 -0.75836462707E+03  0.10645227082E+04  0.13089051173E+04  0.50400001928E-02 0. -1.
</event>
<event>
 5   0  0.1091076E-06  0.3004383E+04  0.7818609E-02  0.8242480E-01
       -1   -1    0    0    0  501  0.00000000000E+00  0.00000000000E+00  0.18420095655E+04  0.18420095655E+04  0.50400001928E-02 0.  1.
        1   -1    0    0  501    0  0.00000000000E+00  0.00000000000E+00 -0.12250637276E+04  0.12250637276E+04  0.50400001928E-02 0. -1.
    10030    2    1    2    0    0  0.00000000000E+00  0.00000000000E+00  0.61694583791E+03  0.30670732931E+04  0.30043828681E+04 0.  0.
        3    1    3    3  502    0 -0.12541546912E+04 -0.20636570519E+03 -0.50891422586E+03  0.13691181444E+04  0.10100000352E+00 0. -1.
       -3    1    3    3    0  502  0.12541546912E+04  0.20636570519E+03  0.11258600638E+04  0.16979551487E+04  0.10100000352E+00 0.  1.
</event>
<event>
 5   0  0.1091075E-06  0.2991191E+04  0.7818609E-02  0.8246251E-01
        1   -1    0    0  501    0  0.00000000000E+00  0.00000000000E+00  0.18276695897E+04  0.18276695897E+04  0.50400001928E-02 0. -1.
       -1   -1    0    0    0  501  0.00000000000E+00  0.00000000000E+00 -0.12238567424E+04  0.12238567424E+04  0.50400001928E-02 0.  1.
    10030    2    1    2    0    0  0.00000000000E+00  0.00000000000E+00  0.60381284732E+03  0.30515263320E+04  0.29911909001E+04 0.  0.
        1    1    3    3  502    0 -0.49243433082E+03  0.69280403259E+03 -0.95349964092E+03  0.12773529516E+04  0.50400001928E-02 0.  1.
       -1    1    3    3    0  502  0.49243433082E+03 -0.69280403259E+03  0.15573124882E+04  0.17741733804E+04  0.50400001928E-02 0. -1.
</event>
<event>
 5   0  0.2948711E-06  0.2721685E+04  0.7818609E-02  0.8328003E-01
        2   -1    0    0  501    0  0.00000000000E+00  0.00000000000E+00  0.17803317952E+04  0.17803317952E+04  0.25500000920E-02 0.  1.
       -2   -1    0    0    0  501  0.00000000000E+00  0.00000000000E+00 -0.10401952323E+04  0.10401952323E+04  0.25500000920E-02 0. -1.
    10030    2    1    2    0    0  0.00000000000E+00  0.00000000000E+00  0.74013656289E+03  0.28205270275E+04  0.27216852466E+04 0.  0.
        5    1    3    3  502    0  0.10053004449E+04  0.24864825097E+03  0.12849752144E+04  0.16503449121E+04  0.46999998093E+01 0.  1.
       -5    1    3    3    0  502 -0.10053004449E+04 -0.24864825097E+03 -0.54483865153E+03  0.11701821155E+04  0.46999998093E+01 0. -1.
</event>
<event>
 5   0  0.2985941E-06  0.3035716E+04  0.7818609E-02  0.8233605E-01
       -2   -1    0    0    0  501  0.00000000000E+00  0.00000000000E+00  0.10206492905E+04  0.10206492906E+04  0.25500000920E-02 0. -1.
        2   -1    0    0  501    0  0.00000000000E+00  0.00000000000E+00 -0.22572816655E+04  0.22572816655E+04  0.25500000920E-02 0.  1.
    10030    2    1    2    0    0  0.00000000000E+00  0.00000000000E+00 -0.12366323749E+04  0.32779309560E+04  0.30357160147E+04 0.  0.
        3    1    3    3  502    0 -0.83415945884E+03  0.12053337631E+04 -0.19287210550E+03  0.14784624252E+04  0.10100000352E+00 0. -1.
       -3    1    3    3    0  502  0.83415945884E+03 -0.12053337631E+04 -0.10437602694E+04  0.17994685309E+04  0.10100000352E+00 0.  1.
</event>
<event>
 5   0  0.3113328E-06  0.2988195E+04  0.7818609E-02  0.8247110E-01
       -2   -1    0    0    0  501  0.00000000000E+00  0.00000000000E+00  0.88770583834E+03  0.88770583835E+03  0.25500000920E-02 0. -1.
        2   -1    0    0  501    0  0.00000000000E+00  0.00000000000E+00 -0.25147151763E+04  0.25147151763E+04  0.25500000920E-02 0.  1.
    10030    2    1    2    0    0  0.00000000000E+00  0.00000000000E+00 -0.16270093380E+04  0.34024210147E+04  0.29881950029E+04 0.  0.
        1    1    3    3  502    0  0.80226840801E+02  0.29500120957E+03  0.85171231872E+03  0.90491763908E+03  0.50400001928E-02 0. -1.
       -1    1    3    3    0  502 -0.80226840801E+02 -0.29500120957E+03 -0.24787216567E+04  0.24975033756E+04  0.50400001928E-02 0.  1.
</event>
<event>
 5   0  0.1054384E-06  0.3014179E+04  0.7818609E-02  0.8239693E-01
       -1   -1    0    0    0  501  0.00000000000E+00  0.00000000000E+00  0.12122548124E+04  0.12122548124E+04  0.50400001928E-02 0. -1.
        1   -1    0    0  501    0  0.00000000000E+00  0.00000000000E+00 -0.18736317213E+04  0.18736317213E+04  0.50400001928E-02 0.  1.
    10030    2    1    2    0    0  0.00000000000E+00  0.00000000000E+00 -0.66137690889E+03  0.30858865337E+04  0.30141792056E+04 0.  0.
        2    1    3    3  502    0  0.52990264360E+03 -0.76726090856E+03  0.88146894506E+03  0.12831498800E+04  0.25500000920E-02 0. -1.
       -2    1    3    3    0  502 -0.52990264360E+03  0.76726090856E+03 -0.15428458540E+04  0.18027366537E+04  0.25500000920E-02 0.  1.
</event>
<event>
 5   0  0.1091075E-06  0.3010805E+04  0.7818609E-02  0.8240652E-01
       -1   -1    0    0    0  501  0.00000000000E+00  0.00000000000E+00  0.10840283629E+04  0.10840283629E+04  0.50400001928E-02 0. -1.
        1   -1    0    0  501    0  0.00000000000E+00  0.00000000000E+00 -0.20905700900E+04  0.20905700900E+04  0.50400001928E-02 0.  1.
    10030    2    1    2    0    0  0.00000000000E+00  0.00000000000E+00 -0.10065417272E+04  0.31745984529E+04  0.30108053887E+04 0.  0.
        1    1    3    3  502    0  0.24411249260E+03  0.12099035242E+04  0.40546185564E+03  0.12991754167E+04  0.50400001928E-02 0. -1.
       -1    1    3    3    0  502 -0.24411249260E+03 -0.12099035242E+04 -0.14120035828E+04  0.18754230362E+04  0.50400001928E-02 0.  1.
</event>
<event>
 5   0  0.2948711E-06  0.3016599E+04  0.7818609E-02  0.8239007E-01
        2   -1    0    0  501    0  0.00000000000E+00  0.00000000000E+00  0.26513048097E+04  0.26513048097E+04  0.25500000920E-02 0.  1.
       -2   -1    0    0    0  501  0.00000000000E+00  0.00000000000E+00 -0.85805580243E+03  0.85805580243E+03  0.25500000920E-02 0. -1.
    10030    2    1    2    0    0  0.00000000000E+00  0.00000000000E+00  0.17932490072E+04  0.35093606121E+04  0.30165990625E+04 0.  0.
        5    1    3    3  502    0  0.14225820874E+04 -0.49755460030E+03  0.96686050661E+03  0.17905702178E+04  0.46999998093E+01 0.  1.
       -5    1    3    3    0  502 -0.14225820874E+04  0.49755460030E+03  0.82638850063E+03  0.17187903943E+04  0.46999998093E+01 0. -1.
</event>
<event>
 5   0  0.1113245E-06  0.2875060E+04  0.7818609E-02  0.8280337E-01
       -1   -1    0    0    0  501  0.00000000000E+00  0.00000000000E+00  0.95987604966E+03  0.95987604968E+03  0.50400001928E-02 0. -1.
        1   -1    0    0  501    0  0.00000000000E+00  0.00000000000E+00 -0.21528742633E+04  0.21528742633E+04  0.50400001928E-02 0.  1.
    10030    2    1    2    0    0  0.00000000000E+00  0.00000000000E+00 -0.11929982137E+04  0.31127503130E+04  0.28750599600E+04 0.  0.
        5    1    3    3  502    0 -0.30566533743E+03 -0.58965605910E+03  0.78379022180E+03  0.10273630168E+04  0.46999998093E+01 0. -1.
       -5    1    3    3    0  502  0.30566533743E+03  0.58965605910E+03 -0.19767884355E+04  0.20853872962E+04  0.46999998093E+01 0.  1.
</event>
<event>
 5   0  0.1097402E-06  0.3049304E+04  0.7818609E-02  0.8229790E-01
        1   -1    0    0  501    0  0.00000000000E+00  0.00000000000E+00  0.23857127936E+04  0.23857127936E+04  0.50400001928E-02 0.  1.
       -1   -1    0    0    0  501  0.00000000000E+00  0.00000000000E+00 -0.97436868224E+03  0.97436868226E+03  0.50400001928E-02 0. -1.
    10030    2    1    2    0    0  0.00000000000E+00  0.00000000000E+00  0.14113441114E+04  0.33600814759E+04  0.30493040721E+04 0.  0.
        4    1    3    3  502    0  0.50735477926E+03  0.56073770694E+03  0.21645070071E+04  0.22927991288E+04  0.12699999809E+01 0.  1.
       -4    1    3    3    0  502 -0.50735477926E+03 -0.56073770694E+03 -0.75316289576E+03  0.10672823471E+04  0.12699999809E+01 0. -1.
</event>
<event>
 5   0  0.2948711E-06  0.2997041E+04  0.7818609E-02  0.8244576E-01
       -2   -1    0    0    0  501  0.00000000000E+00  0.00000000000E+00  0.18309438175E+04  0.18309438175E+04  0.25500000920E-02 0. -1.
        2   -1    0    0  501    0  0.00000000000E+00  0.00000000000E+00 -0.12264511450E+04  0.12264511450E+04  0.25500000920E-02 0.  1.
    10030    2    1    2    0    0  0.00000000000E+00  0.00000000000E+00  0.60449267244E+03  0.30573949625E+04  0.29970406346E+04 0.  0.
        5    1    3    3  502    0  0.56116799807E+03  0.12019879035E+04  0.10133173443E+04  0.16692868455E+04  0.46999998093E+01 0. -1.
       -5    1    3    3    0  502 -0.56116799807E+03 -0.12019879035E+04 -0.40882467189E+03  0.13881081170E+04  0.46999998093E+01 0.  1.
</event>
<event>
 5   0  0.9749500E-07  0.2969842E+04  0.7818609E-02  0.8252395E-01
        3   -1    0    0  501    0  0.00000000000E+00  0.00000000000E+00  0.82284486888E+03  0.82284487508E+03  0.10100000352E+00 0. -1.
       -3   -1    0    0    0  501  0.00000000000E+00  0.00000000000E+00 -0.26797162068E+04  0.26797162087E+04  0.10100000352E+00 0.  1.
    10030    2    1    2    0    0  0.00000000000E+00  0.00000000000E+00 -0.18568713379E+04  0.35025610837E+04  0.29698422483E+04 0.  0.
        1    1    3    3  502    0 -0.41662815488E+03  0.95212563416E+03  0.32240851903E+03  0.10881495742E+04  0.50400001928E-02 0. -1.
       -1    1    3    3    0  502  0.41662815488E+03 -0.95212563416E+03 -0.21792798569E+04  0.24144115095E+04  0.50400001928E-02 0.  1.
</event>
<event>
 5   0  0.2948711E-06  0.2976954E+04  0.7818609E-02  0.8250342E-01
       -2   -1    0    0    0  501  0.00000000000E+00  0.00000000000E+00  0.13326387917E+04  0.13326387917E+04  0.25500000920E-02 0. -1.
        2   -1    0    0  501    0  0.00000000000E+00  0.00000000000E+00 -0.16625393470E+04  0.16625393470E+04  0.25500000920E-02 0.  1.
    10030    2    1    2    0    0  0.00000000000E+00  0.00000000000E+00 -0.32990055526E+03  0.29951781387E+04  0.29769544347E+04 0.  0.
        5    1    3    3  502    0 -0.44221782888E+03  0.96553875392E+03 -0.12142731883E+04  0.16131655709E+04  0.46999998093E+01 0.  1.
       -5    1    3    3    0  502  0.44221782888E+03 -0.96553875392E+03  0.88437263302E+03  0.13820125678E+04  0.46999998093E+01 0. -1.
</event>
<event>
 5   0  0.2970915E-06  0.2913176E+04  0.7818609E-02  0.8268968E-01
       -2   -1    0    0    0  501  0.00000000000E+00  0.00000000000E+00  0.80212184244E+03  0.80212184245E+03  0.25500000920E-02 0. -1.
        2   -1    0    0  501    0  0.00000000000E+00  0.00000000000E+00 -0.26450458340E+04  0.26450458340E+04  0.25500000920E-02 0.  1.
    10030    2    1    2    0    0  0.00000000000E+00  0.00000000000E+00 -0.18429239915E+04  0.34471676764E+04  0.29131762993E+04 0.  0.
        4    1    3    3  502    0 -0.12516207062E+04 -0.11157008217E+03 -0.49788976856E+02  0.12575702090E+04  0.12699999809E+01 0. -1.
       -4    1    3    3    0  502  0.12516207062E+04  0.11157008217E+03 -0.17931350147E+04  0.21895974674E+04  0.12699999809E+01 0.  1.
</event>
<event>
 5   0  0.3113328E-06  0.2963000E+04  0.7818609E-02  0.8254376E-01
       -2   -1    0    0    0  501  0.00000000000E+00  0.00000000000E+00  0.12826641857E+04  0.12826641857E+04  0.25500000920E-02 0.  1.
        2   -1    0    0  501    0  0.00000000000E+00  0.00000000000E+00 -0.17111591590E+04  0.17111591590E+04  0.25500000920E-02 0. -1.
    10030    2    1    2    0    0  0.00000000000E+00  0.00000000000E+00 -0.42849497331E+03  0.29938233446E+04  0.29630002154E+04 0.  0.
        1    1    3    3  502    0  0.12331707211E+04  0.81665638702E+03 -0.30001208961E+03  0.15091868459E+04  0.50400001928E-02 0. -1.
       -1    1    3    3    0  502 -0.12331707211E+04 -0.81665638702E+03 -0.12848288369E+03  0.14846364987E+04  0.50400001928E-02 0.  1.
</event>
<event>
 5   0  0.3113328E-06  0.2997377E+04  0.7818609E-02  0.8244480E-01
        2   -1    0    0  501    0  0.00000000000E+00  0.00000000000E+00  0.16323336907E+04  0.16323336907E+04  0.25500000920E-02 0.  1.
       -2   -1    0    0    0  501  0.00000000000E+00  0.00000000000E+00 -0.13759857093E+04  0.13759857093E+04  0.25500000920E-02 0. -1.
    10030    2    1    2    0    0  0.00000000000E+00  0.00000000000E+00  0.25634798140E+03  0.30083194000E+04  0.29973774078E+04 0.  0.
        1    1    3    3  502    0  0.53087091610E+02 -0.84288443620E+03 -0.11144067320E+04  0.13982756440E+04  0.50400001928E-02 0. -1.
       -1    1    3    3    0  502 -0.53087091610E+02  0.84288443620E+03  0.13707547134E+04  0.16100437561E+04  0.50400001928E-02 0.  1.
</event>
<event>
 5   0  0.1054384E-06  0.2985701E+04  0.7818609E-02  0.8247826E-01
        1   -1    0    0  501    0  0.00000000000E+00  0.00000000000E+00  0.21388586193E+04  0.21388586193E+04  0.50400001928E-02 0.  1.
       -1   -1    0    0    0  501  0.00000000000E+00  0.00000000000E+00 -0.10419589010E+04  0.10419589010E+04  0.50400001928E-02 0. -1.
    10030    2    1    2    0    0  0.00000000000E+00  0.00000000000E+00  0.10968997183E+04  0.31808175203E+04  0.29857011078E+04 0.  0.
        2    1    3    3  502    0 -0.73969107042E+03 -0.20863190029E+03 -0.81500399076E+03  0.11202239305E+04  0.25500000920E-02 0. -1.
       -2    1    3    3    0  502  0.73969107042E+03  0.20863190029E+03  0.19119037091E+04  0.20605935898E+04  0.25500000920E-02 0.  1.
</event>
<event>
 5   0  0.3113328E-06  0.2998361E+04  0.7818609E-02  0.8244199E-01
        2   -1    0    0  501    0  0.00000000000E+00  0.00000000000E+00  0.21781839912E+04  0.21781839912E+04  0.25500000920E-02 0.  1.
       -2   -1    0    0    0  501  0.00000000000E+00  0.00000000000E+00 -0.10318418633E+04  0.10318418633E+04  0.25500000920E-02 0. -1.
    10030    2    1    2    0    0  0.00000000000E+00  0.00000000000E+00  0.11463421279E+04  0.32100258545E+04  0.29983605041E+04 0.  0.
        1    1    3    3  502    0 -0.24261190555E+03 -0.36241108683E+03 -0.96242723155E+03  0.10566307343E+04  0.50400001928E-02 0. -1.
       -1    1    3    3    0  502  0.24261190555E+03  0.36241108683E+03  0.21087693594E+04  0.21533951202E+04  0.50400001928E-02 0.  1.
</event>
<event>
 5   0  0.1113245E-06  0.2940382E+04  0.7818609E-02  0.8260963E-01
       -1   -1    0    0    0  501  0.00000000000E+00  0.00000000000E+00  0.12241094110E+04  0.12241094110E+04  0.50400001928E-02 0.  1.
        1   -1    0    0  501    0  0.00000000000E+00  0.00000000000E+00 -0.17657422842E+04  0.17657422842E+04  0.50400001928E-02 0. -1.
    10030    2    1    2    0    0  0.00000000000E+00  0.00000000000E+00 -0.54163287321E+03  0.29898516953E+04  0.29403821164E+04 0.  0.
        5    1    3    3  502    0 -0.15626553794E+03 -0.54049419704E+03 -0.16519342645E+04  0.17451251530E+04  0.46999998093E+01 0. -1.
       -5    1    3    3    0  502  0.15626553794E+03  0.54049419704E+03  0.11103013913E+04  0.12447265422E+04  0.46999998093E+01 0.  1.
</event>
<event>
 5   0  0.1091076E-06  0.2807656E+04  0.7818609E-02  0.8300896E-01
        1   -1    0    0  501    0  0.00000000000E+00  0.00000000000E+00  0.11532396289E+04  0.11532396289E+04  0.50400001928E-02 0.  1.
       -1   -1    0    0    0  501  0.00000000000E+00  0.00000000000E+00 -0.17088663834E+04  0.17088663834E+04  0.50400001928E-02 0. -1.
    10030    2    1    2    0    0  0.00000000000E+00  0.00000000000E+00 -0.55562675449E+03  0.28621060124E+04  0.28076555586E+04 0.  0.
        3    1    3    3  502    0 -0.94325682232E+03 -0.95997286615E+03 -0.68487075499E+03  0.15100759245E+04  0.10100000352E+00 0.  1.
       -3    1    3    3    0  502  0.94325682232E+03  0.95997286615E+03  0.12924400050E+03  0.13520300879E+04  0.10100000352E+00 0. -1.
</event>
<event>
 5   0  0.2970915E-06  0.3011362E+04  0.7818609E-02  0.8240494E-01
       -2   -1    0    0    0  501  0.00000000000E+00  0.00000000000E+00  0.18974098110E+04  0.18974098110E+04  0.25500000920E-02 0.  1.
        2   -1    0    0  501    0  0.00000000000E+00  0.00000000000E+00 -0.11948267486E+04  0.11948267486E+04  0.25500000920E-02 0. -1.
    10030    2    1    2    0    0  0.00000000000E+00  0.00000000000E+00  0.70258306239E+03  0.30922365596E+04  0.30113624791E+04 0.  0.
        4    1    3    3  502    0 -0.74295509146E+03 -0.13081817128E+04  0.28838687565E+03  0.15318257945E+04  0.12699999809E+01 0. -1.
       -4    1    3    3    0  502  0.74295509146E+03  0.13081817128E+04  0.41419618674E+03  0.15604107651E+04  0.12699999809E+01 0.  1.
</event>
<event>
 5   0  0.1091075E-06  0.2997050E+04  0.7818609E-02  0.8244574E-01
       -1   -1    0    0    0  501  0.00000000000E+00  0.00000000000E+00  0.85164270481E+03  0.85164270483E+03  0.50400001928E-02 0.  1.
        1   -1    0    0  501    0  0.00000000000E+00  0.00000000000E+00 -0.26367588946E+04  0.26367588946E+04  0.50400001928E-02 0. -1.
    10030    2    1    2    0    0  0.00000000000E+00  0.00000000000E+00 -0.17851161898E+04  0.34884015994E+04  0.29970495338E+04 0.  0.
        1    1    3    3  502    0 -0.67262623911E+03 -0.38389958461E+03 -0.23857558507E+04  0.25083133631E+04  0.50400001928E-02 0. -1.
       -1    1    3    3    0  502  0.67262623911E+03  0.38389958461E+03  0.60063966091E+03  0.98008823628E+03  0.50400001928E-02 0.  1.
</event>
<event>
 5   0  0.2985941E-06  0.2952558E+04  0.7818609E-02  0.8257409E-01
        2   -1    0    0  501    0  0.00000000000E+00  0.00000000000E+00  0.12360788246E+04  0.12360788246E+04  0.25500000920E-02 0. -1.
       -2   -1    0    0    0  501  0.00000000000E+00  0.00000000000E+00 -0.17631562896E+04  0.17631562896E+04  0.25500000920E-02 0.  1.
    10030    2    1    2    0    0  0.00000000000E+00  0.00000000000E+00 -0.52707746495E+03  0.29992351142E+04  0.29525583172E+04 0.  0.
        3    1    3    3  502    0  0.51285136509E+03 -0.59133723668E+03 -0.15350068926E+04  0.17230619318E+04  0.10100000352E+00 0.  1.
       -3    1    3    3    0  502 -0.51285136509E+03  0.59133723668E+03  0.10079294277E+04  0.12761731824E+04  0.10100000352E+00 0. -1.
</event>
<event>
 5   0  0.2985941E-06  0.2996370E+04  0.7818609E-02  0.8244768E-01
       -2   -1    0    0    0  501  0.00000000000E+00  0.00000000000E+00  0.19983515083E+04  0.19983515083E+04  0.25500000920E-02 0.  1.
        2   -1    0    0  501    0  0.00000000000E+00  0.00000000000E+00 -0.11232051160E+04  0.11232051160E+04  0.25500000920E-02 0. -1.
    10030    2    1    2    0    0  0.00000000000E+00  0.00000000000E+00  0.87514639228E+03  0.31215566243E+04  0.29963702293E+04 0.  0.
        3    1    3    3  502    0 -0.97538997611E+03 -0.11354220503E+04  0.50337696230E+03  0.15792267773E+04  0.10100000352E+00 0. -1.
       -3    1    3    3    0  502  0.97538997611E+03  0.11354220503E+04  0.37176942998E+03  0.15423298470E+04  0.10100000352E+00 0.  1.
</event>
<event>
 5   0  0.2985941E-06  0.2997896E+04  0.7818609E-02  0.8244332E-01
        2   -1    0    0  501    0  0.00000000000E+00  0.00000000000E+00  0.11626523872E+04  0.11626523872E+04  0.25500000920E-02 0. -1.
       -2   -1    0    0    0  501  0.00000000000E+00  0.00000000000E+00 -0.19325164173E+04  0.19325164174E+04  0.25500000920E-02 0.  1.
    10030    2    1    2    0    0  0.00000000000E+00  0.00000000000E+00 -0.76986403018E+03  0.30951688045E+04  0.29978958127E+04 0.  0.
        3    1    3    3  502    0  0.11689173636E+04 -0.88543260353E+03 -0.70563294514E+03  0.16273526237E+04  0.10100000352E+00 0.  1.
       -3    1    3    3    0  502 -0.11689173636E+04  0.88543260353E+03 -0.64231085040E+02  0.14678161809E+04  0.10100000352E+00 0. -1.
</event>
<event>
 5   0  0.1054384E-06  0.3009064E+04  0.7818609E-02  0.8241147E-01
        1   -1    0    0  501    0  0.00000000000E+00  0.00000000000E+00  0.14885982157E+04  0.14885982157E+04  0.50400001928E-02 0. -1.
       -1   -1    0    0    0  501  0.00000000000E+00  0.00000000000E+00 -0.15206368413E+04  0.15206368414E+04  0.50400001928E-02 0.  1.
    10030    2    1    2    0    0  0.00000000000E+00  0.00000000000E+00 -0.32038625667E+02  0.30092350570E+04  0.30090644983E+04 0.  0.
        2    1    3    3  502    0  0.19086506305E+03  0.56198096669E+03 -0.13986189998E+04  0.15193377458E+04  0.25500000920E-02 0.  1.
       -2    1    3    3    0  502 -0.19086506305E+03 -0.56198096669E+03  0.13665803741E+04  0.14898973113E+04  0.25500000920E-02 0. -1.
</event>
<event>
 5   0  0.2948711E-06  0.3022238E+04  0.7818609E-02  0.8237409E-01
       -2   -1    0    0    0  501  0.00000000000E+00  0.00000000000E+00  0.13342181985E+04  0.13342181986E+04  0.25500000920E-02 0.  1.
        2   -1    0    0  501    0  0.00000000000E+00  0.00000000000E+00 -0.17114750133E+04  0.17114750133E+04  0.25500000920E-02 0. -1.
    10030    2    1    2    0    0  0.00000000000E+00  0.00000000000E+00 -0.37725681472E+03  0.30456932118E+04  0.30222383156E+04 0.  0.
        5    1    3    3  502    0 -0.11288854848E+04  0.93674992587E+03 -0.55417778446E+03  0.15681256226E+04  0.46999998093E+01 0. -1.
       -5    1    3    3    0  502  0.11288854848E+04 -0.93674992587E+03  0.17692096974E+03  0.14775675893E+04  0.46999998093E+01 0.  1.
</event>
<event>
 5   0  0.2948711E-06  0.3002213E+04  0.7818609E-02  0.8243099E-01
       -2   -1    0    0    0  501  0.00000000000E+00  0.00000000000E+00  0.88046737698E+03  0.88046737698E+03  0.25500000920E-02 0. -1.
        2   -1    0    0  501    0  0.00000000000E+00  0.00000000000E+00 -0.25592329366E+04  0.25592329366E+04  0.25500000920E-02 0.  1.
    10030    2    1    2    0    0  0.00000000000E+00  0.00000000000E+00 -0.16787655596E+04  0.34397003136E+04  0.30022132574E+04 0.  0.
        5    1    3    3  502    0 -0.11441625708E+04 -0.21816767976E+03 -0.19242509231E+04  0.22493263058E+04  0.46999998093E+01 0.  1.
       -5    1    3    3    0  502  0.11441625708E+04  0.21816767976E+03  0.24548536343E+03  0.11903740078E+04  0.46999998093E+01 0. -1.
</event>
<event>
 5   0  0.2970915E-06  0.3006613E+04  0.7818609E-02  0.8241845E-01
        2   -1    0    0  501    0  0.00000000000E+00  0.00000000000E+00  0.12939630464E+04  0.12939630464E+04  0.25500000920E-02 0. -1.
       -2   -1    0    0    0  501  0.00000000000E+00  0.00000000000E+00 -0.17465183478E+04  0.17465183478E+04  0.25500000920E-02 0.  1.
    10030    2    1    2    0    0  0.00000000000E+00  0.00000000000E+00 -0.45255530139E+03  0.30404813942E+04  0.30066128463E+04 0.  0.
        4    1    3    3  502    0 -0.68452416625E+03 -0.10153671450E+04  0.65554562797E+03  0.13889872053E+04  0.12699999809E+01 0. -1.
       -4    1    3    3    0  502  0.68452416625E+03  0.10153671450E+04 -0.11081009294E+04  0.16514941889E+04  0.12699999809E+01 0.  1.
</event>
<event>
 5   0  0.2970915E-06  0.2965848E+04  0.7818609E-02  0.8253551E-01
        2   -1    0    0  501    0  0.00000000000E+00  0.00000000000E+00  0.27711832913E+04  0.27711832913E+04  0.25500000920E-02 0.  1.
       -2   -1    0    0    0  501  0.00000000000E+00  0.00000000000E+00 -0.79354685965E+03  0.79354685966E+03  0.25500000920E-02 0. -1.
    10030    2    1    2    0    0  0.00000000000E+00  0.00000000000E+00  0.19776364317E+04  0.35647301510E+04  0.29658481407E+04 0.  0.
        4    1    3    3  502    0 -0.14799448707E+03 -0.14435508707E+04  0.13559878406E+04  0.19860629701E+04  0.12699999809E+01 0.  1.
       -4    1    3    3    0  502  0.14799448707E+03  0.14435508707E+04  0.62164859110E+03  0.15786671809E+04  0.12699999809E+01 0. -1.
</event>
<event>
 5   0  0.1097402E-06  0.3005827E+04  0.7818609E-02  0.8242069E-01
       -1   -1    0    0    0  501  0.00000000000E+00  0.00000000000E+00  0.12038930173E+04  0.12038930174E+04  0.50400001928E-02 0. -1.
        1   -1    0    0  501    0  0.00000000000E+00  0.00000000000E+00 -0.18762037161E+04  0.18762037161E+04  0.50400001928E-02 0.  1.
    10030    2    1    2    0    0  0.00000000000E+00  0.00000000000E+00 -0.67231069878E+03  0.30800967335E+04  0.30058267102E+04 0.  0.
        4    1    3    3  502    0 -0.11407638757E+04 -0.97127332246E+03 -0.21476800596E+03  0.15135524425E+04  0.12699999809E+01 0. -1.
       -4    1    3    3    0  502  0.11407638757E+04  0.97127332246E+03 -0.45754269282E+03  0.15665442910E+04  0.12699999809E+01 0.  1.
</event>
<event>
 5   0  0.2985941E-06  0.2987976E+04  0.7818609E-02  0.8247173E-01
       -2   -1    0    0    0  501  0.00000000000E+00  0.00000000000E+00  0.11556739726E+04  0.11556739726E+04  0.25500000920E-02 0.  1.
        2   -1    0    0  501    0  0.00000000000E+00  0.00000000000E+00 -0.19313411727E+04  0.19313411727E+04  0.25500000920E-02 0. -1.
    10030    2    1    2    0    0  0.00000000000E+00  0.00000000000E+00 -0.77566720006E+03  0.30870151453E+04  0.29879763892E+04 0.  0.
        3    1    3    3  502    0 -0.75765288877E+03 -0.10035203045E+04 -0.12213650840E+04  0.17529471128E+04  0.10100000352E+00 0. -1.
       -3    1    3    3    0  502  0.75765288877E+03  0.10035203045E+04  0.44569788397E+03  0.13340680326E+04  0.10100000352E+00 0.  1.
</event>
<event>
 5   0  0.1097402E-06  0.3008799E+04  0.7818609E-02  0.8241223E-01
       -1   -1    0    0    0  501  0.00000000000E+00  0.00000000000E+00  0.92727443293E+03  0.92727443294E+03  0.50400001928E-02 0. -1.
        1   -1    0    0  501    0  0.00000000000E+00  0.00000000000E+00 -0.24407204549E+04  0.24407204549E+04  0.50400001928E-02 0.  1.
    10030    2    1    2    0    0  0.00000000000E+00  0.00000000000E+00 -0.15134460220E+04  0.33679948879E+04  0.30087988805E+04 0.  0.
        4    1    3    3  502    0  0.65942172309E+03  0.20448452950E+03  0.73947024056E+03  0.10116663389E+04  0.12699999809E+01 0. -1.
       -4    1    3    3    0  502 -0.65942172309E+03 -0.20448452950E+03 -0.22529162626E+04  0.23563285490E+04  0.12699999809E+01 0.  1.
</event>
<event>
 5   0  0.3113328E-06  0.2961367E+04  0.7818609E-02  0.8254849E-01
        2   -1    0    0  501    0  0.00000000000E+00  0.00000000000E+00  0.10652010763E+04  0.10652010763E+04  0.25500000920E-02 0.  1.
       -2   -1    0    0    0  501  0.00000000000E+00  0.00000000000E+00 -0.20582256836E+04  0.20582256836E+04  0.25500000920E-02 0. -1.
    10030    2    1    2    0    0  0.00000000000E+00  0.00000000000E+00 -0.99302460727E+03  0.31234267599E+04  0.29613673960E+04 0.  0.
        1    1    3    3  502    0  0.33347823828E+03  0.81444657006E+03 -0.17524289178E+04  0.19610043505E+04  0.50400001928E-02 0. -1.
       -1    1    3    3    0  502 -0.33347823828E+03 -0.81444657006E+03  0.75940431054E+03  0.11624224094E+04  0.50400001928E-02 0.  1.
</event>
<event>
 5   0  0.2862033E-06  0.2962755E+04  0.7818609E-02  0.8254447E-01
        2   -1    0    0  501    0  0.00000000000E+00  0.00000000000E+00  0.22799829011E+04  0.22799829011E+04  0.25500000920E-02 0.  1.
       -2   -1    0    0    0  501  0.00000000000E+00  0.00000000000E+00 -0.96249785916E+03  0.96249785917E+03  0.25500000920E-02 0. -1.
    10030    2    1    2    0    0  0.00000000000E+00  0.00000000000E+00  0.13174850419E+04  0.32424807603E+04  0.29627545705E+04 0.  0.
        2    1    3    3  502    0 -0.71882119559E+01  0.12921932911E+04 -0.13398174522E+03  0.12991405929E+04  0.25500000920E-02 0. -1.
       -2    1    3    3    0  502  0.71882119559E+01 -0.12921932911E+04  0.14514667871E+04  0.19433401674E+04  0.25500000920E-02 0.  1.
</event>
<event>
 5   0  0.1097402E-06  0.3027452E+04  0.7818609E-02  0.8235935E-01
        1   -1    0    0  501    0  0.00000000000E+00  0.00000000000E+00  0.13277167261E+04  0.13277167261E+04  0.50400001928E-02 0. -1.
       -1   -1    0    0    0  501  0.00000000000E+00  0.00000000000E+00 -0.17257943003E+04  0.17257943003E+04  0.50400001928E-02 0.  1.
    10030    2    1    2    0    0  0.00000000000E+00  0.00000000000E+00 -0.39807757417E+03  0.30535110264E+04  0.30274517061E+04 0.  0.
        4    1    3    3  502    0  0.20362855655E+03 -0.12194152245E+04 -0.10800137220E+04  0.16416057174E+04  0.12699999809E+01 0.  1.
       -4    1    3    3    0  502 -0.20362855655E+03  0.12194152245E+04  0.68193614780E+03  0.14119053090E+04  0.12699999809E+01 0. -1.
</event>
<event>
 5   0  0.1054384E-06  0.2986832E+04  0.7818609E-02  0.8247501E-01
       -1   -1    0    0    0  501  0.00000000000E+00  0.00000000000E+00  0.23958395914E+04  0.23958395914E+04  0.50400001928E-02 0.  1.
        1   -1    0    0  501    0  0.00000000000E+00  0.00000000000E+00 -0.93090177574E+03  0.93090177575E+03  0.50400001928E-02 0. -1.
    10030    2    1    2    0    0  0.00000000000E+00  0.00000000000E+00  0.14649378157E+04  0.33267413672E+04  0.29868319873E+04 0.  0.
        2    1    3    3  502    0 -0.40529447533E+03  0.74253061348E+03  0.21032500392E+04  0.22669971441E+04  0.25500000920E-02 0.  1.
       -2    1    3    3    0  502  0.40529447533E+03 -0.74253061348E+03 -0.63831222355E+03  0.10597442231E+04  0.25500000920E-02 0. -1.
</event>
<event>
 5   0  0.2970915E-06  0.3003213E+04  0.7818609E-02  0.8242814E-01
       -2   -1    0    0    0  501  0.00000000000E+00  0.00000000000E+00  0.13838182764E+04  0.13838182764E+04  0.25500000920E-02 0. -1.
        2   -1    0    0  501    0  0.00000000000E+00  0.00000000000E+00 -0.16294210406E+04  0.16294210406E+04  0.25500000920E-02 0.  1.
    10030    2    1    2    0    0  0.00000000000E+00  0.00000000000E+00 -0.24560276420E+03  0.30132393170E+04  0.30032133564E+04 0.  0.
        4    1    3    3  502    0 -0.12627570993E+04  0.53659186846E+03 -0.73503078357E+03  0.15565211823E+04  0.12699999809E+01 0.  1.
       -4    1    3    3    0  502  0.12627570993E+04 -0.53659186846E+03  0.48942801937E+03  0.14567181348E+04  0.12699999809E+01 0. -1.
</event>
<event>
 5   0  0.2970915E-06  0.2971161E+04  0.7818609E-02  0.8252014E-01
       -2   -1    0    0    0  501  0.00000000000E+00  0.00000000000E+00  0.12133957333E+04  0.12133957333E+04  0.25500000920E-02 0. -1.
        2   -1    0    0  501    0  0.00000000000E+00  0.00000000000E+00 -0.18188213509E+04  0.18188213509E+04  0.25500000920E-02 0.  1.
    10030    2    1    2    0    0  0.00000000000E+00  0.00000000000E+00 -0.60542561756E+03  0.30322170842E+04  0.29711614340E+04 0.  0.
        4    1    3    3  502    0  0.80537268205E+03 -0.61242054730E+03 -0.14128456095E+04  0.17377624731E+04  0.12699999809E+01 0.  1.
       -4    1    3    3    0  502 -0.80537268205E+03  0.61242054730E+03  0.80741999195E+03  0.12944546110E+04  0.12699999809E+01 0. -1.
</event>
<event>
 5   0  0.1097402E-06  0.2979808E+04  0.7818609E-02  0.8249520E-01
        1   -1    0    0  501    0  0.00000000000E+00  0.00000000000E+00  0.14385180858E+04  0.14385180858E+04  0.50400001928E-02 0.  1.
       -1   -1    0    0    0  501  0.00000000000E+00  0.00000000000E+00 -0.15431253663E+04  0.15431253663E+04  0.50400001928E-02 0. -1.
    10030    2    1    2    0    0  0.00000000000E+00  0.00000000000E+00 -0.10460728046E+03  0.29816434522E+04  0.29798078785E+04 0.  0.
        4    1    3    3  502    0  0.12738015802E+03  0.63057089535E+03  0.12923868176E+04  0.14436449210E+04  0.12699999809E+01 0.  1.
       -4    1    3    3    0  502 -0.12738015802E+03 -0.63057089535E+03 -0.13969940981E+04  0.15379985311E+04  0.12699999809E+01 0. -1.
</event>
<event>
 5   0  0.1054384E-06  0.2985279E+04  0.7818609E-02  0.8247947E-01
       -1   -1    0    0    0  501  0.00000000000E+00  0.00000000000E+00  0.14477214467E+04  0.14477214467E+04  0.50400001928E-02 0.  1.
        1   -1    0    0  501    0  0.00000000000E+00  0.00000000000E+00 -0.15389516227E+04  0.15389516227E+04  0.50400001928E-02 0. -1.
    10030    2    1    2    0    0  0.00000000000E+00  0.00000000000E+00 -0.91230176021E+02  0.29866730694E+04  0.29852793970E+04 0.  0.
        2    1    3    3  502    0  0.71662183951E+03  0.42036493447E+03 -0.12862422798E+04  0.15312324257E+04  0.25500000920E-02 0. -1.
       -2    1    3    3    0  502 -0.71662183951E+03 -0.42036493447E+03  0.11950121038E+04  0.14554406437E+04  0.25500000920E-02 0.  1.
</event>
<event>
 5   0  0.2948711E-06  0.3009010E+04  0.7818609E-02  0.8241163E-01
        2   -1    0    0  501    0  0.00000000000E+00  0.00000000000E+00  0.16160666561E+04  0.16160666561E+04  0.25500000920E-02 0. -1.
       -2   -1    0    0    0  501  0.00000000000E+00  0.00000000000E+00 -0.14006450167E+04  0.14006450167E+04  0.25500000920E-02 0.  1.
    10030    2    1    2    0    0  0.00000000000E+00  0.00000000000E+00  0.21542163941E+03  0.30167116728E+04  0.30090102748E+04 0.  0.
        5    1    3    3  502    0  0.45882565014E+03  0.96127630904E+03  0.11729463889E+04  0.15844236936E+04  0.46999998093E+01 0. -1.
       -5    1    3    3    0  502 -0.45882565014E+03 -0.96127630904E+03 -0.95752474945E+03  0.14322879792E+04  0.46999998093E+01 0.  1.
</event>
<event>
 5   0  0.2948711E-06  0.2986807E+04  0.7818609E-02  0.8247508E-01
        2   -1    0    0  501    0  0.00000000000E+00  0.00000000000E+00  0.17025375103E+04  0.17025375103E+04  0.25500000920E-02 0. -1.
       -2   -1    0    0    0  501  0.00000000000E+00  0.00000000000E+00 -0.13099588910E+04  0.13099588910E+04  0.25500000920E-02 0.  1.
    10030    2    1    2    0    0  0.00000000000E+00  0.00000000000E+00  0.39257861925E+03  0.30124964013E+04  0.29868070905E+04 0.  0.
        5    1    3    3  502    0 -0.68341230539E+02 -0.86853550676E+03 -0.10270765155E+04  0.13468231915E+04  0.46999998093E+01 0.  1.
       -5    1    3    3    0  502  0.68341230539E+02  0.86853550676E+03  0.14196551348E+04  0.16656732099E+04  0.46999998093E+01 0. -1.
</event>
<event>
 5   0  0.1113245E-06  0.2996853E+04  0.7818609E-02  0.8244630E-01
       -1   -1    0    0    0  501  0.00000000000E+00  0.00000000000E+00  0.16102749646E+04  0.16102749647E+04  0.50400001928E-02 0.  1.
        1   -1    0    0  501    0  0.00000000000E+00  0.00000000000E+00 -0.13943471171E+04  0.13943471172E+04  0.50400001928E-02 0. -1.
    10030    2    1    2    0    0  0.00000000000E+00  0.00000000000E+00  0.21592784750E+03  0.30046220818E+04  0.29968531861E+04 0.  0.
        5    1    3    3  502    0 -0.20882981035E+02 -0.15915866800E+03  0.16016221538E+04  0.16096531284E+04  0.46999998093E+01 0.  1.
       -5    1    3    3    0  502  0.20882981035E+02  0.15915866800E+03 -0.13856943062E+04  0.13949689534E+04  0.46999998093E+01 0. -1.
</event>
<event>
 5   0  0.2862033E-06  0.3010939E+04  0.7818609E-02  0.8240614E-01
       -2   -1    0    0    0  501  0.00000000000E+00  0.00000000000E+00  0.21779455825E+04  0.21779455825E+04  0.25500000920E-02 0.  1.
        2   -1    0    0  501    0  0.00000000000E+00  0.00000000000E+00 -0.10406310618E+04  0.10406310618E+04  0.25500000920E-02 0. -1.
    10030    2    1    2    0    0  0.00000000000E+00  0.00000000000E+00  0.11373145207E+04  0.32185766443E+04  0.30109386072E+04 0.  0.
        2    1    3    3  502    0 -0.68091529612E+03 -0.10645721782E+04 -0.30598447098E+03  0.13002253880E+04  0.25500000920E-02 0. -1.
       -2    1    3    3    0  502  0.68091529612E+03  0.10645721782E+04  0.14432989917E+04  0.19183512563E+04  0.25500000920E-02 0.  1.
</event>
<event>
 5   0  0.1097402E-06  0.2997945E+04  0.7818609E-02  0.8244318E-01
       -1   -1    0    0    0  501  0.00000000000E+00  0.00000000000E+00  0.11843773018E+04  0.11843773019E+04  0.50400001928E-02 0.  1.
        1   -1    0    0  501    0  0.00000000000E+00  0.00000000000E+00 -0.18971303831E+04  0.18971303831E+04  0.50400001928E-02 0. -1.
    10030    2    1    2    0    0  0.00000000000E+00  0.00000000000E+00 -0.71275308125E+03  0.30815076850E+04  0.29979447389E+04 0.  0.
        4    1    3    3  502    0 -0.12656812103E+04  0.58329545617E+03 -0.92379062779E+03  0.16719967860E+04  0.12699999809E+01 0. -1.
       -4    1    3    3    0  502  0.12656812103E+04 -0.58329545617E+03  0.21103754654E+03  0.14095108990E+04  0.12699999809E+01 0.  1.
</event>
<event>
 5   0  0.2985941E-06  0.2875049E+04  0.7818609E-02  0.8280340E-01
        2   -1    0    0  501    0  0.00000000000E+00  0.00000000000E+00  0.23779816437E+04  0.23779816437E+04  0.25500000920E-02 0.  1.
       -2   -1    0    0    0  501  0.00000000000E+00  0.00000000000E+00 -0.86900473621E+03  0.86900473622E+03  0.25500000920E-02 0. -1.
    10030    2    1    2    0    0  0.00000000000E+00  0.00000000000E+00  0.15089769075E+04  0.32469863799E+04  0.28750494333E+04 0.  0.
        3    1    3    3  502    0 -0.83532690630E+03  0.70121512535E+03 -0.30314661046E+03  0.11319768417E+04  0.10100000352E+00 0. -1.
       -3    1    3    3    0  502  0.83532690630E+03 -0.70121512535E+03  0.18121235179E+04  0.21150095382E+04  0.10100000352E+00 0.  1.
</event>
<event>
 5   0  0.9749500E-07  0.2851973E+04  0.7818609E-02  0.8287312E-01
        4   -1    0    0  501    0  0.00000000000E+00  0.00000000000E+00  0.16458864383E+04  0.16458869282E+04  0.12699999809E+01 0. -1.
       -4   -1    0    0    0  501  0.00000000000E+00  0.00000000000E+00 -0.12354658832E+04  0.12354665359E+04  0.12699999809E+01 0.  1.
    10030    2    1    2    0    0  0.00000000000E+00  0.00000000000E+00  0.41042055509E+03  0.28813534642E+04  0.28519734840E+04 0.  0.
        3    1    3    3  502    0 -0.97080433373E+03 -0.10037937703E+04  0.49693247353E+03  0.14822296991E+04  0.10100000352E+00 0. -1.
       -3    1    3    3    0  502  0.97080433373E+03  0.10037937703E+04 -0.86511918439E+02  0.13991237650E+04  0.10100000352E+00 0.  1.
</event>
<event>
 5   0  0.2862033E-06  0.3007169E+04  0.7818609E-02  0.8241687E-01
        2   -1    0    0  501    0  0.00000000000E+00  0.00000000000E+00  0.21600432967E+04  0.21600432967E+04  0.25500000920E-02 0.  1.
       -2   -1    0    0    0  501  0.00000000000E+00  0.00000000000E+00 -0.10466298667E+04  0.10466298668E+04  0.25500000920E-02 0. -1.
    10030    2    1    2    0    0  0.00000000000E+00  0.00000000000E+00  0.11134134300E+04  0.32066731635E+04  0.30071686536E+04 0.  0.
        2    1    3    3  502    0  0.16137929382E+03  0.37892488294E+03 -0.98530725713E+03  0.10679221574E+04  0.25500000920E-02 0. -1.
       -2    1    3    3    0  502 -0.16137929382E+03 -0.37892488294E+03  0.20987206871E+04  0.21387510060E+04  0.25500000920E-02 0.  1.
</event>
<event>
 5   0  0.1091076E-06  0.2916160E+04  0.7818609E-02  0.8268085E-01
        1   -1    0    0  501    0  0.00000000000E+00  0.00000000000E+00  0.18540922733E+04  0.18540922733E+04  0.50400001928E-02 0. -1.
       -1   -1    0    0    0  501  0.00000000000E+00  0.00000000000E+00 -0.11466516026E+04  0.11466516026E+04  0.50400001928E-02 0.  1.
    10030    2    1    2    0    0  0.00000000000E+00  0.00000000000E+00  0.70744067069E+03  0.30007438759E+04  0.29161604047E+04 0.  0.
        3    1    3    3  502    0 -0.12603210162E+04 -0.48753923105E+03 -0.20978966241E+03  0.13675215824E+04  0.10100000352E+00 0. -1.
       -3    1    3    3    0  502  0.12603210162E+04  0.48753923105E+03  0.91723033310E+03  0.16332222935E+04  0.10100000352E+00 0.  1.
</event>
<event>
 5   0  0.2862033E-06  0.2991048E+04  0.7818609E-02  0.8246292E-01
       -2   -1    0    0    0  501  0.00000000000E+00  0.00000000000E+00  0.11734122464E+04  0.11734122464E+04  0.25500000920E-02 0.  1.
        2   -1    0    0  501    0  0.00000000000E+00  0.00000000000E+00 -0.19060576151E+04  0.19060576151E+04  0.25500000920E-02 0. -1.
    10030    2    1    2    0    0  0.00000000000E+00  0.00000000000E+00 -0.73264536870E+03  0.30794698616E+04  0.29910475409E+04 0.  0.
        2    1    3    3  502    0 -0.13055407300E+04  0.59012179642E+03 -0.80784891902E+03  0.16447796838E+04  0.25500000920E-02 0. -1.
       -2    1    3    3    0  502  0.13055407300E+04 -0.59012179642E+03  0.75203550321E+02  0.14346901778E+04  0.25500000920E-02 0.  1.
</event>
<event>
 5   0  0.1113245E-06  0.3000738E+04  0.7818609E-02  0.8243520E-01
        1   -1    0    0  501    0  0.00000000000E+00  0.00000000000E+00  0.16305106668E+04  0.16305106668E+04  0.50400001928E-02 0.  1.
       -1   -1    0    0    0  501  0.00000000000E+00  0.00000000000E+00 -0.13806145622E+04  0.13806145623E+04  0.50400001928E-02 0. -1.
    10030    2    1    2    0    0  0.00000000000E+00  0.00000000000E+00  0.24989610455E+03  0.30111252291E+04  0.30007377563E+04 0.  0.
        5    1    3    3  502    0  0.92886651756E+03  0.69793968453E+02 -0.10553124524E+04  0.14076116892E+04  0.46999998093E+01 0. -1.
       -5    1    3    3    0  502 -0.92886651756E+03 -0.69793968453E+02  0.13052085569E+04  0.16035135399E+04  0.46999998093E+01 0.  1.
</event>
<event>
 5   0  0.1097402E-06  0.2995943E+04  0.7818609E-02  0.8244890E-01
        1   -1    0    0  501    0  0.00000000000E+00  0.00000000000E+00  0.12551012242E+04  0.12551012242E+04  0.50400001928E-02 0.  1.
       -1   -1    0    0    0  501  0.00000000000E+00  0.00000000000E+00 -0.17878385707E+04  0.17878385707E+04  0.50400001928E-02 0. -1.
    10030    2    1    2    0    0  0.00000000000E+00  0.00000000000E+00 -0.53273734647E+03  0.30429397949E+04  0.29959428424E+04 0.  0.
        4    1    3    3  502    0  0.31736130990E+03 -0.13117687383E+04 -0.92653493177E+03  0.16370473471E+04  0.12699999809E+01 0. -1.
       -4    1    3    3    0  502 -0.31736130990E+03  0.13117687383E+04  0.39379758530E+03  0.14058924478E+04  0.12699999809E+01 0.  1.
</event>
<event>
 5   0  0.2985941E-06  0.2984367E+04  0.7818609E-02  0.8248209E-01
        2   -1    0    0  501    0  0.00000000000E+00  0.00000000000E+00  0.23326684952E+04  0.23326684952E+04  0.25500000920E-02 0.  1.
       -2   -1    0    0    0  501  0.00000000000E+00  0.00000000000E+00 -0.95453436756E+03  0.95453436756E+03  0.25500000920E-02 0. -1.
    10030    2    1    2    0    0  0.00000000000E+00  0.00000000000E+00  0.13781341277E+04  0.32872028628E+04  0.29843674350E+04 0.  0.
        3    1    3    3  502    0 -0.10767768547E+04  0.81985474287E+02  0.18233403919E+04  0.21191366657E+04  0.10100000352E+00 0.  1.
       -3    1    3    3    0  502  0.10767768547E+04 -0.81985474287E+02 -0.44520626423E+03  0.11680661971E+04  0.10100000352E+00 0. -1.
</event>
<event>
 5   0  0.1091076E-06  0.3009716E+04  0.7818609E-02  0.8240962E-01
        1   -1    0    0  501    0  0.00000000000E+00  0.00000000000E+00  0.20726599182E+04  0.20726599182E+04  0.50400001928E-02 0.  1.
       -1   -1    0    0    0  501  0.00000000000E+00  0.00000000000E+00 -0.10926042581E+04  0.10926042581E+04  0.50400001928E-02 0. -1.
    10030    2    1    2    0    0  0.00000000000E+00  0.00000000000E+00  0.98005566008E+03  0.31652641763E+04  0.30097156359E+04 0.  0.
        3    1    3    3  502    0  0.14073854404E+04  0.48906201981E+03  0.26772300916E+03  0.15138002037E+04  0.10100000352E+00 0.  1.
       -3    1    3    3    0  502 -0.14073854404E+04 -0.48906201981E+03  0.71233265092E+03  0.16514639726E+04  0.10100000352E+00 0. -1.
</event>
<event>
 5   0  0.1054384E-06  0.2989301E+04  0.7818609E-02  0.8246793E-01
        1   -1    0    0  501    0  0.00000000000E+00  0.00000000000E+00  0.11772689721E+04  0.11772689721E+04  0.50400001928E-02 0. -1.
       -1   -1    0    0    0  501  0.00000000000E+00  0.00000000000E+00 -0.18975956695E+04  0.18975956696E+04  0.50400001928E-02 0.  1.
    10030    2    1    2    0    0  0.00000000000E+00  0.00000000000E+00 -0.72032669744E+03  0.30748646417E+04  0.29893012584E+04 0.  0.
        2    1    3    3  502    0  0.99459895831E+03  0.21046191624E+03 -0.14871791866E+04  0.18014503155E+04  0.25500000920E-02 0.  1.
       -2    1    3    3    0  502 -0.99459895831E+03 -0.21046191624E+03  0.76685248915E+03  0.12734143262E+04  0.25500000920E-02 0. -1.
</event>
<event>
 5   0  0.1054384E-06  0.3010793E+04  0.7818609E-02  0.8240656E-01
       -1   -1    0    0    0  501  0.00000000000E+00  0.00000000000E+00  0.13454272393E+04  0.13454272394E+04  0.50400001928E-02 0. -1.
        1   -1    0    0  501    0  0.00000000000E+00  0.00000000000E+00 -0.16843860353E+04  0.16843860353E+04  0.50400001928E-02 0.  1.
    10030    2    1    2    0    0  0.00000000000E+00  0.00000000000E+00 -0.33895879595E+03  0.30298132747E+04  0.30107931536E+04 0.  0.
        2    1    3    3  502    0 -0.10770862238E+04  0.28259733264E+03  0.84995672903E+03  0.14008577469E+04  0.25500000920E-02 0. -1.
       -2    1    3    3    0  502  0.10770862238E+04 -0.28259733264E+03 -0.11889155250E+04  0.16289555278E+04  0.25500000920E-02 0.  1.
</event>
<event>
 5   0  0.2970915E-06  0.2974983E+04  0.7818609E-02  0.8250911E-01
        2   -1    0    0  501    0  0.00000000000E+00  0.00000000000E+00  0.17468896172E+04  0.17468896172E+04  0.25500000920E-02 0. -1.
       -2   -1    0    0    0  501  0.00000000000E+00  0.00000000000E+00 -0.12666115832E+04  0.12666115832E+04  0.25500000920E-02 0.  1.
    10030    2    1    2    0    0  0.00000000000E+00  0.00000000000E+00  0.48027803402E+03  0.30135012003E+04  0.29749827721E+04 0.  0.
        4    1    3    3  502    0 -0.12350995176E+04  0.51875690882E+03 -0.41479982574E+03  0.14023694439E+04  0.12699999809E+01 0.  1.
       -4    1    3    3    0  502  0.12350995176E+04 -0.51875690882E+03  0.89507785976E+03  0.16111317565E+04  0.12699999809E+01 0. -1.
</event>
<event>
 5   0  0.1091075E-06  0.2992617E+04  0.7818609E-02  0.8245842E-01
       -1   -1    0    0    0  501  0.00000000000E+00  0.00000000000E+00  0.13531994723E+04  0.13531994724E+04  0.50400001928E-02 0. -1.
        1   -1    0    0  501    0  0.00000000000E+00  0.00000000000E+00 -0.16545524904E+04  0.16545524904E+04  0.50400001928E-02 0.  1.
    10030    2    1    2    0    0  0.00000000000E+00  0.00000000000E+00 -0.30135301807E+03  0.30077519628E+04  0.29926172873E+04 0.  0.
        1    1    3    3  502    0 -0.14445453253E+04 -0.48625558280E+02 -0.53975692868E+03  0.15428587699E+04  0.50400001928E-02 0.  1.
       -1    1    3    3    0  502  0.14445453253E+04  0.48625558280E+02  0.23840391060E+03  0.14648931929E+04  0.50400001928E-02 0. -1.
</event>
<event>
 5   0  0.1091075E-06  0.3014618E+04  0.7818609E-02  0.8239569E-01
       -1   -1    0    0    0  501  0.00000000000E+00  0.00000000000E+00  0.11927533862E+04  0.11927533862E+04  0.50400001928E-02 0. -1.
        1   -1    0    0  501    0  0.00000000000E+00  0.00000000000E+00 -0.19048204019E+04  0.19048204019E+04  0.50400001928E-02 0.  1.
    10030    2    1    2    0    0  0.00000000000E+00  0.00000000000E+00 -0.71206701569E+03  0.30975737881E+04  0.30146183736E+04 0.  0.
        1    1    3    3  502    0  0.85703553962E+03  0.87417777331E+03 -0.12595974929E+04  0.17564972359E+04  0.50400001928E-02 0. -1.
       -1    1    3    3    0  502 -0.85703553962E+03 -0.87417777331E+03  0.54753047721E+03  0.13410765523E+04  0.50400001928E-02 0.  1.
</event>
<event>
 5   0  0.2948711E-06  0.2991734E+04  0.7818609E-02  0.8246095E-01
        2   -1    0    0  501    0  0.00000000000E+00  0.00000000000E+00  0.20389848043E+04  0.20389848043E+04  0.25500000920E-02 0. -1.
       -2   -1    0    0    0  501  0.00000000000E+00  0.00000000000E+00 -0.10974174600E+04  0.10974174600E+04  0.25500000920E-02 0.  1.
    10030    2    1    2    0    0  0.00000000000E+00  0.00000000000E+00  0.94156734425E+03  0.31364022643E+04  0.29917336278E+04 0.  0.
        5    1    3    3  502    0 -0.12693816568E+04 -0.77974189000E+03  0.61247950004E+03  0.16107390954E+04  0.46999998093E+01 0. -1.
       -5    1    3    3    0  502  0.12693816568E+04  0.77974189000E+03  0.32908784421E+03  0.15256631688E+04  0.46999998093E+01 0.  1.
</event>
<event>
 5   0  0.3113328E-06  0.2983998E+04  0.7818609E-02  0.8248315E-01
       -2   -1    0    0    0  501  0.00000000000E+00  0.00000000000E+00  0.76979542313E+03  0.76979542313E+03  0.25500000920E-02 0. -1.
        2   -1    0    0  501    0  0.00000000000E+00  0.00000000000E+00 -0.28917565583E+04  0.28917565583E+04  0.25500000920E-02 0.  1.
    10030    2    1    2    0    0  0.00000000000E+00  0.00000000000E+00 -0.21219611352E+04  0.36615519814E+04  0.29839979647E+04 0.  0.
        1    1    3    3  502    0 -0.26287857709E+03 -0.68535107804E+03  0.53290215651E+03  0.90708100791E+03  0.50400001928E-02 0. -1.
       -1    1    3    3    0  502  0.26287857709E+03  0.68535107804E+03 -0.26548632917E+04  0.27544709735E+04  0.50400001928E-02 0.  1.
</event>
<event>
 5   0  0.3113328E-06  0.2974472E+04  0.7818609E-02  0.8251058E-01
       -2   -1    0    0    0  501  0.00000000000E+00  0.00000000000E+00  0.14207968349E+04  0.14207968349E+04  0.25500000920E-02 0. -1.
        2   -1    0    0  501    0  0.00000000000E+00  0.00000000000E+00 -0.15567822361E+04  0.15567822361E+04  0.25500000920E-02 0.  1.
    10030    2    1    2    0    0  0.00000000000E+00  0.00000000000E+00 -0.13598540122E+03  0.29775790709E+04  0.29744722380E+04 0.  0.
        1    1    3    3  502    0  0.64359827393E+03  0.32070376116E+03  0.12352125475E+04  0.14292724297E+04  0.50400001928E-02 0. -1.
       -1    1    3    3    0  502 -0.64359827393E+03 -0.32070376116E+03 -0.13711979488E+04  0.15483066413E+04  0.50400001928E-02 0.  1.
</event>
<event>
 5   0  0.1091076E-06  0.2901045E+04  0.7818609E-02  0.8272567E-01
        1   -1    0    0  501    0  0.00000000000E+00  0.00000000000E+00  0.22128308834E+04  0.22128308834E+04  0.50400001928E-02 0. -1.
       -1   -1    0    0    0  501  0.00000000000E+00  0.00000000000E+00 -0.95082524752E+03  0.95082524754E+03  0.50400001928E-02 0.  1.
    10030    2    1    2    0    0  0.00000000000E+00  0.00000000000E+00  0.12620056359E+04  0.31636561310E+04  0.29010449652E+04 0.  0.
        3    1    3    3  502    0 -0.14335747303E+04  0.19261690812E+03  0.51265378452E+03  0.15346177680E+04  0.10100000352E+00 0.  1.
       -3    1    3    3    0  502  0.14335747303E+04 -0.19261690812E+03  0.74935185138E+03  0.16290383630E+04  0.10100000352E+00 0. -1.
</event>
<event>
 5   0  0.2948711E-06  0.2960169E+04  0.7818609E-02  0.8255197E-01
        2   -1    0    0  501    0  0.00000000000E+00  0.00000000000E+00  0.17280166405E+04  0.17280166405E+04  0.25500000920E-02 0.  1.
       -2   -1    0    0    0  501  0.00000000000E+00  0.00000000000E+00 -0.12677251784E+04  0.12677251784E+04  0.25500000920E-02 0. -1.
    10030    2    1    2    0    0  0.00000000000E+00  0.00000000000E+00  0.46029146213E+03  0.29957418190E+04  0.29601690519E+04 0.  0.
        5    1    3    3  502    0 -0.38394110586E+03  0.58701840727E+03 -0.10888301231E+04  0.12952121488E+04  0.46999998093E+01 0. -1.
       -5    1    3    3    0  502  0.38394110586E+03 -0.58701840727E+03  0.15491215853E+04  0.17005296702E+04  0.46999998093E+01 0.  1.
</event>
<event>
 5   0  0.2862033E-06  0.2996095E+04  0.7818609E-02  0.8244847E-01
       -2   -1    0    0    0  501  0.00000000000E+00  0.00000000000E+00  0.19323800023E+04  0.19323800023E+04  0.25500000920E-02 0.  1.
        2   -1    0    0  501    0  0.00000000000E+00  0.00000000000E+00 -0.11613380747E+04  0.11613380747E+04  0.25500000920E-02 0. -1.
    10030    2    1    2    0    0  0.00000000000E+00  0.00000000000E+00  0.77104192760E+03  0.30937180770E+04  0.29960951063E+04 0.  0.
        2    1    3    3  502    0  0.71295498437E+03 -0.90915015076E+03  0.13701571436E+04  0.17922581858E+04  0.25500000920E-02 0. -1.
       -2    1    3    3    0  502 -0.71295498437E+03  0.90915015076E+03 -0.59911521600E+03  0.13014598912E+04  0.25500000920E-02 0.  1.
</event>
<event>
 5   0  0.1113245E-06  0.2932515E+04  0.7818609E-02  0.8263269E-01
        1   -1    0    0  501    0  0.00000000000E+00  0.00000000000E+00  0.28686935647E+04  0.28686935647E+04  0.50400001928E-02 0.  1.
       -1   -1    0    0    0  501  0.00000000000E+00  0.00000000000E+00 -0.74943891849E+03  0.74943891851E+03  0.50400001928E-02 0. -1.
    10030    2    1    2    0    0  0.00000000000E+00  0.00000000000E+00  0.21192546462E+04  0.36181324832E+04  0.29325146906E+04 0.  0.
        5    1    3    3  502    0 -0.46111832416E+02  0.48126836307E+03  0.27675107503E+04  0.28094275896E+04  0.46999998093E+01 0.  1.
       -5    1    3    3    0  502  0.46111832416E+02 -0.48126836307E+03 -0.64825610410E+03  0.80870489357E+03  0.46999998093E+01 0. -1.
</event>
<event>
 5   0  0.3113328E-06  0.3031725E+04  0.7818609E-02  0.8234729E-01
       -2   -1    0    0    0  501  0.00000000000E+00  0.00000000000E+00  0.19590773863E+04  0.19590773863E+04  0.25500000920E-02 0.  1.
        2   -1    0    0  501    0  0.00000000000E+00  0.00000000000E+00 -0.11729188974E+04  0.11729188974E+04  0.25500000920E-02 0. -1.
    10030    2    1    2    0    0  0.00000000000E+00  0.00000000000E+00  0.78615848890E+03  0.31319962837E+04  0.30317248475E+04 0.  0.
        1    1    3    3  502    0  0.88475955856E+03 -0.10028373805E+04 -0.34421768237E+03  0.13809301579E+04  0.50400001928E-02 0. -1.
       -1    1    3    3    0  502 -0.88475955856E+03  0.10028373805E+04  0.11303761713E+04  0.17510661258E+04  0.50400001928E-02 0.  1.
</event>
<event>
 5   0  0.2970915E-06  0.2890373E+04  0.7818609E-02  0.8275748E-01
        2   -1    0    0  501    0  0.00000000000E+00  0.00000000000E+00  0.16995855862E+04  0.16995855862E+04  0.25500000920E-02 0. -1.
       -2   -1    0    0    0  501  0.00000000000E+00  0.00000000000E+00 -0.12288664320E+04  0.12288664320E+04  0.25500000920E-02 0.  1.
    10030    2    1    2    0    0  0.00000000000E+00  0.00000000000E+00  0.47071915419E+03  0.29284520182E+04  0.28903727616E+04 0.  0.
        4    1    3    3  502    0  0.65679404099E+02 -0.70787536783E+03 -0.10394542425E+04  0.12593125329E+04  0.12699999809E+01 0.  1.
       -4    1    3    3    0  502 -0.65679404099E+02  0.70787536783E+03  0.15101733967E+04  0.16691394853E+04  0.12699999809E+01 0. -1.
</event>
<event>
 5   0  0.3113328E-06  0.2995061E+04  0.7818609E-02  0.8245143E-01
        2   -1    0    0  501    0  0.00000000000E+00  0.00000000000E+00  0.17447792422E+04  0.17447792422E+04  0.25500000920E-02 0.  1.
       -2   -1    0    0    0  501  0.00000000000E+00  0.00000000000E+00 -0.12853185919E+04  0.12853185920E+04  0.25500000920E-02 0. -1.
    10030    2    1    2    0    0  0.00000000000E+00  0.00000000000E+00  0.45946065024E+03  0.30300978341E+04  0.29950607332E+04 0.  0.
        1    1    3    3  502    0 -0.27659693332E+03 -0.28492257883E+03  0.16905436501E+04  0.17365553756E+04  0.50400001928E-02 0.  1.
       -1    1    3    3    0  502  0.27659693332E+03  0.28492257883E+03 -0.12310829999E+04  0.12935424586E+04  0.50400001928E-02 0. -1.
</event>
<event>
 5   0  0.2862033E-06  0.2977323E+04  0.7818609E-02  0.8250236E-01
       -2   -1    0    0    0  501  0.00000000000E+00  0.00000000000E+00  0.92440829415E+03  0.92440829415E+03  0.25500000920E-02 0. -1.
        2   -1    0    0  501    0  0.00000000000E+00  0.00000000000E+00 -0.23973321509E+04  0.23973321509E+04  0.25500000920E-02 0.  1.
    10030    2    1    2    0    0  0.00000000000E+00  0.00000000000E+00 -0.14729238568E+04  0.33217404451E+04  0.29773234451E+04 0.  0.
        2    1    3    3  502    0 -0.61260551140E+03  0.12903583331E+04 -0.12042547347E+04  0.18682985860E+04  0.25500000920E-02 0.  1.
       -2    1    3    3    0  502  0.61260551140E+03 -0.12903583331E+04 -0.26866912208E+03  0.14534418591E+04  0.25500000920E-02 0. -1.
</event>
<event>
 5   0  0.1054384E-06  0.2947024E+04  0.7818609E-02  0.8259022E-01
       -1   -1    0    0    0  501  0.00000000000E+00  0.00000000000E+00  0.98887309733E+03  0.98887309734E+03  0.50400001928E-02 0.  1.
        1   -1    0    0  501    0  0.00000000000E+00  0.00000000000E+00 -0.21956688330E+04  0.21956688330E+04  0.50400001928E-02 0. -1.
    10030    2    1    2    0    0  0.00000000000E+00  0.00000000000E+00 -0.12067957356E+04  0.31845419303E+04  0.29470241530E+04 0.  0.
        2    1    3    3  502    0 -0.12239094610E+04 -0.74859333692E+03 -0.96647079998E+03  0.17298590001E+04  0.25500000920E-02 0. -1.
       -2    1    3    3    0  502  0.12239094610E+04  0.74859333692E+03 -0.24032493565E+03  0.14546829302E+04  0.25500000920E-02 0.  1.
</event>
<event>
 5   0  0.1054384E-06  0.2997362E+04  0.7818609E-02  0.8244485E-01
        1   -1    0    0  501    0  0.00000000000E+00  0.00000000000E+00  0.11859003963E+04  0.11859003963E+04  0.50400001928E-02 0.  1.
       -1   -1    0    0    0  501  0.00000000000E+00  0.00000000000E+00 -0.18939576131E+04  0.18939576131E+04  0.50400001928E-02 0. -1.
    10030    2    1    2    0    0  0.00000000000E+00  0.00000000000E+00 -0.70805721680E+03  0.30798580095E+04  0.29973622297E+04 0.  0.
        2    1    3    3  502    0 -0.10263485390E+04 -0.60503331069E+03 -0.12882205818E+04  0.17546990904E+04  0.25500000920E-02 0. -1.
       -2    1    3    3    0  502  0.10263485390E+04  0.60503331069E+03  0.58016336498E+03  0.13251589190E+04  0.25500000920E-02 0.  1.
</event>
<event>
 5   0  0.3113328E-06  0.3006430E+04  0.7818609E-02  0.8241897E-01
       -2   -1    0    0    0  501  0.00000000000E+00  0.00000000000E+00  0.16628740627E+04  0.16628740627E+04  0.25500000920E-02 0.  1.
        2   -1    0    0  501    0  0.00000000000E+00  0.00000000000E+00 -0.13588857675E+04  0.13588857675E+04  0.25500000920E-02 0. -1.
    10030    2    1    2    0    0  0.00000000000E+00  0.00000000000E+00  0.30398829522E+03  0.30217598302E+04  0.30064303730E+04 0.  0.
        1    1    3    3  502    0  0.13391656980E+04 -0.63564220611E+03  0.40276605087E+03  0.15361075068E+04  0.50400001928E-02 0.  1.
       -1    1    3    3    0  502 -0.13391656980E+04  0.63564220611E+03 -0.98777755653E+02  0.14856523233E+04  0.50400001928E-02 0. -1.
</event>
<event>
 5   0  0.1091075E-06  0.2957593E+04  0.7818609E-02  0.8255945E-01
       -1   -1    0    0    0  501  0.00000000000E+00  0.00000000000E+00  0.13890098074E+04  0.13890098074E+04  0.50400001928E-02 0. -1.
        1   -1    0    0  501    0  0.00000000000E+00  0.00000000000E+00 -0.15743869705E+04  0.15743869705E+04  0.50400001928E-02 0.  1.
    10030    2    1    2    0    0  0.00000000000E+00  0.00000000000E+00 -0.18537716306E+03  0.29633967779E+04  0.29575929015E+04 0.  0.
        1    1    3    3  502    0  0.93106005394E+03  0.74152939830E+03 -0.97196423290E+03  0.15367020344E+04  0.50400001928E-02 0.  1.
       -1    1    3    3    0  502 -0.93106005394E+03 -0.74152939830E+03  0.78658706983E+03  0.14266947435E+04  0.50400001928E-02 0. -1.
</event>
<event>
 5   0  0.1113245E-06  0.2996341E+04  0.7818609E-02  0.8244777E-01
       -1   -1    0    0    0  501  0.00000000000E+00  0.00000000000E+00  0.87022000866E+03  0.87022000868E+03  0.50400001928E-02 0. -1.
        1   -1    0    0  501    0  0.00000000000E+00  0.00000000000E+00 -0.25792495224E+04  0.25792495224E+04  0.50400001928E-02 0.  1.
    10030    2    1    2    0    0  0.00000000000E+00  0.00000000000E+00 -0.17090295138E+04  0.34494695311E+04  0.29963407962E+04 0.  0.
        5    1    3    3  502    0 -0.13315435577E+04 -0.86217456316E+02 -0.70284041455E+02  0.13361899687E+04  0.46999998093E+01 0. -1.
       -5    1    3    3    0  502  0.13315435577E+04  0.86217456316E+02 -0.16387454723E+04  0.21132795624E+04  0.46999998093E+01 0.  1.
</event>
<event>
 5   0  0.3113328E-06  0.2992882E+04  0.7818609E-02  0.8245766E-01
       -2   -1    0    0    0  501  0.00000000000E+00  0.00000000000E+00  0.15019562079E+04  0.15019562079E+04  0.25500000920E-02 0. -1.
        2   -1    0    0  501    0  0.00000000000E+00  0.00000000000E+00 -0.14909458670E+04  0.14909458671E+04  0.25500000920E-02 0.  1.
    10030    2    1    2    0    0  0.00000000000E+00  0.00000000000E+00  0.11010340890E+02  0.29929020750E+04  0.29928818224E+04 0.  0.
        1    1    3    3  502    0  0.12229307182E+04  0.53889060833E+03  0.67883934262E+03  0.14989281111E+04  0.50400001928E-02 0. -1.
       -1    1    3    3    0  502 -0.12229307182E+04 -0.53889060833E+03 -0.66782900173E+03  0.14939739639E+04  0.50400001928E-02 0.  1.
</event>
<event>
 5   0  0.1097402E-06  0.2988030E+04  0.7818609E-02  0.8247157E-01
       -1   -1    0    0    0  501  0.00000000000E+00  0.00000000000E+00  0.11076444266E+04  0.11076444266E+04  0.50400001928E-02 0. -1.
        1   -1    0    0  501    0  0.00000000000E+00  0.00000000000E+00 -0.20151597361E+04  0.20151597361E+04  0.50400001928E-02 0.  1.
    10030    2    1    2    0    0  0.00000000000E+00  0.00000000000E+00 -0.90751530951E+03  0.31228041627E+04  0.29880297525E+04 0.  0.
        4    1    3    3  502    0 -0.11323837505E+04  0.85948356341E+03 -0.93390781952E+03  0.17009380890E+04  0.12699999809E+01 0. -1.
       -4    1    3    3    0  502  0.11323837505E+04 -0.85948356341E+03  0.26392510002E+02  0.14218660738E+04  0.12699999809E+01 0.  1.
</event>
<event>
 5   0  0.2862033E-06  0.3052710E+04  0.7818609E-02  0.8228838E-01
        2   -1    0    0  501    0  0.00000000000E+00  0.00000000000E+00  0.17784932820E+04  0.17784932820E+04  0.25500000920E-02 0.  1.
       -2   -1    0    0    0  501  0.00000000000E+00  0.00000000000E+00 -0.13099621499E+04  0.13099621499E+04  0.25500000920E-02 0. -1.
    10030    2    1    2    0    0  0.00000000000E+00  0.00000000000E+00  0.46853113217E+03  0.30884554319E+04  0.30527095396E+04 0.  0.
        2    1    3    3  502    0 -0.29388883887E+03 -0.55789424651E+03 -0.11720260987E+04  0.13308876045E+04  0.25500000920E-02 0. -1.
       -2    1    3    3    0  502  0.29388883887E+03  0.55789424651E+03  0.16405572309E+04  0.17575678273E+04  0.25500000920E-02 0.  1.
</event>
<event>
 5   0  0.1097402E-06  0.2992438E+04  0.7818609E-02  0.8245894E-01
       -1   -1    0    0    0  501  0.00000000000E+00  0.00000000000E+00  0.10588536067E+04  0.10588536067E+04  0.50400001928E-02 0.  1.
        1   -1    0    0  501    0  0.00000000000E+00  0.00000000000E+00 -0.21142406817E+04  0.21142406817E+04  0.50400001928E-02 0. -1.
    10030    2    1    2    0    0  0.00000000000E+00  0.00000000000E+00 -0.10553870751E+04  0.31730942884E+04  0.29924380503E+04 0.  0.
        4    1    3    3  502    0 -0.11517428057E+04  0.56653557792E+03  0.28761773092E+03  0.13153705271E+04  0.12699999809E+01 0.  1.
       -4    1    3    3    0  502  0.11517428057E+04 -0.56653557792E+03 -0.13430048060E+04  0.18577237613E+04  0.12699999809E+01 0. -1.
</event>
<event>
 5   0  0.1091075E-06  0.2986245E+04  0.7818609E-02  0.8247670E-01
        1   -1    0    0  501    0  0.00000000000E+00  0.00000000000E+00  0.18683521812E+04  0.18683521812E+04  0.50400001928E-02 0.  1.
       -1   -1    0    0    0  501  0.00000000000E+00  0.00000000000E+00 -0.11932522169E+04  0.11932522169E+04  0.50400001928E-02 0. -1.
    10030    2    1    2    0    0  0.00000000000E+00  0.00000000000E+00  0.67509996429E+03  0.30616043981E+04  0.29862453899E+04 0.  0.
        1    1    3    3  502    0 -0.10763544998E+04  0.10085741357E+04  0.10007000188E+03  0.14784366073E+04  0.50400001928E-02 0.  1.
       -1    1    3    3    0  502  0.10763544998E+04 -0.10085741357E+04  0.57502996241E+03  0.15831677909E+04  0.50400001928E-02 0. -1.
</event>
<event>
 5   0  0.2948711E-06  0.2942745E+04  0.7818609E-02  0.8260272E-01
        2   -1    0    0  501    0  0.00000000000E+00  0.00000000000E+00  0.17330302891E+04  0.17330302891E+04  0.25500000920E-02 0.  1.
       -2   -1    0    0    0  501  0.00000000000E+00  0.00000000000E+00 -0.12492206147E+04  0.12492206147E+04  0.25500000920E-02 0. -1.
    10030    2    1    2    0    0  0.00000000000E+00  0.00000000000E+00  0.48380967445E+03  0.29822509038E+04  0.29427450878E+04 0.  0.
        5    1    3    3  502    0 -0.90200834410E+03  0.42882994081E+03 -0.85306346641E+03  0.13134890706E+04  0.46999998093E+01 0. -1.
       -5    1    3    3    0  502  0.90200834410E+03 -0.42882994081E+03  0.13368731409E+04  0.16687618331E+04  0.46999998093E+01 0.  1.
</event>
<event>
 5   0  0.1091076E-06  0.2999603E+04  0.7818609E-02  0.8243844E-01
       -1   -1    0    0    0  501  0.00000000000E+00  0.00000000000E+00  0.13505932261E+04  0.13505932261E+04  0.50400001928E-02 0.  1.
        1   -1    0    0  501    0  0.00000000000E+00  0.00000000000E+00 -0.16654932784E+04  0.16654932784E+04  0.50400001928E-02 0. -1.
    10030    2    1    2    0    0  0.00000000000E+00  0.00000000000E+00 -0.31490005234E+03  0.30160865045E+04  0.29996026003E+04 0.  0.
        3    1    3    3  502    0 -0.94199899198E+03  0.66968419320E+03 -0.11185084219E+04  0.16083843196E+04  0.10100000352E+00 0. -1.
       -3    1    3    3    0  502  0.94199899198E+03 -0.66968419320E+03  0.80360836954E+03  0.14077021849E+04  0.10100000352E+00 0.  1.
</event>
<event>
 5   0  0.1113245E-06  0.3006264E+04  0.7818609E-02  0.8241944E-01
       -1   -1    0    0    0  501  0.00000000000E+00  0.00000000000E+00  0.10821574111E+04  0.10821574111E+04  0.50400001928E-02 0. -1.
        1   -1    0    0  501    0  0.00000000000E+00  0.00000000000E+00 -0.20878721936E+04  0.20878721936E+04  0.50400001928E-02 0.  1.
    10030    2    1    2    0    0  0.00000000000E+00  0.00000000000E+00 -0.10057147825E+04  0.31700296047E+04  0.30062643715E+04 0.  0.
        5    1    3    3  502    0 -0.21679867730E+03 -0.12773621061E+04 -0.13064256592E+04  0.18399526378E+04  0.46999998093E+01 0. -1.
       -5    1    3    3    0  502  0.21679867730E+03  0.12773621061E+04  0.30071087672E+03  0.13300769669E+04  0.46999998093E+01 0.  1.
</event>
<event>
 5   0  0.2862033E-06  0.2987193E+04  0.7818609E-02  0.8247398E-01
        2   -1    0    0  501    0  0.00000000000E+00  0.00000000000E+00  0.13100877433E+04  0.13100877433E+04  0.25500000920E-02 0. -1.
       -2   -1    0    0    0  501  0.00000000000E+00  0.00000000000E+00 -0.17028098106E+04  0.17028098106E+04  0.25500000920E-02 0.  1.
    10030    2    1    2    0    0  0.00000000000E+00  0.00000000000E+00 -0.39272206728E+03  0.30128975539E+04  0.29871928375E+04 0.  0.
        2    1    3    3  502    0  0.63116845575E+03  0.13535461927E+04 -0.21574480117E+03  0.15089753923E+04  0.25500000920E-02 0.  1.
       -2    1    3    3    0  502 -0.63116845575E+03 -0.13535461927E+04 -0.17697726611E+03  0.15039221616E+04  0.25500000920E-02 0. -1.
</event>
<event>
 5   0  0.2970915E-06  0.2986471E+04  0.7818609E-02  0.8247605E-01
       -2   -1    0    0    0  501  0.00000000000E+00  0.00000000000E+00  0.11317337141E+04  0.11317337141E+04  0.25500000920E-02 0. -1.
        2   -1    0    0  501    0  0.00000000000E+00  0.00000000000E+00 -0.19702087477E+04  0.19702087477E+04  0.25500000920E-02 0.  1.
    10030    2    1    2    0    0  0.00000000000E+00  0.00000000000E+00 -0.83847503364E+03  0.31019424618E+04  0.29864706016E+04 0.  0.
        4    1    3    3  502    0  0.27920660306E+03  0.95062135514E+03 -0.15796233176E+04  0.18646309894E+04  0.12699999809E+01 0.  1.
       -4    1    3    3    0  502 -0.27920660306E+03 -0.95062135514E+03  0.74114828400E+03  0.12373114724E+04  0.12699999809E+01 0. -1.
</event>
<event>
 5   0  0.1091076E-06  0.2999435E+04  0.7818609E-02  0.8243892E-01
       -1   -1    0    0    0  501  0.00000000000E+00  0.00000000000E+00  0.17687469555E+04  0.17687469555E+04  0.50400001928E-02 0.  1.
        1   -1    0    0  501    0  0.00000000000E+00  0.00000000000E+00 -0.12716079994E+04  0.12716079994E+04  0.50400001928E-02 0. -1.
    10030    2    1    2    0    0  0.00000000000E+00  0.00000000000E+00  0.49713895611E+03  0.30403549550E+04  0.29994351319E+04 0.  0.
        3    1    3    3  502    0 -0.62935189590E+03  0.13202579674E+04  0.58473811065E+03  0.15751455735E+04  0.10100000352E+00 0. -1.
       -3    1    3    3    0  502  0.62935189590E+03 -0.13202579674E+04 -0.87599154540E+02  0.14652093815E+04  0.10100000352E+00 0.  1.
</event>
<event>
 5   0  0.2862033E-06  0.2866029E+04  0.7818609E-02  0.8283057E-01
        2   -1    0    0  501    0  0.00000000000E+00  0.00000000000E+00  0.10517287193E+04  0.10517287193E+04  0.25500000920E-02 0. -1.
       -2   -1    0    0    0  501  0.00000000000E+00  0.00000000000E+00 -0.19525291460E+04  0.19525291460E+04  0.25500000920E-02 0.  1.
    10030    2    1    2    0    0  0.00000000000E+00  0.00000000000E+00 -0.90080042670E+03  0.30042578652E+04  0.28660292936E+04 0.  0.
        2    1    3    3  502    0  0.12080918680E+04  0.15991402813E+03 -0.12407354038E+04  0.17391040222E+04  0.25500000920E-02 0.  1.
       -2    1    3    3    0  502 -0.12080918680E+04 -0.15991402813E+03  0.33993497707E+03  0.12651538430E+04  0.25500000920E-02 0. -1.
</event>
<event>
 5   0  0.2970915E-06  0.3003279E+04  0.7818609E-02  0.8242795E-01
        2   -1    0    0  501    0  0.00000000000E+00  0.00000000000E+00  0.18434289912E+04  0.18434289912E+04  0.25500000920E-02 0. -1.
       -2   -1    0    0    0  501  0.00000000000E+00  0.00000000000E+00 -0.12232210084E+04  0.12232210084E+04  0.25500000920E-02 0.  1.
    10030    2    1    2    0    0  0.00000000000E+00  0.00000000000E+00  0.62020798276E+03  0.30666499996E+04  0.30032789211E+04 0.  0.
        4    1    3    3  502    0 -0.12028782666E+04  0.15899059399E+03  0.12134897433E+04  0.17160282933E+04  0.12699999809E+01 0. -1.
       -4    1    3    3    0  502  0.12028782666E+04 -0.15899059399E+03 -0.59328176055E+03  0.13506217063E+04  0.12699999809E+01 0.  1.
</event>
<event>
 5   0  0.2985941E-06  0.2979662E+04  0.7818609E-02  0.8249563E-01
        2   -1    0    0  501    0  0.00000000000E+00  0.00000000000E+00  0.23980078345E+04  0.23980078345E+04  0.25500000920E-02 0.  1.
       -2   -1    0    0    0  501  0.00000000000E+00  0.00000000000E+00 -0.92559993624E+03  0.92559993624E+03  0.25500000920E-02 0. -1.
    10030    2    1    2    0    0  0.00000000000E+00  0.00000000000E+00  0.14724078982E+04  0.33236077707E+04  0.29796616578E+04 0.  0.
        3    1    3    3  502    0  0.78440790625E+03  0.11899197940E+04  0.25206179381E+03  0.14473216773E+04  0.10100000352E+00 0. -1.
       -3    1    3    3    0  502 -0.78440790625E+03 -0.11899197940E+04  0.12203461044E+04  0.18762860934E+04  0.10100000352E+00 0.  1.
</event>
<event>
 5   0  0.1113245E-06  0.3009380E+04  0.7818609E-02  0.8241057E-01
        1   -1    0    0  501    0  0.00000000000E+00  0.00000000000E+00  0.14981506337E+04  0.14981506337E+04  0.50400001928E-02 0.  1.
       -1   -1    0    0    0  501  0.00000000000E+00  0.00000000000E+00 -0.15112577140E+04  0.15112577140E+04  0.50400001928E-02 0. -1.
    10030    2    1    2    0    0  0.00000000000E+00  0.00000000000E+00 -0.13107080283E+02  0.30094083478E+04  0.30093798045E+04 0.  0.
        5    1    3    3  502    0  0.14985346287E+03  0.10719894148E+04  0.10386607774E+04  0.15001518811E+04  0.46999998093E+01 0.  1.
       -5    1    3    3    0  502 -0.14985346287E+03 -0.10719894148E+04 -0.10517678577E+04  0.15092564667E+04  0.46999998093E+01 0. -1.
</event>
<event>
 5   0  0.2862033E-06  0.2988998E+04  0.7818609E-02  0.8246880E-01
        2   -1    0    0  501    0  0.00000000000E+00  0.00000000000E+00  0.16546504323E+04  0.16546504323E+04  0.25500000920E-02 0.  1.
       -2   -1    0    0    0  501  0.00000000000E+00  0.00000000000E+00 -0.13498484648E+04  0.13498484648E+04  0.25500000920E-02 0. -1.
    10030    2    1    2    0    0  0.00000000000E+00  0.00000000000E+00  0.30480196749E+03  0.30044988972E+04  0.29889980568E+04 0.  0.
        2    1    3    3  502    0 -0.59937362260E+01 -0.44358554024E+03  0.15869402193E+04  0.16477813314E+04  0.25500000920E-02 0.  1.
       -2    1    3    3    0  502  0.59937362260E+01  0.44358554024E+03 -0.12821382518E+04  0.13567175658E+04  0.25500000920E-02 0. -1.
</event>
<event>
 5   0  0.9749500E-07  0.3006053E+04  0.7818609E-02  0.8242004E-01
        3   -1    0    0  501    0  0.00000000000E+00  0.00000000000E+00  0.12810821870E+04  0.12810821910E+04  0.10100000352E+00 0.  1.
       -3   -1    0    0    0  501  0.00000000000E+00  0.00000000000E+00 -0.17634226384E+04  0.17634226413E+04  0.10100000352E+00 0. -1.
    10030    2    1    2    0    0  0.00000000000E+00  0.00000000000E+00 -0.48234045138E+03  0.30445048323E+04  0.30060534531E+04 0.  0.
        3    1    3    3  502    0 -0.99015650544E+03 -0.10065419650E+04  0.28073942547E+03  0.14395663471E+04  0.10100000352E+00 0.  1.
       -3    1    3    3    0  502  0.99015650544E+03  0.10065419650E+04 -0.76307987685E+03  0.16049384852E+04  0.10100000352E+00 0. -1.
</event>
<event>
 5   0  0.1097402E-06  0.3017599E+04  0.7818609E-02  0.8238723E-01
       -1   -1    0    0    0  501  0.00000000000E+00  0.00000000000E+00  0.12696556975E+04  0.12696556976E+04  0.50400001928E-02 0. -1.
        1   -1    0    0  501    0  0.00000000000E+00  0.00000000000E+00 -0.17929868419E+04  0.17929868419E+04  0.50400001928E-02 0.  1.
    10030    2    1    2    0    0  0.00000000000E+00  0.00000000000E+00 -0.52333114433E+03  0.30626425394E+04  0.30175990187E+04 0.  0.
        4    1    3    3  502    0  0.81124265375E+03  0.11814678058E+04  0.21706754453E+03  0.14495174201E+04  0.12699999809E+01 0. -1.
       -4    1    3    3    0  502 -0.81124265375E+03 -0.11814678058E+04 -0.74039868886E+03  0.16131251194E+04  0.12699999809E+01 0.  1.
</event>
<event>
 5   0  0.2862033E-06  0.2994387E+04  0.7818609E-02  0.8245336E-01
        2   -1    0    0  501    0  0.00000000000E+00  0.00000000000E+00  0.21886123559E+04  0.21886123559E+04  0.25500000920E-02 0.  1.
       -2   -1    0    0    0  501  0.00000000000E+00  0.00000000000E+00 -0.10242051521E+04  0.10242051521E+04  0.25500000920E-02 0. -1.
    10030    2    1    2    0    0  0.00000000000E+00  0.00000000000E+00  0.11644072038E+04  0.32128175079E+04  0.29943867825E+04 0.  0.
        2    1    3    3  502    0  0.23947721097E+03 -0.14768620324E+04  0.64210876047E+03  0.16281199150E+04  0.25500000920E-02 0.  1.
       -2    1    3    3    0  502 -0.23947721097E+03  0.14768620324E+04  0.52229844330E+03  0.15846975930E+04  0.25500000920E-02 0. -1.
</event>
<event>
 5   0  0.1113245E-06  0.2974781E+04  0.7818609E-02  0.8250969E-01
       -1   -1    0    0    0  501  0.00000000000E+00  0.00000000000E+00  0.18771607790E+04  0.18771607791E+04  0.50400001928E-02 0. -1.
        1   -1    0    0  501    0  0.00000000000E+00  0.00000000000E+00 -0.11785517886E+04  0.11785517886E+04  0.50400001928E-02 0.  1.
    10030    2    1    2    0    0  0.00000000000E+00  0.00000000000E+00  0.69860899044E+03  0.30557125677E+04  0.29747814667E+04 0.  0.
        5    1    3    3  502    0 -0.23254067659E+03  0.69647917012E+03 -0.97938947273E+03  0.12240850583E+04  0.46999998093E+01 0.  1.
       -5    1    3    3    0  502  0.23254067659E+03 -0.69647917012E+03  0.16779984632E+04  0.18316275094E+04  0.46999998093E+01 0. -1.
</event>
<event>
 5   0  0.1113245E-06  0.3014307E+04  0.7818609E-02  0.8239657E-01
        1   -1    0    0  501    0  0.00000000000E+00  0.00000000000E+00  0.27742675536E+04  0.27742675536E+04  0.50400001928E-02 0. -1.
       -1   -1    0    0    0  501  0.00000000000E+00  0.00000000000E+00 -0.81877886070E+03  0.81877886071E+03  0.50400001928E-02 0.  1.
    10030    2    1    2    0    0  0.00000000000E+00  0.00000000000E+00  0.19554886929E+04  0.35930464144E+04  0.30143069697E+04 0.  0.
        5    1    3    3  502    0  0.14170910709E+03  0.67923309839E+03  0.25725508092E+04  0.26644847211E+04  0.46999998093E+01 0. -1.
       -5    1    3    3    0  502 -0.14170910709E+03 -0.67923309839E+03 -0.61706211623E+03  0.92856169330E+03  0.46999998093E+01 0.  1.
</event>
<event>
 5   0  0.1091076E-06  0.2999729E+04  0.7818609E-02  0.8243808E-01
        1   -1    0    0  501    0  0.00000000000E+00  0.00000000000E+00  0.21551111101E+04  0.21551111101E+04  0.50400001928E-02 0.  1.
       -1   -1    0    0    0  501  0.00000000000E+00  0.00000000000E+00 -0.10438410410E+04  0.10438410410E+04  0.50400001928E-02 0. -1.
    10030    2    1    2    0    0  0.00000000000E+00  0.00000000000E+00  0.11112700690E+04  0.31989521511E+04  0.29997289376E+04 0.  0.
        3    1    3    3  502    0  0.43079371142E+03 -0.27022169268E+03 -0.94910098736E+03  0.10767523761E+04  0.10100000352E+00 0. -1.
       -3    1    3    3    0  502 -0.43079371142E+03  0.27022169268E+03  0.20603710564E+04  0.21221997750E+04  0.10100000352E+00 0.  1.
</event>
<event>
 5   0  0.1054384E-06  0.2990054E+04  0.7818609E-02  0.8246577E-01
        1   -1    0    0  501    0  0.00000000000E+00  0.00000000000E+00  0.12272663350E+04  0.12272663350E+04  0.50400001928E-02 0. -1.
       -1   -1    0    0    0  501  0.00000000000E+00  0.00000000000E+00 -0.18212064430E+04  0.18212064430E+04  0.50400001928E-02 0.  1.
    10030    2    1    2    0    0  0.00000000000E+00  0.00000000000E+00 -0.59394010802E+03  0.30484727781E+04  0.29900537498E+04 0.  0.
        2    1    3    3  502    0  0.30311600468E+03 -0.14636242364E+04 -0.32969291095E+03  0.15306118493E+04  0.25500000920E-02 0. -1.
       -2    1    3    3    0  502 -0.30311600468E+03  0.14636242364E+04 -0.26424719706E+03  0.15178609287E+04  0.25500000920E-02 0.  1.
</event>
<event>
 5   0  0.2948711E-06  0.2998606E+04  0.7818609E-02  0.8244129E-01
        2   -1    0    0  501    0  0.00000000000E+00  0.00000000000E+00  0.18422329644E+04  0.18422329644E+04  0.25500000920E-02 0. -1.
       -2   -1    0    0    0  501  0.00000000000E+00  0.00000000000E+00 -0.12202093578E+04  0.12202093578E+04  0.25500000920E-02 0.  1.
    10030    2    1    2    0    0  0.00000000000E+00  0.00000000000E+00  0.62202360668E+03  0.30624423222E+04  0.29986062779E+04 0.  0.
        5    1    3    3  502    0  0.94859352930E+03  0.11290855108E+04  0.58737188310E+03  0.15873536448E+04  0.46999998093E+01 0. -1.
       -5    1    3    3    0  502 -0.94859352930E+03 -0.11290855108E+04  0.34651723574E+02  0.14750886775E+04  0.46999998093E+01 0.  1.
</event>
<event>
 5   0  0.1097402E-06  0.2970175E+04  0.7818609E-02  0.8252299E-01
        1   -1    0    0  501    0  0.00000000000E+00  0.00000000000E+00  0.15475257274E+04  0.15475257274E+04  0.50400001928E-02 0.  1.
       -1   -1    0    0    0  501  0.00000000000E+00  0.00000000000E+00 -0.14251684149E+04  0.14251684149E+04  0.50400001928E-02 0. -1.
    10030    2    1    2    0    0  0.00000000000E+00  0.00000000000E+00  0.12235731250E+03  0.29726941423E+04  0.29701749362E+04 0.  0.
        4    1    3    3  502    0 -0.38480776797E+03 -0.10109485395E+03  0.14931912866E+04  0.15452892995E+04  0.12699999809E+01 0.  1.
       -4    1    3    3    0  502  0.38480776797E+03  0.10109485395E+03 -0.13708339741E+04  0.14274048428E+04  0.12699999809E+01 0. -1.
</event>
<event>
 5   0  0.1113245E-06  0.2927788E+04  0.7818609E-02  0.8264657E-01
       -1   -1    0    0    0  501  0.00000000000E+00  0.00000000000E+00  0.89798669208E+03  0.89798669209E+03  0.50400001928E-02 0.  1.
        1   -1    0    0  501    0  0.00000000000E+00  0.00000000000E+00 -0.23864336628E+04  0.23864336629E+04  0.50400001928E-02 0. -1.
    10030    2    1    2    0    0  0.00000000000E+00  0.00000000000E+00 -0.14884469708E+04  0.32844203549E+04  0.29277880188E+04 0.  0.
        5    1    3    3  502    0 -0.14332353280E+04  0.66599370632E+01 -0.10784318250E+04  0.17936680717E+04  0.46999998093E+01 0.  1.
       -5    1    3    3    0  502  0.14332353280E+04 -0.66599370632E+01 -0.41001514576E+03  0.14907522832E+04  0.46999998093E+01 0. -1.
</event>
<event>
 5   0  0.2862033E-06  0.3002147E+04  0.7818609E-02  0.8243118E-01
       -2   -1    0    0    0  501  0.00000000000E+00  0.00000000000E+00  0.62190380622E+03  0.62190380623E+03  0.25500000920E-02 0. -1.
        2   -1    0    0  501    0  0.00000000000E+00  0.00000000000E+00 -0.36231038617E+04  0.36231038617E+04  0.25500000920E-02 0.  1.
    10030    2    1    2    0    0  0.00000000000E+00  0.00000000000E+00 -0.30012000555E+04  0.42450076679E+04  0.30021472862E+04 0.  0.
        2    1    3    3  502    0  0.53809456889E+03  0.11458755354E+04 -0.26411615706E+04  0.29288753728E+04  0.25500000920E-02 0.  1.
       -2    1    3    3    0  502 -0.53809456889E+03 -0.11458755354E+04 -0.36003848492E+03  0.13161322951E+04  0.25500000920E-02 0. -1.
</event>
<event>
 5   0  0.1054384E-06  0.2996591E+04  0.7818609E-02  0.8244705E-01
        1   -1    0    0  501    0  0.00000000000E+00  0.00000000000E+00  0.19623812116E+04  0.19623812116E+04  0.50400001928E-02 0.  1.
       -1   -1    0    0    0  501  0.00000000000E+00  0.00000000000E+00 -0.11439617809E+04  0.11439617809E+04  0.50400001928E-02 0. -1.
    10030    2    1    2    0    0  0.00000000000E+00  0.00000000000E+00  0.81841943071E+03  0.31063429925E+04  0.29965908000E+04 0.  0.
        2    1    3    3  502    0 -0.27389984163E+03 -0.14614759830E+04  0.21818929196E+03  0.15028438838E+04  0.25500000920E-02 0. -1.
       -2    1    3    3    0  502  0.27389984163E+03  0.14614759830E+04  0.60023013875E+03  0.16034991087E+04  0.25500000920E-02 0.  1.
</event>
<event>
 5   0  0.2948711E-06  0.3009128E+04  0.7818609E-02  0.8241129E-01
        2   -1    0    0  501    0  0.00000000000E+00  0.00000000000E+00  0.19549558854E+04  0.19549558854E+04  0.25500000920E-02 0. -1.
       -2   -1    0    0    0  501  0.00000000000E+00  0.00000000000E+00 -0.11579358522E+04  0.11579358522E+04  0.25500000920E-02 0.  1.
    10030    2    1    2    0    0  0.00000000000E+00  0.00000000000E+00  0.79702003322E+03  0.31128917377E+04  0.30091284514E+04 0.  0.
        5    1    3    3  502    0  0.44567126087E+03  0.11260533297E+04  0.13220850572E+04  0.17929166078E+04  0.46999998093E+01 0. -1.
       -5    1    3    3    0  502 -0.44567126087E+03 -0.11260533297E+04 -0.52506502398E+03  0.13199751299E+04  0.46999998093E+01 0.  1.
</event>
<event>
 5   0  0.1091075E-06  0.3029698E+04  0.7818609E-02  0.8235301E-01
        1   -1    0    0  501    0  0.00000000000E+00  0.00000000000E+00  0.17276435170E+04  0.17276435171E+04  0.50400001928E-02 0.  1.
       -1   -1    0    0    0  501  0.00000000000E+00  0.00000000000E+00 -0.13282646740E+04  0.13282646740E+04  0.50400001928E-02 0. -1.
    10030    2    1    2    0    0  0.00000000000E+00  0.00000000000E+00  0.39937884303E+03  0.30559081911E+04  0.30296982378E+04 0.  0.
        1    1    3    3  502    0  0.42755190182E+03 -0.12906428697E+04  0.87345637356E+03  0.16160091839E+04  0.50400001928E-02 0.  1.
       -1    1    3    3    0  502 -0.42755190182E+03  0.12906428697E+04 -0.47407753053E+03  0.14398990072E+04  0.50400001928E-02 0. -1.
</event>
<event>
 5   0  0.2985941E-06  0.2998106E+04  0.7818609E-02  0.8244272E-01
        2   -1    0    0  501    0  0.00000000000E+00  0.00000000000E+00  0.26668080342E+04  0.26668080342E+04  0.25500000920E-02 0.  1.
       -2   -1    0    0    0  501  0.00000000000E+00  0.00000000000E+00 -0.84264019947E+03  0.84264019947E+03  0.25500000920E-02 0. -1.
    10030    2    1    2    0    0  0.00000000000E+00  0.00000000000E+00  0.18241678347E+04  0.35094482336E+04  0.29981058379E+04 0.  0.
        3    1    3    3  502    0  0.18030889100E+03 -0.14495840613E+04  0.51797971532E+03  0.15498736215E+04  0.10100000352E+00 0. -1.
       -3    1    3    3    0  502 -0.18030889100E+03  0.14495840613E+04  0.13061881194E+04  0.19595746121E+04  0.10100000352E+00 0.  1.
</event>
<event>
 5   0  0.2948711E-06  0.2953938E+04  0.7818609E-02  0.8257008E-01
       -2   -1    0    0    0  501  0.00000000000E+00  0.00000000000E+00  0.12068193655E+04  0.12068193655E+04  0.25500000920E-02 0. -1.
        2   -1    0    0  501    0  0.00000000000E+00  0.00000000000E+00 -0.18075927013E+04  0.18075927013E+04  0.25500000920E-02 0.  1.
    10030    2    1    2    0    0  0.00000000000E+00  0.00000000000E+00 -0.60077333581E+03  0.30144120668E+04  0.29539383046E+04 0.  0.
        5    1    3    3  502    0 -0.14100363727E+04  0.33228050405E+03 -0.67407801682E+01  0.14486823095E+04  0.46999998093E+01 0. -1.
       -5    1    3    3    0  502  0.14100363727E+04 -0.33228050405E+03 -0.59403255564E+03  0.15657297573E+04  0.46999998093E+01 0.  1.
</event>
<event>
 5   0  0.1091075E-06  0.2956592E+04  0.7818609E-02  0.8256236E-01
       -1   -1    0    0    0  501  0.00000000000E+00  0.00000000000E+00  0.10858253441E+04  0.10858253441E+04  0.50400001928E-02 0. -1.
        1   -1    0    0  501    0  0.00000000000E+00  0.00000000000E+00 -0.20126254024E+04  0.20126254024E+04  0.50400001928E-02 0.  1.
    10030    2    1    2    0    0  0.00000000000E+00  0.00000000000E+00 -0.92680005829E+03  0.30984507465E+04  0.29565924103E+04 0.  0.
        1    1    3    3  502    0  0.14285252669E+03 -0.45155073897E+03  0.10041671793E+04  0.11102507096E+04  0.50400001928E-02 0. -1.
       -1    1    3    3    0  502 -0.14285252669E+03  0.45155073897E+03 -0.19309672376E+04  0.19882000369E+04  0.50400001928E-02 0.  1.
</event>
<event>
 5   0  0.2862033E-06  0.3015970E+04  0.7818609E-02  0.8239185E-01
        2   -1    0    0  501    0  0.00000000000E+00  0.00000000000E+00  0.18876077392E+04  0.18876077392E+04  0.25500000920E-02 0. -1.
       -2   -1    0    0    0  501  0.00000000000E+00  0.00000000000E+00 -0.12047092608E+04  0.12047092608E+04  0.25500000920E-02 0.  1.
    10030    2    1    2    0    0  0.00000000000E+00  0.00000000000E+00  0.68289847839E+03  0.30923170001E+04  0.30159698435E+04 0.  0.
        2    1    3    3  502    0 -0.64220490707E+03  0.37126258945E+03  0.16876035370E+04  0.18434393809E+04  0.25500000920E-02 0. -1.
       -2    1    3    3    0  502  0.64220490707E+03 -0.37126258945E+03 -0.10047050586E+04  0.12488776192E+04  0.25500000920E-02 0.  1.
</event>
<event>
 5   0  0.2948711E-06  0.2638378E+04  0.7818609E-02  0.8355281E-01
        2   -1    0    0  501    0  0.00000000000E+00  0.00000000000E+00  0.15357518967E+04  0.15357518967E+04  0.25500000920E-02 0.  1.
       -2   -1    0    0    0  501  0.00000000000E+00  0.00000000000E+00 -0.11331645762E+04  0.11331645762E+04  0.25500000920E-02 0. -1.
    10030    2    1    2    0    0  0.00000000000E+00  0.00000000000E+00  0.40258732044E+03  0.26689164729E+04  0.26383780223E+04 0.  0.
        5    1    3    3  502    0  0.44808796566E+03 -0.95905553694E+03  0.99759458340E+03  0.14545746425E+04  0.46999998093E+01 0.  1.
       -5    1    3    3    0  502 -0.44808796566E+03  0.95905553694E+03 -0.59500726297E+03  0.12143418303E+04  0.46999998093E+01 0. -1.
</event>
<event>
 5   0  0.1054384E-06  0.2987672E+04  0.7818609E-02  0.8247260E-01
       -1   -1    0    0    0  501  0.00000000000E+00  0.00000000000E+00  0.90520829024E+03  0.90520829026E+03  0.50400001928E-02 0. -1.
        1   -1    0    0  501    0  0.00000000000E+00  0.00000000000E+00 -0.24652294823E+04  0.24652294823E+04  0.50400001928E-02 0.  1.
    10030    2    1    2    0    0  0.00000000000E+00  0.00000000000E+00 -0.15600211921E+04  0.33704377726E+04  0.29876721137E+04 0.  0.
        2    1    3    3  502    0  0.40671773060E+03  0.11145194716E+04 -0.18040340953E+04  0.21591924375E+04  0.25500000920E-02 0. -1.
       -2    1    3    3    0  502 -0.40671773060E+03 -0.11145194716E+04  0.24401290324E+03  0.12112453351E+04  0.25500000920E-02 0.  1.
</event>
<event>
 5   0  0.2948711E-06  0.3012202E+04  0.7818609E-02  0.8240255E-01
       -2   -1    0    0    0  501  0.00000000000E+00  0.00000000000E+00  0.11054876627E+04  0.11054876627E+04  0.25500000920E-02 0.  1.
        2   -1    0    0  501    0  0.00000000000E+00  0.00000000000E+00 -0.20518916476E+04  0.20518916476E+04  0.25500000920E-02 0. -1.
    10030    2    1    2    0    0  0.00000000000E+00  0.00000000000E+00 -0.94640398485E+03  0.31573793103E+04  0.30122024511E+04 0.  0.
        5    1    3    3  502    0 -0.85491541718E+03  0.59944274276E+03 -0.16109208062E+04  0.19197134959E+04  0.46999998093E+01 0. -1.
       -5    1    3    3    0  502  0.85491541718E+03 -0.59944274276E+03  0.66451682133E+03  0.12376658144E+04  0.46999998093E+01 0.  1.
</event>
<event>
 5   0  0.1097402E-06  0.3011744E+04  0.7818609E-02  0.8240385E-01
        1   -1    0    0  501    0  0.00000000000E+00  0.00000000000E+00  0.14507494014E+04  0.14507494014E+04  0.50400001928E-02 0.  1.
       -1   -1    0    0    0  501  0.00000000000E+00  0.00000000000E+00 -0.15630893546E+04  0.15630893546E+04  0.50400001928E-02 0. -1.
    10030    2    1    2    0    0  0.00000000000E+00  0.00000000000E+00 -0.11233995314E+03  0.30138387560E+04  0.30117443089E+04 0.  0.
        4    1    3    3  502    0 -0.10739589096E+04 -0.80096026166E+03 -0.74419757124E+03  0.15325654042E+04  0.12699999809E+01 0. -1.
       -4    1    3    3    0  502  0.10739589096E+04  0.80096026166E+03  0.63185761810E+03  0.14812733518E+04  0.12699999809E+01 0.  1.
</event>
<event>
 5   0  0.1113245E-06  0.2996548E+04  0.7818609E-02  0.8244717E-01
        1   -1    0    0  501    0  0.00000000000E+00  0.00000000000E+00  0.14401906715E+04  0.14401906715E+04  0.50400001928E-02 0.  1.
       -1   -1    0    0    0  501  0.00000000000E+00  0.00000000000E+00 -0.15586998880E+04  0.15586998880E+04  0.50400001928E-02 0. -1.
    10030    2    1    2    0    0  0.00000000000E+00  0.00000000000E+00 -0.11850921655E+03  0.29988905595E+04  0.29965480395E+04 0.  0.
        5    1    3    3  502    0 -0.76927478968E+03 -0.99971856554E+03  0.74982159159E+03  0.14674724602E+04  0.46999998093E+01 0.  1.
       -5    1    3    3    0  502  0.76927478968E+03  0.99971856554E+03 -0.86833080815E+03  0.15314180992E+04  0.46999998093E+01 0. -1.
</event>
<event>
 5   0  0.1113245E-06  0.3000326E+04  0.7818609E-02  0.8243638E-01
       -1   -1    0    0    0  501  0.00000000000E+00  0.00000000000E+00  0.97152326154E+03  0.97152326156E+03  0.50400001928E-02 0.  1.
        1   -1    0    0  501    0  0.00000000000E+00  0.00000000000E+00 -0.23164536392E+04  0.23164536392E+04  0.50400001928E-02 0. -1.
    10030    2    1    2    0    0  0.00000000000E+00  0.00000000000E+00 -0.13449303777E+04  0.32879769008E+04  0.30003257122E+04 0.  0.
        5    1    3    3  502    0  0.94038697878E+03 -0.11610305071E+04 -0.52483922991E+03  0.15836027960E+04  0.46999998093E+01 0.  1.
       -5    1    3    3    0  502 -0.94038697878E+03  0.11610305071E+04 -0.82009114776E+03  0.17043741048E+04  0.46999998093E+01 0. -1.
</event>
<event>
 5   0  0.9749500E-07  0.3000224E+04  0.7818609E-02  0.8243667E-01
        3   -1    0    0  501    0  0.00000000000E+00  0.00000000000E+00  0.13904475356E+04  0.13904475393E+04  0.10100000352E+00 0. -1.
       -3   -1    0    0    0  501  0.00000000000E+00  0.00000000000E+00 -0.16184252895E+04  0.16184252927E+04  0.10100000352E+00 0.  1.
    10030    2    1    2    0    0  0.00000000000E+00  0.00000000000E+00 -0.22797775392E+03  0.30088728320E+04  0.30002236354E+04 0.  0.
        5    1    3    3  502    0 -0.74146710900E+03 -0.12836187754E+04  0.11659293374E+03  0.14869655801E+04  0.46999998093E+01 0.  1.
       -5    1    3    3    0  502  0.74146710900E+03  0.12836187754E+04 -0.34457068765E+03  0.15219072518E+04  0.46999998093E+01 0. -1.
</event>
<event>
 5   0  0.2985941E-06  0.3014734E+04  0.7818609E-02  0.8239536E-01
       -2   -1    0    0    0  501  0.00000000000E+00  0.00000000000E+00  0.14768942825E+04  0.14768942825E+04  0.25500000920E-02 0.  1.
        2   -1    0    0  501    0  0.00000000000E+00  0.00000000000E+00 -0.15384683922E+04  0.15384683922E+04  0.25500000920E-02 0. -1.
    10030    2    1    2    0    0  0.00000000000E+00  0.00000000000E+00 -0.61574109733E+02  0.30153626747E+04  0.30147339334E+04 0.  0.
        3    1    3    3  502    0  0.72041867715E+02 -0.13447245599E+04  0.64661410454E+03  0.14938487150E+04  0.10100000352E+00 0.  1.
       -3    1    3    3    0  502 -0.72041867715E+02  0.13447245599E+04 -0.70818821427E+03  0.15215139598E+04  0.10100000352E+00 0. -1.
</event>
<event>
 5   0  0.1113245E-06  0.3011971E+04  0.7818609E-02  0.8240321E-01
        1   -1    0    0  501    0  0.00000000000E+00  0.00000000000E+00  0.24185485444E+04  0.24185485445E+04  0.50400001928E-02 0. -1.
       -1   -1    0    0    0  501  0.00000000000E+00  0.00000000000E+00 -0.93774964036E+03  0.93774964037E+03  0.50400001928E-02 0.  1.
    10030    2    1    2    0    0  0.00000000000E+00  0.00000000000E+00  0.14807989041E+04  0.33562981848E+04  0.30119714659E+04 0.  0.
        5    1    3    3  502    0 -0.63411226816E+03  0.10060392513E+04 -0.28922055908E+03  0.12238806990E+04  0.46999998093E+01 0.  1.
       -5    1    3    3    0  502  0.63411226816E+03 -0.10060392513E+04  0.17700194632E+04  0.21324174858E+04  0.46999998093E+01 0. -1.
</event>
<event>
 5   0  0.1113245E-06  0.2957372E+04  0.7818609E-02  0.8256009E-01
        1   -1    0    0  501    0  0.00000000000E+00  0.00000000000E+00  0.24257367443E+04  0.24257367443E+04  0.50400001928E-02 0. -1.
       -1   -1    0    0    0  501  0.00000000000E+00  0.00000000000E+00 -0.90138069721E+03  0.90138069723E+03  0.50400001928E-02 0.  1.
    10030    2    1    2    0    0  0.00000000000E+00  0.00000000000E+00  0.15243560471E+04  0.33271174416E+04  0.29573719941E+04 0.  0.
        5    1    3    3  502    0  0.13780765198E+04 -0.52403690502E+03  0.63499238844E+03  0.16052872003E+04  0.46999998093E+01 0.  1.
       -5    1    3    3    0  502 -0.13780765198E+04  0.52403690502E+03  0.88936365868E+03  0.17218302412E+04  0.46999998093E+01 0. -1.
</event>
<event>
 5   0  0.2985941E-06  0.3001805E+04  0.7818609E-02  0.8243216E-01
       -2   -1    0    0    0  501  0.00000000000E+00  0.00000000000E+00  0.11301877696E+04  0.11301877696E+04  0.25500000920E-02 0. -1.
        2   -1    0    0  501    0  0.00000000000E+00  0.00000000000E+00 -0.19932162907E+04  0.19932162907E+04  0.25500000920E-02 0.  1.
    10030    2    1    2    0    0  0.00000000000E+00  0.00000000000E+00 -0.86302852117E+03  0.31234040603E+04  0.30018052394E+04 0.  0.
        3    1    3    3  502    0  0.23261324559E+03 -0.53501254850E+03 -0.18704143318E+04  0.19592848522E+04  0.10100000352E+00 0.  1.
       -3    1    3    3    0  502 -0.23261324559E+03  0.53501254850E+03  0.10073858106E+04  0.11641192081E+04  0.10100000352E+00 0. -1.
</event>
<event>
 5   0  0.3113328E-06  0.2992718E+04  0.7818609E-02  0.8245813E-01
       -2   -1    0    0    0  501  0.00000000000E+00  0.00000000000E+00  0.93864005169E+03  0.93864005169E+03  0.25500000920E-02 0.  1.
        2   -1    0    0  501    0  0.00000000000E+00  0.00000000000E+00 -0.23854622531E+04  0.23854622531E+04  0.25500000920E-02 0. -1.
    10030    2    1    2    0    0  0.00000000000E+00  0.00000000000E+00 -0.14468222014E+04  0.33241023048E+04  0.29927181040E+04 0.  0.
        1    1    3    3  502    0 -0.31131573430E+03  0.71809837842E+03 -0.21399764851E+04  0.22786140798E+04  0.50400001928E-02 0. -1.
       -1    1    3    3    0  502  0.31131573430E+03 -0.71809837842E+03  0.69315428375E+03  0.10454882250E+04  0.50400001928E-02 0.  1.
</event>
<event>
 5   0  0.2970915E-06  0.2831584E+04  0.7818609E-02  0.8293529E-01
        2   -1    0    0  501    0  0.00000000000E+00  0.00000000000E+00  0.24145649376E+04  0.24145649376E+04  0.25500000920E-02 0.  1.
       -2   -1    0    0    0  501  0.00000000000E+00  0.00000000000E+00 -0.83015665115E+03  0.83015665115E+03  0.25500000920E-02 0. -1.
    10030    2    1    2    0    0  0.00000000000E+00  0.00000000000E+00  0.15844082865E+04  0.32447215888E+04  0.28315841097E+04 0.  0.
        4    1    3    3  502    0  0.87203267530E+03  0.26631260572E+03 -0.44892188989E+03  0.10163148463E+04  0.12699999809E+01 0. -1.
       -4    1    3    3    0  502 -0.87203267530E+03 -0.26631260572E+03  0.20333301764E+04  0.22284067424E+04  0.12699999809E+01 0.  1.
</event>
<event>
 5   0  0.1054384E-06  0.2738939E+04  0.7818609E-02  0.8322480E-01
       -1   -1    0    0    0  501  0.00000000000E+00  0.00000000000E+00  0.10039067293E+04  0.10039067293E+04  0.50400001928E-02 0.  1.
        1   -1    0    0  501    0  0.00000000000E+00  0.00000000000E+00 -0.18681478918E+04  0.18681478918E+04  0.50400001928E-02 0. -1.
    10030    2    1    2    0    0  0.00000000000E+00  0.00000000000E+00 -0.86424116248E+03  0.28720546211E+04  0.27389386557E+04 0.  0.
        2    1    3    3  502    0  0.64451656551E+03 -0.94549136635E+03  0.35683654762E+03  0.11986191425E+04  0.25500000920E-02 0.  1.
       -2    1    3    3    0  502 -0.64451656551E+03  0.94549136635E+03 -0.12210777101E+04  0.16734354786E+04  0.25500000920E-02 0. -1.
</event>
<event>
 5   0  0.2948711E-06  0.3013510E+04  0.7818609E-02  0.8239884E-01
        2   -1    0    0  501    0  0.00000000000E+00  0.00000000000E+00  0.13530330446E+04  0.13530330446E+04  0.25500000920E-02 0.  1.
       -2   -1    0    0    0  501  0.00000000000E+00  0.00000000000E+00 -0.16779417480E+04  0.16779417480E+04  0.25500000920E-02 0. -1.
    10030    2    1    2    0    0  0.00000000000E+00  0.00000000000E+00 -0.32490870343E+03  0.30309747926E+04  0.30135100013E+04 0.  0.
        5    1    3    3  502    0 -0.95175682771E+03  0.57587470952E+03  0.85971092635E+03  0.14059152560E+04  0.46999998093E+01 0.  1.
       -5    1    3    3    0  502  0.95175682771E+03 -0.57587470952E+03 -0.11846196298E+04  0.16250595366E+04  0.46999998093E+01 0. -1.
</event>
<event>
 5   0  0.1097402E-06  0.3005548E+04  0.7818609E-02  0.8242148E-01
       -1   -1    0    0    0  501  0.00000000000E+00  0.00000000000E+00  0.96157506216E+03  0.96157506217E+03  0.50400001928E-02 0. -1.
        1   -1    0    0  501    0  0.00000000000E+00  0.00000000000E+00 -0.23485739301E+04  0.23485739301E+04  0.50400001928E-02 0.  1.
    10030    2    1    2    0    0  0.00000000000E+00  0.00000000000E+00 -0.13869988680E+04  0.33101489923E+04  0.30055482847E+04 0.  0.
        4    1    3    3  502    0  0.73999215747E+03 -0.11831120472E+04 -0.13076774290E+04  0.19124236927E+04  0.12699999809E+01 0.  1.
       -4    1    3    3    0  502 -0.73999215747E+03  0.11831120472E+04 -0.79321438970E+02  0.13977252995E+04  0.12699999809E+01 0. -1.
</event>
<event>
 5   0  0.3113328E-06  0.2989947E+04  0.7818609E-02  0.8246607E-01
       -2   -1    0    0    0  501  0.00000000000E+00  0.00000000000E+00  0.98760146046E+03  0.98760146047E+03  0.25500000920E-02 0.  1.
        2   -1    0    0  501    0  0.00000000000E+00  0.00000000000E+00 -0.22630044163E+04  0.22630044163E+04  0.25500000920E-02 0. -1.
    10030    2    1    2    0    0  0.00000000000E+00  0.00000000000E+00 -0.12754029558E+04  0.32506058767E+04  0.29899474688E+04 0.  0.
        1    1    3    3  502    0 -0.78270783234E+02 -0.12491895893E+04 -0.15264958153E+04  0.19740289814E+04  0.50400001928E-02 0. -1.
       -1    1    3    3    0  502  0.78270783234E+02  0.12491895893E+04  0.25109285950E+03  0.12765768953E+04  0.50400001928E-02 0.  1.
</event>
<event>
 5   0  0.2948711E-06  0.3018888E+04  0.7818609E-02  0.8238358E-01
        2   -1    0    0  501    0  0.00000000000E+00  0.00000000000E+00  0.20545569586E+04  0.20545569586E+04  0.25500000920E-02 0. -1.
       -2   -1    0    0    0  501  0.00000000000E+00  0.00000000000E+00 -0.11089598962E+04  0.11089598962E+04  0.25500000920E-02 0.  1.
    10030    2    1    2    0    0  0.00000000000E+00  0.00000000000E+00  0.94559706235E+03  0.31635168548E+04  0.30188880546E+04 0.  0.
        5    1    3    3  502    0  0.42101620005E+03 -0.61493221764E+03 -0.90271906045E+03  0.11706067081E+04  0.46999998093E+01 0.  1.
       -5    1    3    3    0  502 -0.42101620005E+03  0.61493221764E+03  0.18483161228E+04  0.19929101467E+04  0.46999998093E+01 0. -1.
</event>
<event>
 5   0  0.2862033E-06  0.2955602E+04  0.7818609E-02  0.8256524E-01
        2   -1    0    0  501    0  0.00000000000E+00  0.00000000000E+00  0.15768386148E+04  0.15768386148E+04  0.25500000920E-02 0.  1.
       -2   -1    0    0    0  501  0.00000000000E+00  0.00000000000E+00 -0.13849832572E+04  0.13849832572E+04  0.25500000920E-02 0. -1.
    10030    2    1    2    0    0  0.00000000000E+00  0.00000000000E+00  0.19185535757E+03  0.29618218720E+04  0.29556015163E+04 0.  0.
        2    1    3    3  502    0  0.12104443831E+04 -0.69759697788E+02 -0.75074874786E+03  0.14260665140E+04  0.25500000920E-02 0. -1.
       -2    1    3    3    0  502 -0.12104443831E+04  0.69759697788E+02  0.94260410544E+03  0.15357553580E+04  0.25500000920E-02 0.  1.
</event>
<event>
 5   0  0.1091075E-06  0.3007054E+04  0.7818609E-02  0.8241720E-01
        1   -1    0    0  501    0  0.00000000000E+00  0.00000000000E+00  0.16600001414E+04  0.16600001414E+04  0.50400001928E-02 0.  1.
       -1   -1    0    0    0  501  0.00000000000E+00  0.00000000000E+00 -0.13618029423E+04  0.13618029423E+04  0.50400001928E-02 0. -1.
    10030    2    1    2    0    0  0.00000000000E+00  0.00000000000E+00  0.29819719909E+03  0.30218030837E+04  0.30070537586E+04 0.  0.
        1    1    3    3  502    0  0.17435269047E+03  0.56191732083E+03 -0.12413220337E+04  0.13736922244E+04  0.50400001928E-02 0. -1.
       -1    1    3    3    0  502 -0.17435269047E+03 -0.56191732083E+03  0.15395192328E+04  0.16481108592E+04  0.50400001928E-02 0.  1.
</event>
<event>
 5   0  0.1097402E-06  0.3141813E+04  0.7818609E-02  0.8204355E-01
        1   -1    0    0  501    0  0.00000000000E+00  0.00000000000E+00  0.11558669230E+04  0.11558669230E+04  0.50400001928E-02 0. -1.
       -1   -1    0    0    0  501  0.00000000000E+00  0.00000000000E+00 -0.21349755163E+04  0.21349755163E+04  0.50400001928E-02 0.  1.
    10030    2    1    2    0    0  0.00000000000E+00  0.00000000000E+00 -0.97910859331E+03  0.32908424393E+04  0.31418132221E+04 0.  0.
        4    1    3    3  502    0 -0.33630776928E+02  0.74041967463E+03  0.96120576001E+03  0.12137835267E+04  0.12699999809E+01 0. -1.
       -4    1    3    3    0  502  0.33630776928E+02 -0.74041967463E+03 -0.19403143533E+04  0.20770589126E+04  0.12699999809E+01 0.  1.
</event>
<event>
 5   0  0.2862033E-06  0.2977478E+04  0.7818609E-02  0.8250192E-01
        2   -1    0    0  501    0  0.00000000000E+00  0.00000000000E+00  0.10286536470E+04  0.10286536470E+04  0.25500000920E-02 0. -1.
       -2   -1    0    0    0  501  0.00000000000E+00  0.00000000000E+00 -0.21546059198E+04  0.21546059198E+04  0.25500000920E-02 0.  1.
    10030    2    1    2    0    0  0.00000000000E+00  0.00000000000E+00 -0.11259522728E+04  0.31832595669E+04  0.29774776153E+04 0.  0.
        2    1    3    3  502    0 -0.71859796862E+03  0.11862130318E+04  0.15589608323E+02  0.13869850155E+04  0.25500000920E-02 0. -1.
       -2    1    3    3    0  502  0.71859796862E+03 -0.11862130318E+04 -0.11415418811E+04  0.17962745513E+04  0.25500000920E-02 0.  1.
</event>
<event>
 5   0  0.2948711E-06  0.3001438E+04  0.7818609E-02  0.8243320E-01
       -2   -1    0    0    0  501  0.00000000000E+00  0.00000000000E+00  0.99374808068E+03  0.99374808069E+03  0.25500000920E-02 0.  1.
        2   -1    0    0  501    0  0.00000000000E+00  0.00000000000E+00 -0.22663269346E+04  0.22663269346E+04  0.25500000920E-02 0. -1.
    10030    2    1    2    0    0  0.00000000000E+00  0.00000000000E+00 -0.12725788540E+04  0.32600750153E+04  0.30014383495E+04 0.  0.
        5    1    3    3  502    0  0.43832284157E+03  0.81371074835E+03  0.64791366388E+03  0.11287454546E+04  0.46999998093E+01 0.  1.
       -5    1    3    3    0  502 -0.43832284157E+03 -0.81371074835E+03 -0.19204925178E+04  0.21313295607E+04  0.46999998093E+01 0. -1.
</event>
<event>
 5   0  0.1097402E-06  0.3110731E+04  0.7818609E-02  0.8212799E-01
        1   -1    0    0  501    0  0.00000000000E+00  0.00000000000E+00  0.13839548768E+04  0.13839548768E+04  0.50400001928E-02 0.  1.
       -1   -1    0    0    0  501  0.00000000000E+00  0.00000000000E+00 -0.17480068399E+04  0.17480068399E+04  0.50400001928E-02 0. -1.
    10030    2    1    2    0    0  0.00000000000E+00  0.00000000000E+00 -0.36405196315E+03  0.31319617167E+04  0.31107314836E+04 0.  0.
        4    1    3    3  502    0  0.53539449744E+03  0.43616483923E+03  0.12211403715E+04  0.14028800571E+04  0.12699999809E+01 0.  1.
       -4    1    3    3    0  502 -0.53539449744E+03 -0.43616483923E+03 -0.15851923346E+04  0.17290816596E+04  0.12699999809E+01 0. -1.
</event>
<event>
 5   0  0.1054384E-06  0.2822440E+04  0.7818609E-02  0.8296335E-01
       -1   -1    0    0    0  501  0.00000000000E+00  0.00000000000E+00  0.16103103273E+04  0.16103103273E+04  0.50400001928E-02 0. -1.
        1   -1    0    0  501    0  0.00000000000E+00  0.00000000000E+00 -0.12367444851E+04  0.12367444851E+04  0.50400001928E-02 0.  1.
    10030    2    1    2    0    0  0.00000000000E+00  0.00000000000E+00  0.37356584219E+03  0.28470548124E+04  0.28224403743E+04 0.  0.
        2    1    3    3  502    0 -0.99530680283E+03  0.64315720509E+03  0.95979206961E+03  0.15249549630E+04  0.25500000920E-02 0. -1.
       -2    1    3    3    0  502  0.99530680283E+03 -0.64315720509E+03 -0.58622622742E+03  0.13220998495E+04  0.25500000920E-02 0.  1.
</event>
<event>
 5   0  0.2970915E-06  0.3059088E+04  0.7818609E-02  0.8227056E-01
        2   -1    0    0  501    0  0.00000000000E+00  0.00000000000E+00  0.19130259203E+04  0.19130259204E+04  0.25500000920E-02 0.  1.
       -2   -1    0    0    0  501  0.00000000000E+00  0.00000000000E+00 -0.12229339936E+04  0.12229339936E+04  0.25500000920E-02 0. -1.
    10030    2    1    2    0    0  0.00000000000E+00  0.00000000000E+00  0.69009192673E+03  0.31359599140E+04  0.30590877259E+04 0.  0.
        4    1    3    3  502    0 -0.61821939018E+03  0.68501333716E+03 -0.90547053031E+03  0.12927942530E+04  0.12699999809E+01 0. -1.
       -4    1    3    3    0  502  0.61821939018E+03 -0.68501333716E+03  0.15955624570E+04  0.18431656610E+04  0.12699999809E+01 0.  1.
</event>
<event>
 5   0  0.9749500E-07  0.2983774E+04  0.7818609E-02  0.8248380E-01
        3   -1    0    0  501    0  0.00000000000E+00  0.00000000000E+00  0.22298038945E+04  0.22298038968E+04  0.10100000352E+00 0. -1.
       -3   -1    0    0    0  501  0.00000000000E+00  0.00000000000E+00 -0.99817142744E+03  0.99817143255E+03  0.10100000352E+00 0.  1.
    10030    2    1    2    0    0  0.00000000000E+00  0.00000000000E+00  0.12316324671E+04  0.32279753294E+04  0.29837738173E+04 0.  0.
        4    1    3    3  502    0  0.48682424825E+03 -0.27293615957E+03 -0.88097661927E+03  0.10428870564E+04  0.12699999809E+01 0.  1.
       -4    1    3    3    0  502 -0.48682424825E+03  0.27293615957E+03  0.21126090864E+04  0.21850882729E+04  0.12699999809E+01 0. -1.
</event>
<event>
 5   0  0.2970915E-06  0.2946775E+04  0.7818609E-02  0.8259095E-01
        2   -1    0    0  501    0  0.00000000000E+00  0.00000000000E+00  0.20004896172E+04  0.20004896172E+04  0.25500000920E-02 0. -1.
       -2   -1    0    0    0  501  0.00000000000E+00  0.00000000000E+00 -0.10851696244E+04  0.10851696244E+04  0.25500000920E-02 0.  1.
    10030    2    1    2    0    0  0.00000000000E+00  0.00000000000E+00  0.91531999277E+03  0.30856592415E+04  0.29467748923E+04 0.  0.
        4    1    3    3  502    0  0.10838332255E+04 -0.88221813670E+03 -0.31099700056E+02  0.13978455228E+04  0.12699999809E+01 0. -1.
       -4    1    3    3    0  502 -0.10838332255E+04  0.88221813670E+03  0.94641969283E+03  0.16878137187E+04  0.12699999809E+01 0.  1.
</event>
<event>
 5   0  0.2970915E-06  0.3001927E+04  0.7818609E-02  0.8243181E-01
       -2   -1    0    0    0  501  0.00000000000E+00  0.00000000000E+00  0.11250312603E+04  0.11250312603E+04  0.25500000920E-02 0.  1.
        2   -1    0    0  501    0  0.00000000000E+00  0.00000000000E+00 -0.20025140672E+04  0.20025140672E+04  0.25500000920E-02 0. -1.
    10030    2    1    2    0    0  0.00000000000E+00  0.00000000000E+00 -0.87748280687E+03  0.31275453275E+04  0.30019266646E+04 0.  0.
        4    1    3    3  502    0  0.12102692936E+04 -0.53338357959E+03  0.30063132696E+03  0.13563298321E+04  0.12699999809E+01 0.  1.
       -4    1    3    3    0  502 -0.12102692936E+04  0.53338357959E+03 -0.11781141338E+04  0.17712154954E+04  0.12699999809E+01 0. -1.
</event>
<event>
 5   0  0.2985941E-06  0.2999913E+04  0.7818609E-02  0.8243756E-01
        2   -1    0    0  501    0  0.00000000000E+00  0.00000000000E+00  0.18554611087E+04  0.18554611087E+04  0.25500000920E-02 0.  1.
       -2   -1    0    0    0  501  0.00000000000E+00  0.00000000000E+00 -0.12125661380E+04  0.12125661380E+04  0.25500000920E-02 0. -1.
    10030    2    1    2    0    0  0.00000000000E+00  0.00000000000E+00  0.64289497074E+03  0.30680272467E+04  0.29999128726E+04 0.  0.
        3    1    3    3  502    0 -0.11426627534E+04  0.41926168376E+03  0.12179412911E+04  0.17218709378E+04  0.10100000352E+00 0.  1.
       -3    1    3    3    0  502  0.11426627534E+04 -0.41926168376E+03 -0.57504632040E+03  0.13461563090E+04  0.10100000352E+00 0. -1.
</event>
<event>
 5   0  0.1054384E-06  0.2949912E+04  0.7818609E-02  0.8258180E-01
       -1   -1    0    0    0  501  0.00000000000E+00  0.00000000000E+00  0.15542330566E+04  0.15542330566E+04  0.50400001928E-02 0. -1.
        1   -1    0    0  501    0  0.00000000000E+00  0.00000000000E+00 -0.13997228510E+04  0.13997228510E+04  0.50400001928E-02 0.  1.
    10030    2    1    2    0    0  0.00000000000E+00  0.00000000000E+00  0.15451020559E+03  0.29539559076E+04  0.29499122191E+04 0.  0.
        2    1    3    3  502    0 -0.87657465289E+02 -0.92995091762E+03  0.12203114010E+04  0.15367668840E+04  0.25500000920E-02 0. -1.
       -2    1    3    3    0  502  0.87657465289E+02  0.92995091762E+03 -0.10658011954E+04  0.14171890236E+04  0.25500000920E-02 0.  1.
</event>
<event>
 5   0  0.1091075E-06  0.3087818E+04  0.7818609E-02  0.8219089E-01
        1   -1    0    0  501    0  0.00000000000E+00  0.00000000000E+00  0.17370274446E+04  0.17370274446E+04  0.50400001928E-02 0.  1.
       -1   -1    0    0    0  501  0.00000000000E+00  0.00000000000E+00 -0.13722612534E+04  0.13722612534E+04  0.50400001928E-02 0. -1.
    10030    2    1    2    0    0  0.00000000000E+00  0.00000000000E+00  0.36476619118E+03  0.31092886980E+04  0.30878182966E+04 0.  0.
        1    1    3    3  502    0  0.14812207573E+04 -0.41392202586E+03  0.31863500877E+03  0.15706287416E+04  0.50400001928E-02 0. -1.
       -1    1    3    3    0  502 -0.14812207573E+04  0.41392202586E+03  0.46131182407E+02  0.15386599563E+04  0.50400001928E-02 0.  1.
</event>
<event>
 5   0  0.1113245E-06  0.2982928E+04  0.7818609E-02  0.8248623E-01
       -1   -1    0    0    0  501  0.00000000000E+00  0.00000000000E+00  0.11707780417E+04  0.11707780417E+04  0.50400001928E-02 0. -1.
        1   -1    0    0  501    0  0.00000000000E+00  0.00000000000E+00 -0.18999891492E+04  0.18999891492E+04  0.50400001928E-02 0.  1.
    10030    2    1    2    0    0  0.00000000000E+00  0.00000000000E+00 -0.72921110752E+03  0.30707671909E+04  0.29829284774E+04 0.  0.
        5    1    3    3  502    0 -0.10713495789E+04  0.10241031814E+04 -0.19275804919E+03  0.14945751911E+04  0.46999998093E+01 0. -1.
       -5    1    3    3    0  502  0.10713495789E+04 -0.10241031814E+04 -0.53645305833E+03  0.15761919998E+04  0.46999998093E+01 0.  1.
</event>
<event>
 5   0  0.3113328E-06  0.3022168E+04  0.7818609E-02  0.8237429E-01
       -2   -1    0    0    0  501  0.00000000000E+00  0.00000000000E+00  0.91427346338E+03  0.91427346338E+03  0.25500000920E-02 0.  1.
        2   -1    0    0  501    0  0.00000000000E+00  0.00000000000E+00 -0.24974749776E+04  0.24974749776E+04  0.25500000920E-02 0. -1.
    10030    2    1    2    0    0  0.00000000000E+00  0.00000000000E+00 -0.15832015142E+04  0.34117484410E+04  0.30221681604E+04 0.  0.
        1    1    3    3  502    0 -0.77539232158E+03  0.12723742016E+04 -0.50778492204E+03  0.15741711751E+04  0.50400001928E-02 0.  1.
       -1    1    3    3    0  502  0.77539232158E+03 -0.12723742016E+04 -0.10754165922E+04  0.18375772659E+04  0.50400001928E-02 0. -1.
</event>
<event>
 5   0  0.2948711E-06  0.2960253E+04  0.7818609E-02  0.8255173E-01
       -2   -1    0    0    0  501  0.00000000000E+00  0.00000000000E+00  0.88541244085E+03  0.88541244085E+03  0.25500000920E-02 0.  1.
        2   -1    0    0  501    0  0.00000000000E+00  0.00000000000E+00 -0.24742990748E+04  0.24742990748E+04  0.25500000920E-02 0. -1.
    10030    2    1    2    0    0  0.00000000000E+00  0.00000000000E+00 -0.15888866340E+04  0.33597115157E+04  0.29602534913E+04 0.  0.
        5    1    3    3  502    0 -0.47476117595E+03  0.48669789613E+03 -0.22865685510E+04  0.23855168926E+04  0.46999998093E+01 0. -1.
       -5    1    3    3    0  502  0.47476117595E+03 -0.48669789613E+03  0.69768191705E+03  0.97419462309E+03  0.46999998093E+01 0.  1.
</event>
<event>
 5   0  0.2970915E-06  0.2959231E+04  0.7818609E-02  0.8255470E-01
       -2   -1    0    0    0  501  0.00000000000E+00  0.00000000000E+00  0.11560510699E+04  0.11560510699E+04  0.25500000920E-02 0.  1.
        2   -1    0    0  501    0  0.00000000000E+00  0.00000000000E+00 -0.18937412396E+04  0.18937412396E+04  0.25500000920E-02 0. -1.
    10030    2    1    2    0    0  0.00000000000E+00  0.00000000000E+00 -0.73769016968E+03  0.30497923095E+04  0.29592307015E+04 0.  0.
        4    1    3    3  502    0 -0.12988558625E+04  0.67708239267E+03 -0.58451674031E+03  0.15770632678E+04  0.12699999809E+01 0.  1.
       -4    1    3    3    0  502  0.12988558625E+04 -0.67708239267E+03 -0.15317342937E+03  0.14727290417E+04  0.12699999809E+01 0. -1.
</event>
<event>
 5   0  0.1113245E-06  0.3018060E+04  0.7818609E-02  0.8238593E-01
        1   -1    0    0  501    0  0.00000000000E+00  0.00000000000E+00  0.10448370616E+04  0.10448370616E+04  0.50400001928E-02 0. -1.
       -1   -1    0    0    0  501  0.00000000000E+00  0.00000000000E+00 -0.21794507777E+04  0.21794507777E+04  0.50400001928E-02 0.  1.
    10030    2    1    2    0    0  0.00000000000E+00  0.00000000000E+00 -0.11346137161E+04  0.32242878393E+04  0.30180596061E+04 0.  0.
        5    1    3    3  502    0 -0.13410528944E+04  0.55647229684E+03 -0.12803609402E+03  0.14575663327E+04  0.46999998093E+01 0. -1.
       -5    1    3    3    0  502  0.13410528944E+04 -0.55647229684E+03 -0.10065776221E+04  0.17667215067E+04  0.46999998093E+01 0.  1.
</event>
<event>
 5   0  0.1091075E-06  0.2837713E+04  0.7818609E-02  0.8291655E-01
       -1   -1    0    0    0  501  0.00000000000E+00  0.00000000000E+00  0.12398437990E+04  0.12398437990E+04  0.50400001928E-02 0.  1.
        1   -1    0    0  501    0  0.00000000000E+00  0.00000000000E+00 -0.16237152725E+04  0.16237152725E+04  0.50400001928E-02 0. -1.
    10030    2    1    2    0    0  0.00000000000E+00  0.00000000000E+00 -0.38387147348E+03  0.28635590716E+04  0.28377126789E+04 0.  0.
        1    1    3    3  502    0 -0.10744503489E+03 -0.79584303087E+03  0.98843736191E+03  0.12735458310E+04  0.50400001928E-02 0.  1.
       -1    1    3    3    0  502  0.10744503489E+03  0.79584303087E+03 -0.13723088354E+04  0.15900132405E+04  0.50400001928E-02 0. -1.
</event>
<event>
 5   0  0.1054384E-06  0.3010349E+04  0.7818609E-02  0.8240782E-01
       -1   -1    0    0    0  501  0.00000000000E+00  0.00000000000E+00  0.12066956646E+04  0.12066956646E+04  0.50400001928E-02 0. -1.
        1   -1    0    0  501    0  0.00000000000E+00  0.00000000000E+00 -0.18774821358E+04  0.18774821358E+04  0.50400001928E-02 0.  1.
    10030    2    1    2    0    0  0.00000000000E+00  0.00000000000E+00 -0.67078647116E+03  0.30841778004E+04  0.30103485205E+04 0.  0.
        2    1    3    3  502    0  0.64843019617E+03 -0.21172564693E+03  0.10392508077E+04  0.12431137157E+04  0.25500000920E-02 0. -1.
       -2    1    3    3    0  502 -0.64843019617E+03  0.21172564693E+03 -0.17100372789E+04  0.18410640847E+04  0.25500000920E-02 0.  1.
</event>
<event>
 5   0  0.1054384E-06  0.3076533E+04  0.7818609E-02  0.8222208E-01
        1   -1    0    0  501    0  0.00000000000E+00  0.00000000000E+00  0.22783273806E+04  0.22783273806E+04  0.50400001928E-02 0.  1.
       -1   -1    0    0    0  501  0.00000000000E+00  0.00000000000E+00 -0.10385969931E+04  0.10385969931E+04  0.50400001928E-02 0. -1.
    10030    2    1    2    0    0  0.00000000000E+00  0.00000000000E+00  0.12397303875E+04  0.33169243737E+04  0.30765330922E+04 0.  0.
        2    1    3    3  502    0  0.41481215602E+02 -0.93525463427E+02  0.22746550236E+04  0.22769548041E+04  0.25500000920E-02 0.  1.
       -2    1    3    3    0  502 -0.41481215602E+02  0.93525463427E+02 -0.10349246361E+04  0.10399695697E+04  0.25500000920E-02 0. -1.
</event>
<event>
 5   0  0.1113245E-06  0.3034495E+04  0.7818609E-02  0.8233949E-01
       -1   -1    0    0    0  501  0.00000000000E+00  0.00000000000E+00  0.17468853556E+04  0.17468853556E+04  0.50400001928E-02 0. -1.
        1   -1    0    0  501    0  0.00000000000E+00  0.00000000000E+00 -0.13177966060E+04  0.13177966060E+04  0.50400001928E-02 0.  1.
    10030    2    1    2    0    0  0.00000000000E+00  0.00000000000E+00  0.42908874963E+03  0.30646819616E+04  0.30344947472E+04 0.  0.
        5    1    3    3  502    0  0.61434671676E+03 -0.52204950421E+02  0.16146508205E+04  0.17283710849E+04  0.46999998093E+01 0. -1.
       -5    1    3    3    0  502 -0.61434671676E+03  0.52204950421E+02 -0.11855620708E+04  0.13363108766E+04  0.46999998093E+01 0.  1.
</event>
<event>
 5   0  0.3113328E-06  0.2999753E+04  0.7818609E-02  0.8243801E-01
       -2   -1    0    0    0  501  0.00000000000E+00  0.00000000000E+00  0.22024582644E+04  0.22024582644E+04  0.25500000920E-02 0.  1.
        2   -1    0    0  501    0  0.00000000000E+00  0.00000000000E+00 -0.10214177867E+04  0.10214177867E+04  0.25500000920E-02 0. -1.
    10030    2    1    2    0    0  0.00000000000E+00  0.00000000000E+00  0.11810404777E+04  0.32238760511E+04  0.29997533536E+04 0.  0.
        1    1    3    3  502    0 -0.85915312238E+03  0.11943018524E+04  0.90408818746E+03  0.17268110647E+04  0.50400001928E-02 0.  1.
       -1    1    3    3    0  502  0.85915312238E+03 -0.11943018524E+04  0.27695229024E+03  0.14970649864E+04  0.50400001928E-02 0. -1.
</event>
<event>
 5   0  0.1097402E-06  0.3008507E+04  0.7818609E-02  0.8241306E-01
       -1   -1    0    0    0  501  0.00000000000E+00  0.00000000000E+00  0.92663556939E+03  0.92663556941E+03  0.50400001928E-02 0.  1.
        1   -1    0    0  501    0  0.00000000000E+00  0.00000000000E+00 -0.24419296615E+04  0.24419296615E+04  0.50400001928E-02 0. -1.
    10030    2    1    2    0    0  0.00000000000E+00  0.00000000000E+00 -0.15152940921E+04  0.33685652309E+04  0.30085071928E+04 0.  0.
        4    1    3    3  502    0  0.10289638247E+04  0.31090327929E+03 -0.19358940297E+04  0.22142977913E+04  0.12699999809E+01 0. -1.
       -4    1    3    3    0  502 -0.10289638247E+04 -0.31090327929E+03  0.42059993759E+03  0.11542674396E+04  0.12699999809E+01 0.  1.
</event>
<event>
 5   0  0.1091075E-06  0.3006098E+04  0.7818609E-02  0.8241992E-01
       -1   -1    0    0    0  501  0.00000000000E+00  0.00000000000E+00  0.81302747507E+03  0.81302747508E+03  0.50400001928E-02 0.  1.
        1   -1    0    0  501    0  0.00000000000E+00  0.00000000000E+00 -0.27786967903E+04  0.27786967903E+04  0.50400001928E-02 0. -1.
    10030    2    1    2    0    0  0.00000000000E+00  0.00000000000E+00 -0.19656693152E+04  0.35917242654E+04  0.30060983586E+04 0.  0.
        1    1    3    3  502    0 -0.40141263126E+03  0.11157589008E+04  0.12073946088E+03  0.11919010206E+04  0.50400001928E-02 0. -1.
       -1    1    3    3    0  502  0.40141263126E+03 -0.11157589008E+04 -0.20864087761E+04  0.23998232448E+04  0.50400001928E-02 0.  1.
</event>
<event>
 5   0  0.2970915E-06  0.2953882E+04  0.7818609E-02  0.8257024E-01
        2   -1    0    0  501    0  0.00000000000E+00  0.00000000000E+00  0.11782498690E+04  0.11782498690E+04  0.25500000920E-02 0. -1.
       -2   -1    0    0    0  501  0.00000000000E+00  0.00000000000E+00 -0.18513511875E+04  0.18513511875E+04  0.25500000920E-02 0.  1.
    10030    2    1    2    0    0  0.00000000000E+00  0.00000000000E+00 -0.67310131852E+03  0.30296010566E+04  0.29538817134E+04 0.  0.
        4    1    3    3  502    0  0.38810624583E+03  0.62357534932E+03  0.97765414537E+03  0.12228172043E+04  0.12699999809E+01 0. -1.
       -4    1    3    3    0  502 -0.38810624583E+03 -0.62357534932E+03 -0.16507554639E+04  0.18067838523E+04  0.12699999809E+01 0.  1.
</event>
<event>
 5   0  0.1113245E-06  0.3045122E+04  0.7818609E-02  0.8230962E-01
        1   -1    0    0  501    0  0.00000000000E+00  0.00000000000E+00  0.14449084909E+04  0.14449084909E+04  0.50400001928E-02 0. -1.
       -1   -1    0    0    0  501  0.00000000000E+00  0.00000000000E+00 -0.16043869756E+04  0.16043869756E+04  0.50400001928E-02 0.  1.
    10030    2    1    2    0    0  0.00000000000E+00  0.00000000000E+00 -0.15947848470E+03  0.30492954664E+04  0.30451222397E+04 0.  0.
        5    1    3    3  502    0 -0.25074467368E+03 -0.93105626490E+03 -0.12596713630E+04  0.15863583115E+04  0.46999998093E+01 0.  1.
       -5    1    3    3    0  502  0.25074467368E+03  0.93105626490E+03  0.11001928783E+04  0.14629371549E+04  0.46999998093E+01 0. -1.
</event>
<event>
 5   0  0.1113245E-06  0.3046269E+04  0.7818609E-02  0.8230641E-01
       -1   -1    0    0    0  501  0.00000000000E+00  0.00000000000E+00  0.16615206679E+04  0.16615206679E+04  0.50400001928E-02 0. -1.
        1   -1    0    0  501    0  0.00000000000E+00  0.00000000000E+00 -0.13962739055E+04  0.13962739055E+04  0.50400001928E-02 0.  1.
    10030    2    1    2    0    0  0.00000000000E+00  0.00000000000E+00  0.26524676244E+03  0.30577945734E+04  0.30462685056E+04 0.  0.
        5    1    3    3  502    0 -0.10365516686E+04  0.37033237640E+03  0.11893794583E+04  0.16205650300E+04  0.46999998093E+01 0. -1.
       -5    1    3    3    0  502  0.10365516686E+04 -0.37033237640E+03 -0.92413269583E+03  0.14372295434E+04  0.46999998093E+01 0.  1.
</event>
<event>
 5   0  0.1054384E-06  0.3017327E+04  0.7818609E-02  0.8238800E-01
       -1   -1    0    0    0  501  0.00000000000E+00  0.00000000000E+00  0.21703648377E+04  0.21703648377E+04  0.50400001928E-02 0. -1.
        1   -1    0    0  501    0  0.00000000000E+00  0.00000000000E+00 -0.10487020510E+04  0.10487020510E+04  0.50400001928E-02 0.  1.
    10030    2    1    2    0    0  0.00000000000E+00  0.00000000000E+00  0.11216627867E+04  0.32190668887E+04  0.30173273317E+04 0.  0.
        2    1    3    3  502    0  0.94039445332E+03 -0.78371674303E+03  0.15015532510E+04  0.19373218181E+04  0.25500000920E-02 0. -1.
       -2    1    3    3    0  502 -0.94039445332E+03  0.78371674303E+03 -0.37989046429E+03  0.12817450706E+04  0.25500000920E-02 0.  1.
</event>
<event>
 5   0  0.3113328E-06  0.3009247E+04  0.7818609E-02  0.8241095E-01
       -2   -1    0    0    0  501  0.00000000000E+00  0.00000000000E+00  0.13488232079E+04  0.13488232079E+04  0.25500000920E-02 0. -1.
        2   -1    0    0  501    0  0.00000000000E+00  0.00000000000E+00 -0.16784202269E+04  0.16784202269E+04  0.25500000920E-02 0.  1.
    10030    2    1    2    0    0  0.00000000000E+00  0.00000000000E+00 -0.32959701899E+03  0.30272434348E+04  0.30092471847E+04 0.  0.
        1    1    3    3  502    0  0.86202203961E+03 -0.10491142764E+04 -0.81687972502E+03  0.15846183285E+04  0.50400001928E-02 0. -1.
       -1    1    3    3    0  502 -0.86202203961E+03  0.10491142764E+04  0.48728270603E+03  0.14426251063E+04  0.50400001928E-02 0.  1.
</event>
<event>
 5   0  0.1097402E-06  0.3290000E+04  0.7818609E-02  0.8165444E-01
       -1   -1    0    0    0  501  0.00000000000E+00  0.00000000000E+00  0.11695317589E+04  0.11695317589E+04  0.50400001928E-02 0.  1.
        1   -1    0    0  501    0  0.00000000000E+00  0.00000000000E+00 -0.23137681746E+04  0.23137681746E+04  0.50400001928E-02 0. -1.
    10030    2    1    2    0    0  0.00000000000E+00  0.00000000000E+00 -0.11442364158E+04  0.34832999335E+04  0.32900002206E+04 0.  0.
        4    1    3    3  502    0 -0.95757377244E+03 -0.57792512386E+03  0.70502087926E+03  0.13221199006E+04  0.12699999809E+01 0.  1.
       -4    1    3    3    0  502  0.95757377244E+03  0.57792512386E+03 -0.18492572950E+04  0.21611800329E+04  0.12699999809E+01 0. -1.
</event>
<event>
 5   0  0.3113328E-06  0.2995978E+04  0.7818609E-02  0.8244880E-01
        2   -1    0    0  501    0  0.00000000000E+00  0.00000000000E+00  0.11788594502E+04  0.11788594502E+04  0.25500000920E-02 0. -1.
       -2   -1    0    0    0  501  0.00000000000E+00  0.00000000000E+00 -0.19035101997E+04  0.19035101997E+04  0.25500000920E-02 0.  1.
    10030    2    1    2    0    0  0.00000000000E+00  0.00000000000E+00 -0.72465074952E+03  0.30823696499E+04  0.29959779622E+04 0.  0.
        1    1    3    3  502    0  0.81485958605E+03 -0.40932201328E+03 -0.15850527148E+04  0.18286423281E+04  0.50400001928E-02 0.  1.
       -1    1    3    3    0  502 -0.81485958605E+03  0.40932201328E+03  0.86040196524E+03  0.12537273218E+04  0.50400001928E-02 0. -1.
</event>
<event>
 5   0  0.2985941E-06  0.2995056E+04  0.7818609E-02  0.8245144E-01
       -2   -1    0    0    0  501  0.00000000000E+00  0.00000000000E+00  0.25935101942E+04  0.25935101942E+04  0.25500000920E-02 0. -1.
        2   -1    0    0  501    0  0.00000000000E+00  0.00000000000E+00 -0.86469310255E+03  0.86469310255E+03  0.25500000920E-02 0.  1.
    10030    2    1    2    0    0  0.00000000000E+00  0.00000000000E+00  0.17288170917E+04  0.34582032968E+04  0.29950561773E+04 0.  0.
        3    1    3    3  502    0  0.86341394033E+03  0.70997647400E+03 -0.28620358801E+03  0.11538902591E+04  0.10100000352E+00 0.  1.
       -3    1    3    3    0  502 -0.86341394033E+03 -0.70997647400E+03  0.20150206797E+04  0.23043130377E+04  0.10100000352E+00 0. -1.
</event>
<event>
 5   0  0.2985941E-06  0.2969818E+04  0.7818609E-02  0.8252402E-01
        2   -1    0    0  501    0  0.00000000000E+00  0.00000000000E+00  0.16862174152E+04  0.16862174152E+04  0.25500000920E-02 0.  1.
       -2   -1    0    0    0  501  0.00000000000E+00  0.00000000000E+00 -0.13076337697E+04  0.13076337697E+04  0.25500000920E-02 0. -1.
    10030    2    1    2    0    0  0.00000000000E+00  0.00000000000E+00  0.37858364550E+03  0.29938511849E+04  0.29698180653E+04 0.  0.
        3    1    3    3  502    0 -0.54972676538E+03  0.96380823571E+03 -0.80552177896E+03  0.13711277032E+04  0.10100000352E+00 0. -1.
       -3    1    3    3    0  502  0.54972676538E+03 -0.96380823571E+03  0.11841054245E+04  0.16227234817E+04  0.10100000352E+00 0.  1.
</event>
<event>
 5   0  0.1091075E-06  0.2993230E+04  0.7818609E-02  0.8245667E-01
       -1   -1    0    0    0  501  0.00000000000E+00  0.00000000000E+00  0.11868065254E+04  0.11868065254E+04  0.50400001928E-02 0. -1.
        1   -1    0    0  501    0  0.00000000000E+00  0.00000000000E+00 -0.18872965101E+04  0.18872965101E+04  0.50400001928E-02 0.  1.
    10030    2    1    2    0    0  0.00000000000E+00  0.00000000000E+00 -0.70048998472E+03  0.30741030355E+04  0.29932295692E+04 0.  0.
        1    1    3    3  502    0 -0.68247594976E+03  0.12268708344E+04  0.18229208055E+03  0.14157033125E+04  0.50400001928E-02 0. -1.
       -1    1    3    3    0  502  0.68247594976E+03 -0.12268708344E+04 -0.88278206527E+03  0.16583997230E+04  0.50400001928E-02 0.  1.
</event>
<event>
 5   0  0.1113245E-06  0.2984145E+04  0.7818609E-02  0.8248273E-01
       -1   -1    0    0    0  501  0.00000000000E+00  0.00000000000E+00  0.14815310760E+04  0.14815310760E+04  0.50400001928E-02 0. -1.
        1   -1    0    0  501    0  0.00000000000E+00  0.00000000000E+00 -0.15026885239E+04  0.15026885239E+04  0.50400001928E-02 0.  1.
    10030    2    1    2    0    0  0.00000000000E+00  0.00000000000E+00 -0.21157447904E+02  0.29842195998E+04  0.29841445981E+04 0.  0.
        5    1    3    3  502    0  0.10659661953E+04 -0.10353947049E+04 -0.14449075675E+03  0.14930592062E+04  0.46999998093E+01 0.  1.
       -5    1    3    3    0  502 -0.10659661953E+04  0.10353947049E+04  0.12333330885E+03  0.14911603936E+04  0.46999998093E+01 0. -1.
</event>
<event>
 5   0  0.2985941E-06  0.2985336E+04  0.7818609E-02  0.8247931E-01
        2   -1    0    0  501    0  0.00000000000E+00  0.00000000000E+00  0.79875088934E+03  0.79875088934E+03  0.25500000920E-02 0. -1.
       -2   -1    0    0    0  501  0.00000000000E+00  0.00000000000E+00 -0.27894273355E+04  0.27894273355E+04  0.25500000920E-02 0.  1.
    10030    2    1    2    0    0  0.00000000000E+00  0.00000000000E+00 -0.19906764461E+04  0.35881782248E+04  0.29853358705E+04 0.  0.
        3    1    3    3  502    0  0.12114981801E+03 -0.13817463853E+04 -0.16582105060E+04  0.21618423726E+04  0.10100000352E+00 0. -1.
       -3    1    3    3    0  502 -0.12114981801E+03  0.13817463853E+04 -0.33246594009E+03  0.14263358522E+04  0.10100000352E+00 0.  1.
</event>
<event>
 5   0  0.1113245E-06  0.3022959E+04  0.7818609E-02  0.8237205E-01
        1   -1    0    0  501    0  0.00000000000E+00  0.00000000000E+00  0.13413374979E+04  0.13413374979E+04  0.50400001928E-02 0.  1.
       -1   -1    0    0    0  501  0.00000000000E+00  0.00000000000E+00 -0.17032028819E+04  0.17032028819E+04  0.50400001928E-02 0. -1.
    10030    2    1    2    0    0  0.00000000000E+00  0.00000000000E+00 -0.36186538400E+03  0.30445403798E+04  0.30229587440E+04 0.  0.
        5    1    3    3  502    0 -0.82910320242E+03  0.65197187343E+02 -0.14520385809E+04  0.16733502096E+04  0.46999998093E+01 0. -1.
       -5    1    3    3    0  502  0.82910320242E+03 -0.65197187343E+02  0.10901731969E+04  0.13711901702E+04  0.46999998093E+01 0.  1.
</event>
<event>
 5   0  0.2862033E-06  0.3039010E+04  0.7818609E-02  0.8232678E-01
        2   -1    0    0  501    0  0.00000000000E+00  0.00000000000E+00  0.18804019048E+04  0.18804019048E+04  0.25500000920E-02 0. -1.
       -2   -1    0    0    0  501  0.00000000000E+00  0.00000000000E+00 -0.12278737195E+04  0.12278737195E+04  0.25500000920E-02 0.  1.
    10030    2    1    2    0    0  0.00000000000E+00  0.00000000000E+00  0.65252818525E+03  0.31082756243E+04  0.30390104185E+04 0.  0.
        2    1    3    3  502    0 -0.11714293383E+04  0.78101479862E+03 -0.25830899312E+03  0.14314169016E+04  0.25500000920E-02 0.  1.
       -2    1    3    3    0  502  0.11714293383E+04 -0.78101479862E+03  0.91083717836E+03  0.16768587227E+04  0.25500000920E-02 0. -1.
</event>
<event>
 5   0  0.1091076E-06  0.2972887E+04  0.7818609E-02  0.8251516E-01
        1   -1    0    0  501    0  0.00000000000E+00  0.00000000000E+00  0.16711325816E+04  0.16711325816E+04  0.50400001928E-02 0. -1.
       -1   -1    0    0    0  501  0.00000000000E+00  0.00000000000E+00 -0.13221653590E+04  0.13221653590E+04  0.50400001928E-02 0.  1.
    10030    2    1    2    0    0  0.00000000000E+00  0.00000000000E+00  0.34896722263E+03  0.29932979407E+04  0.29728865500E+04 0.  0.
        3    1    3    3  502    0  0.26045781559E+03  0.96418273606E+03 -0.93399611381E+03  0.13674192382E+04  0.10100000352E+00 0.  1.
       -3    1    3    3    0  502 -0.26045781559E+03 -0.96418273606E+03  0.12829633364E+04  0.16258787024E+04  0.10100000352E+00 0. -1.
</event>
<event>
 5   0  0.1091075E-06  0.3009047E+04  0.7818609E-02  0.8241152E-01
       -1   -1    0    0    0  501  0.00000000000E+00  0.00000000000E+00  0.72046528202E+03  0.72046528203E+03  0.50400001928E-02 0.  1.
        1   -1    0    0  501    0  0.00000000000E+00  0.00000000000E+00 -0.31418454055E+04  0.31418454055E+04  0.50400001928E-02 0. -1.
    10030    2    1    2    0    0  0.00000000000E+00  0.00000000000E+00 -0.24213801235E+04  0.38623106876E+04  0.30090467169E+04 0.  0.
        1    1    3    3  502    0  0.10013645887E+04 -0.61612068622E+03 -0.57400718712E+01  0.11757417607E+04  0.50400001928E-02 0.  1.
       -1    1    3    3    0  502 -0.10013645887E+04  0.61612068622E+03 -0.24156400516E+04  0.26865689268E+04  0.50400001928E-02 0. -1.
</event>
<event>
 5   0  0.1097402E-06  0.2994583E+04  0.7818609E-02  0.8245279E-01
       -1   -1    0    0    0  501  0.00000000000E+00  0.00000000000E+00  0.94578752900E+03  0.94578752902E+03  0.50400001928E-02 0.  1.
        1   -1    0    0  501    0  0.00000000000E+00  0.00000000000E+00 -0.23703869393E+04  0.23703869393E+04  0.50400001928E-02 0. -1.
    10030    2    1    2    0    0  0.00000000000E+00  0.00000000000E+00 -0.14245994103E+04  0.33161744683E+04  0.29945833808E+04 0.  0.
        4    1    3    3  502    0 -0.86773554519E+03 -0.94992973312E+03  0.13581233504E+03  0.12937457546E+04  0.12699999809E+01 0.  1.
       -4    1    3    3    0  502  0.86773554519E+03  0.94992973312E+03 -0.15604117454E+04  0.20224287137E+04  0.12699999809E+01 0. -1.
</event>
<event>
 5   0  0.2970915E-06  0.2955043E+04  0.7818609E-02  0.8256686E-01
       -2   -1    0    0    0  501  0.00000000000E+00  0.00000000000E+00  0.69217456913E+03  0.69217456914E+03  0.25500000920E-02 0.  1.
        2   -1    0    0  501    0  0.00000000000E+00  0.00000000000E+00 -0.31539294776E+04  0.31539294776E+04  0.25500000920E-02 0. -1.
    10030    2    1    2    0    0  0.00000000000E+00  0.00000000000E+00 -0.24617549084E+04  0.38461040467E+04  0.29550429961E+04 0.  0.
        4    1    3    3  502    0  0.13205528044E+04 -0.65949651458E+03 -0.11458001674E+04  0.18685970669E+04  0.12699999809E+01 0. -1.
       -4    1    3    3    0  502 -0.13205528044E+04  0.65949651458E+03 -0.13159547411E+04  0.19775069798E+04  0.12699999809E+01 0.  1.
</event>
<event>
 5   0  0.1091076E-06  0.2992610E+04  0.7818609E-02  0.8245844E-01
       -1   -1    0    0    0  501  0.00000000000E+00  0.00000000000E+00  0.11364178861E+04  0.11364178861E+04  0.50400001928E-02 0.  1.
        1   -1    0    0  501    0  0.00000000000E+00  0.00000000000E+00 -0.19701627250E+04  0.19701627250E+04  0.50400001928E-02 0. -1.
    10030    2    1    2    0    0  0.00000000000E+00  0.00000000000E+00 -0.83374483889E+03  0.31065806112E+04  0.29926096700E+04 0.  0.
        3    1    3    3  502    0  0.13468117580E+04 -0.50602261963E+03 -0.84358352289E+03  0.16678111324E+04  0.10100000352E+00 0. -1.
       -3    1    3    3    0  502 -0.13468117580E+04  0.50602261963E+03  0.98386839994E+01  0.14387694787E+04  0.10100000352E+00 0.  1.
</event>
<event>
 5   0  0.1113245E-06  0.2976861E+04  0.7818609E-02  0.8250369E-01
        1   -1    0    0  501    0  0.00000000000E+00  0.00000000000E+00  0.26746996792E+04  0.26746996792E+04  0.50400001928E-02 0.  1.
       -1   -1    0    0    0  501  0.00000000000E+00  0.00000000000E+00 -0.82828956411E+03  0.82828956413E+03  0.50400001928E-02 0. -1.
    10030    2    1    2    0    0  0.00000000000E+00  0.00000000000E+00  0.18464101151E+04  0.35029892434E+04  0.29768613212E+04 0.  0.
        5    1    3    3  502    0  0.55433348551E+03  0.43374700446E+03  0.24664757511E+04  0.25649457689E+04  0.46999998093E+01 0.  1.
       -5    1    3    3    0  502 -0.55433348551E+03 -0.43374700446E+03 -0.62006563594E+03  0.93804347443E+03  0.46999998093E+01 0. -1.
</event>
<event>
 5   0  0.1097402E-06  0.2993946E+04  0.7818609E-02  0.8245462E-01
        1   -1    0    0  501    0  0.00000000000E+00  0.00000000000E+00  0.13274478248E+04  0.13274478248E+04  0.50400001928E-02 0.  1.
       -1   -1    0    0    0  501  0.00000000000E+00  0.00000000000E+00 -0.16881477772E+04  0.16881477772E+04  0.50400001928E-02 0. -1.
    10030    2    1    2    0    0  0.00000000000E+00  0.00000000000E+00 -0.36069995242E+03  0.30155956020E+04  0.29939459546E+04 0.  0.
        4    1    3    3  502    0  0.43959948826E+03  0.60273906056E+03  0.11268732322E+04  0.13514388553E+04  0.12699999809E+01 0.  1.
       -4    1    3    3    0  502 -0.43959948826E+03 -0.60273906056E+03 -0.14875731846E+04  0.16641567467E+04  0.12699999809E+01 0. -1.
</event>
<event>
 5   0  0.2862033E-06  0.2992155E+04  0.7818609E-02  0.8245975E-01
       -2   -1    0    0    0  501  0.00000000000E+00  0.00000000000E+00  0.12303393375E+04  0.12303393375E+04  0.25500000920E-02 0.  1.
        2   -1    0    0  501    0  0.00000000000E+00  0.00000000000E+00 -0.18192121377E+04  0.18192121377E+04  0.25500000920E-02 0. -1.
    10030    2    1    2    0    0  0.00000000000E+00  0.00000000000E+00 -0.58887280021E+03  0.30495514753E+04  0.29921552476E+04 0.  0.
        2    1    3    3  502    0 -0.11300150530E+04 -0.55231348724E+03  0.53120441129E+03  0.13653433029E+04  0.25500000920E-02 0.  1.
       -2    1    3    3    0  502  0.11300150530E+04  0.55231348724E+03 -0.11200772115E+04  0.16842081724E+04  0.25500000920E-02 0. -1.
</event>
<event>
 5   0  0.2970915E-06  0.3000409E+04  0.7818609E-02  0.8243614E-01
       -2   -1    0    0    0  501  0.00000000000E+00  0.00000000000E+00  0.10614661516E+04  0.10614661516E+04  0.25500000920E-02 0. -1.
        2   -1    0    0  501    0  0.00000000000E+00  0.00000000000E+00 -0.21202871738E+04  0.21202871738E+04  0.25500000920E-02 0.  1.
    10030    2    1    2    0    0  0.00000000000E+00  0.00000000000E+00 -0.10588210221E+04  0.31817533254E+04  0.30004086833E+04 0.  0.
        4    1    3    3  502    0 -0.12663725537E+04  0.64311062107E+03 -0.10416378614E+04  0.17613352216E+04  0.12699999809E+01 0.  1.
       -4    1    3    3    0  502  0.12663725537E+04 -0.64311062107E+03 -0.17183160703E+02  0.14204181038E+04  0.12699999809E+01 0. -1.
</event>
<event>
 5   0  0.2970915E-06  0.2992903E+04  0.7818609E-02  0.8245760E-01
       -2   -1    0    0    0  501  0.00000000000E+00  0.00000000000E+00  0.99324620417E+03  0.99324620417E+03  0.25500000920E-02 0. -1.
        2   -1    0    0  501    0  0.00000000000E+00  0.00000000000E+00 -0.22545939827E+04  0.22545939827E+04  0.25500000920E-02 0.  1.
    10030    2    1    2    0    0  0.00000000000E+00  0.00000000000E+00 -0.12613477786E+04  0.32478401869E+04  0.29929028820E+04 0.  0.
        4    1    3    3  502    0  0.34759119301E+03 -0.76923717785E+03 -0.19715724436E+04  0.21446782944E+04  0.12699999809E+01 0.  1.
       -4    1    3    3    0  502 -0.34759119301E+03  0.76923717785E+03  0.71022466507E+03  0.11031618925E+04  0.12699999809E+01 0. -1.
</event>
<event>
 5   0  0.1097402E-06  0.3010276E+04  0.7818609E-02  0.8240803E-01
        1   -1    0    0  501    0  0.00000000000E+00  0.00000000000E+00  0.14731972219E+04  0.14731972219E+04  0.50400001928E-02 0. -1.
       -1   -1    0    0    0  501  0.00000000000E+00  0.00000000000E+00 -0.15377712974E+04  0.15377712974E+04  0.50400001928E-02 0.  1.
    10030    2    1    2    0    0  0.00000000000E+00  0.00000000000E+00 -0.64574075560E+02  0.30109685193E+04  0.30102760028E+04 0.  0.
        4    1    3    3  502    0 -0.13731178121E+04  0.40618318966E+01 -0.64884572167E+03  0.15187071501E+04  0.12699999809E+01 0.  1.
       -4    1    3    3    0  502  0.13731178121E+04 -0.40618318966E+01  0.58427164611E+03  0.14922613691E+04  0.12699999809E+01 0. -1.
</event>
<event>
 5   0  0.2862033E-06  0.2980489E+04  0.7818609E-02  0.8249324E-01
       -2   -1    0    0    0  501  0.00000000000E+00  0.00000000000E+00  0.12420694657E+04  0.12420694657E+04  0.25500000920E-02 0.  1.
        2   -1    0    0  501    0  0.00000000000E+00  0.00000000000E+00 -0.17880069695E+04  0.17880069695E+04  0.25500000920E-02 0. -1.
    10030    2    1    2    0    0  0.00000000000E+00  0.00000000000E+00 -0.54593750379E+03  0.30300764352E+04  0.29804891285E+04 0.  0.
        2    1    3    3  502    0  0.43191612815E+03  0.79030419075E+03  0.93409127737E+03  0.12975587733E+04  0.25500000920E-02 0.  1.
       -2    1    3    3    0  502 -0.43191612815E+03 -0.79030419075E+03 -0.14800287812E+04  0.17325176619E+04  0.25500000920E-02 0. -1.
</event>
<event>
 5   0  0.2970915E-06  0.3002906E+04  0.7818609E-02  0.8242902E-01
        2   -1    0    0  501    0  0.00000000000E+00  0.00000000000E+00  0.17291942974E+04  0.17291942974E+04  0.25500000920E-02 0. -1.
       -2   -1    0    0    0  501  0.00000000000E+00  0.00000000000E+00 -0.13037059541E+04  0.13037059541E+04  0.25500000920E-02 0.  1.
    10030    2    1    2    0    0  0.00000000000E+00  0.00000000000E+00  0.42548834329E+03  0.30329002515E+04  0.30029058602E+04 0.  0.
        4    1    3    3  502    0  0.94450115647E+03  0.11452197515E+04  0.44026875808E+03  0.15483697576E+04  0.12699999809E+01 0. -1.
       -4    1    3    3    0  502 -0.94450115647E+03 -0.11452197515E+04 -0.14780414786E+02  0.14845304940E+04  0.12699999809E+01 0.  1.
</event>
<event>
 5   0  0.2948711E-06  0.3007090E+04  0.7818609E-02  0.8241709E-01
       -2   -1    0    0    0  501  0.00000000000E+00  0.00000000000E+00  0.14604143860E+04  0.14604143860E+04  0.25500000920E-02 0. -1.
        2   -1    0    0  501    0  0.00000000000E+00  0.00000000000E+00 -0.15479489870E+04  0.15479489870E+04  0.25500000920E-02 0.  1.
    10030    2    1    2    0    0  0.00000000000E+00  0.00000000000E+00 -0.87534601008E+02  0.30083633729E+04  0.30070896025E+04 0.  0.
        5    1    3    3  502    0 -0.11131119804E+04 -0.94578779937E+02  0.96296977498E+03  0.14748885735E+04  0.46999998093E+01 0.  1.
       -5    1    3    3    0  502  0.11131119804E+04  0.94578779937E+02 -0.10505043760E+04  0.15334747995E+04  0.46999998093E+01 0. -1.
</event>
<event>
 5   0  0.1054384E-06  0.3006547E+04  0.7818609E-02  0.8241864E-01
        1   -1    0    0  501    0  0.00000000000E+00  0.00000000000E+00  0.14697445801E+04  0.14697445801E+04  0.50400001928E-02 0. -1.
       -1   -1    0    0    0  501  0.00000000000E+00  0.00000000000E+00 -0.15375671875E+04  0.15375671876E+04  0.50400001928E-02 0.  1.
    10030    2    1    2    0    0  0.00000000000E+00  0.00000000000E+00 -0.67822607430E+02  0.30073117677E+04  0.30065468834E+04 0.  0.
        2    1    3    3  502    0  0.10054465792E+04  0.61643508667E+03  0.89848248236E+03  0.14826280082E+04  0.25500000920E-02 0. -1.
       -2    1    3    3    0  502 -0.10054465792E+04 -0.61643508667E+03 -0.96630508979E+03  0.15246837594E+04  0.25500000920E-02 0.  1.
</event>
<event>
 5   0  0.2948711E-06  0.3006198E+04  0.7818609E-02  0.8241963E-01
       -2   -1    0    0    0  501  0.00000000000E+00  0.00000000000E+00  0.11021799126E+04  0.11021799126E+04  0.25500000920E-02 0. -1.
        2   -1    0    0  501    0  0.00000000000E+00  0.00000000000E+00 -0.20498530092E+04  0.20498530092E+04  0.25500000920E-02 0.  1.
    10030    2    1    2    0    0  0.00000000000E+00  0.00000000000E+00 -0.94767309660E+03  0.31520329218E+04  0.30061981375E+04 0.  0.
        5    1    3    3  502    0  0.62339776901E+03 -0.51830593375E+03  0.85327357296E+03  0.11770147406E+04  0.46999998093E+01 0. -1.
       -5    1    3    3    0  502 -0.62339776901E+03  0.51830593375E+03 -0.18009466696E+04  0.19750181812E+04  0.46999998093E+01 0.  1.
</event>
<event>
 5   0  0.9749500E-07  0.2958723E+04  0.7818609E-02  0.8255617E-01
        3   -1    0    0  501    0  0.00000000000E+00  0.00000000000E+00  0.15722474799E+04  0.15722474832E+04  0.10100000352E+00 0.  1.
       -3   -1    0    0    0  501  0.00000000000E+00  0.00000000000E+00 -0.13919632967E+04  0.13919633003E+04  0.10100000352E+00 0. -1.
    10030    2    1    2    0    0  0.00000000000E+00  0.00000000000E+00  0.18028418327E+03  0.29642107835E+04  0.29587232352E+04 0.  0.
        2    1    3    3  502    0 -0.12968769268E+04  0.69270987838E+03 -0.73789188432E+02  0.14721350425E+04  0.25500000920E-02 0. -1.
       -2    1    3    3    0  502  0.12968769268E+04 -0.69270987838E+03  0.25407337170E+03  0.14920757411E+04  0.25500000920E-02 0.  1.
</event>
<event>
 5   0  0.1054384E-06  0.2996482E+04  0.7818609E-02  0.8244736E-01
        1   -1    0    0  501    0  0.00000000000E+00  0.00000000000E+00  0.18769790826E+04  0.18769790826E+04  0.50400001928E-02 0.  1.
       -1   -1    0    0    0  501  0.00000000000E+00  0.00000000000E+00 -0.11959251389E+04  0.11959251389E+04  0.50400001928E-02 0. -1.
    10030    2    1    2    0    0  0.00000000000E+00  0.00000000000E+00  0.68105394373E+03  0.30729042215E+04  0.29964822510E+04 0.  0.
        2    1    3    3  502    0  0.42606637693E+02 -0.81695630541E+02  0.18740709179E+04  0.18763345402E+04  0.25500000920E-02 0.  1.
       -2    1    3    3    0  502 -0.42606637693E+02  0.81695630541E+02 -0.11930169741E+04  0.11965696813E+04  0.25500000920E-02 0. -1.
</event>
<event>
 5   0  0.3113328E-06  0.3007975E+04  0.7818609E-02  0.8241457E-01
        2   -1    0    0  501    0  0.00000000000E+00  0.00000000000E+00  0.17588024616E+04  0.17588024616E+04  0.25500000920E-02 0. -1.
       -2   -1    0    0    0  501  0.00000000000E+00  0.00000000000E+00 -0.12860897174E+04  0.12860897174E+04  0.25500000920E-02 0.  1.
    10030    2    1    2    0    0  0.00000000000E+00  0.00000000000E+00  0.47271274419E+03  0.30448921789E+04  0.30079745748E+04 0.  0.
        1    1    3    3  502    0  0.70125068271E+03  0.96573036876E+03  0.11627883221E+04  0.16662725909E+04  0.50400001928E-02 0. -1.
       -1    1    3    3    0  502 -0.70125068271E+03 -0.96573036876E+03 -0.69007557794E+03  0.13786195880E+04  0.50400001928E-02 0.  1.
</event>
<event>
 5   0  0.1097402E-06  0.2992015E+04  0.7818609E-02  0.8246015E-01
       -1   -1    0    0    0  501  0.00000000000E+00  0.00000000000E+00  0.93028096993E+03  0.93028096995E+03  0.50400001928E-02 0. -1.
        1   -1    0    0  501    0  0.00000000000E+00  0.00000000000E+00 -0.24057666786E+04  0.24057666786E+04  0.50400001928E-02 0.  1.
    10030    2    1    2    0    0  0.00000000000E+00  0.00000000000E+00 -0.14754857086E+04  0.33360476485E+04  0.29920153470E+04 0.  0.
        4    1    3    3  502    0 -0.33187482434E+03 -0.14266858899E+04 -0.10767855102E+04  0.18179774958E+04  0.12699999809E+01 0.  1.
       -4    1    3    3    0  502  0.33187482434E+03  0.14266858899E+04 -0.39870019838E+03  0.15180701527E+04  0.12699999809E+01 0. -1.
</event>
<event>
 5   0  0.2985941E-06  0.2990293E+04  0.7818609E-02  0.8246508E-01
       -2   -1    0    0    0  501  0.00000000000E+00  0.00000000000E+00  0.12954439690E+04  0.12954439690E+04  0.25500000920E-02 0. -1.
        2   -1    0    0  501    0  0.00000000000E+00  0.00000000000E+00 -0.17256342389E+04  0.17256342389E+04  0.25500000920E-02 0.  1.
    10030    2    1    2    0    0  0.00000000000E+00  0.00000000000E+00 -0.43019026988E+03  0.30210782079E+04  0.29902926061E+04 0.  0.
        3    1    3    3  502    0 -0.83518225343E+03  0.76906637268E+03  0.76778758978E+03  0.13705802695E+04  0.10100000352E+00 0. -1.
       -3    1    3    3    0  502  0.83518225343E+03 -0.76906637268E+03 -0.11979778597E+04  0.16504979383E+04  0.10100000352E+00 0.  1.
</event>
<event>
 5   0  0.1113245E-06  0.3019616E+04  0.7818609E-02  0.8238152E-01
        1   -1    0    0  501    0  0.00000000000E+00  0.00000000000E+00  0.18598430877E+04  0.18598430877E+04  0.50400001928E-02 0. -1.
       -1   -1    0    0    0  501  0.00000000000E+00  0.00000000000E+00 -0.12256518540E+04  0.12256518540E+04  0.50400001928E-02 0.  1.
    10030    2    1    2    0    0  0.00000000000E+00  0.00000000000E+00  0.63419123368E+03  0.30854949417E+04  0.30196159548E+04 0.  0.
        5    1    3    3  502    0 -0.30178859772E+03  0.14180420837E+04  0.74768975269E+03  0.16312515946E+04  0.46999998093E+01 0. -1.
       -5    1    3    3    0  502  0.30178859772E+03 -0.14180420837E+04 -0.11349851901E+03  0.14542433471E+04  0.46999998093E+01 0.  1.
</event>
<event>
 5   0  0.1091076E-06  0.2948923E+04  0.7818609E-02  0.8258468E-01
        1   -1    0    0  501    0  0.00000000000E+00  0.00000000000E+00  0.14420858664E+04  0.14420858664E+04  0.50400001928E-02 0. -1.
       -1   -1    0    0    0  501  0.00000000000E+00  0.00000000000E+00 -0.15075642390E+04  0.15075642390E+04  0.50400001928E-02 0.  1.
    10030    2    1    2    0    0  0.00000000000E+00  0.00000000000E+00 -0.65478372599E+02  0.29496501054E+04  0.29489232487E+04 0.  0.
        3    1    3    3  502    0  0.12364370048E+04 -0.51300748267E+03  0.58554254914E+03  0.14611000072E+04  0.10100000352E+00 0. -1.
       -3    1    3    3    0  502 -0.12364370048E+04  0.51300748267E+03 -0.65102092174E+03  0.14885500982E+04  0.10100000352E+00 0.  1.
</event>
<event>
 5   0  0.9749500E-07  0.3033883E+04  0.7818609E-02  0.8234121E-01
       -3   -1    0    0    0  501  0.00000000000E+00  0.00000000000E+00  0.17690091434E+04  0.17690091463E+04  0.10100000352E+00 0.  1.
        3   -1    0    0  501    0  0.00000000000E+00  0.00000000000E+00 -0.13007908814E+04  0.13007908853E+04  0.10100000352E+00 0. -1.
    10030    2    1    2    0    0  0.00000000000E+00  0.00000000000E+00  0.46821826199E+03  0.30698000316E+04  0.30338826432E+04 0.  0.
        5    1    3    3  502    0  0.12745908021E+04  0.56599564296E+03 -0.36974425240E+03  0.14427978662E+04  0.46999998093E+01 0. -1.
       -5    1    3    3    0  502 -0.12745908021E+04 -0.56599564296E+03  0.83796251439E+03  0.16270021654E+04  0.46999998093E+01 0.  1.
</event>
<event>
 5   0  0.2862033E-06  0.2997422E+04  0.7818609E-02  0.8244467E-01
       -2   -1    0    0    0  501  0.00000000000E+00  0.00000000000E+00  0.23679568879E+04  0.23679568879E+04  0.25500000920E-02 0. -1.
        2   -1    0    0  501    0  0.00000000000E+00  0.00000000000E+00 -0.94855412104E+03  0.94855412104E+03  0.25500000920E-02 0.  1.
    10030    2    1    2    0    0  0.00000000000E+00  0.00000000000E+00  0.14194027668E+04  0.33165110089E+04  0.29974224023E+04 0.  0.
        2    1    3    3  502    0 -0.95110562436E+03  0.87127077967E+03 -0.13470566977E+03  0.12968655665E+04  0.25500000920E-02 0.  1.
       -2    1    3    3    0  502  0.95110562436E+03 -0.87127077967E+03  0.15541084366E+04  0.20196454424E+04  0.25500000920E-02 0. -1.
</event>
<event>
 5   0  0.2948711E-06  0.3031097E+04  0.7818609E-02  0.8234906E-01
        2   -1    0    0  501    0  0.00000000000E+00  0.00000000000E+00  0.22584956358E+04  0.22584956358E+04  0.25500000920E-02 0. -1.
       -2   -1    0    0    0  501  0.00000000000E+00  0.00000000000E+00 -0.10169986490E+04  0.10169986490E+04  0.25500000920E-02 0.  1.
    10030    2    1    2    0    0  0.00000000000E+00  0.00000000000E+00  0.12414969868E+04  0.32754942848E+04  0.30310968380E+04 0.  0.
        5    1    3    3  502    0 -0.82200506493E+03  0.75512098421E+03 -0.48707644882E+03  0.12178528583E+04  0.46999998093E+01 0.  1.
       -5    1    3    3    0  502  0.82200506493E+03 -0.75512098421E+03  0.17285734356E+04  0.20576414264E+04  0.46999998093E+01 0. -1.
</event>
<event>
 5   0  0.1097402E-06  0.2970737E+04  0.7818609E-02  0.8252137E-01
       -1   -1    0    0    0  501  0.00000000000E+00  0.00000000000E+00  0.15886557652E+04  0.15886557652E+04  0.50400001928E-02 0. -1.
        1   -1    0    0  501    0  0.00000000000E+00  0.00000000000E+00 -0.13887964323E+04  0.13887964323E+04  0.50400001928E-02 0.  1.
    10030    2    1    2    0    0  0.00000000000E+00  0.00000000000E+00  0.19985933295E+03  0.29774521975E+04  0.29707369179E+04 0.  0.
        4    1    3    3  502    0 -0.71110253456E+03 -0.12911280221E+04 -0.83895565870E+02  0.14763869625E+04  0.12699999809E+01 0.  1.
       -4    1    3    3    0  502  0.71110253456E+03  0.12911280221E+04  0.28375489882E+03  0.15010652350E+04  0.12699999809E+01 0. -1.
</event>
<event>
 5   0  0.2970915E-06  0.2985280E+04  0.7818609E-02  0.8247947E-01
       -2   -1    0    0    0  501  0.00000000000E+00  0.00000000000E+00  0.14063228678E+04  0.14063228678E+04  0.25500000920E-02 0. -1.
        2   -1    0    0  501    0  0.00000000000E+00  0.00000000000E+00 -0.15842550926E+04  0.15842550926E+04  0.25500000920E-02 0.  1.
    10030    2    1    2    0    0  0.00000000000E+00  0.00000000000E+00 -0.17793222485E+03  0.29905779604E+04  0.29852799970E+04 0.  0.
        4    1    3    3  502    0 -0.62987267440E+03  0.65051119647E+03 -0.12776924767E+04  0.15660153513E+04  0.12699999809E+01 0.  1.
       -4    1    3    3    0  502  0.62987267440E+03 -0.65051119647E+03  0.10997602518E+04  0.14245626091E+04  0.12699999809E+01 0. -1.
</event>
<event>
 5   0  0.1113245E-06  0.3004306E+04  0.7818609E-02  0.8242502E-01
        1   -1    0    0  501    0  0.00000000000E+00  0.00000000000E+00  0.24533894922E+04  0.24533894922E+04  0.50400001928E-02 0. -1.
       -1   -1    0    0    0  501  0.00000000000E+00  0.00000000000E+00 -0.91973288672E+03  0.91973288674E+03  0.50400001928E-02 0.  1.
    10030    2    1    2    0    0  0.00000000000E+00  0.00000000000E+00  0.15336566055E+04  0.33731223790E+04  0.30043055770E+04 0.  0.
        5    1    3    3  502    0  0.87172097229E+03 -0.10204565148E+04  0.93070444809E+01  0.13421392116E+04  0.46999998093E+01 0.  1.
       -5    1    3    3    0  502 -0.87172097229E+03  0.10204565148E+04  0.15243495610E+04  0.20309831674E+04  0.46999998093E+01 0. -1.
</event>
<event>
 5   0  0.2862033E-06  0.3019265E+04  0.7818609E-02  0.8238251E-01
        2   -1    0    0  501    0  0.00000000000E+00  0.00000000000E+00  0.17160168327E+04  0.17160168327E+04  0.25500000920E-02 0. -1.
       -2   -1    0    0    0  501  0.00000000000E+00  0.00000000000E+00 -0.13280698083E+04  0.13280698083E+04  0.25500000920E-02 0.  1.
    10030    2    1    2    0    0  0.00000000000E+00  0.00000000000E+00  0.38794702445E+03  0.30440866410E+04  0.30192649079E+04 0.  0.
        2    1    3    3  502    0  0.13672108265E+03  0.31780611153E+03 -0.12875616288E+04  0.13332322854E+04  0.25500000920E-02 0.  1.
       -2    1    3    3    0  502 -0.13672108265E+03 -0.31780611153E+03  0.16755086532E+04  0.17108543556E+04  0.25500000920E-02 0. -1.
</event>
<event>
 5   0  0.2985941E-06  0.2995299E+04  0.7818609E-02  0.8245075E-01
       -2   -1    0    0    0  501  0.00000000000E+00  0.00000000000E+00  0.14085330295E+04  0.14085330295E+04  0.25500000920E-02 0. -1.
        2   -1    0    0  501    0  0.00000000000E+00  0.00000000000E+00 -0.15924042156E+04  0.15924042156E+04  0.25500000920E-02 0.  1.
    10030    2    1    2    0    0  0.00000000000E+00  0.00000000000E+00 -0.18387118612E+03  0.30009372451E+04  0.29952989393E+04 0.  0.
        3    1    3    3  502    0 -0.88758614660E+02 -0.20742151102E+03 -0.15752806265E+04  0.15913550318E+04  0.10100000352E+00 0.  1.
       -3    1    3    3    0  502  0.88758614660E+02  0.20742151102E+03  0.13914094404E+04  0.14095822132E+04  0.10100000352E+00 0. -1.
</event>
<event>
 5   0  0.1054384E-06  0.2980581E+04  0.7818609E-02  0.8249298E-01
       -1   -1    0    0    0  501  0.00000000000E+00  0.00000000000E+00  0.14332456585E+04  0.14332456585E+04  0.50400001928E-02 0.  1.
        1   -1    0    0  501    0  0.00000000000E+00  0.00000000000E+00 -0.15496058691E+04  0.15496058691E+04  0.50400001928E-02 0. -1.
    10030    2    1    2    0    0  0.00000000000E+00  0.00000000000E+00 -0.11636021064E+03  0.29828515276E+04  0.29805810737E+04 0.  0.
        2    1    3    3  502    0  0.45835779327E+00 -0.12722709399E+04  0.71848601980E+03  0.14611282337E+04  0.25500000920E-02 0.  1.
       -2    1    3    3    0  502 -0.45835779327E+00  0.12722709399E+04 -0.83484623044E+03  0.15217232939E+04  0.25500000920E-02 0. -1.
</event>
<event>
 5   0  0.1113245E-06  0.2858822E+04  0.7818609E-02  0.8285236E-01
       -1   -1    0    0    0  501  0.00000000000E+00  0.00000000000E+00  0.10719028647E+04  0.10719028647E+04  0.50400001928E-02 0. -1.
        1   -1    0    0  501    0  0.00000000000E+00  0.00000000000E+00 -0.19061580530E+04  0.19061580530E+04  0.50400001928E-02 0.  1.
    10030    2    1    2    0    0  0.00000000000E+00  0.00000000000E+00 -0.83425518827E+03  0.29780609177E+04  0.28588223292E+04 0.  0.
        5    1    3    3  502    0  0.13967359707E+04 -0.14937603746E+03 -0.14149837377E+03  0.14118174288E+04  0.46999998093E+01 0. -1.
       -5    1    3    3    0  502 -0.13967359707E+04  0.14937603746E+03 -0.69275681450E+03  0.15662434889E+04  0.46999998093E+01 0.  1.
</event>
<event>
 5   0  0.2985941E-06  0.3002814E+04  0.7818609E-02  0.8242928E-01
        2   -1    0    0  501    0  0.00000000000E+00  0.00000000000E+00  0.18471305793E+04  0.18471305793E+04  0.25500000920E-02 0. -1.
       -2   -1    0    0    0  501  0.00000000000E+00  0.00000000000E+00 -0.12203915306E+04  0.12203915306E+04  0.25500000920E-02 0.  1.
    10030    2    1    2    0    0  0.00000000000E+00  0.00000000000E+00  0.62673904874E+03  0.30675221099E+04  0.30028136905E+04 0.  0.
        3    1    3    3  502    0  0.18138833057E+03  0.14509169401E+04 -0.34798699921E+02  0.14626252607E+04  0.10100000352E+00 0. -1.
       -3    1    3    3    0  502 -0.18138833057E+03 -0.14509169401E+04  0.66153774866E+03  0.16048968492E+04  0.10100000352E+00 0.  1.
</event>
<event>
 5   0  0.2985941E-06  0.2899540E+04  0.7818609E-02  0.8273014E-01
       -2   -1    0    0    0  501  0.00000000000E+00  0.00000000000E+00  0.13689543088E+04  0.13689543089E+04  0.25500000920E-02 0. -1.
        2   -1    0    0  501    0  0.00000000000E+00  0.00000000000E+00 -0.15353563351E+04  0.15353563351E+04  0.25500000920E-02 0.  1.
    10030    2    1    2    0    0  0.00000000000E+00  0.00000000000E+00 -0.16640202622E+03  0.29043106439E+04  0.28995397362E+04 0.  0.
        3    1    3    3  502    0  0.70560236225E+03 -0.44319024909E+03 -0.12715511800E+04  0.15202416598E+04  0.10100000352E+00 0.  1.
       -3    1    3    3    0  502 -0.70560236225E+03  0.44319024909E+03  0.11051491538E+04  0.13840689841E+04  0.10100000352E+00 0. -1.
</event>
<event>
 5   0  0.2862033E-06  0.3009703E+04  0.7818609E-02  0.8240965E-01
        2   -1    0    0  501    0  0.00000000000E+00  0.00000000000E+00  0.29779426179E+04  0.29779426179E+04  0.25500000920E-02 0.  1.
       -2   -1    0    0    0  501  0.00000000000E+00  0.00000000000E+00 -0.76045075207E+03  0.76045075207E+03  0.25500000920E-02 0. -1.
    10030    2    1    2    0    0  0.00000000000E+00  0.00000000000E+00  0.22174918659E+04  0.37383933700E+04  0.30097034428E+04 0.  0.
        2    1    3    3  502    0 -0.12527733871E+04  0.83026611427E+03  0.10141842661E+04  0.18131058175E+04  0.25500000920E-02 0. -1.
       -2    1    3    3    0  502  0.12527733871E+04 -0.83026611427E+03  0.12033075997E+04  0.19252875524E+04  0.25500000920E-02 0.  1.
</event>
<event>
 5   0  0.1091075E-06  0.2959483E+04  0.7818609E-02  0.8255396E-01
        1   -1    0    0  501    0  0.00000000000E+00  0.00000000000E+00  0.96998954315E+03  0.96998954317E+03  0.50400001928E-02 0. -1.
       -1   -1    0    0    0  501  0.00000000000E+00  0.00000000000E+00 -0.22573799714E+04  0.22573799714E+04  0.50400001928E-02 0.  1.
    10030    2    1    2    0    0  0.00000000000E+00  0.00000000000E+00 -0.12873904282E+04  0.32273695146E+04  0.29594830408E+04 0.  0.
        1    1    3    3  502    0  0.12812184425E+04 -0.30265961403E+03 -0.13805105619E+04  0.19075987395E+04  0.50400001928E-02 0.  1.
       -1    1    3    3    0  502 -0.12812184425E+04  0.30265961403E+03  0.93120133684E+02  0.13197707751E+04  0.50400001928E-02 0. -1.
</event>
<event>
 5   0  0.2970915E-06  0.2995088E+04  0.7818609E-02  0.8245135E-01
        2   -1    0    0  501    0  0.00000000000E+00  0.00000000000E+00  0.23924684324E+04  0.23924684324E+04  0.25500000920E-02 0. -1.
       -2   -1    0    0    0  501  0.00000000000E+00  0.00000000000E+00 -0.93737428564E+03  0.93737428564E+03  0.25500000920E-02 0.  1.
    10030    2    1    2    0    0  0.00000000000E+00  0.00000000000E+00  0.14550941468E+04  0.33298427181E+04  0.29950882376E+04 0.  0.
        4    1    3    3  502    0 -0.75469886381E+03 -0.12304554034E+04  0.28416785038E+03  0.14711709129E+04  0.12699999809E+01 0.  1.
       -4    1    3    3    0  502  0.75469886381E+03  0.12304554034E+04  0.11709262964E+04  0.18586718052E+04  0.12699999809E+01 0. -1.
</event>
<event>
 5   0  0.2985941E-06  0.2945367E+04  0.7818609E-02  0.8259506E-01
        2   -1    0    0  501    0  0.00000000000E+00  0.00000000000E+00  0.24101229341E+04  0.24101229341E+04  0.25500000920E-02 0. -1.
       -2   -1    0    0    0  501  0.00000000000E+00  0.00000000000E+00 -0.89986982407E+03  0.89986982407E+03  0.25500000920E-02 0.  1.
    10030    2    1    2    0    0  0.00000000000E+00  0.00000000000E+00  0.15102531100E+04  0.33099927582E+04  0.29453671423E+04 0.  0.
        3    1    3    3  502    0  0.62570511419E+03  0.61243617784E+03 -0.57561719345E+03  0.10478168377E+04  0.10100000352E+00 0.  1.
       -3    1    3    3    0  502 -0.62570511419E+03 -0.61243617784E+03  0.20858703035E+04  0.22621759204E+04  0.10100000352E+00 0. -1.
</event>
<event>
 5   0  0.1054384E-06  0.2998052E+04  0.7818609E-02  0.8244287E-01
       -1   -1    0    0    0  501  0.00000000000E+00  0.00000000000E+00  0.91351779615E+03  0.91351779616E+03  0.50400001928E-02 0. -1.
        1   -1    0    0  501    0  0.00000000000E+00  0.00000000000E+00 -0.24598087395E+04  0.24598087395E+04  0.50400001928E-02 0.  1.
    10030    2    1    2    0    0  0.00000000000E+00  0.00000000000E+00 -0.15462909434E+04  0.33733265357E+04  0.29980520734E+04 0.  0.
        2    1    3    3  502    0  0.82958897306E+03 -0.27902814247E+03 -0.21424416573E+04  0.23143316149E+04  0.25500000920E-02 0.  1.
       -2    1    3    3    0  502 -0.82958897306E+03  0.27902814247E+03  0.59615071397E+03  0.10589949208E+04  0.25500000920E-02 0. -1.
</event>
<event>
 5   0  0.1091075E-06  0.2983060E+04  0.7818609E-02  0.8248585E-01
       -1   -1    0    0    0  501  0.00000000000E+00  0.00000000000E+00  0.11537856099E+04  0.11537856099E+04  0.50400001928E-02 0. -1.
        1   -1    0    0  501    0  0.00000000000E+00  0.00000000000E+00 -0.19281416199E+04  0.19281416199E+04  0.50400001928E-02 0.  1.
    10030    2    1    2    0    0  0.00000000000E+00  0.00000000000E+00 -0.77435601005E+03  0.30819272298E+04  0.29830602105E+04 0.  0.
        1    1    3    3  502    0  0.11062570369E+04 -0.23813242462E+03 -0.13910560237E+04  0.17931950659E+04  0.50400001928E-02 0.  1.
       -1    1    3    3    0  502 -0.11062570369E+04  0.23813242462E+03  0.61670001363E+03  0.12887321639E+04  0.50400001928E-02 0. -1.
</event>
<event>
 5   0  0.3113328E-06  0.3007060E+04  0.7818609E-02  0.8241718E-01
       -2   -1    0    0    0  501  0.00000000000E+00  0.00000000000E+00  0.10149923364E+04  0.10149923364E+04  0.25500000920E-02 0.  1.
        2   -1    0    0  501    0  0.00000000000E+00  0.00000000000E+00 -0.22272111644E+04  0.22272111644E+04  0.25500000920E-02 0. -1.
    10030    2    1    2    0    0  0.00000000000E+00  0.00000000000E+00 -0.12122188280E+04  0.32422035008E+04  0.30070598687E+04 0.  0.
        1    1    3    3  502    0  0.14133715684E+04  0.41993881843E+03 -0.92346309267E+03  0.17397562717E+04  0.50400001928E-02 0.  1.
       -1    1    3    3    0  502 -0.14133715684E+04 -0.41993881843E+03 -0.28875573531E+03  0.15024472291E+04  0.50400001928E-02 0. -1.
</event>
<event>
 5   0  0.1113245E-06  0.2990807E+04  0.7818609E-02  0.8246361E-01
        1   -1    0    0  501    0  0.00000000000E+00  0.00000000000E+00  0.15356518967E+04  0.15356518967E+04  0.50400001928E-02 0.  1.
       -1   -1    0    0    0  501  0.00000000000E+00  0.00000000000E+00 -0.14562099820E+04  0.14562099820E+04  0.50400001928E-02 0. -1.
    10030    2    1    2    0    0  0.00000000000E+00  0.00000000000E+00  0.79441914652E+02  0.29918618787E+04  0.29908069953E+04 0.  0.
        5    1    3    3  502    0 -0.69211501312E+03 -0.12828073378E+04 -0.29445026556E+03  0.14870578019E+04  0.46999998093E+01 0. -1.
       -5    1    3    3    0  502  0.69211501312E+03  0.12828073378E+04  0.37389218021E+03  0.15048040768E+04  0.46999998093E+01 0.  1.
</event>
<event>
 5   0  0.1091075E-06  0.2945125E+04  0.7818609E-02  0.8259577E-01
       -1   -1    0    0    0  501  0.00000000000E+00  0.00000000000E+00  0.18889009067E+04  0.18889009067E+04  0.50400001928E-02 0.  1.
        1   -1    0    0  501    0  0.00000000000E+00  0.00000000000E+00 -0.11479905199E+04  0.11479905199E+04  0.50400001928E-02 0. -1.
    10030    2    1    2    0    0  0.00000000000E+00  0.00000000000E+00  0.74091038683E+03  0.30368914266E+04  0.29451250119E+04 0.  0.
        1    1    3    3  502    0 -0.76840696152E+02 -0.29254930564E+03 -0.11156126276E+04  0.11558897541E+04  0.50400001928E-02 0. -1.
       -1    1    3    3    0  502  0.76840696152E+02  0.29254930564E+03  0.18565230144E+04  0.18810016725E+04  0.50400001928E-02 0.  1.
</event>
<event>
 5   0  0.2985941E-06  0.2958062E+04  0.7818609E-02  0.8255809E-01
        2   -1    0    0  501    0  0.00000000000E+00  0.00000000000E+00  0.97013081176E+03  0.97013081176E+03  0.25500000920E-02 0.  1.
       -2   -1    0    0    0  501  0.00000000000E+00  0.00000000000E+00 -0.22548846336E+04  0.22548846336E+04  0.25500000920E-02 0. -1.
    10030    2    1    2    0    0  0.00000000000E+00  0.00000000000E+00 -0.12847538219E+04  0.32250154454E+04  0.29580622441E+04 0.  0.
        3    1    3    3  502    0 -0.91242849058E+03 -0.56297816641E+03  0.46842424268E+03  0.11699963451E+04  0.10100000352E+00 0.  1.
       -3    1    3    3    0  502  0.91242849058E+03  0.56297816641E+03 -0.17531780646E+04  0.20550191003E+04  0.10100000352E+00 0. -1.
</event>
<event>
 5   0  0.1091075E-06  0.3005986E+04  0.7818609E-02  0.8242024E-01
        1   -1    0    0  501    0  0.00000000000E+00  0.00000000000E+00  0.23115846904E+04  0.23115846904E+04  0.50400001928E-02 0. -1.
       -1   -1    0    0    0  501  0.00000000000E+00  0.00000000000E+00 -0.97724657740E+03  0.97724657741E+03  0.50400001928E-02 0.  1.
    10030    2    1    2    0    0  0.00000000000E+00  0.00000000000E+00  0.13343381130E+04  0.32888312678E+04  0.30059861790E+04 0.  0.
        1    1    3    3  502    0  0.23361718929E+03  0.10780478425E+04  0.17841227432E+04  0.20975838731E+04  0.50400001928E-02 0. -1.
       -1    1    3    3    0  502 -0.23361718929E+03 -0.10780478425E+04 -0.44978463020E+03  0.11912473947E+04  0.50400001928E-02 0.  1.
</event>
<event>
 5   0  0.1091075E-06  0.2892855E+04  0.7818609E-02  0.8275007E-01
       -1   -1    0    0    0  501  0.00000000000E+00  0.00000000000E+00  0.14974856493E+04  0.14974856493E+04  0.50400001928E-02 0. -1.
        1   -1    0    0  501    0  0.00000000000E+00  0.00000000000E+00 -0.13971097676E+04  0.13971097676E+04  0.50400001928E-02 0.  1.
    10030    2    1    2    0    0  0.00000000000E+00  0.00000000000E+00  0.10037588170E+03  0.28945954169E+04  0.28928545262E+04 0.  0.
        1    1    3    3  502    0  0.10813192157E+04 -0.81632082075E+03 -0.45659577550E+03  0.14297239701E+04  0.50400001928E-02 0. -1.
       -1    1    3    3    0  502 -0.10813192157E+04  0.81632082075E+03  0.55697165720E+03  0.14648714468E+04  0.50400001928E-02 0.  1.
</event>
<event>
 5   0  0.1054384E-06  0.2990529E+04  0.7818609E-02  0.8246441E-01
        1   -1    0    0  501    0  0.00000000000E+00  0.00000000000E+00  0.17969454305E+04  0.17969454305E+04  0.50400001928E-02 0.  1.
       -1   -1    0    0    0  501  0.00000000000E+00  0.00000000000E+00 -0.12442314274E+04  0.12442314274E+04  0.50400001928E-02 0. -1.
    10030    2    1    2    0    0  0.00000000000E+00  0.00000000000E+00  0.55271400312E+03  0.30411768579E+04  0.29905290355E+04 0.  0.
        2    1    3    3  502    0 -0.49527972206E+03  0.11837996931E+04 -0.50419179151E+03  0.13787287910E+04  0.25500000920E-02 0. -1.
       -2    1    3    3    0  502  0.49527972206E+03 -0.11837996931E+04  0.10569057946E+04  0.16624480669E+04  0.25500000920E-02 0.  1.
</event>
<event>
 5   0  0.3113328E-06  0.2995174E+04  0.7818609E-02  0.8245110E-01
        2   -1    0    0  501    0  0.00000000000E+00  0.00000000000E+00  0.22602800522E+04  0.22602800522E+04  0.25500000920E-02 0.  1.
       -2   -1    0    0    0  501  0.00000000000E+00  0.00000000000E+00 -0.99225202687E+03  0.99225202687E+03  0.25500000920E-02 0. -1.
    10030    2    1    2    0    0  0.00000000000E+00  0.00000000000E+00  0.12680280253E+04  0.32525320791E+04  0.29951744277E+04 0.  0.
        1    1    3    3  502    0 -0.16675656366E+03  0.19008735023E+03  0.22369301269E+04  0.22511768800E+04  0.50400001928E-02 0.  1.
       -1    1    3    3    0  502  0.16675656366E+03 -0.19008735023E+03 -0.96890210159E+03  0.10013551991E+04  0.50400001928E-02 0. -1.
</event>
<event>
 5   0  0.9749500E-07  0.3000873E+04  0.7818609E-02  0.8243482E-01
        3   -1    0    0  501    0  0.00000000000E+00  0.00000000000E+00  0.17616997075E+04  0.17616997104E+04  0.10100000352E+00 0.  1.
       -3   -1    0    0    0  501  0.00000000000E+00  0.00000000000E+00 -0.12779190407E+04  0.12779190447E+04  0.10100000352E+00 0. -1.
    10030    2    1    2    0    0  0.00000000000E+00  0.00000000000E+00  0.48378066679E+03  0.30396187551E+04  0.30008729468E+04 0.  0.
        5    1    3    3  502    0 -0.14310632480E+04 -0.40963523851E+03  0.43285698911E+03  0.15502033130E+04  0.46999998093E+01 0. -1.
       -5    1    3    3    0  502  0.14310632480E+04  0.40963523851E+03  0.50923677680E+02  0.14894154422E+04  0.46999998093E+01 0.  1.
</event>
<event>
 5   0  0.2985941E-06  0.2994823E+04  0.7818609E-02  0.8245211E-01
       -2   -1    0    0    0  501  0.00000000000E+00  0.00000000000E+00  0.13036298952E+04  0.13036298952E+04  0.25500000920E-02 0.  1.
        2   -1    0    0  501    0  0.00000000000E+00  0.00000000000E+00 -0.17199988339E+04  0.17199988339E+04  0.25500000920E-02 0. -1.
    10030    2    1    2    0    0  0.00000000000E+00  0.00000000000E+00 -0.41636893873E+03  0.30236287291E+04  0.29948234670E+04 0.  0.
        3    1    3    3  502    0  0.39769744876E+03  0.15502109183E+03  0.12409070324E+04  0.13122671500E+04  0.10100000352E+00 0.  1.
       -3    1    3    3    0  502 -0.39769744876E+03 -0.15502109183E+03 -0.16572759711E+04  0.17113615791E+04  0.10100000352E+00 0. -1.
</event>
<event>
 5   0  0.2862033E-06  0.2989273E+04  0.7818609E-02  0.8246801E-01
       -2   -1    0    0    0  501  0.00000000000E+00  0.00000000000E+00  0.15533155760E+04  0.15533155760E+04  0.25500000920E-02 0.  1.
        2   -1    0    0  501    0  0.00000000000E+00  0.00000000000E+00 -0.14381743394E+04  0.14381743394E+04  0.25500000920E-02 0. -1.
    10030    2    1    2    0    0  0.00000000000E+00  0.00000000000E+00  0.11514123657E+03  0.29914899154E+04  0.29892732243E+04 0.  0.
        2    1    3    3  502    0  0.13010000213E+04  0.45092811204E+03  0.63938060393E+03  0.15181385887E+04  0.25500000920E-02 0.  1.
       -2    1    3    3    0  502 -0.13010000213E+04 -0.45092811204E+03 -0.52423936736E+03  0.14733513267E+04  0.25500000920E-02 0. -1.
</event>
<event>
 5   0  0.2970915E-06  0.3049945E+04  0.7818609E-02  0.8229611E-01
       -2   -1    0    0    0  501  0.00000000000E+00  0.00000000000E+00  0.12014336344E+04  0.12014336344E+04  0.25500000920E-02 0.  1.
        2   -1    0    0  501    0  0.00000000000E+00  0.00000000000E+00 -0.19356389010E+04  0.19356389010E+04  0.25500000920E-02 0. -1.
    10030    2    1    2    0    0  0.00000000000E+00  0.00000000000E+00 -0.73420526666E+03  0.31370725354E+04  0.30499453633E+04 0.  0.
        4    1    3    3  502    0  0.23229955818E+03  0.12349621352E+04  0.52154902397E+03  0.13605548712E+04  0.12699999809E+01 0.  1.
       -4    1    3    3    0  502 -0.23229955818E+03 -0.12349621352E+04 -0.12557542906E+04  0.17765176643E+04  0.12699999809E+01 0. -1.
</event>
<event>
 5   0  0.2985941E-06  0.3008723E+04  0.7818609E-02  0.8241244E-01
       -2   -1    0    0    0  501  0.00000000000E+00  0.00000000000E+00  0.10143341176E+04  0.10143341176E+04  0.25500000920E-02 0. -1.
        2   -1    0    0  501    0  0.00000000000E+00  0.00000000000E+00 -0.22311221319E+04  0.22311221319E+04  0.25500000920E-02 0.  1.
    10030    2    1    2    0    0  0.00000000000E+00  0.00000000000E+00 -0.12167880143E+04  0.32454562495E+04  0.30087228512E+04 0.  0.
        3    1    3    3  502    0  0.93905230561E+03  0.73876697013E+03  0.37758741035E+03  0.12530634986E+04  0.10100000352E+00 0. -1.
       -3    1    3    3    0  502 -0.93905230561E+03 -0.73876697013E+03 -0.15943754247E+04  0.19923927509E+04  0.10100000352E+00 0.  1.
</event>
<event>
 5   0  0.1091075E-06  0.2992291E+04  0.7818609E-02  0.8245936E-01
       -1   -1    0    0    0  501  0.00000000000E+00  0.00000000000E+00  0.19065786228E+04  0.19065786228E+04  0.50400001928E-02 0. -1.
        1   -1    0    0  501    0  0.00000000000E+00  0.00000000000E+00 -0.11740667858E+04  0.11740667858E+04  0.50400001928E-02 0.  1.
    10030    2    1    2    0    0  0.00000000000E+00  0.00000000000E+00  0.73251183700E+03  0.30806454087E+04  0.29922905177E+04 0.  0.
        1    1    3    3  502    0 -0.25704402612E+03  0.57928318408E+03 -0.10290520468E+04  0.12085482009E+04  0.50400001928E-02 0.  1.
       -1    1    3    3    0  502  0.25704402612E+03 -0.57928318408E+03  0.17615638838E+04  0.18720972078E+04  0.50400001928E-02 0. -1.
</event>
<event>
 5   0  0.9749500E-07  0.2987624E+04  0.7818609E-02  0.8247274E-01
        3   -1    0    0  501    0  0.00000000000E+00  0.00000000000E+00  0.12578953008E+04  0.12578953048E+04  0.10100000352E+00 0. -1.
       -3   -1    0    0    0  501  0.00000000000E+00  0.00000000000E+00 -0.17739742007E+04  0.17739742035E+04  0.10100000352E+00 0.  1.
    10030    2    1    2    0    0  0.00000000000E+00  0.00000000000E+00 -0.51607889988E+03  0.30318695084E+04  0.29876236853E+04 0.  0.
        3    1    3    3  502    0 -0.85508095518E+02  0.11890141971E+04  0.65551894907E+03  0.13604306297E+04  0.10100000352E+00 0. -1.
       -3    1    3    3    0  502  0.85508095518E+02 -0.11890141971E+04 -0.11715978490E+04  0.16714388787E+04  0.10100000352E+00 0.  1.
</event>
<event>
 5   0  0.2970915E-06  0.2995401E+04  0.7818609E-02  0.8245045E-01
       -2   -1    0    0    0  501  0.00000000000E+00  0.00000000000E+00  0.15452602345E+04  0.15452602345E+04  0.25500000920E-02 0. -1.
        2   -1    0    0  501    0  0.00000000000E+00  0.00000000000E+00 -0.14516047253E+04  0.14516047253E+04  0.25500000920E-02 0.  1.
    10030    2    1    2    0    0  0.00000000000E+00  0.00000000000E+00  0.93655509216E+02  0.29968649598E+04  0.29954011806E+04 0.  0.
        4    1    3    3  502    0  0.82600511596E+03 -0.94774338135E+03  0.86123013133E+03  0.15238834996E+04  0.12699999809E+01 0. -1.
       -4    1    3    3    0  502 -0.82600511596E+03  0.94774338135E+03 -0.76757462211E+03  0.14729814601E+04  0.12699999809E+01 0.  1.
</event>
<event>
 5   0  0.2862033E-06  0.2998489E+04  0.7818609E-02  0.8244163E-01
        2   -1    0    0  501    0  0.00000000000E+00  0.00000000000E+00  0.15467701349E+04  0.15467701349E+04  0.25500000920E-02 0.  1.
       -2   -1    0    0    0  501  0.00000000000E+00  0.00000000000E+00 -0.14531786514E+04  0.14531786514E+04  0.25500000920E-02 0. -1.
    10030    2    1    2    0    0  0.00000000000E+00  0.00000000000E+00  0.93591483459E+02  0.29999487863E+04  0.29984885117E+04 0.  0.
        2    1    3    3  502    0  0.38370162327E+03 -0.12391933722E+04  0.79876418914E+03  0.15234340745E+04  0.25500000920E-02 0.  1.
       -2    1    3    3    0  502 -0.38370162327E+03  0.12391933722E+04 -0.70517270568E+03  0.14765147118E+04  0.25500000920E-02 0. -1.
</event>
<event>
 5   0  0.1054384E-06  0.2988184E+04  0.7818609E-02  0.8247113E-01
       -1   -1    0    0    0  501  0.00000000000E+00  0.00000000000E+00  0.12792118606E+04  0.12792118606E+04  0.50400001928E-02 0.  1.
        1   -1    0    0  501    0  0.00000000000E+00  0.00000000000E+00 -0.17450678678E+04  0.17450678678E+04  0.50400001928E-02 0. -1.
    10030    2    1    2    0    0  0.00000000000E+00  0.00000000000E+00 -0.46585600716E+03  0.30242797284E+04  0.29881844080E+04 0.  0.
        2    1    3    3  502    0  0.16178512879E+03 -0.12115923355E+04  0.63662492782E+03  0.13781950929E+04  0.25500000920E-02 0.  1.
       -2    1    3    3    0  502 -0.16178512879E+03  0.12115923355E+04 -0.11024809350E+04  0.16460846355E+04  0.25500000920E-02 0. -1.
</event>
<event>
 5   0  0.1054384E-06  0.3002204E+04  0.7818609E-02  0.8243102E-01
       -1   -1    0    0    0  501  0.00000000000E+00  0.00000000000E+00  0.91028960090E+03  0.91028960092E+03  0.50400001928E-02 0.  1.
        1   -1    0    0  501    0  0.00000000000E+00  0.00000000000E+00 -0.24753733941E+04  0.24753733941E+04  0.50400001928E-02 0. -1.
    10030    2    1    2    0    0  0.00000000000E+00  0.00000000000E+00 -0.15650837932E+04  0.33856629950E+04  0.30022036300E+04 0.  0.
        2    1    3    3  502    0  0.12322474999E+04 -0.68069413682E+03 -0.13701815467E+04  0.19644785262E+04  0.25500000920E-02 0. -1.
       -2    1    3    3    0  502 -0.12322474999E+04  0.68069413682E+03 -0.19490224647E+03  0.14211844689E+04  0.25500000920E-02 0.  1.
</event>
<event>
 5   0  0.3113328E-06  0.2998186E+04  0.7818609E-02  0.8244249E-01
        2   -1    0    0  501    0  0.00000000000E+00  0.00000000000E+00  0.17096768489E+04  0.17096768489E+04  0.25500000920E-02 0.  1.
       -2   -1    0    0    0  501  0.00000000000E+00  0.00000000000E+00 -0.13144467389E+04  0.13144467389E+04  0.25500000920E-02 0. -1.
    10030    2    1    2    0    0  0.00000000000E+00  0.00000000000E+00  0.39523011001E+03  0.30241235879E+04  0.29981855571E+04 0.  0.
        1    1    3    3  502    0  0.31402696134E+03 -0.22736341557E+03 -0.12630053195E+04  0.13211697439E+04  0.50400001928E-02 0. -1.
       -1    1    3    3    0  502 -0.31402696134E+03  0.22736341557E+03  0.16582354295E+04  0.17029538440E+04  0.50400001928E-02 0.  1.
</event>
<event>
 5   0  0.1091075E-06  0.2996719E+04  0.7818609E-02  0.8244668E-01
        1   -1    0    0  501    0  0.00000000000E+00  0.00000000000E+00  0.12171682962E+04  0.12171682962E+04  0.50400001928E-02 0.  1.
       -1   -1    0    0    0  501  0.00000000000E+00  0.00000000000E+00 -0.18445114715E+04  0.18445114715E+04  0.50400001928E-02 0. -1.
    10030    2    1    2    0    0  0.00000000000E+00  0.00000000000E+00 -0.62734317528E+03  0.30616797677E+04  0.29967187957E+04 0.  0.
        1    1    3    3  502    0 -0.46582757481E+03  0.65033965867E+03 -0.16080783009E+04  0.17960659294E+04  0.50400001928E-02 0. -1.
       -1    1    3    3    0  502  0.46582757481E+03 -0.65033965867E+03  0.98073512559E+03  0.12656138383E+04  0.50400001928E-02 0.  1.
</event>
<event>
 5   0  0.1113245E-06  0.3008613E+04  0.7818609E-02  0.8241276E-01
       -1   -1    0    0    0  501  0.00000000000E+00  0.00000000000E+00  0.84944363214E+03  0.84944363216E+03  0.50400001928E-02 0. -1.
        1   -1    0    0  501    0  0.00000000000E+00  0.00000000000E+00 -0.26640231879E+04  0.26640231879E+04  0.50400001928E-02 0.  1.
    10030    2    1    2    0    0  0.00000000000E+00  0.00000000000E+00 -0.18145795558E+04  0.35134668201E+04  0.30086126589E+04 0.  0.
        5    1    3    3  502    0  0.72488208733E+03 -0.84996632304E+03  0.26924993128E+03  0.11490928624E+04  0.46999998093E+01 0.  1.
       -5    1    3    3    0  502 -0.72488208733E+03  0.84996632304E+03 -0.20838294870E+04  0.23643739577E+04  0.46999998093E+01 0. -1.
</event>
<event>
 5   0  0.1091075E-06  0.2965928E+04  0.7818609E-02  0.8253528E-01
       -1   -1    0    0    0  501  0.00000000000E+00  0.00000000000E+00  0.93705952348E+03  0.93705952350E+03  0.50400001928E-02 0. -1.
        1   -1    0    0  501    0  0.00000000000E+00  0.00000000000E+00 -0.23468972227E+04  0.23468972227E+04  0.50400001928E-02 0.  1.
    10030    2    1    2    0    0  0.00000000000E+00  0.00000000000E+00 -0.14098376992E+04  0.32839567462E+04  0.29659281132E+04 0.  0.
        1    1    3    3  502    0  0.43180759819E+03 -0.14145787298E+04 -0.58519685521E+03  0.15905804424E+04  0.50400001928E-02 0. -1.
       -1    1    3    3    0  502 -0.43180759819E+03  0.14145787298E+04 -0.82464084402E+03  0.16933763038E+04  0.50400001928E-02 0.  1.
</event>
<event>
 5   0  0.1091076E-06  0.3026514E+04  0.7818609E-02  0.8236200E-01
        1   -1    0    0  501    0  0.00000000000E+00  0.00000000000E+00  0.17803011183E+04  0.17803011183E+04  0.50400001928E-02 0. -1.
       -1   -1    0    0    0  501  0.00000000000E+00  0.00000000000E+00 -0.12862697570E+04  0.12862697570E+04  0.50400001928E-02 0.  1.
    10030    2    1    2    0    0  0.00000000000E+00  0.00000000000E+00  0.49403136132E+03  0.30665708752E+04  0.30265144881E+04 0.  0.
        3    1    3    3  502    0  0.67197569429E+03 -0.62432065823E+03  0.14665315796E+04  0.17297521505E+04  0.10100000352E+00 0. -1.
       -3    1    3    3    0  502 -0.67197569429E+03  0.62432065823E+03 -0.97250021829E+03  0.13368187247E+04  0.10100000352E+00 0.  1.
</event>
<event>
 5   0  0.2985941E-06  0.3017361E+04  0.7818609E-02  0.8238791E-01
        2   -1    0    0  501    0  0.00000000000E+00  0.00000000000E+00  0.19075955517E+04  0.19075955517E+04  0.25500000920E-02 0. -1.
       -2   -1    0    0    0  501  0.00000000000E+00  0.00000000000E+00 -0.11931863065E+04  0.11931863065E+04  0.25500000920E-02 0.  1.
    10030    2    1    2    0    0  0.00000000000E+00  0.00000000000E+00  0.71440924521E+03  0.31007818581E+04  0.30173610261E+04 0.  0.
        3    1    3    3  502    0  0.16133219710E+03  0.76677993785E+03  0.16820872018E+04  0.18556392202E+04  0.10100000352E+00 0. -1.
       -3    1    3    3    0  502 -0.16133219710E+03 -0.76677993785E+03 -0.96767795658E+03  0.12451426379E+04  0.10100000352E+00 0.  1.
</event>
<event>
 5   0  0.3113328E-06  0.2941538E+04  0.7818609E-02  0.8260625E-01
        2   -1    0    0  501    0  0.00000000000E+00  0.00000000000E+00  0.18691975028E+04  0.18691975028E+04  0.25500000920E-02 0.  1.
       -2   -1    0    0    0  501  0.00000000000E+00  0.00000000000E+00 -0.11572674314E+04  0.11572674314E+04  0.25500000920E-02 0. -1.
    10030    2    1    2    0    0  0.00000000000E+00  0.00000000000E+00  0.71193007139E+03  0.30264649342E+04  0.29415379602E+04 0.  0.
        1    1    3    3  502    0  0.13271311398E+04  0.37228844451E+03 -0.17196306488E+03  0.13890453714E+04  0.50400001928E-02 0. -1.
       -1    1    3    3    0  502 -0.13271311398E+04 -0.37228844451E+03  0.88389313628E+03  0.16374195628E+04  0.50400001928E-02 0.  1.
</event>
<event>
 5   0  0.2970915E-06  0.3040911E+04  0.7818609E-02  0.8232144E-01
       -2   -1    0    0    0  501  0.00000000000E+00  0.00000000000E+00  0.17488437210E+04  0.17488437210E+04  0.25500000920E-02 0.  1.
        2   -1    0    0  501    0  0.00000000000E+00  0.00000000000E+00 -0.13218930164E+04  0.13218930164E+04  0.25500000920E-02 0. -1.
    10030    2    1    2    0    0  0.00000000000E+00  0.00000000000E+00  0.42695070461E+03  0.30707367375E+04  0.30409105884E+04 0.  0.
        4    1    3    3  502    0 -0.11774125667E+04  0.89353996422E+03  0.57343861035E+03  0.15854171289E+04  0.12699999809E+01 0. -1.
       -4    1    3    3    0  502  0.11774125667E+04 -0.89353996422E+03 -0.14648790574E+03  0.14853196085E+04  0.12699999809E+01 0.  1.
</event>
<event>
 5   0  0.1054384E-06  0.2951434E+04  0.7818609E-02  0.8257737E-01
        1   -1    0    0  501    0  0.00000000000E+00  0.00000000000E+00  0.18139734206E+04  0.18139734206E+04  0.50400001928E-02 0.  1.
       -1   -1    0    0    0  501  0.00000000000E+00  0.00000000000E+00 -0.12005360791E+04  0.12005360791E+04  0.50400001928E-02 0. -1.
    10030    2    1    2    0    0  0.00000000000E+00  0.00000000000E+00  0.61343734150E+03  0.30145094997E+04  0.29514339145E+04 0.  0.
        2    1    3    3  502    0  0.12275720701E+04 -0.48490174908E+03  0.98088371647E+03  0.16444439056E+04  0.25500000920E-02 0.  1.
       -2    1    3    3    0  502 -0.12275720701E+04  0.48490174908E+03 -0.36744637497E+03  0.13700655940E+04  0.25500000920E-02 0. -1.
</event>
<event>
 5   0  0.2948711E-06  0.3031098E+04  0.7818609E-02  0.8234906E-01
        2   -1    0    0  501    0  0.00000000000E+00  0.00000000000E+00  0.19530623005E+04  0.19530623005E+04  0.25500000920E-02 0. -1.
       -2   -1    0    0    0  501  0.00000000000E+00  0.00000000000E+00 -0.11760446484E+04  0.11760446484E+04  0.25500000920E-02 0.  1.
    10030    2    1    2    0    0  0.00000000000E+00  0.00000000000E+00  0.77701765212E+03  0.31291069489E+04  0.30310977988E+04 0.  0.
        5    1    3    3  502    0  0.50286173577E+03  0.12100908652E+04  0.11744921350E+04  0.17597283008E+04  0.46999998093E+01 0. -1.
       -5    1    3    3    0  502 -0.50286173577E+03 -0.12100908652E+04 -0.39747448288E+03  0.13693786481E+04  0.46999998093E+01 0.  1.
</event>
<event>
 5   0  0.2948711E-06  0.2944114E+04  0.7818609E-02  0.8259872E-01
        2   -1    0    0  501    0  0.00000000000E+00  0.00000000000E+00  0.15712662534E+04  0.15712662534E+04  0.25500000920E-02 0.  1.
       -2   -1    0    0    0  501  0.00000000000E+00  0.00000000000E+00 -0.13791116927E+04  0.13791116927E+04  0.25500000920E-02 0. -1.
    10030    2    1    2    0    0  0.00000000000E+00  0.00000000000E+00  0.19215456074E+03  0.29503779461E+04  0.29441138989E+04 0.  0.
        5    1    3    3  502    0 -0.34285877756E+02 -0.59985299447E+03  0.14427856345E+04  0.15628984655E+04  0.46999998093E+01 0.  1.
       -5    1    3    3    0  502  0.34285877756E+02  0.59985299447E+03 -0.12506310737E+04  0.13874794806E+04  0.46999998093E+01 0. -1.
</event>
<event>
 5   0  0.2985941E-06  0.2987562E+04  0.7818609E-02  0.8247292E-01
       -2   -1    0    0    0  501  0.00000000000E+00  0.00000000000E+00  0.12146066661E+04  0.12146066661E+04  0.25500000920E-02 0. -1.
        2   -1    0    0  501    0  0.00000000000E+00  0.00000000000E+00 -0.18371230440E+04  0.18371230440E+04  0.25500000920E-02 0.  1.
    10030    2    1    2    0    0  0.00000000000E+00  0.00000000000E+00 -0.62251637794E+03  0.30517297101E+04  0.29875621471E+04 0.  0.
        3    1    3    3  502    0  0.99584761345E+03 -0.10515874936E+03  0.82097616167E+03  0.12949025832E+04  0.10100000352E+00 0. -1.
       -3    1    3    3    0  502 -0.99584761345E+03  0.10515874936E+03 -0.14434925396E+04  0.17568271269E+04  0.10100000352E+00 0.  1.
</event>
<event>
 5   0  0.2948711E-06  0.3002084E+04  0.7818609E-02  0.8243136E-01
       -2   -1    0    0    0  501  0.00000000000E+00  0.00000000000E+00  0.12230856603E+04  0.12230856603E+04  0.25500000920E-02 0. -1.
        2   -1    0    0  501    0  0.00000000000E+00  0.00000000000E+00 -0.18421664584E+04  0.18421664584E+04  0.25500000920E-02 0.  1.
    10030    2    1    2    0    0  0.00000000000E+00  0.00000000000E+00 -0.61908079805E+03  0.30652521187E+04  0.30020841955E+04 0.  0.
        5    1    3    3  502    0 -0.52411330493E+02 -0.14339148047E+04  0.14046749197E+03  0.14417391654E+04  0.46999998093E+01 0.  1.
       -5    1    3    3    0  502  0.52411330493E+02  0.14339148047E+04 -0.75954829002E+03  0.16235129533E+04  0.46999998093E+01 0. -1.
</event>
<event>
 5   0  0.2862033E-06  0.2941659E+04  0.7818609E-02  0.8260590E-01
        2   -1    0    0  501    0  0.00000000000E+00  0.00000000000E+00  0.12340680644E+04  0.12340680644E+04  0.25500000920E-02 0.  1.
       -2   -1    0    0    0  501  0.00000000000E+00  0.00000000000E+00 -0.17530145235E+04  0.17530145235E+04  0.25500000920E-02 0. -1.
    10030    2    1    2    0    0  0.00000000000E+00  0.00000000000E+00 -0.51894645907E+03  0.29870825879E+04  0.29416588789E+04 0.  0.
        2    1    3    3  502    0  0.12717575284E+04  0.60933048877E+03 -0.68388452595E+03  0.15672743539E+04  0.25500000920E-02 0.  1.
       -2    1    3    3    0  502 -0.12717575284E+04 -0.60933048877E+03  0.16493806688E+03  0.14198082340E+04  0.25500000920E-02 0. -1.
</event>
<event>
 5   0  0.2948711E-06  0.3007949E+04  0.7818609E-02  0.8241465E-01
        2   -1    0    0  501    0  0.00000000000E+00  0.00000000000E+00  0.21772650481E+04  0.21772650481E+04  0.25500000920E-02 0.  1.
       -2   -1    0    0    0  501  0.00000000000E+00  0.00000000000E+00 -0.10388903057E+04  0.10388903057E+04  0.25500000920E-02 0. -1.
    10030    2    1    2    0    0  0.00000000000E+00  0.00000000000E+00  0.11383747424E+04  0.32161553538E+04  0.30079491694E+04 0.  0.
        5    1    3    3  502    0 -0.13611177126E+04  0.44621314872E+03  0.79011710434E+02  0.14345774786E+04  0.46999998093E+01 0. -1.
       -5    1    3    3    0  502  0.13611177126E+04 -0.44621314872E+03  0.10593630320E+04  0.17815778752E+04  0.46999998093E+01 0.  1.
</event>
<event>
 5   0  0.2862033E-06  0.3006868E+04  0.7818609E-02  0.8241772E-01
       -2   -1    0    0    0  501  0.00000000000E+00  0.00000000000E+00  0.10409943570E+04  0.10409943570E+04  0.25500000920E-02 0.  1.
        2   -1    0    0  501    0  0.00000000000E+00  0.00000000000E+00 -0.21713031623E+04  0.21713031623E+04  0.25500000920E-02 0. -1.
    10030    2    1    2    0    0  0.00000000000E+00  0.00000000000E+00 -0.11303088053E+04  0.32122975193E+04  0.30068683638E+04 0.  0.
        2    1    3    3  502    0 -0.88248863019E+03 -0.79700813006E+03  0.41764550541E+03  0.12603316667E+04  0.25500000920E-02 0.  1.
       -2    1    3    3    0  502  0.88248863019E+03  0.79700813006E+03 -0.15479543107E+04  0.19519658526E+04  0.25500000920E-02 0. -1.
</event>
<event>
 5   0  0.2970915E-06  0.2995024E+04  0.7818609E-02  0.8245153E-01
       -2   -1    0    0    0  501  0.00000000000E+00  0.00000000000E+00  0.10902091565E+04  0.10902091565E+04  0.25500000920E-02 0.  1.
        2   -1    0    0  501    0  0.00000000000E+00  0.00000000000E+00 -0.20569835404E+04  0.20569835404E+04  0.25500000920E-02 0. -1.
    10030    2    1    2    0    0  0.00000000000E+00  0.00000000000E+00 -0.96677438388E+03  0.31471926969E+04  0.29950240670E+04 0.  0.
        4    1    3    3  502    0  0.64748348209E+03 -0.11200623069E+04  0.30909575550E+03  0.13301564682E+04  0.12699999809E+01 0. -1.
       -4    1    3    3    0  502 -0.64748348209E+03  0.11200623069E+04 -0.12758701394E+04  0.18170362287E+04  0.12699999809E+01 0.  1.
</event>
<event>
 5   0  0.3113328E-06  0.3019249E+04  0.7818609E-02  0.8238255E-01
       -2   -1    0    0    0  501  0.00000000000E+00  0.00000000000E+00  0.11972878622E+04  0.11972878622E+04  0.25500000920E-02 0. -1.
        2   -1    0    0  501    0  0.00000000000E+00  0.00000000000E+00 -0.19034406864E+04  0.19034406864E+04  0.25500000920E-02 0.  1.
    10030    2    1    2    0    0  0.00000000000E+00  0.00000000000E+00 -0.70615282427E+03  0.31007285486E+04  0.30192491982E+04 0.  0.
        1    1    3    3  502    0 -0.48931889683E+03  0.14204627485E+04 -0.50477533001E+03  0.15849118387E+04  0.50400001928E-02 0.  1.
       -1    1    3    3    0  502  0.48931889683E+03 -0.14204627485E+04 -0.20137749426E+03  0.15158167099E+04  0.50400001928E-02 0. -1.
</event>
<event>
 5   0  0.1091075E-06  0.3015004E+04  0.7818609E-02  0.8239459E-01
        1   -1    0    0  501    0  0.00000000000E+00  0.00000000000E+00  0.17078220771E+04  0.17078220772E+04  0.50400001928E-02 0. -1.
       -1   -1    0    0    0  501  0.00000000000E+00  0.00000000000E+00 -0.13306790122E+04  0.13306790122E+04  0.50400001928E-02 0.  1.
    10030    2    1    2    0    0  0.00000000000E+00  0.00000000000E+00  0.37714306493E+03  0.30385010894E+04  0.30150044741E+04 0.  0.
        1    1    3    3  502    0  0.93339715809E+03  0.98241396547E+03  0.85416959022E+03  0.16018655197E+04  0.50400001928E-02 0. -1.
       -1    1    3    3    0  502 -0.93339715809E+03 -0.98241396547E+03 -0.47702652529E+03  0.14366355697E+04  0.50400001928E-02 0.  1.
</event>
<event>
 5   0  0.1113245E-06  0.3027758E+04  0.7818609E-02  0.8235848E-01
        1   -1    0    0  501    0  0.00000000000E+00  0.00000000000E+00  0.23579817551E+04  0.23579817551E+04  0.50400001928E-02 0. -1.
       -1   -1    0    0    0  501  0.00000000000E+00  0.00000000000E+00 -0.97194570038E+03  0.97194570040E+03  0.50400001928E-02 0.  1.
    10030    2    1    2    0    0  0.00000000000E+00  0.00000000000E+00  0.13860360547E+04  0.33299274555E+04  0.30277583976E+04 0.  0.
        5    1    3    3  502    0  0.13142623158E+04  0.70056518745E+03  0.99165183813E+03  0.17892659038E+04  0.46999998093E+01 0. -1.
       -5    1    3    3    0  502 -0.13142623158E+04 -0.70056518745E+03  0.39438421660E+03  0.15406615517E+04  0.46999998093E+01 0.  1.
</event>
<event>
 5   0  0.1054384E-06  0.3049038E+04  0.7818609E-02  0.8229865E-01
       -1   -1    0    0    0  501  0.00000000000E+00  0.00000000000E+00  0.14395924574E+04  0.14395924574E+04  0.50400001928E-02 0. -1.
        1   -1    0    0  501    0  0.00000000000E+00  0.00000000000E+00 -0.16144555631E+04  0.16144555631E+04  0.50400001928E-02 0.  1.
    10030    2    1    2    0    0  0.00000000000E+00  0.00000000000E+00 -0.17486310571E+03  0.30540480205E+04  0.30490379148E+04 0.  0.
        2    1    3    3  502    0  0.67416973896E+03  0.35015798398E+03  0.12364977181E+04  0.14512208852E+04  0.25500000920E-02 0. -1.
       -2    1    3    3    0  502 -0.67416973896E+03 -0.35015798398E+03 -0.14113608238E+04  0.16028271353E+04  0.25500000920E-02 0.  1.
</event>
<event>
 5   0  0.1113245E-06  0.3048337E+04  0.7818609E-02  0.8230061E-01
       -1   -1    0    0    0  501  0.00000000000E+00  0.00000000000E+00  0.19015421420E+04  0.19015421420E+04  0.50400001928E-02 0. -1.
        1   -1    0    0  501    0  0.00000000000E+00  0.00000000000E+00 -0.12216867755E+04  0.12216867755E+04  0.50400001928E-02 0.  1.
    10030    2    1    2    0    0  0.00000000000E+00  0.00000000000E+00  0.67985536646E+03  0.31232289175E+04  0.30483365221E+04 0.  0.
        5    1    3    3  502    0  0.14157704052E+03 -0.56142007387E+03 -0.11046155833E+04  0.12471704914E+04  0.46999998093E+01 0.  1.
       -5    1    3    3    0  502 -0.14157704052E+03  0.56142007387E+03  0.17844709497E+04  0.18760584261E+04  0.46999998093E+01 0. -1.
</event>
<event>
 5   0  0.3113328E-06  0.3012203E+04  0.7818609E-02  0.8240255E-01
        2   -1    0    0  501    0  0.00000000000E+00  0.00000000000E+00  0.82588255955E+03  0.82588255955E+03  0.25500000920E-02 0. -1.
       -2   -1    0    0    0  501  0.00000000000E+00  0.00000000000E+00 -0.27465662183E+04  0.27465662183E+04  0.25500000920E-02 0.  1.
    10030    2    1    2    0    0  0.00000000000E+00  0.00000000000E+00 -0.19206836587E+04  0.35724487778E+04  0.30122026083E+04 0.  0.
        1    1    3    3  502    0 -0.88807939366E+03  0.41166805487E+03 -0.23178680650E+04  0.25160818674E+04  0.50400001928E-02 0.  1.
       -1    1    3    3    0  502  0.88807939366E+03 -0.41166805487E+03  0.39718440625E+03  0.10563669104E+04  0.50400001928E-02 0. -1.
</event>
<event>
 5   0  0.2970915E-06  0.3083334E+04  0.7818609E-02  0.8220327E-01
        2   -1    0    0  501    0  0.00000000000E+00  0.00000000000E+00  0.23431263890E+04  0.23431263890E+04  0.25500000920E-02 0. -1.
       -2   -1    0    0    0  501  0.00000000000E+00  0.00000000000E+00 -0.10143444349E+04  0.10143444349E+04  0.25500000920E-02 0.  1.
    10030    2    1    2    0    0  0.00000000000E+00  0.00000000000E+00  0.13287819541E+04  0.33574708240E+04  0.30833340481E+04 0.  0.
        4    1    3    3  502    0 -0.13983313634E+04 -0.27610235016E+02 -0.41842553391E+02  0.13992302666E+04  0.12699999809E+01 0.  1.
       -4    1    3    3    0  502  0.13983313634E+04  0.27610235016E+02  0.13706245075E+04  0.19582405573E+04  0.12699999809E+01 0. -1.
</event>
<event>
 5   0  0.1097402E-06  0.3032864E+04  0.7818609E-02  0.8234408E-01
        1   -1    0    0  501    0  0.00000000000E+00  0.00000000000E+00  0.16606981660E+04  0.16606981661E+04  0.50400001928E-02 0.  1.
       -1   -1    0    0    0  501  0.00000000000E+00  0.00000000000E+00 -0.13846986816E+04  0.13846986816E+04  0.50400001928E-02 0. -1.
    10030    2    1    2    0    0  0.00000000000E+00  0.00000000000E+00  0.27599948441E+03  0.30453968477E+04  0.30328643630E+04 0.  0.
        4    1    3    3  502    0  0.68001880632E+03 -0.14543699582E+03  0.14911540592E+04  0.16453326527E+04  0.12699999809E+01 0.  1.
       -4    1    3    3    0  502 -0.68001880632E+03  0.14543699582E+03 -0.12151545748E+04  0.14000641950E+04  0.12699999809E+01 0. -1.
</event>
<event>
 5   0  0.1054384E-06  0.2887606E+04  0.7818609E-02  0.8276575E-01
        1   -1    0    0  501    0  0.00000000000E+00  0.00000000000E+00  0.36224826396E+04  0.36224826396E+04  0.50400001928E-02 0. -1.
       -1   -1    0    0    0  501  0.00000000000E+00  0.00000000000E+00 -0.57545276292E+03  0.57545276294E+03  0.50400001928E-02 0.  1.
    10030    2    1    2    0    0  0.00000000000E+00  0.00000000000E+00  0.30470298767E+04  0.41979354025E+04  0.28876063746E+04 0.  0.
        2    1    3    3  502    0  0.31143577469E+03  0.10639071511E+04  0.17873047576E+03  0.11228692047E+04  0.25500000920E-02 0.  1.
       -2    1    3    3    0  502 -0.31143577469E+03 -0.10639071511E+04  0.28682994009E+04  0.30750661979E+04  0.25500000920E-02 0. -1.
</event>
<event>
 5   0  0.1054384E-06  0.2993408E+04  0.7818609E-02  0.8245616E-01
       -1   -1    0    0    0  501  0.00000000000E+00  0.00000000000E+00  0.11605176597E+04  0.11605176597E+04  0.50400001928E-02 0. -1.
        1   -1    0    0  501    0  0.00000000000E+00  0.00000000000E+00 -0.19302791650E+04  0.19302791650E+04  0.50400001928E-02 0.  1.
    10030    2    1    2    0    0  0.00000000000E+00  0.00000000000E+00 -0.76976150532E+03  0.30907968247E+04  0.29934081307E+04 0.  0.
        2    1    3    3  502    0 -0.21147509803E+03  0.26421294665E+03  0.11204937811E+04  0.11704855880E+04  0.25500000920E-02 0. -1.
       -2    1    3    3    0  502  0.21147509803E+03 -0.26421294665E+03 -0.18902552864E+04  0.19203112367E+04  0.25500000920E-02 0.  1.
</event>
<event>
 5   0  0.2862033E-06  0.2990038E+04  0.7818609E-02  0.8246581E-01
       -2   -1    0    0    0  501  0.00000000000E+00  0.00000000000E+00  0.86209571323E+03  0.86209571323E+03  0.25500000920E-02 0.  1.
        2   -1    0    0  501    0  0.00000000000E+00  0.00000000000E+00 -0.25926145938E+04  0.25926145938E+04  0.25500000920E-02 0. -1.
    10030    2    1    2    0    0  0.00000000000E+00  0.00000000000E+00 -0.17305188806E+04  0.34547103070E+04  0.29900380783E+04 0.  0.
        2    1    3    3  502    0 -0.96426345037E+03 -0.27720365330E+03 -0.21458526505E+04  0.23688244900E+04  0.25500000920E-02 0. -1.
       -2    1    3    3    0  502  0.96426345037E+03  0.27720365330E+03  0.41533376989E+03  0.10858858170E+04  0.25500000920E-02 0.  1.
</event>
<event>
 5   0  0.1091075E-06  0.2973434E+04  0.7818609E-02  0.8251358E-01
       -1   -1    0    0    0  501  0.00000000000E+00  0.00000000000E+00  0.11385974494E+04  0.11385974495E+04  0.50400001928E-02 0.  1.
        1   -1    0    0  501    0  0.00000000000E+00  0.00000000000E+00 -0.19412723689E+04  0.19412723689E+04  0.50400001928E-02 0. -1.
    10030    2    1    2    0    0  0.00000000000E+00  0.00000000000E+00 -0.80267491949E+03  0.30798698184E+04  0.29734342219E+04 0.  0.
        1    1    3    3  502    0  0.35262287366E+03 -0.84518287234E+03  0.81176030708E+03  0.12237776656E+04  0.50400001928E-02 0.  1.
       -1    1    3    3    0  502 -0.35262287366E+03  0.84518287234E+03 -0.16144352266E+04  0.18560921528E+04  0.50400001928E-02 0. -1.
</event>
<event>
 5   0  0.1097402E-06  0.3015549E+04  0.7818609E-02  0.8239305E-01
        1   -1    0    0  501    0  0.00000000000E+00  0.00000000000E+00  0.20427448475E+04  0.20427448475E+04  0.50400001928E-02 0.  1.
       -1   -1    0    0    0  501  0.00000000000E+00  0.00000000000E+00 -0.11129064444E+04  0.11129064444E+04  0.50400001928E-02 0. -1.
    10030    2    1    2    0    0  0.00000000000E+00  0.00000000000E+00  0.92983840317E+03  0.31556512919E+04  0.30155489749E+04 0.  0.
        4    1    3    3  502    0  0.54775287739E+03  0.13350053153E+04  0.92239086306E+03  0.17126234040E+04  0.12699999809E+01 0. -1.
       -4    1    3    3    0  502 -0.54775287739E+03 -0.13350053153E+04  0.74475401104E+01  0.14430278880E+04  0.12699999809E+01 0.  1.
</event>
<event>
 5   0  0.1091076E-06  0.2968995E+04  0.7818609E-02  0.8252640E-01
       -1   -1    0    0    0  501  0.00000000000E+00  0.00000000000E+00  0.15397207630E+04  0.15397207630E+04  0.50400001928E-02 0. -1.
        1   -1    0    0  501    0  0.00000000000E+00  0.00000000000E+00 -0.14312547980E+04  0.14312547980E+04  0.50400001928E-02 0.  1.
    10030    2    1    2    0    0  0.00000000000E+00  0.00000000000E+00  0.10846596498E+03  0.29709755609E+04  0.29689949340E+04 0.  0.
        3    1    3    3  502    0 -0.12842456692E+04 -0.20560999363E+03 -0.66190518857E+03  0.14593426251E+04  0.10100000352E+00 0.  1.
       -3    1    3    3    0  502  0.12842456692E+04  0.20560999363E+03  0.77037115355E+03  0.15116329359E+04  0.10100000352E+00 0. -1.
</event>
<event>
 5   0  0.1097402E-06  0.2963434E+04  0.7818609E-02  0.8254250E-01
        1   -1    0    0  501    0  0.00000000000E+00  0.00000000000E+00  0.85789442618E+03  0.85789442619E+03  0.50400001928E-02 0.  1.
       -1   -1    0    0    0  501  0.00000000000E+00  0.00000000000E+00 -0.25591554151E+04  0.25591554151E+04  0.50400001928E-02 0. -1.
    10030    2    1    2    0    0  0.00000000000E+00  0.00000000000E+00 -0.17012609889E+04  0.34170498413E+04  0.29634339313E+04 0.  0.
        4    1    3    3  502    0  0.37485955743E+03 -0.63011773407E+03 -0.23353255460E+04  0.24477162960E+04  0.12699999809E+01 0. -1.
       -4    1    3    3    0  502 -0.37485955743E+03  0.63011773407E+03  0.63406455713E+03  0.96933354533E+03  0.12699999809E+01 0.  1.
</event>
<event>
 5   0  0.2970915E-06  0.2994531E+04  0.7818609E-02  0.8245294E-01
        2   -1    0    0  501    0  0.00000000000E+00  0.00000000000E+00  0.17276753817E+04  0.17276753817E+04  0.25500000920E-02 0.  1.
       -2   -1    0    0    0  501  0.00000000000E+00  0.00000000000E+00 -0.12975838109E+04  0.12975838109E+04  0.25500000920E-02 0. -1.
    10030    2    1    2    0    0  0.00000000000E+00  0.00000000000E+00  0.43009157078E+03  0.30252591926E+04  0.29945307517E+04 0.  0.
        4    1    3    3  502    0  0.10487178425E+04  0.10036594888E+04  0.58577254904E+03  0.15653346526E+04  0.12699999809E+01 0. -1.
       -4    1    3    3    0  502 -0.10487178425E+04 -0.10036594888E+04 -0.15568097826E+03  0.14599245400E+04  0.12699999809E+01 0.  1.
</event>
<event>
 5   0  0.2862033E-06  0.2942345E+04  0.7818609E-02  0.8260389E-01
        2   -1    0    0  501    0  0.00000000000E+00  0.00000000000E+00  0.14098367345E+04  0.14098367345E+04  0.25500000920E-02 0. -1.
       -2   -1    0    0    0  501  0.00000000000E+00  0.00000000000E+00 -0.15351768794E+04  0.15351768794E+04  0.25500000920E-02 0.  1.
    10030    2    1    2    0    0  0.00000000000E+00  0.00000000000E+00 -0.12534014490E+03  0.29450136138E+04  0.29423451589E+04 0.  0.
        2    1    3    3  502    0  0.76046555379E+03  0.12423794263E+04  0.14375532763E+03  0.14637213163E+04  0.25500000920E-02 0.  1.
       -2    1    3    3    0  502 -0.76046555379E+03 -0.12423794263E+04 -0.26909547254E+03  0.14812922976E+04  0.25500000920E-02 0. -1.
</event>
<event>
 5   0  0.2948711E-06  0.3082098E+04  0.7818609E-02  0.8220668E-01
       -2   -1    0    0    0  501  0.00000000000E+00  0.00000000000E+00  0.10628663268E+04  0.10628663268E+04  0.25500000920E-02 0.  1.
        2   -1    0    0  501    0  0.00000000000E+00  0.00000000000E+00 -0.22343657815E+04  0.22343657815E+04  0.25500000920E-02 0. -1.
    10030    2    1    2    0    0  0.00000000000E+00  0.00000000000E+00 -0.11714994547E+04  0.32972321084E+04  0.30820980848E+04 0.  0.
        5    1    3    3  502    0 -0.12321403242E+03  0.54887115068E+03 -0.21205952173E+04  0.21939433455E+04  0.46999998093E+01 0. -1.
       -5    1    3    3    0  502  0.12321403242E+03 -0.54887115068E+03  0.94909576255E+03  0.11032887629E+04  0.46999998093E+01 0.  1.
</event>
<event>
 5   0  0.2985941E-06  0.2969752E+04  0.7818609E-02  0.8252422E-01
        2   -1    0    0  501    0  0.00000000000E+00  0.00000000000E+00  0.11083825042E+04  0.11083825042E+04  0.25500000920E-02 0. -1.
       -2   -1    0    0    0  501  0.00000000000E+00  0.00000000000E+00 -0.19892559937E+04  0.19892559937E+04  0.25500000920E-02 0.  1.
    10030    2    1    2    0    0  0.00000000000E+00  0.00000000000E+00 -0.88087348945E+03  0.30976384979E+04  0.29697518683E+04 0.  0.
        3    1    3    3  502    0 -0.43846205668E+03  0.93449829663E+03  0.67291789299E+03  0.12322152987E+04  0.10100000352E+00 0. -1.
       -3    1    3    3    0  502  0.43846205668E+03 -0.93449829663E+03 -0.15537913824E+04  0.18654231991E+04  0.10100000352E+00 0.  1.
</event>
<event>
 5   0  0.3113328E-06  0.3001643E+04  0.7818609E-02  0.8243262E-01
       -2   -1    0    0    0  501  0.00000000000E+00  0.00000000000E+00  0.14601416792E+04  0.14601416792E+04  0.25500000920E-02 0. -1.
        2   -1    0    0  501    0  0.00000000000E+00  0.00000000000E+00 -0.15426344631E+04  0.15426344631E+04  0.25500000920E-02 0.  1.
    10030    2    1    2    0    0  0.00000000000E+00  0.00000000000E+00 -0.82492783936E+02  0.30027761422E+04  0.30016428004E+04 0.  0.
        1    1    3    3  502    0  0.58140016800E+03 -0.12408700801E+04  0.57109596036E+03  0.14845656964E+04  0.50400001928E-02 0. -1.
       -1    1    3    3    0  502 -0.58140016800E+03  0.12408700801E+04 -0.65358874430E+03  0.15182104458E+04  0.50400001928E-02 0.  1.
</event>
<event>
 5   0  0.1091076E-06  0.2971198E+04  0.7818609E-02  0.8252004E-01
        1   -1    0    0  501    0  0.00000000000E+00  0.00000000000E+00  0.22455728409E+04  0.22455728409E+04  0.50400001928E-02 0. -1.
       -1   -1    0    0    0  501  0.00000000000E+00  0.00000000000E+00 -0.98282440886E+03  0.98282440887E+03  0.50400001928E-02 0.  1.
    10030    2    1    2    0    0  0.00000000000E+00  0.00000000000E+00  0.12627484320E+04  0.32283972498E+04  0.29711976036E+04 0.  0.
        3    1    3    3  502    0 -0.12788972492E+04 -0.61160571866E+03  0.11140877422E+04  0.18030061666E+04  0.10100000352E+00 0. -1.
       -3    1    3    3    0  502  0.12788972492E+04  0.61160571866E+03  0.14866068980E+03  0.14253910832E+04  0.10100000352E+00 0.  1.
</event>
<event>
 5   0  0.1091076E-06  0.2979828E+04  0.7818609E-02  0.8249515E-01
        1   -1    0    0  501    0  0.00000000000E+00  0.00000000000E+00  0.12820661767E+04  0.12820661767E+04  0.50400001928E-02 0.  1.
       -1   -1    0    0    0  501  0.00000000000E+00  0.00000000000E+00 -0.17314584305E+04  0.17314584305E+04  0.50400001928E-02 0. -1.
    10030    2    1    2    0    0  0.00000000000E+00  0.00000000000E+00 -0.44939225375E+03  0.30135246072E+04  0.29798283777E+04 0.  0.
        3    1    3    3  502    0  0.12096029258E+04 -0.81561969001E+03  0.81163245442E+02  0.14611509845E+04  0.10100000352E+00 0. -1.
       -3    1    3    3    0  502 -0.12096029258E+04  0.81561969001E+03 -0.53055549919E+03  0.15523736228E+04  0.10100000352E+00 0.  1.
</event>
<event>
 5   0  0.2948711E-06  0.3006944E+04  0.7818609E-02  0.8241751E-01
       -2   -1    0    0    0  501  0.00000000000E+00  0.00000000000E+00  0.12682153008E+04  0.12682153008E+04  0.25500000920E-02 0. -1.
        2   -1    0    0  501    0  0.00000000000E+00  0.00000000000E+00 -0.17823691073E+04  0.17823691073E+04  0.25500000920E-02 0.  1.
    10030    2    1    2    0    0  0.00000000000E+00  0.00000000000E+00 -0.51415380649E+03  0.30505844080E+04  0.30069438129E+04 0.  0.
        5    1    3    3  502    0 -0.41130299738E+03  0.11692978515E+04 -0.11202948012E+04  0.16707813001E+04  0.46999998093E+01 0.  1.
       -5    1    3    3    0  502  0.41130299738E+03 -0.11692978515E+04  0.60614099472E+03  0.13798031079E+04  0.46999998093E+01 0. -1.
</event>
<event>
 5   0  0.1097402E-06  0.3067947E+04  0.7818609E-02  0.8224590E-01
        1   -1    0    0  501    0  0.00000000000E+00  0.00000000000E+00  0.21842218894E+04  0.21842218895E+04  0.50400001928E-02 0. -1.
       -1   -1    0    0    0  501  0.00000000000E+00  0.00000000000E+00 -0.10773056523E+04  0.10773056523E+04  0.50400001928E-02 0.  1.
    10030    2    1    2    0    0  0.00000000000E+00  0.00000000000E+00  0.11069162372E+04  0.32615275418E+04  0.30679469274E+04 0.  0.
        4    1    3    3  502    0 -0.19062785327E+03  0.13017762402E+04  0.13919670875E+04  0.19153418346E+04  0.12699999809E+01 0. -1.
       -4    1    3    3    0  502  0.19062785327E+03 -0.13017762402E+04 -0.28505085033E+03  0.13461857071E+04  0.12699999809E+01 0.  1.
</event>
<event>
 5   0  0.3113328E-06  0.3016132E+04  0.7818609E-02  0.8239139E-01
       -2   -1    0    0    0  501  0.00000000000E+00  0.00000000000E+00  0.96644980790E+03  0.96644980790E+03  0.25500000920E-02 0.  1.
        2   -1    0    0  501    0  0.00000000000E+00  0.00000000000E+00 -0.23532131556E+04  0.23532131556E+04  0.25500000920E-02 0. -1.
    10030    2    1    2    0    0  0.00000000000E+00  0.00000000000E+00 -0.13867633477E+04  0.33196629635E+04  0.30161315635E+04 0.  0.
        1    1    3    3  502    0 -0.48193829527E+03  0.57627662143E+03  0.74584588431E+03  0.10586053788E+04  0.50400001928E-02 0.  1.
       -1    1    3    3    0  502  0.48193829527E+03 -0.57627662143E+03 -0.21326092320E+04  0.22610575847E+04  0.50400001928E-02 0. -1.
</event>
<event>
 5   0  0.2985941E-06  0.3011953E+04  0.7818609E-02  0.8240326E-01
        2   -1    0    0  501    0  0.00000000000E+00  0.00000000000E+00  0.20082261193E+04  0.20082261193E+04  0.25500000920E-02 0. -1.
       -2   -1    0    0    0  501  0.00000000000E+00  0.00000000000E+00 -0.11293375677E+04  0.11293375677E+04  0.25500000920E-02 0.  1.
    10030    2    1    2    0    0  0.00000000000E+00  0.00000000000E+00  0.87888855158E+03  0.31375636869E+04  0.30119529883E+04 0.  0.
        3    1    3    3  502    0 -0.54870870759E+02  0.62168552072E+02 -0.11269577380E+04  0.11300042012E+04  0.10100000352E+00 0.  1.
       -3    1    3    3    0  502  0.54870870759E+02 -0.62168552072E+02  0.20058462896E+04  0.20075594858E+04  0.10100000352E+00 0. -1.
</event>
<event>
 5   0  0.1091076E-06  0.2992155E+04  0.7818609E-02  0.8245974E-01
       -1   -1    0    0    0  501  0.00000000000E+00  0.00000000000E+00  0.14884300297E+04  0.14884300297E+04  0.50400001928E-02 0. -1.
        1   -1    0    0  501    0  0.00000000000E+00  0.00000000000E+00 -0.15037646702E+04  0.15037646702E+04  0.50400001928E-02 0.  1.
    10030    2    1    2    0    0  0.00000000000E+00  0.00000000000E+00 -0.15334640524E+02  0.29921946999E+04  0.29921554056E+04 0.  0.
        3    1    3    3  502    0 -0.59522575030E+03 -0.74002980076E+03 -0.11636715508E+04  0.15020217336E+04  0.10100000352E+00 0.  1.
       -3    1    3    3    0  502  0.59522575030E+03  0.74002980076E+03  0.11483369103E+04  0.14901729663E+04  0.10100000352E+00 0. -1.
</event>
<event>
 5   0  0.2985941E-06  0.2996198E+04  0.7818609E-02  0.8244817E-01
       -2   -1    0    0    0  501  0.00000000000E+00  0.00000000000E+00  0.18560287055E+04  0.18560287055E+04  0.25500000920E-02 0. -1.
        2   -1    0    0  501    0  0.00000000000E+00  0.00000000000E+00 -0.12091951447E+04  0.12091951447E+04  0.25500000920E-02 0.  1.
    10030    2    1    2    0    0  0.00000000000E+00  0.00000000000E+00  0.64683356082E+03  0.30652238502E+04  0.29961981905E+04 0.  0.
        3    1    3    3  502    0 -0.74478078222E+03 -0.73819864280E+03  0.14179549367E+04  0.17635849462E+04  0.10100000352E+00 0. -1.
       -3    1    3    3    0  502  0.74478078222E+03  0.73819864280E+03 -0.77112137592E+03  0.13016389040E+04  0.10100000352E+00 0.  1.
</event>
<event>
 5   0  0.3113328E-06  0.3008971E+04  0.7818609E-02  0.8241174E-01
       -2   -1    0    0    0  501  0.00000000000E+00  0.00000000000E+00  0.13069528217E+04  0.13069528217E+04  0.25500000920E-02 0.  1.
        2   -1    0    0  501    0  0.00000000000E+00  0.00000000000E+00 -0.17318731251E+04  0.17318731251E+04  0.25500000920E-02 0. -1.
    10030    2    1    2    0    0  0.00000000000E+00  0.00000000000E+00 -0.42492030346E+03  0.30388259468E+04  0.30089708990E+04 0.  0.
        1    1    3    3  502    0 -0.19838382589E+03  0.12158431089E+04 -0.10846527165E+04  0.16413720246E+04  0.50400001928E-02 0. -1.
       -1    1    3    3    0  502  0.19838382589E+03 -0.12158431089E+04  0.65973241304E+03  0.13974539222E+04  0.50400001928E-02 0.  1.
</event>
<event>
 5   0  0.1054384E-06  0.3034124E+04  0.7818609E-02  0.8234053E-01
        1   -1    0    0  501    0  0.00000000000E+00  0.00000000000E+00  0.15589512983E+04  0.15589512983E+04  0.50400001928E-02 0. -1.
       -1   -1    0    0    0  501  0.00000000000E+00  0.00000000000E+00 -0.14762978327E+04  0.14762978327E+04  0.50400001928E-02 0.  1.
    10030    2    1    2    0    0  0.00000000000E+00  0.00000000000E+00  0.82653465565E+02  0.30352491310E+04  0.30341235459E+04 0.  0.
        2    1    3    3  502    0 -0.52462860292E+03 -0.55083431591E+03  0.13543771108E+04  0.15533804984E+04  0.25500000920E-02 0. -1.
       -2    1    3    3    0  502  0.52462860292E+03  0.55083431591E+03 -0.12717236452E+04  0.14818686326E+04  0.25500000920E-02 0.  1.
</event>
<event>
 5   0  0.2970915E-06  0.2995762E+04  0.7818609E-02  0.8244942E-01
       -2   -1    0    0    0  501  0.00000000000E+00  0.00000000000E+00  0.14682425799E+04  0.14682425799E+04  0.25500000920E-02 0. -1.
        2   -1    0    0  501    0  0.00000000000E+00  0.00000000000E+00 -0.15281177306E+04  0.15281177306E+04  0.25500000920E-02 0.  1.
    10030    2    1    2    0    0  0.00000000000E+00  0.00000000000E+00 -0.59875150747E+02  0.29963603105E+04  0.29957620193E+04 0.  0.
        4    1    3    3  502    0  0.37268373464E+03 -0.10148101003E+04 -0.10669248417E+04  0.15189018851E+04  0.12699999809E+01 0.  1.
       -4    1    3    3    0  502 -0.37268373464E+03  0.10148101003E+04  0.10070496909E+04  0.14774584254E+04  0.12699999809E+01 0. -1.
</event>
<event>
 5   0  0.2862033E-06  0.2979824E+04  0.7818609E-02  0.8249516E-01
       -2   -1    0    0    0  501  0.00000000000E+00  0.00000000000E+00  0.14472270765E+04  0.14472270765E+04  0.25500000920E-02 0.  1.
        2   -1    0    0  501    0  0.00000000000E+00  0.00000000000E+00 -0.15338563903E+04  0.15338563903E+04  0.25500000920E-02 0. -1.
    10030    2    1    2    0    0  0.00000000000E+00  0.00000000000E+00 -0.86629313826E+02  0.29810834669E+04  0.29798244912E+04 0.  0.
        2    1    3    3  502    0  0.61659330448E+03  0.53527831169E+03 -0.12900868879E+04  0.15267725281E+04  0.25500000920E-02 0. -1.
       -2    1    3    3    0  502 -0.61659330448E+03 -0.53527831169E+03  0.12034575741E+04  0.14543109388E+04  0.25500000920E-02 0.  1.
</event>
<event>
 5   0  0.1091076E-06  0.2971803E+04  0.7818609E-02  0.8251829E-01
       -1   -1    0    0    0  501  0.00000000000E+00  0.00000000000E+00  0.12614358209E+04  0.12614358209E+04  0.50400001928E-02 0.  1.
        1   -1    0    0  501    0  0.00000000000E+00  0.00000000000E+00 -0.17503093581E+04  0.17503093581E+04  0.50400001928E-02 0. -1.
    10030    2    1    2    0    0  0.00000000000E+00  0.00000000000E+00 -0.48887353719E+03  0.30117451789E+04  0.29718027673E+04 0.  0.
        3    1    3    3  502    0  0.66489228312E+03  0.10149341130E+04  0.62483874639E+03  0.13647697502E+04  0.10100000352E+00 0.  1.
       -3    1    3    3    0  502 -0.66489228312E+03 -0.10149341130E+04 -0.11137122836E+04  0.16469754287E+04  0.10100000352E+00 0. -1.
</event>
<event>
 5   0  0.1097402E-06  0.3066027E+04  0.7818609E-02  0.8225124E-01
       -1   -1    0    0    0  501  0.00000000000E+00  0.00000000000E+00  0.11137264694E+04  0.11137264694E+04  0.50400001928E-02 0.  1.
        1   -1    0    0  501    0  0.00000000000E+00  0.00000000000E+00 -0.21101500654E+04  0.21101500654E+04  0.50400001928E-02 0. -1.
    10030    2    1    2    0    0  0.00000000000E+00  0.00000000000E+00 -0.99642359595E+03  0.32238765348E+04  0.30660267333E+04 0.  0.
        4    1    3    3  502    0 -0.91478264918E+03  0.20731093348E+03 -0.17732079572E+04  0.20060092698E+04  0.12699999809E+01 0. -1.
       -4    1    3    3    0  502  0.91478264918E+03 -0.20731093348E+03  0.77678436122E+03  0.12178672650E+04  0.12699999809E+01 0.  1.
</event>
<event>
 5   0  0.1113245E-06  0.3069929E+04  0.7818609E-02  0.8224039E-01
       -1   -1    0    0    0  501  0.00000000000E+00  0.00000000000E+00  0.14028219378E+04  0.14028219378E+04  0.50400001928E-02 0.  1.
        1   -1    0    0  501    0  0.00000000000E+00  0.00000000000E+00 -0.16795547374E+04  0.16795547374E+04  0.50400001928E-02 0. -1.
    10030    2    1    2    0    0  0.00000000000E+00  0.00000000000E+00 -0.27673279960E+03  0.30823766752E+04  0.30699291402E+04 0.  0.
        5    1    3    3  502    0  0.50624982084E+02  0.62314743575E+03 -0.15459130034E+04  0.16675565117E+04  0.46999998093E+01 0. -1.
       -5    1    3    3    0  502 -0.50624982084E+02 -0.62314743575E+03  0.12691802038E+04  0.14148201636E+04  0.46999998093E+01 0.  1.
</event>
<event>
 5   0  0.1097402E-06  0.3038454E+04  0.7818609E-02  0.8232835E-01
       -1   -1    0    0    0  501  0.00000000000E+00  0.00000000000E+00  0.13444707176E+04  0.13444707176E+04  0.50400001928E-02 0.  1.
        1   -1    0    0  501    0  0.00000000000E+00  0.00000000000E+00 -0.17166979690E+04  0.17166979690E+04  0.50400001928E-02 0. -1.
    10030    2    1    2    0    0  0.00000000000E+00  0.00000000000E+00 -0.37222725142E+03  0.30611686866E+04  0.30384536529E+04 0.  0.
        4    1    3    3  502    0 -0.90290215570E+03 -0.11998247698E+04  0.46342202159E+02  0.15023185393E+04  0.12699999809E+01 0.  1.
       -4    1    3    3    0  502  0.90290215570E+03  0.11998247698E+04 -0.41856945358E+03  0.15588501472E+04  0.12699999809E+01 0. -1.
</event>
<event>
 5   0  0.1091075E-06  0.3038167E+04  0.7818609E-02  0.8232915E-01
       -1   -1    0    0    0  501  0.00000000000E+00  0.00000000000E+00  0.10052555109E+04  0.10052555109E+04  0.50400001928E-02 0. -1.
        1   -1    0    0  501    0  0.00000000000E+00  0.00000000000E+00 -0.22955507490E+04  0.22955507490E+04  0.50400001928E-02 0.  1.
    10030    2    1    2    0    0  0.00000000000E+00  0.00000000000E+00 -0.12902952381E+04  0.33008062599E+04  0.30381672376E+04 0.  0.
        1    1    3    3  502    0  0.12745561922E+04 -0.75495663737E+03 -0.27967173775E+03  0.15075374928E+04  0.50400001928E-02 0. -1.
       -1    1    3    3    0  502 -0.12745561922E+04  0.75495663737E+03 -0.10106235003E+04  0.17932687670E+04  0.50400001928E-02 0.  1.
</event>
<event>
 5   0  0.2948711E-06  0.2993432E+04  0.7818609E-02  0.8245609E-01
        2   -1    0    0  501    0  0.00000000000E+00  0.00000000000E+00  0.22202764720E+04  0.22202764720E+04  0.25500000920E-02 0. -1.
       -2   -1    0    0    0  501  0.00000000000E+00  0.00000000000E+00 -0.10089549259E+04  0.10089549259E+04  0.25500000920E-02 0.  1.
    10030    2    1    2    0    0  0.00000000000E+00  0.00000000000E+00  0.12113215461E+04  0.32292313979E+04  0.29934320659E+04 0.  0.
        5    1    3    3  502    0 -0.10119154994E+04  0.87714345143E+03 -0.11541045675E+03  0.13441336525E+04  0.46999998093E+01 0. -1.
       -5    1    3    3    0  502  0.10119154994E+04 -0.87714345143E+03  0.13267320029E+04  0.18850977454E+04  0.46999998093E+01 0.  1.
</event>
<event>
 5   0  0.1097402E-06  0.2966311E+04  0.7818609E-02  0.8253417E-01
       -1   -1    0    0    0  501  0.00000000000E+00  0.00000000000E+00  0.21941762145E+04  0.21941762145E+04  0.50400001928E-02 0.  1.
        1   -1    0    0  501    0  0.00000000000E+00  0.00000000000E+00 -0.10025402731E+04  0.10025402731E+04  0.50400001928E-02 0. -1.
    10030    2    1    2    0    0  0.00000000000E+00  0.00000000000E+00  0.11916359414E+04  0.31967164875E+04  0.29663108544E+04 0.  0.
        4    1    3    3  502    0  0.12522308702E+04  0.79216756614E+03  0.66513179904E+03  0.16241962714E+04  0.12699999809E+01 0.  1.
       -4    1    3    3    0  502 -0.12522308702E+04 -0.79216756614E+03  0.52650414237E+03  0.15725202161E+04  0.12699999809E+01 0. -1.
</event>
<event>
 5   0  0.9749500E-07  0.2958699E+04  0.7818609E-02  0.8255624E-01
        4   -1    0    0  501    0  0.00000000000E+00  0.00000000000E+00  0.26138152560E+04  0.26138155645E+04  0.12699999809E+01 0. -1.
       -4   -1    0    0    0  501  0.00000000000E+00  0.00000000000E+00 -0.83727149208E+03  0.83727245527E+03  0.12699999809E+01 0.  1.
    10030    2    1    2    0    0  0.00000000000E+00  0.00000000000E+00  0.17765437639E+04  0.34510880198E+04  0.29586991694E+04 0.  0.
        3    1    3    3  502    0 -0.40629783157E+03  0.26790821426E+03  0.25177672425E+04  0.25643721720E+04  0.10100000352E+00 0. -1.
       -3    1    3    3    0  502  0.40629783157E+03 -0.26790821426E+03 -0.74122347859E+03  0.88671584774E+03  0.10100000352E+00 0.  1.
</event>
<event>
 5   0  0.2985941E-06  0.2986941E+04  0.7818609E-02  0.8247470E-01
        2   -1    0    0  501    0  0.00000000000E+00  0.00000000000E+00  0.12397915968E+04  0.12397915968E+04  0.25500000920E-02 0.  1.
       -2   -1    0    0    0  501  0.00000000000E+00  0.00000000000E+00 -0.17990554249E+04  0.17990554249E+04  0.25500000920E-02 0. -1.
    10030    2    1    2    0    0  0.00000000000E+00  0.00000000000E+00 -0.55926382807E+03  0.30388470218E+04  0.29869407748E+04 0.  0.
        3    1    3    3  502    0  0.11130218797E+04  0.23992570247E+03 -0.12629009044E+04  0.17003825311E+04  0.10100000352E+00 0. -1.
       -3    1    3    3    0  502 -0.11130218797E+04 -0.23992570247E+03  0.70363707637E+03  0.13384644907E+04  0.10100000352E+00 0.  1.
</event>
<event>
 5   0  0.2985941E-06  0.3045727E+04  0.7818609E-02  0.8230792E-01
        2   -1    0    0  501    0  0.00000000000E+00  0.00000000000E+00  0.10961158729E+04  0.10961158729E+04  0.25500000920E-02 0. -1.
       -2   -1    0    0    0  501  0.00000000000E+00  0.00000000000E+00 -0.21157556255E+04  0.21157556255E+04  0.25500000920E-02 0.  1.
    10030    2    1    2    0    0  0.00000000000E+00  0.00000000000E+00 -0.10196397526E+04  0.32118714983E+04  0.30457270555E+04 0.  0.
        3    1    3    3  502    0  0.14426469421E+04 -0.46510411975E+03 -0.35497231469E+03  0.15567778892E+04  0.10100000352E+00 0. -1.
       -3    1    3    3    0  502 -0.14426469421E+04  0.46510411975E+03 -0.66466743788E+03  0.16550936092E+04  0.10100000352E+00 0.  1.
</event>
<event>
 5   0  0.1113245E-06  0.3005967E+04  0.7818609E-02  0.8242029E-01
       -1   -1    0    0    0  501  0.00000000000E+00  0.00000000000E+00  0.18803598829E+04  0.18803598829E+04  0.50400001928E-02 0. -1.
        1   -1    0    0  501    0  0.00000000000E+00  0.00000000000E+00 -0.12013443757E+04  0.12013443757E+04  0.50400001928E-02 0.  1.
    10030    2    1    2    0    0  0.00000000000E+00  0.00000000000E+00  0.67901550722E+03  0.30817042585E+04  0.30059672450E+04 0.  0.
        5    1    3    3  502    0 -0.11234872119E+04 -0.33680655684E+03 -0.62399910076E+03  0.13285552829E+04  0.46999998093E+01 0.  1.
       -5    1    3    3    0  502  0.11234872119E+04  0.33680655684E+03  0.13030146080E+04  0.17531489756E+04  0.46999998093E+01 0. -1.
</event>
<event>
 5   0  0.2948711E-06  0.3058177E+04  0.7818609E-02  0.8227311E-01
        2   -1    0    0  501    0  0.00000000000E+00  0.00000000000E+00  0.23118592518E+04  0.23118592518E+04  0.25500000920E-02 0. -1.
       -2   -1    0    0    0  501  0.00000000000E+00  0.00000000000E+00 -0.10113553724E+04  0.10113553724E+04  0.25500000920E-02 0.  1.
    10030    2    1    2    0    0  0.00000000000E+00  0.00000000000E+00  0.13005038794E+04  0.33232146242E+04  0.30581767604E+04 0.  0.
        5    1    3    3  502    0 -0.97406076396E+03 -0.56393803577E+03 -0.47446960798E+03  0.12214597738E+04  0.46999998093E+01 0.  1.
       -5    1    3    3    0  502  0.97406076396E+03  0.56393803577E+03  0.17749734874E+04  0.21017548504E+04  0.46999998093E+01 0. -1.
</event>
<event>
 5   0  0.2985941E-06  0.2977972E+04  0.7818609E-02  0.8250049E-01
        2   -1    0    0  501    0  0.00000000000E+00  0.00000000000E+00  0.12986243304E+04  0.12986243304E+04  0.25500000920E-02 0.  1.
       -2   -1    0    0    0  501  0.00000000000E+00  0.00000000000E+00 -0.17072519128E+04  0.17072519128E+04  0.25500000920E-02 0. -1.
    10030    2    1    2    0    0  0.00000000000E+00  0.00000000000E+00 -0.40862758235E+03  0.30058762432E+04  0.29779717071E+04 0.  0.
        3    1    3    3  502    0  0.75469787526E+03  0.13004731414E+03 -0.14932277826E+04  0.16781568484E+04  0.10100000352E+00 0. -1.
       -3    1    3    3    0  502 -0.75469787526E+03 -0.13004731414E+03  0.10846002002E+04  0.13277193948E+04  0.10100000352E+00 0.  1.
</event>
<event>
 5   0  0.1091076E-06  0.2974610E+04  0.7818609E-02  0.8251018E-01
       -1   -1    0    0    0  501  0.00000000000E+00  0.00000000000E+00  0.14660231249E+04  0.14660231249E+04  0.50400001928E-02 0.  1.
        1   -1    0    0  501    0  0.00000000000E+00  0.00000000000E+00 -0.15088961632E+04  0.15088961633E+04  0.50400001928E-02 0. -1.
    10030    2    1    2    0    0  0.00000000000E+00  0.00000000000E+00 -0.42873038389E+02  0.29749192881E+04  0.29746103398E+04 0.  0.
        3    1    3    3  502    0 -0.83438058781E+03  0.11960627626E+04  0.27068894111E+03  0.14832496791E+04  0.10100000352E+00 0.  1.
       -3    1    3    3    0  502  0.83438058781E+03 -0.11960627626E+04 -0.31356197950E+03  0.14916696091E+04  0.10100000352E+00 0. -1.
</event>
<event>
 5   0  0.1091076E-06  0.3004470E+04  0.7818609E-02  0.8242456E-01
       -1   -1    0    0    0  501  0.00000000000E+00  0.00000000000E+00  0.18614560492E+04  0.18614560492E+04  0.50400001928E-02 0.  1.
        1   -1    0    0  501    0  0.00000000000E+00  0.00000000000E+00 -0.12123361848E+04  0.12123361848E+04  0.50400001928E-02 0. -1.
    10030    2    1    2    0    0  0.00000000000E+00  0.00000000000E+00  0.64911986446E+03  0.30737922340E+04  0.30044703526E+04 0.  0.
        3    1    3    3  502    0 -0.62278170365E+03 -0.19943699347E+03  0.17081987601E+04  0.18290913534E+04  0.10100000352E+00 0.  1.
       -3    1    3    3    0  502  0.62278170365E+03  0.19943699347E+03 -0.10590788957E+04  0.12447008806E+04  0.10100000352E+00 0. -1.
</event>
<event>
 5   0  0.1097402E-06  0.3017171E+04  0.7818609E-02  0.8238844E-01
        1   -1    0    0  501    0  0.00000000000E+00  0.00000000000E+00  0.17725445833E+04  0.17725445833E+04  0.50400001928E-02 0. -1.
       -1   -1    0    0    0  501  0.00000000000E+00  0.00000000000E+00 -0.12839343427E+04  0.12839343427E+04  0.50400001928E-02 0.  1.
    10030    2    1    2    0    0  0.00000000000E+00  0.00000000000E+00  0.48861024057E+03  0.30564789260E+04  0.30171714333E+04 0.  0.
        4    1    3    3  502    0 -0.85009967518E+03  0.55318035715E+03 -0.88700321797E+03  0.13473879497E+04  0.12699999809E+01 0.  1.
       -4    1    3    3    0  502  0.85009967518E+03 -0.55318035715E+03  0.13756134585E+04  0.17090909764E+04  0.12699999809E+01 0. -1.
</event>
<event>
 5   0  0.3113328E-06  0.2995786E+04  0.7818609E-02  0.8244935E-01
       -2   -1    0    0    0  501  0.00000000000E+00  0.00000000000E+00  0.28665573772E+04  0.28665573772E+04  0.25500000920E-02 0. -1.
        2   -1    0    0  501    0  0.00000000000E+00  0.00000000000E+00 -0.78271000997E+03  0.78271000997E+03  0.25500000920E-02 0.  1.
    10030    2    1    2    0    0  0.00000000000E+00  0.00000000000E+00  0.20838473673E+04  0.36492673872E+04  0.29957858090E+04 0.  0.
        1    1    3    3  502    0  0.10726372680E+04 -0.83579722304E+03  0.18070972438E+04  0.22615720540E+04  0.50400001928E-02 0. -1.
       -1    1    3    3    0  502 -0.10726372680E+04  0.83579722304E+03  0.27675012340E+03  0.13876953332E+04  0.50400001928E-02 0.  1.
</event>
<event>
 5   0  0.9749500E-07  0.3036270E+04  0.7818609E-02  0.8233449E-01
       -4   -1    0    0    0  501  0.00000000000E+00  0.00000000000E+00  0.24532063214E+04  0.24532066501E+04  0.12699999809E+01 0. -1.
        4   -1    0    0  501    0  0.00000000000E+00  0.00000000000E+00 -0.93947743740E+03  0.93947829581E+03  0.12699999809E+01 0.  1.
    10030    2    1    2    0    0  0.00000000000E+00  0.00000000000E+00  0.15137288840E+04  0.33926849459E+04  0.30362700815E+04 0.  0.
        2    1    3    3  502    0  0.92539157407E+03 -0.61949793395E+03  0.19097806338E+04  0.22107440658E+04  0.25500000920E-02 0. -1.
       -2    1    3    3    0  502 -0.92539157407E+03  0.61949793395E+03 -0.39605174977E+03  0.11819408801E+04  0.25500000920E-02 0.  1.
</event>
<event>
 5   0  0.2862033E-06  0.3001942E+04  0.7818609E-02  0.8243177E-01
        2   -1    0    0  501    0  0.00000000000E+00  0.00000000000E+00  0.13109993766E+04  0.13109993766E+04  0.25500000920E-02 0. -1.
       -2   -1    0    0    0  501  0.00000000000E+00  0.00000000000E+00 -0.17184701251E+04  0.17184701251E+04  0.25500000920E-02 0.  1.
    10030    2    1    2    0    0  0.00000000000E+00  0.00000000000E+00 -0.40747074849E+03  0.30294695016E+04  0.30019415468E+04 0.  0.
        2    1    3    3  502    0 -0.91439167292E+03  0.42579094897E+03  0.91798934463E+03  0.13638601470E+04  0.25500000920E-02 0.  1.
       -2    1    3    3    0  502  0.91439167292E+03 -0.42579094897E+03 -0.13254600931E+04  0.16656093546E+04  0.25500000920E-02 0. -1.
</event>
<event>
 5   0  0.2985941E-06  0.3007847E+04  0.7818609E-02  0.8241494E-01
       -2   -1    0    0    0  501  0.00000000000E+00  0.00000000000E+00  0.11593920591E+04  0.11593920591E+04  0.25500000920E-02 0. -1.
        2   -1    0    0  501    0  0.00000000000E+00  0.00000000000E+00 -0.19508375271E+04  0.19508375271E+04  0.25500000920E-02 0.  1.
    10030    2    1    2    0    0  0.00000000000E+00  0.00000000000E+00 -0.79144546798E+03  0.31102295862E+04  0.30078467631E+04 0.  0.
        3    1    3    3  502    0 -0.21786163304E+03  0.92082754931E+03 -0.16044419411E+04  0.18626918745E+04  0.10100000352E+00 0.  1.
       -3    1    3    3    0  502  0.21786163304E+03 -0.92082754931E+03  0.81299647312E+03  0.12475377117E+04  0.10100000352E+00 0. -1.
</event>
<event>
 5   0  0.1054384E-06  0.3045369E+04  0.7818609E-02  0.8230893E-01
        1   -1    0    0  501    0  0.00000000000E+00  0.00000000000E+00  0.90129775364E+03  0.90129775365E+03  0.50400001928E-02 0.  1.
       -1   -1    0    0    0  501  0.00000000000E+00  0.00000000000E+00 -0.25724780206E+04  0.25724780206E+04  0.50400001928E-02 0. -1.
    10030    2    1    2    0    0  0.00000000000E+00  0.00000000000E+00 -0.16711802670E+04  0.34737757743E+04  0.30453693775E+04 0.  0.
        2    1    3    3  502    0 -0.94844495951E+03 -0.12927702798E+03  0.51518654358E+03  0.10870499372E+04  0.25500000920E-02 0.  1.
       -2    1    3    3    0  502  0.94844495951E+03  0.12927702798E+03 -0.21863668106E+04  0.23867258371E+04  0.25500000920E-02 0. -1.
</event>
<event>
 5   0  0.1091075E-06  0.2801666E+04  0.7818609E-02  0.8302751E-01
        1   -1    0    0  501    0  0.00000000000E+00  0.00000000000E+00  0.22088985547E+04  0.22088985547E+04  0.50400001928E-02 0. -1.
       -1   -1    0    0    0  501  0.00000000000E+00  0.00000000000E+00 -0.88837616304E+03  0.88837616305E+03  0.50400001928E-02 0.  1.
    10030    2    1    2    0    0  0.00000000000E+00  0.00000000000E+00  0.13205223916E+04  0.30972747177E+04  0.28016658063E+04 0.  0.
        1    1    3    3  502    0 -0.87361704907E+03 -0.10237949116E+03 -0.54502280849E+03  0.10347647899E+04  0.50400001928E-02 0.  1.
       -1    1    3    3    0  502  0.87361704907E+03  0.10237949116E+03  0.18655452001E+04  0.20625099278E+04  0.50400001928E-02 0. -1.
</event>
<event>
 5   0  0.2985941E-06  0.3011251E+04  0.7818609E-02  0.8240525E-01
        2   -1    0    0  501    0  0.00000000000E+00  0.00000000000E+00  0.18219639949E+04  0.18219639949E+04  0.25500000920E-02 0.  1.
       -2   -1    0    0    0  501  0.00000000000E+00  0.00000000000E+00 -0.12442111627E+04  0.12442111627E+04  0.25500000920E-02 0. -1.
    10030    2    1    2    0    0  0.00000000000E+00  0.00000000000E+00  0.57775283221E+03  0.30661751575E+04  0.30112508633E+04 0.  0.
        3    1    3    3  502    0 -0.14041389965E+04 -0.33898412115E+02 -0.26337431539E+03  0.14290281536E+04  0.10100000352E+00 0. -1.
       -3    1    3    3    0  502  0.14041389965E+04  0.33898412115E+02  0.84112714760E+03  0.16371470039E+04  0.10100000352E+00 0.  1.
</event>
<event>
 5   0  0.2948711E-06  0.3015832E+04  0.7818609E-02  0.8239224E-01
        2   -1    0    0  501    0  0.00000000000E+00  0.00000000000E+00  0.15364214705E+04  0.15364214705E+04  0.25500000920E-02 0. -1.
       -2   -1    0    0    0  501  0.00000000000E+00  0.00000000000E+00 -0.14799398634E+04  0.14799398634E+04  0.25500000920E-02 0.  1.
    10030    2    1    2    0    0  0.00000000000E+00  0.00000000000E+00  0.56481607072E+02  0.30163613339E+04  0.30158324762E+04 0.  0.
        5    1    3    3  502    0 -0.26968507240E+03 -0.47570789990E+03  0.14337492160E+04  0.15344989243E+04  0.46999998093E+01 0. -1.
       -5    1    3    3    0  502  0.26968507240E+03  0.47570789990E+03 -0.13772676089E+04  0.14818624096E+04  0.46999998093E+01 0.  1.
</event>
<event>
 5   0  0.1091076E-06  0.3008023E+04  0.7818609E-02  0.8241444E-01
       -1   -1    0    0    0  501  0.00000000000E+00  0.00000000000E+00  0.23058496664E+04  0.23058496664E+04  0.50400001928E-02 0.  1.
        1   -1    0    0  501    0  0.00000000000E+00  0.00000000000E+00 -0.98100535505E+03  0.98100535507E+03  0.50400001928E-02 0. -1.
    10030    2    1    2    0    0  0.00000000000E+00  0.00000000000E+00  0.13248443113E+04  0.32868550214E+04  0.30080231852E+04 0.  0.
        3    1    3    3  502    0 -0.10448463096E+04  0.45716701150E+03  0.17337911886E+04  0.20752680268E+04  0.10100000352E+00 0.  1.
       -3    1    3    3    0  502  0.10448463096E+04 -0.45716701150E+03 -0.40894687727E+03  0.12115869947E+04  0.10100000352E+00 0. -1.
</event>
<event>
 5   0  0.1097402E-06  0.3002173E+04  0.7818609E-02  0.8243111E-01
        1   -1    0    0  501    0  0.00000000000E+00  0.00000000000E+00  0.13693141346E+04  0.13693141346E+04  0.50400001928E-02 0.  1.
       -1   -1    0    0    0  501  0.00000000000E+00  0.00000000000E+00 -0.16455394388E+04  0.16455394388E+04  0.50400001928E-02 0. -1.
    10030    2    1    2    0    0  0.00000000000E+00  0.00000000000E+00 -0.27622530421E+03  0.30148535735E+04  0.30021728216E+04 0.  0.
        4    1    3    3  502    0 -0.35124479188E+03  0.24140976640E+03 -0.15834999808E+04  0.16398552927E+04  0.12699999809E+01 0. -1.
       -4    1    3    3    0  502  0.35124479188E+03 -0.24140976640E+03  0.13072746766E+04  0.13749982807E+04  0.12699999809E+01 0.  1.
</event>
<event>
 5   0  0.1054384E-06  0.2994049E+04  0.7818609E-02  0.8245432E-01
        1   -1    0    0  501    0  0.00000000000E+00  0.00000000000E+00  0.15451733688E+04  0.15451733688E+04  0.50400001928E-02 0. -1.
       -1   -1    0    0    0  501  0.00000000000E+00  0.00000000000E+00 -0.14503756412E+04  0.14503756412E+04  0.50400001928E-02 0.  1.
    10030    2    1    2    0    0  0.00000000000E+00  0.00000000000E+00  0.94797727657E+02  0.29955490100E+04  0.29940486406E+04 0.  0.
        2    1    3    3  502    0  0.10729679051E+04  0.88737656728E+03  0.59756943216E+03  0.15151853100E+04  0.25500000920E-02 0. -1.
       -2    1    3    3    0  502 -0.10729679051E+04 -0.88737656728E+03 -0.50277170451E+03  0.14803637000E+04  0.25500000920E-02 0.  1.
</event>
<event>
 5   0  0.2970915E-06  0.3045367E+04  0.7818609E-02  0.8230893E-01
       -2   -1    0    0    0  501  0.00000000000E+00  0.00000000000E+00  0.80747945327E+03  0.80747945327E+03  0.25500000920E-02 0.  1.
        2   -1    0    0  501    0  0.00000000000E+00  0.00000000000E+00 -0.28713611343E+04  0.28713611343E+04  0.25500000920E-02 0. -1.
    10030    2    1    2    0    0  0.00000000000E+00  0.00000000000E+00 -0.20638816811E+04  0.36788405876E+04  0.30453670510E+04 0.  0.
        4    1    3    3  502    0 -0.65765513144E+03 -0.19772986575E+03  0.60978114855E+03  0.91839100265E+03  0.12699999809E+01 0.  1.
       -4    1    3    3    0  502  0.65765513144E+03  0.19772986575E+03 -0.26736628296E+04  0.27604495850E+04  0.12699999809E+01 0. -1.
</event>
<event>
 5   0  0.1113245E-06  0.2999302E+04  0.7818609E-02  0.8243930E-01
       -1   -1    0    0    0  501  0.00000000000E+00  0.00000000000E+00  0.14295076816E+04  0.14295076816E+04  0.50400001928E-02 0.  1.
        1   -1    0    0  501    0  0.00000000000E+00  0.00000000000E+00 -0.15732364689E+04  0.15732364689E+04  0.50400001928E-02 0. -1.
    10030    2    1    2    0    0  0.00000000000E+00  0.00000000000E+00 -0.14372878731E+03  0.30027441505E+04  0.29993023304E+04 0.  0.
        5    1    3    3  502    0 -0.13180360888E+04  0.12357128749E+03  0.63353092969E+03  0.14676077553E+04  0.46999998093E+01 0.  1.
       -5    1    3    3    0  502  0.13180360888E+04 -0.12357128749E+03 -0.77725971700E+03  0.15351363953E+04  0.46999998093E+01 0. -1.
</event>
<event>
 5   0  0.2948711E-06  0.2974992E+04  0.7818609E-02  0.8250908E-01
       -2   -1    0    0    0  501  0.00000000000E+00  0.00000000000E+00  0.11315650062E+04  0.11315650062E+04  0.25500000920E-02 0. -1.
        2   -1    0    0  501    0  0.00000000000E+00  0.00000000000E+00 -0.19553839524E+04  0.19553839524E+04  0.25500000920E-02 0.  1.
    10030    2    1    2    0    0  0.00000000000E+00  0.00000000000E+00 -0.82381894616E+03  0.30869489586E+04  0.29749918012E+04 0.  0.
        5    1    3    3  502    0 -0.56467030169E+03  0.75864154246E+03 -0.16032602994E+04  0.18614121567E+04  0.46999998093E+01 0.  1.
       -5    1    3    3    0  502  0.56467030169E+03 -0.75864154246E+03  0.77944135326E+03  0.12255368019E+04  0.46999998093E+01 0. -1.
</event>
<event>
 5   0  0.1054384E-06  0.3004991E+04  0.7818609E-02  0.8242307E-01
       -1   -1    0    0    0  501  0.00000000000E+00  0.00000000000E+00  0.13324419472E+04  0.13324419473E+04  0.50400001928E-02 0. -1.
        1   -1    0    0  501    0  0.00000000000E+00  0.00000000000E+00 -0.16942523354E+04  0.16942523354E+04  0.50400001928E-02 0.  1.
    10030    2    1    2    0    0  0.00000000000E+00  0.00000000000E+00 -0.36181038815E+03  0.30266942827E+04  0.30049911021E+04 0.  0.
        2    1    3    3  502    0  0.17026608892E+03 -0.89793873624E+03 -0.13820821186E+04  0.16569355744E+04  0.25500000920E-02 0.  1.
       -2    1    3    3    0  502 -0.17026608892E+03  0.89793873624E+03  0.10202717304E+04  0.13697587083E+04  0.25500000920E-02 0. -1.
</event>
<event>
 5   0  0.3113328E-06  0.3026342E+04  0.7818609E-02  0.8236248E-01
        2   -1    0    0  501    0  0.00000000000E+00  0.00000000000E+00  0.24071402681E+04  0.24071402681E+04  0.25500000920E-02 0. -1.
       -2   -1    0    0    0  501  0.00000000000E+00  0.00000000000E+00 -0.95120622046E+03  0.95120622046E+03  0.25500000920E-02 0.  1.
    10030    2    1    2    0    0  0.00000000000E+00  0.00000000000E+00  0.14559340476E+04  0.33583464885E+04  0.30263422123E+04 0.  0.
        1    1    3    3  502    0  0.87476035085E+03 -0.18144298305E+03 -0.62730903672E+03  0.10916244112E+04  0.50400001928E-02 0.  1.
       -1    1    3    3    0  502 -0.87476035085E+03  0.18144298305E+03  0.20832430843E+04  0.22667220774E+04  0.50400001928E-02 0. -1.
</event>
<event>
 5   0  0.1113245E-06  0.2993128E+04  0.7818609E-02  0.8245696E-01
       -1   -1    0    0    0  501  0.00000000000E+00  0.00000000000E+00  0.15200025398E+04  0.15200025398E+04  0.50400001928E-02 0.  1.
        1   -1    0    0  501    0  0.00000000000E+00  0.00000000000E+00 -0.14734869521E+04  0.14734869522E+04  0.50400001928E-02 0. -1.
    10030    2    1    2    0    0  0.00000000000E+00  0.00000000000E+00  0.46515587656E+02  0.29934894920E+04  0.29931280692E+04 0.  0.
        5    1    3    3  502    0  0.66914585257E+03  0.92092408471E+03  0.99488139731E+03  0.15118427255E+04  0.46999998093E+01 0.  1.
       -5    1    3    3    0  502 -0.66914585257E+03 -0.92092408471E+03 -0.94836580965E+03  0.14816467665E+04  0.46999998093E+01 0. -1.
</event>
<event>
 5   0  0.1054384E-06  0.3023913E+04  0.7818609E-02  0.8236935E-01
        1   -1    0    0  501    0  0.00000000000E+00  0.00000000000E+00  0.13001571078E+04  0.13001571078E+04  0.50400001928E-02 0. -1.
       -1   -1    0    0    0  501  0.00000000000E+00  0.00000000000E+00 -0.17582580934E+04  0.17582580934E+04  0.50400001928E-02 0.  1.
    10030    2    1    2    0    0  0.00000000000E+00  0.00000000000E+00 -0.45810098562E+03  0.30584152012E+04  0.30239125368E+04 0.  0.
        2    1    3    3  502    0  0.70222425312E+03  0.10491282837E+04  0.61244178823E+03  0.14031657070E+04  0.25500000920E-02 0. -1.
       -2    1    3    3    0  502 -0.70222425312E+03 -0.10491282837E+04 -0.10705427739E+04  0.16552494942E+04  0.25500000920E-02 0.  1.
</event>
<event>
 5   0  0.2862033E-06  0.3002699E+04  0.7818609E-02  0.8242961E-01
       -2   -1    0    0    0  501  0.00000000000E+00  0.00000000000E+00  0.97947531984E+03  0.97947531985E+03  0.25500000920E-02 0. -1.
        2   -1    0    0  501    0  0.00000000000E+00  0.00000000000E+00 -0.23012838391E+04  0.23012838391E+04  0.25500000920E-02 0.  1.
    10030    2    1    2    0    0  0.00000000000E+00  0.00000000000E+00 -0.13218085193E+04  0.32807591590E+04  0.30026992686E+04 0.  0.
        2    1    3    3  502    0  0.14619791791E+04  0.24800349047E+03 -0.91751924467E+03  0.17437690259E+04  0.25500000920E-02 0.  1.
       -2    1    3    3    0  502 -0.14619791791E+04 -0.24800349047E+03 -0.40428927463E+03  0.15369901330E+04  0.25500000920E-02 0. -1.
</event>
<event>
 5   0  0.2862033E-06  0.2994822E+04  0.7818609E-02  0.8245211E-01
        2   -1    0    0  501    0  0.00000000000E+00  0.00000000000E+00  0.19793651154E+04  0.19793651154E+04  0.25500000920E-02 0.  1.
       -2   -1    0    0    0  501  0.00000000000E+00  0.00000000000E+00 -0.11328078200E+04  0.11328078200E+04  0.25500000920E-02 0. -1.
    10030    2    1    2    0    0  0.00000000000E+00  0.00000000000E+00  0.84655729544E+03  0.31121729354E+04  0.29948223863E+04 0.  0.
        2    1    3    3  502    0 -0.14781758789E+04 -0.22130477856E+03  0.32882971322E+03  0.15303949537E+04  0.25500000920E-02 0.  1.
       -2    1    3    3    0  502  0.14781758789E+04  0.22130477856E+03  0.51772758222E+03  0.15817779817E+04  0.25500000920E-02 0. -1.
</event>
<event>
 5   0  0.2970915E-06  0.2996530E+04  0.7818609E-02  0.8244722E-01
        2   -1    0    0  501    0  0.00000000000E+00  0.00000000000E+00  0.17458308636E+04  0.17458308636E+04  0.25500000920E-02 0. -1.
       -2   -1    0    0    0  501  0.00000000000E+00  0.00000000000E+00 -0.12858052999E+04  0.12858052999E+04  0.25500000920E-02 0.  1.
    10030    2    1    2    0    0  0.00000000000E+00  0.00000000000E+00  0.46002556364E+03  0.30316361635E+04  0.29965303784E+04 0.  0.
        4    1    3    3  502    0 -0.12766112376E+04 -0.99739148635E+02  0.10170161103E+04  0.16352392887E+04  0.12699999809E+01 0. -1.
       -4    1    3    3    0  502  0.12766112376E+04  0.99739148635E+02 -0.55699054670E+03  0.13963968748E+04  0.12699999809E+01 0.  1.
</event>
<event>
 5   0  0.2862033E-06  0.3018551E+04  0.7818609E-02  0.8238453E-01
       -2   -1    0    0    0  501  0.00000000000E+00  0.00000000000E+00  0.11013660165E+04  0.11013660165E+04  0.25500000920E-02 0. -1.
        2   -1    0    0  501    0  0.00000000000E+00  0.00000000000E+00 -0.20682613824E+04  0.20682613824E+04  0.25500000920E-02 0.  1.
    10030    2    1    2    0    0  0.00000000000E+00  0.00000000000E+00 -0.96689536586E+03  0.31696273989E+04  0.30185511756E+04 0.  0.
        2    1    3    3  502    0 -0.14694661720E+04  0.33430751776E+03 -0.57016708476E+03  0.16112674674E+04  0.25500000920E-02 0. -1.
       -2    1    3    3    0  502  0.14694661720E+04 -0.33430751776E+03 -0.39672828110E+03  0.15583599315E+04  0.25500000920E-02 0.  1.
</event>
<event>
 5   0  0.2862033E-06  0.3003915E+04  0.7818609E-02  0.8242614E-01
        2   -1    0    0  501    0  0.00000000000E+00  0.00000000000E+00  0.24259232686E+04  0.24259232686E+04  0.25500000920E-02 0.  1.
       -2   -1    0    0    0  501  0.00000000000E+00  0.00000000000E+00 -0.92990411722E+03  0.92990411722E+03  0.25500000920E-02 0. -1.
    10030    2    1    2    0    0  0.00000000000E+00  0.00000000000E+00  0.14960191514E+04  0.33558273858E+04  0.30039148027E+04 0.  0.
        2    1    3    3  502    0 -0.21531272308E+03 -0.22941346749E+03  0.23886960255E+04  0.24093274601E+04  0.25500000920E-02 0.  1.
       -2    1    3    3    0  502  0.21531272308E+03  0.22941346749E+03 -0.89267687412E+03  0.94649992571E+03  0.25500000920E-02 0. -1.
</event>
<event>
 5   0  0.2985941E-06  0.3005874E+04  0.7818609E-02  0.8242055E-01
       -2   -1    0    0    0  501  0.00000000000E+00  0.00000000000E+00  0.87341951697E+03  0.87341951697E+03  0.25500000920E-02 0.  1.
        2   -1    0    0  501    0  0.00000000000E+00  0.00000000000E+00 -0.25861797411E+04  0.25861797412E+04  0.25500000920E-02 0. -1.
    10030    2    1    2    0    0  0.00000000000E+00  0.00000000000E+00 -0.17127602242E+04  0.34595992581E+04  0.30058741559E+04 0.  0.
        3    1    3    3  502    0 -0.30902167707E+03  0.60590833850E+03  0.68614560020E+03  0.96613410376E+03  0.10100000352E+00 0.  1.
       -3    1    3    3    0  502  0.30902167707E+03 -0.60590833850E+03 -0.23989058244E+04  0.24934651544E+04  0.10100000352E+00 0. -1.
</event>
<event>
 5   0  0.1097402E-06  0.3007668E+04  0.7818609E-02  0.8241545E-01
        1   -1    0    0  501    0  0.00000000000E+00  0.00000000000E+00  0.30798081796E+04  0.30798081796E+04  0.50400001928E-02 0.  1.
       -1   -1    0    0    0  501  0.00000000000E+00  0.00000000000E+00 -0.73430445412E+03  0.73430445414E+03  0.50400001928E-02 0. -1.
    10030    2    1    2    0    0  0.00000000000E+00  0.00000000000E+00  0.23455037255E+04  0.38141126337E+04  0.30076681095E+04 0.  0.
        4    1    3    3  502    0 -0.96769415931E+03 -0.97977577310E+03  0.40647975076E+03  0.14358342356E+04  0.12699999809E+01 0. -1.
       -4    1    3    3    0  502  0.96769415931E+03  0.97977577310E+03  0.19390239747E+04  0.23782783981E+04  0.12699999809E+01 0.  1.
</event>
<event>
 5   0  0.1091075E-06  0.3026083E+04  0.7818609E-02  0.8236322E-01
        1   -1    0    0  501    0  0.00000000000E+00  0.00000000000E+00  0.16540846634E+04  0.16540846634E+04  0.50400001928E-02 0.  1.
       -1   -1    0    0    0  501  0.00000000000E+00  0.00000000000E+00 -0.13840251389E+04  0.13840251389E+04  0.50400001928E-02 0. -1.
    10030    2    1    2    0    0  0.00000000000E+00  0.00000000000E+00  0.27005952451E+03  0.30381098023E+04  0.30260831158E+04 0.  0.
        1    1    3    3  502    0  0.19952625325E+03 -0.66477254539E+03  0.14848289236E+04  0.16390394124E+04  0.50400001928E-02 0.  1.
       -1    1    3    3    0  502 -0.19952625325E+03  0.66477254539E+03 -0.12147693991E+04  0.13990703899E+04  0.50400001928E-02 0. -1.
</event>
<event>
 5   0  0.1091076E-06  0.2997350E+04  0.7818609E-02  0.8244488E-01
       -1   -1    0    0    0  501  0.00000000000E+00  0.00000000000E+00  0.98184898577E+03  0.98184898578E+03  0.50400001928E-02 0. -1.
        1   -1    0    0  501    0  0.00000000000E+00  0.00000000000E+00 -0.22875475428E+04  0.22875475428E+04  0.50400001928E-02 0.  1.
    10030    2    1    2    0    0  0.00000000000E+00  0.00000000000E+00 -0.13056985571E+04  0.32693965286E+04  0.29973496525E+04 0.  0.
        3    1    3    3  502    0 -0.80701799494E+03  0.10086410671E+04  0.17598048135E+03  0.13036886079E+04  0.10100000352E+00 0. -1.
       -3    1    3    3    0  502  0.80701799494E+03 -0.10086410671E+04 -0.14816790384E+04  0.19657079207E+04  0.10100000352E+00 0.  1.
</event>
<event>
 5   0  0.1054384E-06  0.3003578E+04  0.7818609E-02  0.8242710E-01
        1   -1    0    0  501    0  0.00000000000E+00  0.00000000000E+00  0.18810754787E+04  0.18810754787E+04  0.50400001928E-02 0.  1.
       -1   -1    0    0    0  501  0.00000000000E+00  0.00000000000E+00 -0.11989787196E+04  0.11989787197E+04  0.50400001928E-02 0. -1.
    10030    2    1    2    0    0  0.00000000000E+00  0.00000000000E+00  0.68209675903E+03  0.30800541983E+04  0.30035775129E+04 0.  0.
        2    1    3    3  502    0  0.58674030702E+03  0.71448854918E+03  0.15546561318E+04  0.18087879265E+04  0.25500000920E-02 0.  1.
       -2    1    3    3    0  502 -0.58674030702E+03 -0.71448854918E+03 -0.87255937282E+03  0.12712662718E+04  0.25500000920E-02 0. -1.
</event>
<event>
 5   0  0.1091076E-06  0.2998657E+04  0.7818609E-02  0.8244115E-01
       -1   -1    0    0    0  501  0.00000000000E+00  0.00000000000E+00  0.14587190977E+04  0.14587190977E+04  0.50400001928E-02 0. -1.
        1   -1    0    0  501    0  0.00000000000E+00  0.00000000000E+00 -0.15410680671E+04  0.15410680671E+04  0.50400001928E-02 0.  1.
    10030    2    1    2    0    0  0.00000000000E+00  0.00000000000E+00 -0.82348969334E+02  0.29997871648E+04  0.29986566462E+04 0.  0.
        3    1    3    3  502    0 -0.14764933736E+03 -0.14660346631E+04 -0.31863703249E+03  0.15075103744E+04  0.10100000352E+00 0. -1.
       -3    1    3    3    0  502  0.14764933736E+03  0.14660346631E+04  0.23628806315E+03  0.14922767904E+04  0.10100000352E+00 0.  1.
</event>
<event>
 5   0  0.2970915E-06  0.2989600E+04  0.7818609E-02  0.8246707E-01
        2   -1    0    0  501    0  0.00000000000E+00  0.00000000000E+00  0.20160271946E+04  0.20160271946E+04  0.25500000920E-02 0. -1.
       -2   -1    0    0    0  501  0.00000000000E+00  0.00000000000E+00 -0.11083319455E+04  0.11083319455E+04  0.25500000920E-02 0.  1.
    10030    2    1    2    0    0  0.00000000000E+00  0.00000000000E+00  0.90769524912E+03  0.31243591402E+04  0.29896002026E+04 0.  0.
        4    1    3    3  502    0  0.47292721498E+03 -0.13687863158E+04  0.66760762146E+02  0.14497222980E+04  0.12699999809E+01 0.  1.
       -4    1    3    3    0  502 -0.47292721498E+03  0.13687863158E+04  0.84093448698E+03  0.16746368422E+04  0.12699999809E+01 0. -1.
</event>
<event>
 5   0  0.2970915E-06  0.2884841E+04  0.7818609E-02  0.8277402E-01
        2   -1    0    0  501    0  0.00000000000E+00  0.00000000000E+00  0.17970619868E+04  0.17970619868E+04  0.25500000920E-02 0. -1.
       -2   -1    0    0    0  501  0.00000000000E+00  0.00000000000E+00 -0.11577656503E+04  0.11577656503E+04  0.25500000920E-02 0.  1.
    10030    2    1    2    0    0  0.00000000000E+00  0.00000000000E+00  0.63929633652E+03  0.29548276371E+04  0.28848408205E+04 0.  0.
        4    1    3    3  502    0 -0.18196383878E+03 -0.62941276036E+02  0.17838397088E+04  0.17942012603E+04  0.12699999809E+01 0. -1.
       -4    1    3    3    0  502  0.18196383878E+03  0.62941276036E+02 -0.11445433723E+04  0.11606263769E+04  0.12699999809E+01 0.  1.
</event>
<event>
 5   0  0.2862033E-06  0.3016494E+04  0.7818609E-02  0.8239037E-01
        2   -1    0    0  501    0  0.00000000000E+00  0.00000000000E+00  0.24879324360E+04  0.24879324360E+04  0.25500000920E-02 0. -1.
       -2   -1    0    0    0  501  0.00000000000E+00  0.00000000000E+00 -0.91433711143E+03  0.91433711143E+03  0.25500000920E-02 0.  1.
    10030    2    1    2    0    0  0.00000000000E+00  0.00000000000E+00  0.15735953246E+04  0.34022695474E+04  0.30164939628E+04 0.  0.
        2    1    3    3  502    0  0.15012562036E+04 -0.89033457522E+02  0.91594861319E+03  0.17608688217E+04  0.25500000920E-02 0. -1.
       -2    1    3    3    0  502 -0.15012562036E+04  0.89033457522E+02  0.65764671137E+03  0.16414007257E+04  0.25500000920E-02 0.  1.
</event>
<event>
 5   0  0.9749500E-07  0.2970056E+04  0.7818609E-02  0.8252334E-01
       -3   -1    0    0    0  501  0.00000000000E+00  0.00000000000E+00  0.10992209444E+04  0.10992209490E+04  0.10100000352E+00 0.  1.
        3   -1    0    0  501    0  0.00000000000E+00  0.00000000000E+00 -0.20062464819E+04  0.20062464845E+04  0.10100000352E+00 0. -1.
    10030    2    1    2    0    0  0.00000000000E+00  0.00000000000E+00 -0.90702553755E+03  0.31054674335E+04  0.29700560019E+04 0.  0.
        3    1    3    3  502    0 -0.49243128971E+03  0.13891190503E+04 -0.64393644805E+03  0.16083514760E+04  0.10100000352E+00 0. -1.
       -3    1    3    3    0  502  0.49243128971E+03 -0.13891190503E+04 -0.26308908950E+03  0.14971159575E+04  0.10100000352E+00 0.  1.
</event>
<event>
 5   0  0.1097402E-06  0.2997886E+04  0.7818609E-02  0.8244335E-01
        1   -1    0    0  501    0  0.00000000000E+00  0.00000000000E+00  0.19557664850E+04  0.19557664850E+04  0.50400001928E-02 0. -1.
       -1   -1    0    0    0  501  0.00000000000E+00  0.00000000000E+00 -0.11488232397E+04  0.11488232397E+04  0.50400001928E-02 0.  1.
    10030    2    1    2    0    0  0.00000000000E+00  0.00000000000E+00  0.80694324531E+03  0.31045897248E+04  0.29978859148E+04 0.  0.
        4    1    3    3  502    0  0.13517943301E+04  0.42547991775E+03  0.90916273812E+03  0.16837338176E+04  0.12699999809E+01 0. -1.
       -4    1    3    3    0  502 -0.13517943301E+04 -0.42547991775E+03 -0.10221949281E+03  0.14208559072E+04  0.12699999809E+01 0.  1.
</event>
<event>
 5   0  0.1091076E-06  0.2969312E+04  0.7818609E-02  0.8252549E-01
       -1   -1    0    0    0  501  0.00000000000E+00  0.00000000000E+00  0.14331312404E+04  0.14331312404E+04  0.50400001928E-02 0. -1.
        1   -1    0    0  501    0  0.00000000000E+00  0.00000000000E+00 -0.15380330078E+04  0.15380330078E+04  0.50400001928E-02 0.  1.
    10030    2    1    2    0    0  0.00000000000E+00  0.00000000000E+00 -0.10490176744E+03  0.29711642482E+04  0.29693118073E+04 0.  0.
        3    1    3    3  502    0  0.14111044534E+04 -0.27631323293E+03  0.31742598909E+03  0.14725230219E+04  0.10100000352E+00 0. -1.
       -3    1    3    3    0  502 -0.14111044534E+04  0.27631323293E+03 -0.42232775652E+03  0.14986412263E+04  0.10100000352E+00 0.  1.
</event>
<event>
 5   0  0.1097402E-06  0.2834557E+04  0.7818609E-02  0.8292619E-01
        1   -1    0    0  501    0  0.00000000000E+00  0.00000000000E+00  0.14869433757E+04  0.14869433757E+04  0.50400001928E-02 0. -1.
       -1   -1    0    0    0  501  0.00000000000E+00  0.00000000000E+00 -0.13508775489E+04  0.13508775489E+04  0.50400001928E-02 0.  1.
    10030    2    1    2    0    0  0.00000000000E+00  0.00000000000E+00  0.13606582678E+03  0.28378209246E+04  0.28345570538E+04 0.  0.
        4    1    3    3  502    0 -0.10420694070E+04  0.95626295212E+03  0.15940314908E+03  0.14232914176E+04  0.12699999809E+01 0. -1.
       -4    1    3    3    0  502  0.10420694070E+04 -0.95626295212E+03 -0.23337322301E+02  0.14145295070E+04  0.12699999809E+01 0.  1.
</event>
<event>
 5   0  0.1097402E-06  0.3000582E+04  0.7818609E-02  0.8243565E-01
       -1   -1    0    0    0  501  0.00000000000E+00  0.00000000000E+00  0.17806368564E+04  0.17806368564E+04  0.50400001928E-02 0.  1.
        1   -1    0    0  501    0  0.00000000000E+00  0.00000000000E+00 -0.12640828617E+04  0.12640828617E+04  0.50400001928E-02 0. -1.
    10030    2    1    2    0    0  0.00000000000E+00  0.00000000000E+00  0.51655399468E+03  0.30447197180E+04  0.30005816323E+04 0.  0.
        4    1    3    3  502    0  0.13035305609E+04  0.40577598278E+03  0.88954139727E+03  0.16294574502E+04  0.12699999809E+01 0.  1.
       -4    1    3    3    0  502 -0.13035305609E+04 -0.40577598278E+03 -0.37298740259E+03  0.14152622679E+04  0.12699999809E+01 0. -1.
</event>
<event>
 5   0  0.3113328E-06  0.2997863E+04  0.7818609E-02  0.8244341E-01
        2   -1    0    0  501    0  0.00000000000E+00  0.00000000000E+00  0.18537551010E+04  0.18537551010E+04  0.25500000920E-02 0.  1.
       -2   -1    0    0    0  501  0.00000000000E+00  0.00000000000E+00 -0.12120239338E+04  0.12120239338E+04  0.25500000920E-02 0. -1.
    10030    2    1    2    0    0  0.00000000000E+00  0.00000000000E+00  0.64173116713E+03  0.30657790348E+04  0.29978629387E+04 0.  0.
        1    1    3    3  502    0 -0.45103548791E+02 -0.47278812917E+03  0.17747745819E+04  0.18372228395E+04  0.50400001928E-02 0.  1.
       -1    1    3    3    0  502  0.45103548791E+02  0.47278812917E+03 -0.11330434148E+04  0.12285561953E+04  0.50400001928E-02 0. -1.
</event>
<event>
 5   0  0.2862033E-06  0.3005214E+04  0.7818609E-02  0.8242243E-01
        2   -1    0    0  501    0  0.00000000000E+00  0.00000000000E+00  0.11648752311E+04  0.11648752311E+04  0.25500000920E-02 0. -1.
       -2   -1    0    0    0  501  0.00000000000E+00  0.00000000000E+00 -0.19382576901E+04  0.19382576901E+04  0.25500000920E-02 0.  1.
    10030    2    1    2    0    0  0.00000000000E+00  0.00000000000E+00 -0.77338245903E+03  0.31031329213E+04  0.30052143849E+04 0.  0.
        2    1    3    3  502    0  0.77138797345E+03  0.86885385797E+03 -0.13705655126E+04  0.17967738467E+04  0.25500000920E-02 0.  1.
       -2    1    3    3    0  502 -0.77138797345E+03 -0.86885385797E+03  0.59718305354E+03  0.13063590745E+04  0.25500000920E-02 0. -1.
</event>
<event>
 5   0  0.2985941E-06  0.3031082E+04  0.7818609E-02  0.8234911E-01
       -2   -1    0    0    0  501  0.00000000000E+00  0.00000000000E+00  0.96937989550E+03  0.96937989551E+03  0.25500000920E-02 0. -1.
        2   -1    0    0  501    0  0.00000000000E+00  0.00000000000E+00 -0.23694161663E+04  0.23694161663E+04  0.25500000920E-02 0.  1.
    10030    2    1    2    0    0  0.00000000000E+00  0.00000000000E+00 -0.14000362708E+04  0.33387960618E+04  0.30310819162E+04 0.  0.
        3    1    3    3  502    0 -0.33214703039E+03  0.20950753621E+03 -0.23123994944E+04  0.23455077253E+04  0.10100000352E+00 0.  1.
       -3    1    3    3    0  502  0.33214703039E+03 -0.20950753621E+03  0.91236322359E+03  0.99328833653E+03  0.10100000352E+00 0. -1.
</event>
<event>
 5   0  0.2948711E-06  0.2978998E+04  0.7818609E-02  0.8249754E-01
        2   -1    0    0  501    0  0.00000000000E+00  0.00000000000E+00  0.17098878149E+04  0.17098878149E+04  0.25500000920E-02 0.  1.
       -2   -1    0    0    0  501  0.00000000000E+00  0.00000000000E+00 -0.12975166946E+04  0.12975166946E+04  0.25500000920E-02 0. -1.
    10030    2    1    2    0    0  0.00000000000E+00  0.00000000000E+00  0.41237112028E+03  0.30074045095E+04  0.29789984799E+04 0.  0.
        5    1    3    3  502    0 -0.11593827150E+04 -0.60500693016E+03  0.92599510355E+03  0.16024015374E+04  0.46999998093E+01 0.  1.
       -5    1    3    3    0  502  0.11593827150E+04  0.60500693016E+03 -0.51362398327E+03  0.14050029721E+04  0.46999998093E+01 0. -1.
</event>
<event>
 5   0  0.1113245E-06  0.2680864E+04  0.7818609E-02  0.8341241E-01
       -1   -1    0    0    0  501  0.00000000000E+00  0.00000000000E+00  0.12245232175E+04  0.12245232175E+04  0.50400001928E-02 0. -1.
        1   -1    0    0  501    0  0.00000000000E+00  0.00000000000E+00 -0.14673125529E+04  0.14673125529E+04  0.50400001928E-02 0.  1.
    10030    2    1    2    0    0  0.00000000000E+00  0.00000000000E+00 -0.24278933547E+03  0.26918357704E+04  0.26808642549E+04 0.  0.
        5    1    3    3  502    0  0.63363120900E+03 -0.10471987248E+04  0.42730540010E+03  0.12964280440E+04  0.46999998093E+01 0. -1.
       -5    1    3    3    0  502 -0.63363120900E+03  0.10471987248E+04 -0.67009473557E+03  0.13954077264E+04  0.46999998093E+01 0.  1.
</event>
<event>
 5   0  0.1054384E-06  0.2985247E+04  0.7818609E-02  0.8247956E-01
       -1   -1    0    0    0  501  0.00000000000E+00  0.00000000000E+00  0.16064281638E+04  0.16064281638E+04  0.50400001928E-02 0. -1.
        1   -1    0    0  501    0  0.00000000000E+00  0.00000000000E+00 -0.13868814969E+04  0.13868814969E+04  0.50400001928E-02 0.  1.
    10030    2    1    2    0    0  0.00000000000E+00  0.00000000000E+00  0.21954666688E+03  0.29933096607E+04  0.29852473911E+04 0.  0.
        2    1    3    3  502    0 -0.25474279782E+03 -0.11593860887E+04 -0.79757689991E+03  0.14301045091E+04  0.25500000920E-02 0.  1.
       -2    1    3    3    0  502  0.25474279782E+03  0.11593860887E+04  0.10171235668E+04  0.15632051516E+04  0.25500000920E-02 0. -1.
</event>
<event>
 5   0  0.1113245E-06  0.2922485E+04  0.7818609E-02  0.8266219E-01
        1   -1    0    0  501    0  0.00000000000E+00  0.00000000000E+00  0.11319511957E+04  0.11319511957E+04  0.50400001928E-02 0. -1.
       -1   -1    0    0    0  501  0.00000000000E+00  0.00000000000E+00 -0.18863267014E+04  0.18863267014E+04  0.50400001928E-02 0.  1.
    10030    2    1    2    0    0  0.00000000000E+00  0.00000000000E+00 -0.75437550572E+03  0.30182778971E+04  0.29224850830E+04 0.  0.
        5    1    3    3  502    0 -0.11691411152E+04  0.34226103224E+03 -0.12105915677E+04  0.17174363439E+04  0.46999998093E+01 0.  1.
       -5    1    3    3    0  502  0.11691411152E+04 -0.34226103224E+03  0.45621606195E+03  0.13008415533E+04  0.46999998093E+01 0. -1.
</event>
<event>
 5   0  0.2862033E-06  0.2999397E+04  0.7818609E-02  0.8243903E-01
        2   -1    0    0  501    0  0.00000000000E+00  0.00000000000E+00  0.18598188538E+04  0.18598188538E+04  0.25500000920E-02 0.  1.
       -2   -1    0    0    0  501  0.00000000000E+00  0.00000000000E+00 -0.12093091789E+04  0.12093091789E+04  0.25500000920E-02 0. -1.
    10030    2    1    2    0    0  0.00000000000E+00  0.00000000000E+00  0.65050967487E+03  0.30691280327E+04  0.29993972801E+04 0.  0.
        2    1    3    3  502    0  0.49247619879E+03  0.13581508965E+04  0.73709077355E+03  0.16218537149E+04  0.25500000920E-02 0.  1.
       -2    1    3    3    0  502 -0.49247619879E+03 -0.13581508965E+04 -0.86581098685E+02  0.14472743177E+04  0.25500000920E-02 0. -1.
</event>
<event>
 5   0  0.3113328E-06  0.2978121E+04  0.7818609E-02  0.8250006E-01
        2   -1    0    0  501    0  0.00000000000E+00  0.00000000000E+00  0.10990956251E+04  0.10990956251E+04  0.25500000920E-02 0. -1.
       -2   -1    0    0    0  501  0.00000000000E+00  0.00000000000E+00 -0.20173865197E+04  0.20173865197E+04  0.25500000920E-02 0.  1.
    10030    2    1    2    0    0  0.00000000000E+00  0.00000000000E+00 -0.91829089462E+03  0.31164821449E+04  0.29781206813E+04 0.  0.
        1    1    3    3  502    0  0.52269197699E+03  0.76470621932E+02 -0.19160355841E+04  0.19875228346E+04  0.50400001928E-02 0.  1.
       -1    1    3    3    0  502 -0.52269197699E+03 -0.76470621932E+02  0.99774468944E+03  0.11289593102E+04  0.50400001928E-02 0. -1.
</event>
<event>
 5   0  0.3113328E-06  0.2984238E+04  0.7818609E-02  0.8248246E-01
        2   -1    0    0  501    0  0.00000000000E+00  0.00000000000E+00  0.23875158939E+04  0.23875158939E+04  0.25500000920E-02 0. -1.
       -2   -1    0    0    0  501  0.00000000000E+00  0.00000000000E+00 -0.93252539392E+03  0.93252539392E+03  0.25500000920E-02 0.  1.
    10030    2    1    2    0    0  0.00000000000E+00  0.00000000000E+00  0.14549904999E+04  0.33200412878E+04  0.29842380598E+04 0.  0.
        1    1    3    3  502    0  0.11939505929E+04 -0.84650444161E+03  0.10505712552E+04  0.18016069911E+04  0.50400001928E-02 0. -1.
       -1    1    3    3    0  502 -0.11939505929E+04  0.84650444161E+03  0.40441924470E+03  0.15184342967E+04  0.50400001928E-02 0.  1.
</event>
<event>
 5   0  0.2985941E-06  0.3037342E+04  0.7818609E-02  0.8233147E-01
       -2   -1    0    0    0  501  0.00000000000E+00  0.00000000000E+00  0.14348475998E+04  0.14348475998E+04  0.25500000920E-02 0. -1.
        2   -1    0    0  501    0  0.00000000000E+00  0.00000000000E+00 -0.16073911682E+04  0.16073911682E+04  0.25500000920E-02 0.  1.
    10030    2    1    2    0    0  0.00000000000E+00  0.00000000000E+00 -0.17254356844E+03  0.30422387680E+04  0.30373418376E+04 0.  0.
        3    1    3    3  502    0  0.13393817481E+04 -0.40428802467E+03 -0.67796023925E+03  0.15546775776E+04  0.10100000352E+00 0.  1.
       -3    1    3    3    0  502 -0.13393817481E+04  0.40428802467E+03  0.50541667081E+03  0.14875611904E+04  0.10100000352E+00 0. -1.
</event>
<event>
 5   0  0.1097402E-06  0.3000172E+04  0.7818609E-02  0.8243682E-01
        1   -1    0    0  501    0  0.00000000000E+00  0.00000000000E+00  0.17623697356E+04  0.17623697356E+04  0.50400001928E-02 0. -1.
       -1   -1    0    0    0  501  0.00000000000E+00  0.00000000000E+00 -0.12768363241E+04  0.12768363241E+04  0.50400001928E-02 0.  1.
    10030    2    1    2    0    0  0.00000000000E+00  0.00000000000E+00  0.48553341147E+03  0.30392060597E+04  0.30001717917E+04 0.  0.
        4    1    3    3  502    0  0.25222098941E+03  0.14677901691E+04  0.42463717676E+03  0.15486580490E+04  0.12699999809E+01 0. -1.
       -4    1    3    3    0  502 -0.25222098941E+03 -0.14677901691E+04  0.60896234709E+02  0.14905480107E+04  0.12699999809E+01 0.  1.
</event>
<event>
 5   0  0.2985941E-06  0.3013946E+04  0.7818609E-02  0.8239760E-01
        2   -1    0    0  501    0  0.00000000000E+00  0.00000000000E+00  0.19998747597E+04  0.19998747597E+04  0.25500000920E-02 0. -1.
       -2   -1    0    0    0  501  0.00000000000E+00  0.00000000000E+00 -0.11355549495E+04  0.11355549495E+04  0.25500000920E-02 0.  1.
    10030    2    1    2    0    0  0.00000000000E+00  0.00000000000E+00  0.86431981025E+03  0.31354297092E+04  0.30139460392E+04 0.  0.
        3    1    3    3  502    0  0.65838841669E+03  0.10090576010E+04  0.13737931458E+04  0.18272876530E+04  0.10100000352E+00 0. -1.
       -3    1    3    3    0  502 -0.65838841669E+03 -0.10090576010E+04 -0.50947333550E+03  0.13081420562E+04  0.10100000352E+00 0.  1.
</event>
<event>
 5   0  0.1054384E-06  0.3017561E+04  0.7818609E-02  0.8238734E-01
        1   -1    0    0  501    0  0.00000000000E+00  0.00000000000E+00  0.12160369137E+04  0.12160369137E+04  0.50400001928E-02 0. -1.
       -1   -1    0    0    0  501  0.00000000000E+00  0.00000000000E+00 -0.18719978010E+04  0.18719978010E+04  0.50400001928E-02 0.  1.
    10030    2    1    2    0    0  0.00000000000E+00  0.00000000000E+00 -0.65596088727E+03  0.30880347147E+04  0.30175608881E+04 0.  0.
        2    1    3    3  502    0  0.40698854322E+03  0.95829978589E+03 -0.14454725132E+04  0.17813952229E+04  0.25500000920E-02 0.  1.
       -2    1    3    3    0  502 -0.40698854322E+03 -0.95829978589E+03  0.78951162591E+03  0.13066394917E+04  0.25500000920E-02 0. -1.
</event>
<event>
 5   0  0.2948711E-06  0.2782932E+04  0.7818609E-02  0.8308587E-01
        2   -1    0    0  501    0  0.00000000000E+00  0.00000000000E+00  0.18918502488E+04  0.18918502488E+04  0.25500000920E-02 0. -1.
       -2   -1    0    0    0  501  0.00000000000E+00  0.00000000000E+00 -0.10234309324E+04  0.10234309324E+04  0.25500000920E-02 0.  1.
    10030    2    1    2    0    0  0.00000000000E+00  0.00000000000E+00  0.86841931642E+03  0.29152811813E+04  0.27829323126E+04 0.  0.
        5    1    3    3  502    0  0.11099593054E+04  0.78192428062E+02  0.13094262709E+04  0.17183547260E+04  0.46999998093E+01 0. -1.
       -5    1    3    3    0  502 -0.11099593054E+04 -0.78192428062E+02 -0.44100695445E+03  0.11969264553E+04  0.46999998093E+01 0.  1.
</event>
<event>
 5   0  0.2985941E-06  0.3005288E+04  0.7818609E-02  0.8242222E-01
        2   -1    0    0  501    0  0.00000000000E+00  0.00000000000E+00  0.13555135408E+04  0.13555135408E+04  0.25500000920E-02 0. -1.
       -2   -1    0    0    0  501  0.00000000000E+00  0.00000000000E+00 -0.16657443826E+04  0.16657443826E+04  0.25500000920E-02 0.  1.
    10030    2    1    2    0    0  0.00000000000E+00  0.00000000000E+00 -0.31023084181E+03  0.30212579234E+04  0.30052880502E+04 0.  0.
        3    1    3    3  502    0 -0.10524207423E+04  0.45096150879E+03 -0.11334172614E+04  0.16110836105E+04  0.10100000352E+00 0.  1.
       -3    1    3    3    0  502  0.10524207423E+04 -0.45096150879E+03  0.82318641956E+03  0.14101743129E+04  0.10100000352E+00 0. -1.
</event>
<event>
 5   0  0.1054384E-06  0.2973430E+04  0.7818609E-02  0.8251359E-01
       -1   -1    0    0    0  501  0.00000000000E+00  0.00000000000E+00  0.10346478696E+04  0.10346478696E+04  0.50400001928E-02 0. -1.
        1   -1    0    0  501    0  0.00000000000E+00  0.00000000000E+00 -0.21363035579E+04  0.21363035579E+04  0.50400001928E-02 0.  1.
    10030    2    1    2    0    0  0.00000000000E+00  0.00000000000E+00 -0.11016556882E+04  0.31709514275E+04  0.29734302918E+04 0.  0.
        2    1    3    3  502    0 -0.38749633786E+03  0.24834859511E+03 -0.20584169121E+04  0.21092440874E+04  0.25500000920E-02 0.  1.
       -2    1    3    3    0  502  0.38749633786E+03 -0.24834859511E+03  0.95676122383E+03  0.10617073401E+04  0.25500000920E-02 0. -1.
</event>
<event>
 5   0  0.1054384E-06  0.3007358E+04  0.7818609E-02  0.8241633E-01
        1   -1    0    0  501    0  0.00000000000E+00  0.00000000000E+00  0.11178602032E+04  0.11178602032E+04  0.50400001928E-02 0. -1.
       -1   -1    0    0    0  501  0.00000000000E+00  0.00000000000E+00 -0.20226593709E+04  0.20226593709E+04  0.50400001928E-02 0.  1.
    10030    2    1    2    0    0  0.00000000000E+00  0.00000000000E+00 -0.90479916767E+03  0.31405195741E+04  0.30073579204E+04 0.  0.
        2    1    3    3  502    0  0.21693821632E+03 -0.10649526693E+04  0.63277827724E+03  0.12576146968E+04  0.25500000920E-02 0. -1.
       -2    1    3    3    0  502 -0.21693821632E+03  0.10649526693E+04 -0.15375774449E+04  0.18829048772E+04  0.25500000920E-02 0.  1.
</event>
<event>
 5   0  0.9749500E-07  0.2976260E+04  0.7818609E-02  0.8250543E-01
        3   -1    0    0  501    0  0.00000000000E+00  0.00000000000E+00  0.30917384288E+04  0.30917384305E+04  0.10100000352E+00 0. -1.
       -3   -1    0    0    0  501  0.00000000000E+00  0.00000000000E+00 -0.71627372681E+03  0.71627373393E+03  0.10100000352E+00 0.  1.
    10030    2    1    2    0    0  0.00000000000E+00  0.00000000000E+00  0.23754647020E+04  0.38080121644E+04  0.29762600850E+04 0.  0.
        2    1    3    3  502    0  0.13811692333E+02  0.14651615203E+04  0.15204957890E+04  0.21115862492E+04  0.25500000920E-02 0. -1.
       -2    1    3    3    0  502 -0.13811692333E+02 -0.14651615203E+04  0.85496891302E+03  0.16964259152E+04  0.25500000920E-02 0.  1.
</event>
<event>
 5   0  0.2862033E-06  0.2999454E+04  0.7818609E-02  0.8243887E-01
       -2   -1    0    0    0  501  0.00000000000E+00  0.00000000000E+00  0.25169073922E+04  0.25169073922E+04  0.25500000920E-02 0.  1.
        2   -1    0    0  501    0  0.00000000000E+00  0.00000000000E+00 -0.89362879769E+03  0.89362879769E+03  0.25500000920E-02 0. -1.
    10030    2    1    2    0    0  0.00000000000E+00  0.00000000000E+00  0.16232785945E+04  0.34105361899E+04  0.29994539015E+04 0.  0.
        2    1    3    3  502    0 -0.97281397724E+02  0.31258119814E+02 -0.88966625041E+03  0.89551481145E+03  0.25500000920E-02 0. -1.
       -2    1    3    3    0  502  0.97281397724E+02 -0.31258119814E+02  0.25129448449E+04  0.25150213785E+04  0.25500000920E-02 0.  1.
</event>
<event>
 5   0  0.2862033E-06  0.2932350E+04  0.7818609E-02  0.8263317E-01
        2   -1    0    0  501    0  0.00000000000E+00  0.00000000000E+00  0.71942870562E+03  0.71942870563E+03  0.25500000920E-02 0.  1.
       -2   -1    0    0    0  501  0.00000000000E+00  0.00000000000E+00 -0.29880227840E+04  0.29880227840E+04  0.25500000920E-02 0. -1.
    10030    2    1    2    0    0  0.00000000000E+00  0.00000000000E+00 -0.22685940784E+04  0.37074514896E+04  0.29323501591E+04 0.  0.
        2    1    3    3  502    0 -0.50331661388E+03  0.64513916689E+03  0.40389527020E+03  0.91250399876E+03  0.25500000920E-02 0.  1.
       -2    1    3    3    0  502  0.50331661388E+03 -0.64513916689E+03 -0.26724893486E+04  0.27949474909E+04  0.25500000920E-02 0. -1.
</event>
<event>
 5   0  0.1091076E-06  0.2993125E+04  0.7818609E-02  0.8245697E-01
       -1   -1    0    0    0  501  0.00000000000E+00  0.00000000000E+00  0.15177602951E+04  0.15177602951E+04  0.50400001928E-02 0.  1.
        1   -1    0    0  501    0  0.00000000000E+00  0.00000000000E+00 -0.14756610068E+04  0.14756610068E+04  0.50400001928E-02 0. -1.
    10030    2    1    2    0    0  0.00000000000E+00  0.00000000000E+00  0.42099288313E+02  0.29934213019E+04  0.29931252464E+04 0.  0.
        3    1    3    3  502    0 -0.26142344321E+03  0.16515903597E+03 -0.14433629077E+04  0.14761152452E+04  0.10100000352E+00 0. -1.
       -3    1    3    3    0  502  0.26142344321E+03 -0.16515903597E+03  0.14854621960E+04  0.15173060567E+04  0.10100000352E+00 0.  1.
</event>
<event>
 5   0  0.2970915E-06  0.2998431E+04  0.7818609E-02  0.8244179E-01
       -2   -1    0    0    0  501  0.00000000000E+00  0.00000000000E+00  0.12247264216E+04  0.12247264216E+04  0.25500000920E-02 0.  1.
        2   -1    0    0  501    0  0.00000000000E+00  0.00000000000E+00 -0.18352241845E+04  0.18352241845E+04  0.25500000920E-02 0. -1.
    10030    2    1    2    0    0  0.00000000000E+00  0.00000000000E+00 -0.61049776294E+03  0.30599506061E+04  0.29984312888E+04 0.  0.
        4    1    3    3  502    0  0.13830290574E+04 -0.13752536594E+03  0.26839010528E+03  0.14155272733E+04  0.12699999809E+01 0.  1.
       -4    1    3    3    0  502 -0.13830290574E+04  0.13752536594E+03 -0.87888786822E+03  0.16444233329E+04  0.12699999809E+01 0. -1.
</event>
<event>
 5   0  0.1091075E-06  0.2954928E+04  0.7818609E-02  0.8256720E-01
       -1   -1    0    0    0  501  0.00000000000E+00  0.00000000000E+00  0.15477822768E+04  0.15477822768E+04  0.50400001928E-02 0.  1.
        1   -1    0    0  501    0  0.00000000000E+00  0.00000000000E+00 -0.14103406035E+04  0.14103406035E+04  0.50400001928E-02 0. -1.
    10030    2    1    2    0    0  0.00000000000E+00  0.00000000000E+00  0.13744167323E+03  0.29581228803E+04  0.29549282159E+04 0.  0.
        1    1    3    3  502    0  0.84359384591E+03  0.58651425829E+02  0.12815625939E+04  0.15354130547E+04  0.50400001928E-02 0.  1.
       -1    1    3    3    0  502 -0.84359384591E+03 -0.58651425829E+02 -0.11441209206E+04  0.14227098255E+04  0.50400001928E-02 0. -1.
</event>
<event>
 5   0  0.2862033E-06  0.3019736E+04  0.7818609E-02  0.8238117E-01
       -2   -1    0    0    0  501  0.00000000000E+00  0.00000000000E+00  0.15121666093E+04  0.15121666093E+04  0.25500000920E-02 0. -1.
        2   -1    0    0  501    0  0.00000000000E+00  0.00000000000E+00 -0.15075729777E+04  0.15075729777E+04  0.25500000920E-02 0.  1.
    10030    2    1    2    0    0  0.00000000000E+00  0.00000000000E+00  0.45936315554E+01  0.30197395870E+04  0.30197360931E+04 0.  0.
        2    1    3    3  502    0  0.28000305574E+03  0.11504015292E+04  0.93924834053E+03  0.15112950853E+04  0.25500000920E-02 0. -1.
       -2    1    3    3    0  502 -0.28000305574E+03 -0.11504015292E+04 -0.93465470898E+03  0.15084445017E+04  0.25500000920E-02 0.  1.
</event>
<event>
 5   0  0.1113245E-06  0.3006292E+04  0.7818609E-02  0.8241936E-01
       -1   -1    0    0    0  501  0.00000000000E+00  0.00000000000E+00  0.14108965475E+04  0.14108965475E+04  0.50400001928E-02 0. -1.
        1   -1    0    0  501    0  0.00000000000E+00  0.00000000000E+00 -0.16014269556E+04  0.16014269556E+04  0.50400001928E-02 0.  1.
    10030    2    1    2    0    0  0.00000000000E+00  0.00000000000E+00 -0.19053040809E+03  0.30123235031E+04  0.30062919105E+04 0.  0.
        5    1    3    3  502    0 -0.61945516812E+03 -0.12789539185E+04  0.39559297703E+03  0.14751148174E+04  0.46999998093E+01 0. -1.
       -5    1    3    3    0  502  0.61945516812E+03  0.12789539185E+04 -0.58612338512E+03  0.15372086857E+04  0.46999998093E+01 0.  1.
</event>
<event>
 5   0  0.3113328E-06  0.3026464E+04  0.7818609E-02  0.8236214E-01
        2   -1    0    0  501    0  0.00000000000E+00  0.00000000000E+00  0.26147276816E+04  0.26147276816E+04  0.25500000920E-02 0. -1.
       -2   -1    0    0    0  501  0.00000000000E+00  0.00000000000E+00 -0.87575917092E+03  0.87575917092E+03  0.25500000920E-02 0.  1.
    10030    2    1    2    0    0  0.00000000000E+00  0.00000000000E+00  0.17389685107E+04  0.34904868525E+04  0.30264644367E+04 0.  0.
        1    1    3    3  502    0 -0.14539150487E+04 -0.37314826472E+03  0.10906189017E+04  0.18554132114E+04  0.50400001928E-02 0. -1.
       -1    1    3    3    0  502  0.14539150487E+04  0.37314826472E+03  0.64834960904E+03  0.16350736411E+04  0.50400001928E-02 0.  1.
</event>
<event>
 5   0  0.2948711E-06  0.3045749E+04  0.7818609E-02  0.8230786E-01
        2   -1    0    0  501    0  0.00000000000E+00  0.00000000000E+00  0.10918117465E+04  0.10918117465E+04  0.25500000920E-02 0.  1.
       -2   -1    0    0    0  501  0.00000000000E+00  0.00000000000E+00 -0.21241262803E+04  0.21241262803E+04  0.25500000920E-02 0. -1.
    10030    2    1    2    0    0  0.00000000000E+00  0.00000000000E+00 -0.10323145338E+04  0.32159380268E+04  0.30457485279E+04 0.  0.
        5    1    3    3  502    0 -0.83660986195E+03 -0.32278814122E+03  0.78348011056E+03  0.11907860508E+04  0.46999998093E+01 0.  1.
       -5    1    3    3    0  502  0.83660986195E+03  0.32278814122E+03 -0.18157946443E+04  0.20251519759E+04  0.46999998093E+01 0. -1.
</event>
<event>
 5   0  0.1091075E-06  0.3019343E+04  0.7818609E-02  0.8238229E-01
        1   -1    0    0  501    0  0.00000000000E+00  0.00000000000E+00  0.23056031765E+04  0.23056031765E+04  0.50400001928E-02 0.  1.
       -1   -1    0    0    0  501  0.00000000000E+00  0.00000000000E+00 -0.98850822450E+03  0.98850822451E+03  0.50400001928E-02 0. -1.
    10030    2    1    2    0    0  0.00000000000E+00  0.00000000000E+00  0.13170949520E+04  0.32941114010E+04  0.30193427778E+04 0.  0.
        1    1    3    3  502    0  0.47508128634E+03 -0.65370698575E+03  0.20497675475E+04  0.22033116100E+04  0.50400001928E-02 0.  1.
       -1    1    3    3    0  502 -0.47508128634E+03  0.65370698575E+03 -0.73267259551E+03  0.10907997910E+04  0.50400001928E-02 0. -1.
</event>
<event>
 5   0  0.1097402E-06  0.2976837E+04  0.7818609E-02  0.8250376E-01
       -1   -1    0    0    0  501  0.00000000000E+00  0.00000000000E+00  0.70936018849E+03  0.70936018851E+03  0.50400001928E-02 0. -1.
        1   -1    0    0  501    0  0.00000000000E+00  0.00000000000E+00 -0.31230823014E+04  0.31230823014E+04  0.50400001928E-02 0.  1.
    10030    2    1    2    0    0  0.00000000000E+00  0.00000000000E+00 -0.24137221129E+04  0.38324424899E+04  0.29768374158E+04 0.  0.
        4    1    3    3  502    0 -0.75612855062E+03  0.95112145760E+03 -0.10010869882E+03  0.12191742192E+04  0.12699999809E+01 0.  1.
       -4    1    3    3    0  502  0.75612855062E+03 -0.95112145760E+03 -0.23136134141E+04  0.26132682708E+04  0.12699999809E+01 0. -1.
</event>
<event>
 5   0  0.1097402E-06  0.2995354E+04  0.7818609E-02  0.8245059E-01
       -1   -1    0    0    0  501  0.00000000000E+00  0.00000000000E+00  0.17731699115E+04  0.17731699115E+04  0.50400001928E-02 0.  1.
        1   -1    0    0  501    0  0.00000000000E+00  0.00000000000E+00 -0.12649870285E+04  0.12649870286E+04  0.50400001928E-02 0. -1.
    10030    2    1    2    0    0  0.00000000000E+00  0.00000000000E+00  0.50818288293E+03  0.30381569400E+04  0.29953543613E+04 0.  0.
        4    1    3    3  502    0 -0.92366383261E+03 -0.85200980285E+03 -0.57238955172E+03  0.13808356135E+04  0.12699999809E+01 0. -1.
       -4    1    3    3    0  502  0.92366383261E+03  0.85200980285E+03  0.10805724346E+04  0.16573213265E+04  0.12699999809E+01 0.  1.
</event>
<event>
 5   0  0.2862033E-06  0.2995065E+04  0.7818609E-02  0.8245141E-01
        2   -1    0    0  501    0  0.00000000000E+00  0.00000000000E+00  0.24411417541E+04  0.24411417541E+04  0.25500000920E-02 0. -1.
       -2   -1    0    0    0  501  0.00000000000E+00  0.00000000000E+00 -0.91866996754E+03  0.91866996754E+03  0.25500000920E-02 0.  1.
    10030    2    1    2    0    0  0.00000000000E+00  0.00000000000E+00  0.15224717866E+04  0.33598117217E+04  0.29950650183E+04 0.  0.
        2    1    3    3  502    0  0.14906473193E+04 -0.14256311014E+03  0.74350090521E+03  0.16718693930E+04  0.25500000920E-02 0.  1.
       -2    1    3    3    0  502 -0.14906473193E+04  0.14256311014E+03  0.77897088137E+03  0.16879423287E+04  0.25500000920E-02 0. -1.
</event>
<event>
 5   0  0.2862033E-06  0.2974521E+04  0.7818609E-02  0.8251044E-01
       -2   -1    0    0    0  501  0.00000000000E+00  0.00000000000E+00  0.92925714278E+03  0.92925714278E+03  0.25500000920E-02 0. -1.
        2   -1    0    0  501    0  0.00000000000E+00  0.00000000000E+00 -0.23803352046E+04  0.23803352046E+04  0.25500000920E-02 0.  1.
    10030    2    1    2    0    0  0.00000000000E+00  0.00000000000E+00 -0.14510780619E+04  0.33095923474E+04  0.29745207958E+04 0.  0.
        2    1    3    3  502    0 -0.68978828554E+03 -0.10918563472E+04  0.95097957317E+02  0.12949910360E+04  0.25500000920E-02 0. -1.
       -2    1    3    3    0  502  0.68978828554E+03  0.10918563472E+04 -0.15461760192E+04  0.20146013114E+04  0.25500000920E-02 0.  1.
</event>
<event>
 5   0  0.2970915E-06  0.2976140E+04  0.7818609E-02  0.8250577E-01
       -2   -1    0    0    0  501  0.00000000000E+00  0.00000000000E+00  0.11096427147E+04  0.11096427147E+04  0.25500000920E-02 0.  1.
        2   -1    0    0  501    0  0.00000000000E+00  0.00000000000E+00 -0.19955546908E+04  0.19955546908E+04  0.25500000920E-02 0. -1.
    10030    2    1    2    0    0  0.00000000000E+00  0.00000000000E+00 -0.88591197612E+03  0.31051974055E+04  0.29761402685E+04 0.  0.
        4    1    3    3  502    0  0.93213393376E+03  0.67819962785E+03 -0.14247845669E+04  0.18327141295E+04  0.12699999809E+01 0.  1.
       -4    1    3    3    0  502 -0.93213393376E+03 -0.67819962785E+03  0.53887259076E+03  0.12724832760E+04  0.12699999809E+01 0. -1.
</event>
<event>
 5   0  0.2948711E-06  0.2980185E+04  0.7818609E-02  0.8249412E-01
       -2   -1    0    0    0  501  0.00000000000E+00  0.00000000000E+00  0.11649240518E+04  0.11649240518E+04  0.25500000920E-02 0.  1.
        2   -1    0    0  501    0  0.00000000000E+00  0.00000000000E+00 -0.19060255125E+04  0.19060255125E+04  0.25500000920E-02 0. -1.
    10030    2    1    2    0    0  0.00000000000E+00  0.00000000000E+00 -0.74110146071E+03  0.30709495644E+04  0.29801845332E+04 0.  0.
        5    1    3    3  502    0 -0.29857535762E+03  0.11968462333E+04 -0.12319311851E+04  0.17433486986E+04  0.46999998093E+01 0. -1.
       -5    1    3    3    0  502  0.29857535762E+03 -0.11968462333E+04  0.49082972435E+03  0.13276008657E+04  0.46999998093E+01 0.  1.
</event>
<event>
 5   0  0.2862033E-06  0.3167490E+04  0.7818609E-02  0.8197456E-01
       -2   -1    0    0    0  501  0.00000000000E+00  0.00000000000E+00  0.14268321382E+04  0.14268321382E+04  0.25500000920E-02 0.  1.
        2   -1    0    0  501    0  0.00000000000E+00  0.00000000000E+00 -0.17579135815E+04  0.17579135815E+04  0.25500000920E-02 0. -1.
    10030    2    1    2    0    0  0.00000000000E+00  0.00000000000E+00 -0.33108144327E+03  0.31847457197E+04  0.31674896018E+04 0.  0.
        2    1    3    3  502    0 -0.61126549312E+03  0.95338427467E+03  0.94758613870E+03  0.14766538418E+04  0.25500000920E-02 0.  1.
       -2    1    3    3    0  502  0.61126549312E+03 -0.95338427467E+03 -0.12786675820E+04  0.17080918779E+04  0.25500000920E-02 0. -1.
</event>
<event>
 5   0  0.3113328E-06  0.3005600E+04  0.7818609E-02  0.8242134E-01
       -2   -1    0    0    0  501  0.00000000000E+00  0.00000000000E+00  0.13027354794E+04  0.13027354794E+04  0.25500000920E-02 0.  1.
        2   -1    0    0  501    0  0.00000000000E+00  0.00000000000E+00 -0.17335890661E+04  0.17335890661E+04  0.25500000920E-02 0. -1.
    10030    2    1    2    0    0  0.00000000000E+00  0.00000000000E+00 -0.43085358672E+03  0.30363245455E+04  0.30056000952E+04 0.  0.
        1    1    3    3  502    0  0.11982146096E+03  0.14498485540E+04  0.16524073308E+03  0.14641456593E+04  0.50400001928E-02 0.  1.
       -1    1    3    3    0  502 -0.11982146096E+03 -0.14498485540E+04 -0.59609431980E+03  0.15721788861E+04  0.50400001928E-02 0. -1.
</event>
<event>
 5   0  0.2970915E-06  0.2989949E+04  0.7818609E-02  0.8246607E-01
        2   -1    0    0  501    0  0.00000000000E+00  0.00000000000E+00  0.13564196730E+04  0.13564196730E+04  0.25500000920E-02 0. -1.
       -2   -1    0    0    0  501  0.00000000000E+00  0.00000000000E+00 -0.16476825501E+04  0.16476825501E+04  0.25500000920E-02 0.  1.
    10030    2    1    2    0    0  0.00000000000E+00  0.00000000000E+00 -0.29126287716E+03  0.30041022231E+04  0.29899491807E+04 0.  0.
        4    1    3    3  502    0 -0.18454064115E+03  0.40855201252E+03 -0.15785580998E+04  0.16409805857E+04  0.12699999809E+01 0.  1.
       -4    1    3    3    0  502  0.18454064115E+03 -0.40855201252E+03  0.12872952227E+04  0.13631216374E+04  0.12699999809E+01 0. -1.
</event>
<event>
 5   0  0.2970915E-06  0.2994691E+04  0.7818609E-02  0.8245248E-01
       -2   -1    0    0    0  501  0.00000000000E+00  0.00000000000E+00  0.13340071497E+04  0.13340071497E+04  0.25500000920E-02 0.  1.
        2   -1    0    0  501    0  0.00000000000E+00  0.00000000000E+00 -0.16806837362E+04  0.16806837362E+04  0.25500000920E-02 0. -1.
    10030    2    1    2    0    0  0.00000000000E+00  0.00000000000E+00 -0.34667658650E+03  0.30146908860E+04  0.29946913835E+04 0.  0.
        4    1    3    3  502    0  0.43870287973E+03 -0.10317247853E+04  0.82582544140E+03  0.13924458775E+04  0.12699999809E+01 0.  1.
       -4    1    3    3    0  502 -0.43870287973E+03  0.10317247853E+04 -0.11725020279E+04  0.16222450085E+04  0.12699999809E+01 0. -1.
</event>
<event>
 5   0  0.2948711E-06  0.2957496E+04  0.7818609E-02  0.8255973E-01
        2   -1    0    0  501    0  0.00000000000E+00  0.00000000000E+00  0.10182170779E+04  0.10182170779E+04  0.25500000920E-02 0.  1.
       -2   -1    0    0    0  501  0.00000000000E+00  0.00000000000E+00 -0.21475732024E+04  0.21475732024E+04  0.25500000920E-02 0. -1.
    10030    2    1    2    0    0  0.00000000000E+00  0.00000000000E+00 -0.11293561245E+04  0.31657902802E+04  0.29574960427E+04 0.  0.
        5    1    3    3  502    0  0.73289063901E+03 -0.10217180627E+04 -0.13977149184E+04  0.18800706294E+04  0.46999998093E+01 0. -1.
       -5    1    3    3    0  502 -0.73289063901E+03  0.10217180627E+04  0.26835879387E+03  0.12857196509E+04  0.46999998093E+01 0.  1.
</event>
<event>
 5   0  0.1097402E-06  0.3005895E+04  0.7818609E-02  0.8242049E-01
        1   -1    0    0  501    0  0.00000000000E+00  0.00000000000E+00  0.20134497126E+04  0.20134497126E+04  0.50400001928E-02 0. -1.
       -1   -1    0    0    0  501  0.00000000000E+00  0.00000000000E+00 -0.11218814603E+04  0.11218814603E+04  0.50400001928E-02 0.  1.
    10030    2    1    2    0    0  0.00000000000E+00  0.00000000000E+00  0.89156825232E+03  0.31353311730E+04  0.30058954765E+04 0.  0.
        4    1    3    3  502    0 -0.40652296536E+03 -0.11084181316E+03 -0.10590105599E+04  0.11397595395E+04  0.12699999809E+01 0.  1.
       -4    1    3    3    0  502  0.40652296536E+03  0.11084181316E+03  0.19505788122E+04  0.19955716335E+04  0.12699999809E+01 0. -1.
</event>
<event>
 5   0  0.2948711E-06  0.2989793E+04  0.7818609E-02  0.8246651E-01
        2   -1    0    0  501    0  0.00000000000E+00  0.00000000000E+00  0.15987190395E+04  0.15987190395E+04  0.25500000920E-02 0.  1.
       -2   -1    0    0    0  501  0.00000000000E+00  0.00000000000E+00 -0.13978167670E+04  0.13978167670E+04  0.25500000920E-02 0. -1.
    10030    2    1    2    0    0  0.00000000000E+00  0.00000000000E+00  0.20090227244E+03  0.29965358065E+04  0.29897934906E+04 0.  0.
        5    1    3    3  502    0 -0.14086084296E+04  0.25453557353E+03 -0.33148258851E+03  0.14693089745E+04  0.46999998093E+01 0. -1.
       -5    1    3    3    0  502  0.14086084296E+04 -0.25453557353E+03  0.53238486095E+03  0.15272268320E+04  0.46999998093E+01 0.  1.
</event>
<event>
 5   0  0.2985941E-06  0.2988156E+04  0.7818609E-02  0.8247121E-01
       -2   -1    0    0    0  501  0.00000000000E+00  0.00000000000E+00  0.11439718752E+04  0.11439718752E+04  0.25500000920E-02 0.  1.
        2   -1    0    0  501    0  0.00000000000E+00  0.00000000000E+00 -0.19513327760E+04  0.19513327760E+04  0.25500000920E-02 0. -1.
    10030    2    1    2    0    0  0.00000000000E+00  0.00000000000E+00 -0.80736090076E+03  0.30953046512E+04  0.29881564985E+04 0.  0.
        3    1    3    3  502    0  0.26206793674E+03 -0.37579780413E+03  0.10694118573E+04  0.11634196679E+04  0.10100000352E+00 0.  1.
       -3    1    3    3    0  502 -0.26206793674E+03  0.37579780413E+03 -0.18767727580E+04  0.19318849832E+04  0.10100000352E+00 0. -1.
</event>
<event>
 5   0  0.9749500E-07  0.2993159E+04  0.7818609E-02  0.8245687E-01
        4   -1    0    0  501    0  0.00000000000E+00  0.00000000000E+00  0.16651079777E+04  0.16651084621E+04  0.12699999809E+01 0.  1.
       -4   -1    0    0    0  501  0.00000000000E+00  0.00000000000E+00 -0.13451073972E+04  0.13451079968E+04  0.12699999809E+01 0. -1.
    10030    2    1    2    0    0  0.00000000000E+00  0.00000000000E+00  0.32000058049E+03  0.30102164588E+04  0.29931593271E+04 0.  0.
        5    1    3    3  502    0  0.72732962897E+03 -0.43697058489E+03 -0.10798173550E+04  0.13733096124E+04  0.46999998093E+01 0. -1.
       -5    1    3    3    0  502 -0.72732962897E+03  0.43697058489E+03  0.13998179355E+04  0.16369068464E+04  0.46999998093E+01 0.  1.
</event>
<event>
 5   0  0.1091075E-06  0.3009073E+04  0.7818609E-02  0.8241145E-01
       -1   -1    0    0    0  501  0.00000000000E+00  0.00000000000E+00  0.11555386149E+04  0.11555386149E+04  0.50400001928E-02 0.  1.
        1   -1    0    0  501    0  0.00000000000E+00  0.00000000000E+00 -0.19589392359E+04  0.19589392359E+04  0.50400001928E-02 0. -1.
    10030    2    1    2    0    0  0.00000000000E+00  0.00000000000E+00 -0.80340062100E+03  0.31144778507E+04  0.30090729012E+04 0.  0.
        1    1    3    3  502    0 -0.13124763484E+04  0.56736168724E+03  0.82817648943E+02  0.14322542415E+04  0.50400001928E-02 0.  1.
       -1    1    3    3    0  502  0.13124763484E+04 -0.56736168724E+03 -0.88621826994E+03  0.16822236092E+04  0.50400001928E-02 0. -1.
</event>
<event>
 5   0  0.1113245E-06  0.2980096E+04  0.7818609E-02  0.8249438E-01
        1   -1    0    0  501    0  0.00000000000E+00  0.00000000000E+00  0.24894947780E+04  0.24894947781E+04  0.50400001928E-02 0. -1.
       -1   -1    0    0    0  501  0.00000000000E+00  0.00000000000E+00 -0.89184483136E+03  0.89184483138E+03  0.50400001928E-02 0.  1.
    10030    2    1    2    0    0  0.00000000000E+00  0.00000000000E+00  0.15976499467E+04  0.33813396094E+04  0.29800960055E+04 0.  0.
        5    1    3    3  502    0  0.84772142799E+02 -0.11525990723E+04 -0.26831093936E+03  0.11864585065E+04  0.46999998093E+01 0.  1.
       -5    1    3    3    0  502 -0.84772142799E+02  0.11525990723E+04  0.18659608860E+04  0.21948811029E+04  0.46999998093E+01 0. -1.
</event>
<event>
 5   0  0.1113245E-06  0.2900095E+04  0.7818609E-02  0.8272849E-01
        1   -1    0    0  501    0  0.00000000000E+00  0.00000000000E+00  0.23253604892E+04  0.23253604892E+04  0.50400001928E-02 0. -1.
       -1   -1    0    0    0  501  0.00000000000E+00  0.00000000000E+00 -0.90422013379E+03  0.90422013380E+03  0.50400001928E-02 0.  1.
    10030    2    1    2    0    0  0.00000000000E+00  0.00000000000E+00  0.14211403554E+04  0.32295806230E+04  0.29000950141E+04 0.  0.
        5    1    3    3  502    0  0.87911875824E+03  0.23423703979E+03  0.19679653176E+04  0.21680927940E+04  0.46999998093E+01 0. -1.
       -5    1    3    3    0  502 -0.87911875824E+03 -0.23423703979E+03 -0.54682496221E+03  0.10614878290E+04  0.46999998093E+01 0.  1.
</event>
<event>
 5   0  0.3113328E-06  0.3026663E+04  0.7818609E-02  0.8236158E-01
       -2   -1    0    0    0  501  0.00000000000E+00  0.00000000000E+00  0.11955526499E+04  0.11955526499E+04  0.25500000920E-02 0.  1.
        2   -1    0    0  501    0  0.00000000000E+00  0.00000000000E+00 -0.19155765841E+04  0.19155765841E+04  0.25500000920E-02 0. -1.
    10030    2    1    2    0    0  0.00000000000E+00  0.00000000000E+00 -0.72002393423E+03  0.31111292340E+04  0.30266632857E+04 0.  0.
        1    1    3    3  502    0 -0.29792491682E+03 -0.13604611377E+04  0.24859152580E+03  0.14147125185E+04  0.50400001928E-02 0.  1.
       -1    1    3    3    0  502  0.29792491682E+03  0.13604611377E+04 -0.96861546003E+03  0.16964167155E+04  0.50400001928E-02 0. -1.
</event>
<event>
 5   0  0.3113328E-06  0.3005098E+04  0.7818609E-02  0.8242277E-01
       -2   -1    0    0    0  501  0.00000000000E+00  0.00000000000E+00  0.79052569388E+03  0.79052569389E+03  0.25500000920E-02 0. -1.
        2   -1    0    0  501    0  0.00000000000E+00  0.00000000000E+00 -0.28558881624E+04  0.28558881624E+04  0.25500000920E-02 0.  1.
    10030    2    1    2    0    0  0.00000000000E+00  0.00000000000E+00 -0.20653624685E+04  0.36464138563E+04  0.30050976498E+04 0.  0.
        1    1    3    3  502    0 -0.12141028121E+04  0.60126509623E+03 -0.24435010732E+03  0.13766889007E+04  0.50400001928E-02 0. -1.
       -1    1    3    3    0  502  0.12141028121E+04 -0.60126509623E+03 -0.18210123612E+04  0.22697249556E+04  0.50400001928E-02 0.  1.
</event>
<event>
 5   0  0.1097402E-06  0.2990553E+04  0.7818609E-02  0.8246434E-01
       -1   -1    0    0    0  501  0.00000000000E+00  0.00000000000E+00  0.13728611145E+04  0.13728611145E+04  0.50400001928E-02 0.  1.
        1   -1    0    0  501    0  0.00000000000E+00  0.00000000000E+00 -0.16286079699E+04  0.16286079700E+04  0.50400001928E-02 0. -1.
    10030    2    1    2    0    0  0.00000000000E+00  0.00000000000E+00 -0.25574685546E+03  0.30014690844E+04  0.29905534957E+04 0.  0.
        4    1    3    3  502    0  0.42969972124E+03 -0.50680827107E+03 -0.14722979295E+04  0.16152892250E+04  0.12699999809E+01 0. -1.
       -4    1    3    3    0  502 -0.42969972124E+03  0.50680827107E+03  0.12165510741E+04  0.13861798595E+04  0.12699999809E+01 0.  1.
</event>
<event>
 5   0  0.2862033E-06  0.2961360E+04  0.7818609E-02  0.8254852E-01
        2   -1    0    0  501    0  0.00000000000E+00  0.00000000000E+00  0.22508733109E+04  0.22508733109E+04  0.25500000920E-02 0.  1.
       -2   -1    0    0    0  501  0.00000000000E+00  0.00000000000E+00 -0.97402778674E+03  0.97402778674E+03  0.25500000920E-02 0. -1.
    10030    2    1    2    0    0  0.00000000000E+00  0.00000000000E+00  0.12768455242E+04  0.32249010976E+04  0.29613599236E+04 0.  0.
        2    1    3    3  502    0  0.14926720667E+03 -0.99901160122E+03 -0.54056438506E+03  0.11456503536E+04  0.25500000920E-02 0. -1.
       -2    1    3    3    0  502 -0.14926720667E+03  0.99901160122E+03  0.18174099092E+04  0.20792507440E+04  0.25500000920E-02 0.  1.
</event>
<event>
 5   0  0.2948711E-06  0.2993988E+04  0.7818609E-02  0.8245450E-01
        2   -1    0    0  501    0  0.00000000000E+00  0.00000000000E+00  0.19490966051E+04  0.19490966051E+04  0.25500000920E-02 0. -1.
       -2   -1    0    0    0  501  0.00000000000E+00  0.00000000000E+00 -0.11497585771E+04  0.11497585771E+04  0.25500000920E-02 0.  1.
    10030    2    1    2    0    0  0.00000000000E+00  0.00000000000E+00  0.79933802806E+03  0.30988551822E+04  0.29939876682E+04 0.  0.
        5    1    3    3  502    0 -0.67079482050E+03 -0.40669644812E+03 -0.91997933938E+03  0.12090292664E+04  0.46999998093E+01 0.  1.
       -5    1    3    3    0  502  0.67079482050E+03  0.40669644812E+03  0.17193173674E+04  0.18898259158E+04  0.46999998093E+01 0. -1.
</event>
<event>
 5   0  0.2948711E-06  0.2972512E+04  0.7818609E-02  0.8251624E-01
        2   -1    0    0  501    0  0.00000000000E+00  0.00000000000E+00  0.22947050933E+04  0.22947050933E+04  0.25500000920E-02 0. -1.
       -2   -1    0    0    0  501  0.00000000000E+00  0.00000000000E+00 -0.96263184474E+03  0.96263184475E+03  0.25500000920E-02 0.  1.
    10030    2    1    2    0    0  0.00000000000E+00  0.00000000000E+00  0.13320732486E+04  0.32573369381E+04  0.29725115288E+04 0.  0.
        5    1    3    3  502    0 -0.70360111140E+03 -0.23908225548E+02 -0.76831904844E+03  0.10420951863E+04  0.46999998093E+01 0.  1.
       -5    1    3    3    0  502  0.70360111140E+03  0.23908225548E+02  0.21003922970E+04  0.22152417518E+04  0.46999998093E+01 0. -1.
</event>
<event>
 5   0  0.1091075E-06  0.2990224E+04  0.7818609E-02  0.8246528E-01
       -1   -1    0    0    0  501  0.00000000000E+00  0.00000000000E+00  0.14133238489E+04  0.14133238489E+04  0.50400001928E-02 0. -1.
        1   -1    0    0  501    0  0.00000000000E+00  0.00000000000E+00 -0.15816333612E+04  0.15816333612E+04  0.50400001928E-02 0.  1.
    10030    2    1    2    0    0  0.00000000000E+00  0.00000000000E+00 -0.16830951228E+03  0.29949572101E+04  0.29902241719E+04 0.  0.
        1    1    3    3  502    0  0.81884158458E+03 -0.91922619158E+03 -0.93395622279E+03  0.15452354377E+04  0.50400001928E-02 0.  1.
       -1    1    3    3    0  502 -0.81884158458E+03  0.91922619158E+03  0.76564671051E+03  0.14497217724E+04  0.50400001928E-02 0. -1.
</event>
<event>
 5   0  0.1097402E-06  0.2995889E+04  0.7818609E-02  0.8244906E-01
       -1   -1    0    0    0  501  0.00000000000E+00  0.00000000000E+00  0.12025344245E+04  0.12025344245E+04  0.50400001928E-02 0.  1.
        1   -1    0    0  501    0  0.00000000000E+00  0.00000000000E+00 -0.18659242622E+04  0.18659242623E+04  0.50400001928E-02 0. -1.
    10030    2    1    2    0    0  0.00000000000E+00  0.00000000000E+00 -0.66338983772E+03  0.30684586868E+04  0.29958892896E+04 0.  0.
        4    1    3    3  502    0  0.38254875585E+03 -0.55642594690E+03 -0.17012013848E+04  0.18303117629E+04  0.12699999809E+01 0. -1.
       -4    1    3    3    0  502 -0.38254875585E+03  0.55642594690E+03  0.10378115471E+04  0.12381469239E+04  0.12699999809E+01 0.  1.
</event>
<event>
 5   0  0.2985941E-06  0.2976339E+04  0.7818609E-02  0.8250520E-01
       -2   -1    0    0    0  501  0.00000000000E+00  0.00000000000E+00  0.27710203773E+04  0.27710203773E+04  0.25500000920E-02 0. -1.
        2   -1    0    0  501    0  0.00000000000E+00  0.00000000000E+00 -0.79921760364E+03  0.79921760365E+03  0.25500000920E-02 0.  1.
    10030    2    1    2    0    0  0.00000000000E+00  0.00000000000E+00  0.19718027736E+04  0.35702379809E+04  0.29763388689E+04 0.  0.
        3    1    3    3  502    0 -0.33050009787E+03 -0.61915018379E+03  0.25600303697E+04  0.26544929401E+04  0.10100000352E+00 0. -1.
       -3    1    3    3    0  502  0.33050009787E+03  0.61915018379E+03 -0.58822759611E+03  0.91574504083E+03  0.10100000352E+00 0.  1.
</event>
<event>
 5   0  0.3113328E-06  0.2990896E+04  0.7818609E-02  0.8246335E-01
        2   -1    0    0  501    0  0.00000000000E+00  0.00000000000E+00  0.10728870029E+04  0.10728870029E+04  0.25500000920E-02 0.  1.
       -2   -1    0    0    0  501  0.00000000000E+00  0.00000000000E+00 -0.20844358891E+04  0.20844358891E+04  0.25500000920E-02 0. -1.
    10030    2    1    2    0    0  0.00000000000E+00  0.00000000000E+00 -0.10115488862E+04  0.31573228920E+04  0.29908956343E+04 0.  0.
        1    1    3    3  502    0  0.47244837984E+03  0.13677840791E+04 -0.10752432067E+03  0.14510693430E+04  0.50400001928E-02 0.  1.
       -1    1    3    3    0  502 -0.47244837984E+03 -0.13677840791E+04 -0.90402456548E+03  0.17062535490E+04  0.50400001928E-02 0. -1.
</event>
<event>
 5   0  0.2948711E-06  0.2998815E+04  0.7818609E-02  0.8244069E-01
       -2   -1    0    0    0  501  0.00000000000E+00  0.00000000000E+00  0.10700337261E+04  0.10700337261E+04  0.25500000920E-02 0. -1.
        2   -1    0    0  501    0  0.00000000000E+00  0.00000000000E+00 -0.21010770297E+04  0.21010770297E+04  0.25500000920E-02 0.  1.
    10030    2    1    2    0    0  0.00000000000E+00  0.00000000000E+00 -0.10310433035E+04  0.31711107558E+04  0.29988152880E+04 0.  0.
        5    1    3    3  502    0 -0.68368450916E+03  0.13092100330E+04 -0.24232612582E+03  0.14967295880E+04  0.46999998093E+01 0.  1.
       -5    1    3    3    0  502  0.68368450916E+03 -0.13092100330E+04 -0.78871717771E+03  0.16743811677E+04  0.46999998093E+01 0. -1.
</event>
<event>
 5   0  0.1054384E-06  0.3006105E+04  0.7818609E-02  0.8241990E-01
       -1   -1    0    0    0  501  0.00000000000E+00  0.00000000000E+00  0.17667548530E+04  0.17667548530E+04  0.50400001928E-02 0. -1.
        1   -1    0    0  501    0  0.00000000000E+00  0.00000000000E+00 -0.12787098288E+04  0.12787098288E+04  0.50400001928E-02 0.  1.
    10030    2    1    2    0    0  0.00000000000E+00  0.00000000000E+00  0.48804502419E+03  0.30454646818E+04  0.30061049853E+04 0.  0.
        2    1    3    3  502    0 -0.13505114333E+04 -0.40039121585E+03  0.77526656943E+03  0.16078658249E+04  0.25500000920E-02 0. -1.
       -2    1    3    3    0  502  0.13505114333E+04  0.40039121585E+03 -0.28722154525E+03  0.14375988569E+04  0.25500000920E-02 0.  1.
</event>
<event>
 5   0  0.2985941E-06  0.3038918E+04  0.7818609E-02  0.8232704E-01
       -2   -1    0    0    0  501  0.00000000000E+00  0.00000000000E+00  0.14698884223E+04  0.14698884223E+04  0.25500000920E-02 0.  1.
        2   -1    0    0  501    0  0.00000000000E+00  0.00000000000E+00 -0.15707014904E+04  0.15707014904E+04  0.25500000920E-02 0. -1.
    10030    2    1    2    0    0  0.00000000000E+00  0.00000000000E+00 -0.10081306812E+03  0.30405899127E+04  0.30389181862E+04 0.  0.
        3    1    3    3  502    0 -0.49329087394E+03  0.10850826420E+04 -0.99327077301E+03  0.15515563364E+04  0.10100000352E+00 0. -1.
       -3    1    3    3    0  502  0.49329087394E+03 -0.10850826420E+04  0.89245770489E+03  0.14890335763E+04  0.10100000352E+00 0.  1.
</event>
<event>
 5   0  0.2970915E-06  0.2989761E+04  0.7818609E-02  0.8246661E-01
       -2   -1    0    0    0  501  0.00000000000E+00  0.00000000000E+00  0.12385353488E+04  0.12385353488E+04  0.25500000920E-02 0.  1.
        2   -1    0    0  501    0  0.00000000000E+00  0.00000000000E+00 -0.18042829906E+04  0.18042829906E+04  0.25500000920E-02 0. -1.
    10030    2    1    2    0    0  0.00000000000E+00  0.00000000000E+00 -0.56574764178E+03  0.30428183394E+04  0.29897613705E+04 0.  0.
        4    1    3    3  502    0 -0.65887289781E+03  0.21644461283E+03  0.10649022911E+04  0.12708187394E+04  0.12699999809E+01 0.  1.
       -4    1    3    3    0  502  0.65887289781E+03 -0.21644461283E+03 -0.16306499329E+04  0.17719996000E+04  0.12699999809E+01 0. -1.
</event>
<event>
 5   0  0.9749500E-07  0.3000999E+04  0.7818609E-02  0.8243446E-01
        3   -1    0    0  501    0  0.00000000000E+00  0.00000000000E+00  0.10361651360E+04  0.10361651409E+04  0.10100000352E+00 0. -1.
       -3   -1    0    0    0  501  0.00000000000E+00  0.00000000000E+00 -0.21729144346E+04  0.21729144369E+04  0.10100000352E+00 0.  1.
    10030    2    1    2    0    0  0.00000000000E+00  0.00000000000E+00 -0.11367492986E+04  0.32090795778E+04  0.30009986286E+04 0.  0.
        3    1    3    3  502    0 -0.11997592214E+04  0.13502059775E+03  0.38438348325E+03  0.12670451545E+04  0.10100000352E+00 0. -1.
       -3    1    3    3    0  502  0.11997592214E+04 -0.13502059775E+03 -0.15211327818E+04  0.19420344233E+04  0.10100000352E+00 0.  1.
</event>
<event>
 5   0  0.2985941E-06  0.2800967E+04  0.7818609E-02  0.8302968E-01
        2   -1    0    0  501    0  0.00000000000E+00  0.00000000000E+00  0.20128208715E+04  0.20128208715E+04  0.25500000920E-02 0.  1.
       -2   -1    0    0    0  501  0.00000000000E+00  0.00000000000E+00 -0.97443026924E+03  0.97443026924E+03  0.25500000920E-02 0. -1.
    10030    2    1    2    0    0  0.00000000000E+00  0.00000000000E+00  0.10383906023E+04  0.29872511407E+04  0.28009666787E+04 0.  0.
        3    1    3    3  502    0 -0.68792404043E+03 -0.50186891068E+03 -0.66661572707E+03  0.10814288819E+04  0.10100000352E+00 0. -1.
       -3    1    3    3    0  502  0.68792404043E+03  0.50186891068E+03  0.17050063293E+04  0.19058222588E+04  0.10100000352E+00 0.  1.
</event>
<event>
 5   0  0.2970915E-06  0.3003005E+04  0.7818609E-02  0.8242873E-01
       -2   -1    0    0    0  501  0.00000000000E+00  0.00000000000E+00  0.10664234024E+04  0.10664234025E+04  0.25500000920E-02 0. -1.
        2   -1    0    0  501    0  0.00000000000E+00  0.00000000000E+00 -0.21140857036E+04  0.21140857036E+04  0.25500000920E-02 0.  1.
    10030    2    1    2    0    0  0.00000000000E+00  0.00000000000E+00 -0.10476623011E+04  0.31805091060E+04  0.30030054739E+04 0.  0.
        4    1    3    3  502    0 -0.41357925265E+03 -0.70421914853E+03  0.81061905248E+03  0.11506855646E+04  0.12699999809E+01 0. -1.
       -4    1    3    3    0  502  0.41357925265E+03  0.70421914853E+03 -0.18582813536E+04  0.20298235414E+04  0.12699999809E+01 0.  1.
</event>
<event>
 5   0  0.3113328E-06  0.3000777E+04  0.7818609E-02  0.8243509E-01
       -2   -1    0    0    0  501  0.00000000000E+00  0.00000000000E+00  0.12760620671E+04  0.12760620671E+04  0.25500000920E-02 0. -1.
        2   -1    0    0  501    0  0.00000000000E+00  0.00000000000E+00 -0.17641506823E+04  0.17641506823E+04  0.25500000920E-02 0.  1.
    10030    2    1    2    0    0  0.00000000000E+00  0.00000000000E+00 -0.48808861515E+03  0.30402127494E+04  0.30007770769E+04 0.  0.
        1    1    3    3  502    0  0.52622580503E+03  0.70342755020E+03 -0.14763520930E+04  0.17179462793E+04  0.50400001928E-02 0.  1.
       -1    1    3    3    0  502 -0.52622580503E+03 -0.70342755020E+03  0.98826347781E+03  0.13222664701E+04  0.50400001928E-02 0. -1.
</event>
<event>
 5   0  0.1097402E-06  0.3014883E+04  0.7818609E-02  0.8239494E-01
        1   -1    0    0  501    0  0.00000000000E+00  0.00000000000E+00  0.20254491438E+04  0.20254491438E+04  0.50400001928E-02 0.  1.
       -1   -1    0    0    0  501  0.00000000000E+00  0.00000000000E+00 -0.11219141178E+04  0.11219141178E+04  0.50400001928E-02 0. -1.
    10030    2    1    2    0    0  0.00000000000E+00  0.00000000000E+00  0.90353502596E+03  0.31473632616E+04  0.30148830752E+04 0.  0.
        4    1    3    3  502    0  0.97650727323E+03 -0.11056543679E+04  0.12774104569E+03  0.14806611440E+04  0.12699999809E+01 0. -1.
       -4    1    3    3    0  502 -0.97650727323E+03  0.11056543679E+04  0.77579398027E+03  0.16667021175E+04  0.12699999809E+01 0.  1.
</event>
<event>
 5   0  0.2985941E-06  0.2996126E+04  0.7818609E-02  0.8244838E-01
        2   -1    0    0  501    0  0.00000000000E+00  0.00000000000E+00  0.13844216459E+04  0.13844216459E+04  0.25500000920E-02 0. -1.
       -2   -1    0    0    0  501  0.00000000000E+00  0.00000000000E+00 -0.16210324107E+04  0.16210324107E+04  0.25500000920E-02 0.  1.
    10030    2    1    2    0    0  0.00000000000E+00  0.00000000000E+00 -0.23661076474E+03  0.30054540566E+04  0.29961257371E+04 0.  0.
        3    1    3    3  502    0  0.33862149774E+03  0.92300406540E+03  0.10155196348E+04  0.14134642416E+04  0.10100000352E+00 0. -1.
       -3    1    3    3    0  502 -0.33862149774E+03 -0.92300406540E+03 -0.12521303995E+04  0.15919898150E+04  0.10100000352E+00 0.  1.
</event>
<event>
 5   0  0.2948711E-06  0.2991075E+04  0.7818609E-02  0.8246284E-01
       -2   -1    0    0    0  501  0.00000000000E+00  0.00000000000E+00  0.11803794644E+04  0.11803794644E+04  0.25500000920E-02 0. -1.
        2   -1    0    0  501    0  0.00000000000E+00  0.00000000000E+00 -0.18948414997E+04  0.18948414997E+04  0.25500000920E-02 0.  1.
    10030    2    1    2    0    0  0.00000000000E+00  0.00000000000E+00 -0.71446203534E+03  0.30752209641E+04  0.29910747196E+04 0.  0.
        5    1    3    3  502    0 -0.54658345210E+03 -0.13903550987E+04 -0.42823273171E+03  0.15541062168E+04  0.46999998093E+01 0.  1.
       -5    1    3    3    0  502  0.54658345210E+03  0.13903550987E+04 -0.28622930363E+03  0.15211147474E+04  0.46999998093E+01 0. -1.
</event>
<event>
 5   0  0.1091076E-06  0.2990599E+04  0.7818609E-02  0.8246421E-01
       -1   -1    0    0    0  501  0.00000000000E+00  0.00000000000E+00  0.10293005882E+04  0.10293005882E+04  0.50400001928E-02 0. -1.
        1   -1    0    0  501    0  0.00000000000E+00  0.00000000000E+00 -0.21722714933E+04  0.21722714933E+04  0.50400001928E-02 0.  1.
    10030    2    1    2    0    0  0.00000000000E+00  0.00000000000E+00 -0.11429709051E+04  0.32015720815E+04  0.29905988201E+04 0.  0.
        3    1    3    3  502    0 -0.52772903272E+03 -0.57635895763E+03 -0.19362662621E+04  0.20880169128E+04  0.10100000352E+00 0.  1.
       -3    1    3    3    0  502  0.52772903272E+03  0.57635895763E+03  0.79329535703E+03  0.11135551687E+04  0.10100000352E+00 0. -1.
</event>
<event>
 5   0  0.1097402E-06  0.2952865E+04  0.7818609E-02  0.8257320E-01
       -1   -1    0    0    0  501  0.00000000000E+00  0.00000000000E+00  0.14955390183E+04  0.14955390183E+04  0.50400001928E-02 0.  1.
        1   -1    0    0  501    0  0.00000000000E+00  0.00000000000E+00 -0.14575704663E+04  0.14575704663E+04  0.50400001928E-02 0. -1.
    10030    2    1    2    0    0  0.00000000000E+00  0.00000000000E+00  0.37968552012E+02  0.29531094846E+04  0.29528653910E+04 0.  0.
        4    1    3    3  502    0  0.13946309808E+02 -0.96447833477E+02 -0.14543500512E+04  0.14576118717E+04  0.12699999809E+01 0. -1.
       -4    1    3    3    0  502 -0.13946309808E+02  0.96447833477E+02  0.14923186032E+04  0.14954976130E+04  0.12699999809E+01 0.  1.
</event>
<event>
 5   0  0.2970915E-06  0.2984679E+04  0.7818609E-02  0.8248119E-01
       -2   -1    0    0    0  501  0.00000000000E+00  0.00000000000E+00  0.10087780179E+04  0.10087780179E+04  0.25500000920E-02 0.  1.
        2   -1    0    0  501    0  0.00000000000E+00  0.00000000000E+00 -0.22076979076E+04  0.22076979076E+04  0.25500000920E-02 0. -1.
    10030    2    1    2    0    0  0.00000000000E+00  0.00000000000E+00 -0.11989198897E+04  0.32164759256E+04  0.29846789572E+04 0.  0.
        4    1    3    3  502    0  0.40509030991E+03 -0.64108014718E+03 -0.19845782243E+04  0.21245315379E+04  0.12699999809E+01 0. -1.
       -4    1    3    3    0  502 -0.40509030991E+03  0.64108014718E+03  0.78565833455E+03  0.10919443877E+04  0.12699999809E+01 0.  1.
</event>
<event>
 5   0  0.1091076E-06  0.3004750E+04  0.7818609E-02  0.8242376E-01
       -1   -1    0    0    0  501  0.00000000000E+00  0.00000000000E+00  0.15658117072E+04  0.15658117072E+04  0.50400001928E-02 0. -1.
        1   -1    0    0  501    0  0.00000000000E+00  0.00000000000E+00 -0.14415082867E+04  0.14415082867E+04  0.50400001928E-02 0.  1.
    10030    2    1    2    0    0  0.00000000000E+00  0.00000000000E+00  0.12430342048E+03  0.30073199939E+04  0.30047499406E+04 0.  0.
        3    1    3    3  502    0  0.68812193139E+03 -0.12617250957E+03  0.13928374255E+04  0.15586620541E+04  0.10100000352E+00 0. -1.
       -3    1    3    3    0  502 -0.68812193139E+03  0.12617250957E+03 -0.12685340050E+04  0.14486579399E+04  0.10100000352E+00 0.  1.
</event>
<event>
 5   0  0.2948711E-06  0.3073092E+04  0.7818609E-02  0.8223162E-01
        2   -1    0    0  501    0  0.00000000000E+00  0.00000000000E+00  0.16227111141E+04  0.16227111141E+04  0.25500000920E-02 0.  1.
       -2   -1    0    0    0  501  0.00000000000E+00  0.00000000000E+00 -0.14549558349E+04  0.14549558349E+04  0.25500000920E-02 0. -1.
    10030    2    1    2    0    0  0.00000000000E+00  0.00000000000E+00  0.16775527927E+03  0.30776669490E+04  0.30730916054E+04 0.  0.
        5    1    3    3  502    0 -0.11154862982E+04 -0.97260928678E+03 -0.32986260961E+03  0.15162816155E+04  0.46999998093E+01 0.  1.
       -5    1    3    3    0  502  0.11154862982E+04  0.97260928678E+03  0.49761788888E+03  0.15613853335E+04  0.46999998093E+01 0. -1.
</event>
<event>
 5   0  0.2862033E-06  0.3057208E+04  0.7818609E-02  0.8227581E-01
        2   -1    0    0  501    0  0.00000000000E+00  0.00000000000E+00  0.26662101603E+04  0.26662101603E+04  0.25500000920E-02 0.  1.
       -2   -1    0    0    0  501  0.00000000000E+00  0.00000000000E+00 -0.87638650256E+03  0.87638650257E+03  0.25500000920E-02 0. -1.
    10030    2    1    2    0    0  0.00000000000E+00  0.00000000000E+00  0.17898236578E+04  0.35425966629E+04  0.30572082674E+04 0.  0.
        2    1    3    3  502    0 -0.11351600106E+04 -0.82699880803E+03  0.15941355600E+04  0.21245666527E+04  0.25500000920E-02 0.  1.
       -2    1    3    3    0  502  0.11351600106E+04  0.82699880803E+03  0.19568809771E+03  0.14180300102E+04  0.25500000920E-02 0. -1.
</event>
<event>
 5   0  0.2948711E-06  0.3020507E+04  0.7818609E-02  0.8237899E-01
        2   -1    0    0  501    0  0.00000000000E+00  0.00000000000E+00  0.13154285228E+04  0.13154285228E+04  0.25500000920E-02 0.  1.
       -2   -1    0    0    0  501  0.00000000000E+00  0.00000000000E+00 -0.17339333875E+04  0.17339333875E+04  0.25500000920E-02 0. -1.
    10030    2    1    2    0    0  0.00000000000E+00  0.00000000000E+00 -0.41850486468E+03  0.30493619102E+04  0.30205068677E+04 0.  0.
        5    1    3    3  502    0 -0.14108776090E+04 -0.42110529799E+03  0.13002055003E+03  0.14781179699E+04  0.46999998093E+01 0. -1.
       -5    1    3    3    0  502  0.14108776090E+04  0.42110529799E+03 -0.54852541471E+03  0.15712439403E+04  0.46999998093E+01 0.  1.
</event>
<event>
 5   0  0.1113245E-06  0.2881577E+04  0.7818609E-02  0.8278380E-01
       -1   -1    0    0    0  501  0.00000000000E+00  0.00000000000E+00  0.14532429306E+04  0.14532429306E+04  0.50400001928E-02 0. -1.
        1   -1    0    0  501    0  0.00000000000E+00  0.00000000000E+00 -0.14284411126E+04  0.14284411127E+04  0.50400001928E-02 0.  1.
    10030    2    1    2    0    0  0.00000000000E+00  0.00000000000E+00  0.24801817928E+02  0.28816840432E+04  0.28815773102E+04 0.  0.
        5    1    3    3  502    0  0.18222668117E+03  0.10998963768E+04 -0.90025069791E+03  0.14329870942E+04  0.46999998093E+01 0.  1.
       -5    1    3    3    0  502 -0.18222668117E+03 -0.10998963768E+04  0.92505251583E+03  0.14486969490E+04  0.46999998093E+01 0. -1.
</event>
<event>
 5   0  0.1097402E-06  0.2997607E+04  0.7818609E-02  0.8244415E-01
       -1   -1    0    0    0  501  0.00000000000E+00  0.00000000000E+00  0.12936049118E+04  0.12936049118E+04  0.50400001928E-02 0. -1.
        1   -1    0    0  501    0  0.00000000000E+00  0.00000000000E+00 -0.17365515610E+04  0.17365515610E+04  0.50400001928E-02 0.  1.
    10030    2    1    2    0    0  0.00000000000E+00  0.00000000000E+00 -0.44294664920E+03  0.30301564728E+04  0.29976067980E+04 0.  0.
        4    1    3    3  502    0  0.12072501804E+04 -0.35528423749E+03  0.60144881706E+03  0.13947839188E+04  0.12699999809E+01 0. -1.
       -4    1    3    3    0  502 -0.12072501804E+04  0.35528423749E+03 -0.10443954663E+04  0.16353725540E+04  0.12699999809E+01 0.  1.
</event>
<event>
 5   0  0.2985941E-06  0.2994427E+04  0.7818609E-02  0.8245324E-01
       -2   -1    0    0    0  501  0.00000000000E+00  0.00000000000E+00  0.11698529913E+04  0.11698529913E+04  0.25500000920E-02 0. -1.
        2   -1    0    0  501    0  0.00000000000E+00  0.00000000000E+00 -0.19161797055E+04  0.19161797055E+04  0.25500000920E-02 0.  1.
    10030    2    1    2    0    0  0.00000000000E+00  0.00000000000E+00 -0.74632671418E+03  0.30860326968E+04  0.29944271976E+04 0.  0.
        3    1    3    3  502    0 -0.12934021337E+04  0.21347728973E+02  0.40375793444E+03  0.13551255606E+04  0.10100000352E+00 0. -1.
       -3    1    3    3    0  502  0.12934021337E+04 -0.21347728973E+02 -0.11500846486E+04  0.17309071362E+04  0.10100000352E+00 0.  1.
</event>
<event>
 5   0  0.1054384E-06  0.2999705E+04  0.7818609E-02  0.8243815E-01
       -1   -1    0    0    0  501  0.00000000000E+00  0.00000000000E+00  0.11395351424E+04  0.11395351425E+04  0.50400001928E-02 0.  1.
        1   -1    0    0  501    0  0.00000000000E+00  0.00000000000E+00 -0.19741010435E+04  0.19741010435E+04  0.50400001928E-02 0. -1.
    10030    2    1    2    0    0  0.00000000000E+00  0.00000000000E+00 -0.83456590106E+03  0.31136361860E+04  0.29997049947E+04 0.  0.
        2    1    3    3  502    0 -0.11895667153E+04 -0.81208696843E+03  0.16939664154E+02  0.14404308961E+04  0.25500000920E-02 0.  1.
       -2    1    3    3    0  502  0.11895667153E+04  0.81208696843E+03 -0.85150556522E+03  0.16732052898E+04  0.25500000920E-02 0. -1.
</event>
<event>
 5   0  0.2970915E-06  0.3058722E+04  0.7818609E-02  0.8227158E-01
        2   -1    0    0  501    0  0.00000000000E+00  0.00000000000E+00  0.22860492464E+04  0.22860492464E+04  0.25500000920E-02 0. -1.
       -2   -1    0    0    0  501  0.00000000000E+00  0.00000000000E+00 -0.10231387120E+04  0.10231387120E+04  0.25500000920E-02 0.  1.
    10030    2    1    2    0    0  0.00000000000E+00  0.00000000000E+00  0.12629105344E+04  0.33091879583E+04  0.30587222701E+04 0.  0.
        4    1    3    3  502    0 -0.87333116572E+03 -0.11070518258E+04 -0.92118438206E+01  0.14100913236E+04  0.12699999809E+01 0.  1.
       -4    1    3    3    0  502  0.87333116572E+03  0.11070518258E+04  0.12721223782E+04  0.18990966347E+04  0.12699999809E+01 0. -1.
</event>
<event>
 5   0  0.1097402E-06  0.3019969E+04  0.7818609E-02  0.8238051E-01
        1   -1    0    0  501    0  0.00000000000E+00  0.00000000000E+00  0.18693534681E+04  0.18693534681E+04  0.50400001928E-02 0. -1.
       -1   -1    0    0    0  501  0.00000000000E+00  0.00000000000E+00 -0.12197018417E+04  0.12197018417E+04  0.50400001928E-02 0.  1.
    10030    2    1    2    0    0  0.00000000000E+00  0.00000000000E+00  0.64965162643E+03  0.30890553097E+04  0.30199694487E+04 0.  0.
        4    1    3    3  502    0 -0.61994805382E+03  0.11471875182E+04  0.11036085987E+04  0.17083115475E+04  0.12699999809E+01 0. -1.
       -4    1    3    3    0  502  0.61994805382E+03 -0.11471875182E+04 -0.45395697224E+03  0.13807437622E+04  0.12699999809E+01 0.  1.
</event>
<event>
 5   0  0.1091075E-06  0.2991435E+04  0.7818609E-02  0.8246181E-01
       -1   -1    0    0    0  501  0.00000000000E+00  0.00000000000E+00  0.15487674465E+04  0.15487674465E+04  0.50400001928E-02 0.  1.
        1   -1    0    0  501    0  0.00000000000E+00  0.00000000000E+00 -0.14444850035E+04  0.14444850035E+04  0.50400001928E-02 0. -1.
    10030    2    1    2    0    0  0.00000000000E+00  0.00000000000E+00  0.10428244295E+03  0.29932524500E+04  0.29914353414E+04 0.  0.
        1    1    3    3  502    0 -0.75305586077E+03 -0.28404988837E+02  0.13449288870E+04  0.15416658795E+04  0.50400001928E-02 0.  1.
       -1    1    3    3    0  502  0.75305586077E+03  0.28404988837E+02 -0.12406464440E+04  0.14515865706E+04  0.50400001928E-02 0. -1.
</event>
<event>
 5   0  0.1113245E-06  0.3049326E+04  0.7818609E-02  0.8229784E-01
       -1   -1    0    0    0  501  0.00000000000E+00  0.00000000000E+00  0.16469424182E+04  0.16469424182E+04  0.50400001928E-02 0.  1.
        1   -1    0    0  501    0  0.00000000000E+00  0.00000000000E+00 -0.14114623511E+04  0.14114623511E+04  0.50400001928E-02 0. -1.
    10030    2    1    2    0    0  0.00000000000E+00  0.00000000000E+00  0.23548006703E+03  0.30584047693E+04  0.30493259699E+04 0.  0.
        5    1    3    3  502    0 -0.36957478216E+03 -0.13932433515E+04  0.61607198556E+03  0.15675711587E+04  0.46999998093E+01 0.  1.
       -5    1    3    3    0  502  0.36957478216E+03  0.13932433515E+04 -0.38059191853E+03  0.14908336106E+04  0.46999998093E+01 0. -1.
</event>
<event>
 5   0  0.1091076E-06  0.3002432E+04  0.7818609E-02  0.8243037E-01
       -1   -1    0    0    0  501  0.00000000000E+00  0.00000000000E+00  0.19693921524E+04  0.19693921524E+04  0.50400001928E-02 0. -1.
        1   -1    0    0  501    0  0.00000000000E+00  0.00000000000E+00 -0.11443374114E+04  0.11443374114E+04  0.50400001928E-02 0.  1.
    10030    2    1    2    0    0  0.00000000000E+00  0.00000000000E+00  0.82505474092E+03  0.31137295638E+04  0.30024317596E+04 0.  0.
        3    1    3    3  502    0  0.14352824560E+04  0.19971726340E+03  0.59137105708E+01  0.14491230783E+04  0.10100000352E+00 0.  1.
       -3    1    3    3    0  502 -0.14352824560E+04 -0.19971726340E+03  0.81914103035E+03  0.16646064855E+04  0.10100000352E+00 0. -1.
</event>
<event>
 5   0  0.2862033E-06  0.3002971E+04  0.7818609E-02  0.8242883E-01
        2   -1    0    0  501    0  0.00000000000E+00  0.00000000000E+00  0.12057829744E+04  0.12057829744E+04  0.25500000920E-02 0.  1.
       -2   -1    0    0    0  501  0.00000000000E+00  0.00000000000E+00 -0.18697056612E+04  0.18697056612E+04  0.25500000920E-02 0. -1.
    10030    2    1    2    0    0  0.00000000000E+00  0.00000000000E+00 -0.66392268681E+03  0.30754886356E+04  0.30029713641E+04 0.  0.
        2    1    3    3  502    0 -0.56160314666E+03  0.29059592953E+03 -0.17266903689E+04  0.18388321616E+04  0.25500000920E-02 0. -1.
       -2    1    3    3    0  502  0.56160314666E+03 -0.29059592953E+03  0.10627676821E+04  0.12366564740E+04  0.25500000920E-02 0.  1.
</event>
<event>
 5   0  0.1097402E-06  0.2984509E+04  0.7818609E-02  0.8248168E-01
       -1   -1    0    0    0  501  0.00000000000E+00  0.00000000000E+00  0.10877572981E+04  0.10877572981E+04  0.50400001928E-02 0. -1.
        1   -1    0    0  501    0  0.00000000000E+00  0.00000000000E+00 -0.20471697531E+04  0.20471697531E+04  0.50400001928E-02 0.  1.
    10030    2    1    2    0    0  0.00000000000E+00  0.00000000000E+00 -0.95941245498E+03  0.31349270512E+04  0.29845092323E+04 0.  0.
        4    1    3    3  502    0 -0.88540330031E+03 -0.59467754051E+03 -0.15759740609E+04  0.19029651166E+04  0.12699999809E+01 0. -1.
       -4    1    3    3    0  502  0.88540330031E+03  0.59467754051E+03  0.61656160596E+03  0.12319619346E+04  0.12699999809E+01 0.  1.
</event>
<event>
 5   0  0.2948711E-06  0.2987604E+04  0.7818609E-02  0.8247280E-01
        2   -1    0    0  501    0  0.00000000000E+00  0.00000000000E+00  0.16597661815E+04  0.16597661815E+04  0.25500000920E-02 0.  1.
       -2   -1    0    0    0  501  0.00000000000E+00  0.00000000000E+00 -0.13444326862E+04  0.13444326862E+04  0.25500000920E-02 0. -1.
    10030    2    1    2    0    0  0.00000000000E+00  0.00000000000E+00  0.31533349528E+03  0.30041988677E+04  0.29876036591E+04 0.  0.
        5    1    3    3  502    0  0.11675844620E+04 -0.33042284357E+03  0.10337057874E+04  0.15940522188E+04  0.46999998093E+01 0.  1.
       -5    1    3    3    0  502 -0.11675844620E+04  0.33042284357E+03 -0.71837229216E+03  0.14101466489E+04  0.46999998093E+01 0. -1.
</event>
<event>
 5   0  0.2970915E-06  0.2996383E+04  0.7818609E-02  0.8244764E-01
       -2   -1    0    0    0  501  0.00000000000E+00  0.00000000000E+00  0.10864053977E+04  0.10864053977E+04  0.25500000920E-02 0. -1.
        2   -1    0    0  501    0  0.00000000000E+00  0.00000000000E+00 -0.20660591431E+04  0.20660591431E+04  0.25500000920E-02 0.  1.
    10030    2    1    2    0    0  0.00000000000E+00  0.00000000000E+00 -0.97965374540E+03  0.31524645408E+04  0.29963830229E+04 0.  0.
        4    1    3    3  502    0  0.97578197280E+03  0.20693302859E+03  0.68625935694E+03  0.12107540025E+04  0.12699999809E+01 0. -1.
       -4    1    3    3    0  502 -0.97578197280E+03 -0.20693302859E+03 -0.16659131023E+04  0.19417105382E+04  0.12699999809E+01 0.  1.
</event>
<event>
 5   0  0.1091075E-06  0.3010126E+04  0.7818609E-02  0.8240845E-01
       -1   -1    0    0    0  501  0.00000000000E+00  0.00000000000E+00  0.16121521817E+04  0.16121521817E+04  0.50400001928E-02 0. -1.
        1   -1    0    0  501    0  0.00000000000E+00  0.00000000000E+00 -0.14050877638E+04  0.14050877638E+04  0.50400001928E-02 0.  1.
    10030    2    1    2    0    0  0.00000000000E+00  0.00000000000E+00  0.20706441793E+03  0.30172399455E+04  0.30101264451E+04 0.  0.
        1    1    3    3  502    0  0.96596783249E+03  0.73748179724E+03 -0.78639586821E+03  0.14475467924E+04  0.50400001928E-02 0.  1.
       -1    1    3    3    0  502 -0.96596783249E+03 -0.73748179724E+03  0.99346028614E+03  0.15696931531E+04  0.50400001928E-02 0. -1.
</event>
<event>
 5   0  0.2948711E-06  0.2996895E+04  0.7818609E-02  0.8244618E-01
        2   -1    0    0  501    0  0.00000000000E+00  0.00000000000E+00  0.96425993638E+03  0.96425993638E+03  0.25500000920E-02 0.  1.
       -2   -1    0    0    0  501  0.00000000000E+00  0.00000000000E+00 -0.23285685204E+04  0.23285685204E+04  0.25500000920E-02 0. -1.
    10030    2    1    2    0    0  0.00000000000E+00  0.00000000000E+00 -0.13643085840E+04  0.32928284568E+04  0.29968952824E+04 0.  0.
        5    1    3    3  502    0  0.64010205106E+03 -0.85443210734E+03 -0.18374268321E+04  0.21250751316E+04  0.46999998093E+01 0. -1.
       -5    1    3    3    0  502 -0.64010205106E+03  0.85443210734E+03  0.47311824805E+03  0.11677533252E+04  0.46999998093E+01 0.  1.
</event>
<event>
 5   0  0.3113328E-06  0.2893279E+04  0.7818609E-02  0.8274880E-01
       -2   -1    0    0    0  501  0.00000000000E+00  0.00000000000E+00  0.10834838899E+04  0.10834838899E+04  0.25500000920E-02 0.  1.
        2   -1    0    0  501    0  0.00000000000E+00  0.00000000000E+00 -0.19315148317E+04  0.19315148317E+04  0.25500000920E-02 0. -1.
    10030    2    1    2    0    0  0.00000000000E+00  0.00000000000E+00 -0.84803094174E+03  0.30149987216E+04  0.28932785578E+04 0.  0.
        1    1    3    3  502    0  0.13731494383E+04  0.28249757987E+02  0.49441973044E+02  0.13743296320E+04  0.50400001928E-02 0.  1.
       -1    1    3    3    0  502 -0.13731494383E+04 -0.28249757987E+02 -0.89747291479E+03  0.16406690896E+04  0.50400001928E-02 0. -1.
</event>
<event>
 5   0  0.2985941E-06  0.3046081E+04  0.7818609E-02  0.8230693E-01
       -2   -1    0    0    0  501  0.00000000000E+00  0.00000000000E+00  0.15266727760E+04  0.15266727760E+04  0.25500000920E-02 0.  1.
        2   -1    0    0  501    0  0.00000000000E+00  0.00000000000E+00 -0.15194164933E+04  0.15194164933E+04  0.25500000920E-02 0. -1.
    10030    2    1    2    0    0  0.00000000000E+00  0.00000000000E+00  0.72562826669E+01  0.30460892693E+04  0.30460806265E+04 0.  0.
        3    1    3    3  502    0  0.92639610751E+03  0.78895054858E+03 -0.91234338144E+03  0.15208626407E+04  0.10100000352E+00 0.  1.
       -3    1    3    3    0  502 -0.92639610751E+03 -0.78895054858E+03  0.91959966411E+03  0.15252266286E+04  0.10100000352E+00 0. -1.
</event>
<event>
 5   0  0.1091075E-06  0.2990412E+04  0.7818609E-02  0.8246474E-01
       -1   -1    0    0    0  501  0.00000000000E+00  0.00000000000E+00  0.12313011104E+04  0.12313011104E+04  0.50400001928E-02 0. -1.
        1   -1    0    0  501    0  0.00000000000E+00  0.00000000000E+00 -0.18156734750E+04  0.18156734750E+04  0.50400001928E-02 0.  1.
    10030    2    1    2    0    0  0.00000000000E+00  0.00000000000E+00 -0.58437236456E+03  0.30469745854E+04  0.29904118552E+04 0.  0.
        1    1    3    3  502    0  0.35048912758E+03  0.12325731059E+04  0.49281579783E+03  0.13729335383E+04  0.50400001928E-02 0. -1.
       -1    1    3    3    0  502 -0.35048912758E+03 -0.12325731059E+04 -0.10771881624E+04  0.16740410471E+04  0.50400001928E-02 0.  1.
</event>
<event>
 5   0  0.1054384E-06  0.2974459E+04  0.7818609E-02  0.8251062E-01
        1   -1    0    0  501    0  0.00000000000E+00  0.00000000000E+00  0.90032363147E+03  0.90032363148E+03  0.50400001928E-02 0.  1.
       -1   -1    0    0    0  501  0.00000000000E+00  0.00000000000E+00 -0.24567297381E+04  0.24567297381E+04  0.50400001928E-02 0. -1.
    10030    2    1    2    0    0  0.00000000000E+00  0.00000000000E+00 -0.15564061067E+04  0.33570533696E+04  0.29744591706E+04 0.  0.
        2    1    3    3  502    0 -0.81618026957E+03  0.10787767581E+04 -0.80695169636E+02  0.13551462049E+04  0.25500000920E-02 0.  1.
       -2    1    3    3    0  502  0.81618026957E+03 -0.10787767581E+04 -0.14757109370E+04  0.20019071647E+04  0.25500000920E-02 0. -1.
</event>
<event>
 5   0  0.3113328E-06  0.2752960E+04  0.7818609E-02  0.8318023E-01
        2   -1    0    0  501    0  0.00000000000E+00  0.00000000000E+00  0.19831332742E+04  0.19831332742E+04  0.25500000920E-02 0. -1.
       -2   -1    0    0    0  501  0.00000000000E+00  0.00000000000E+00 -0.95540587853E+03  0.95540587853E+03  0.25500000920E-02 0.  1.
    10030    2    1    2    0    0  0.00000000000E+00  0.00000000000E+00  0.10277273957E+04  0.29385391528E+04  0.27529599983E+04 0.  0.
        1    1    3    3  502    0 -0.92920970151E+03 -0.15555640232E+03 -0.55731304542E+03  0.10946352334E+04  0.50400001928E-02 0.  1.
       -1    1    3    3    0  502  0.92920970151E+03  0.15555640232E+03  0.15850404411E+04  0.18439039193E+04  0.50400001928E-02 0. -1.
</event>
<event>
 5   0  0.2985941E-06  0.2995438E+04  0.7818609E-02  0.8245035E-01
        2   -1    0    0  501    0  0.00000000000E+00  0.00000000000E+00  0.10004545891E+04  0.10004545891E+04  0.25500000920E-02 0. -1.
       -2   -1    0    0    0  501  0.00000000000E+00  0.00000000000E+00 -0.22421427465E+04  0.22421427465E+04  0.25500000920E-02 0.  1.
    10030    2    1    2    0    0  0.00000000000E+00  0.00000000000E+00 -0.12416881574E+04  0.32425973357E+04  0.29954378647E+04 0.  0.
        3    1    3    3  502    0  0.10281798736E+04 -0.91787108326E+03  0.13623205750E+02  0.13783420402E+04  0.10100000352E+00 0. -1.
       -3    1    3    3    0  502 -0.10281798736E+04  0.91787108326E+03 -0.12553113631E+04  0.18642552954E+04  0.10100000352E+00 0.  1.
</event>
<event>
 5   0  0.1113245E-06  0.3001628E+04  0.7818609E-02  0.8243266E-01
        1   -1    0    0  501    0  0.00000000000E+00  0.00000000000E+00  0.23432151394E+04  0.23432151394E+04  0.50400001928E-02 0.  1.
       -1   -1    0    0    0  501  0.00000000000E+00  0.00000000000E+00 -0.96126133998E+03  0.96126133999E+03  0.50400001928E-02 0. -1.
    10030    2    1    2    0    0  0.00000000000E+00  0.00000000000E+00  0.13819537994E+04  0.33044764794E+04  0.30016276417E+04 0.  0.
        5    1    3    3  502    0 -0.13315135997E+04  0.51502485578E+03  0.18141481189E+03  0.14391360228E+04  0.46999998093E+01 0.  1.
       -5    1    3    3    0  502  0.13315135997E+04 -0.51502485578E+03  0.12005389875E+04  0.18653404565E+04  0.46999998093E+01 0. -1.
</event>
<event>
 5   0  0.2985941E-06  0.3017940E+04  0.7818609E-02  0.8238627E-01
       -2   -1    0    0    0  501  0.00000000000E+00  0.00000000000E+00  0.11354462132E+04  0.11354462132E+04  0.25500000920E-02 0. -1.
        2   -1    0    0  501    0  0.00000000000E+00  0.00000000000E+00 -0.20053705733E+04  0.20053705733E+04  0.25500000920E-02 0.  1.
    10030    2    1    2    0    0  0.00000000000E+00  0.00000000000E+00 -0.86992436004E+03  0.31408167865E+04  0.30179399752E+04 0.  0.
        3    1    3    3  502    0 -0.93128621516E+03 -0.41756235717E+03 -0.15916733238E+04  0.18907872214E+04  0.10100000352E+00 0.  1.
       -3    1    3    3    0  502  0.93128621516E+03  0.41756235717E+03  0.72174896378E+03  0.12500295651E+04  0.10100000352E+00 0. -1.
</event>
<event>
 5   0  0.1097402E-06  0.2979589E+04  0.7818609E-02  0.8249583E-01
       -1   -1    0    0    0  501  0.00000000000E+00  0.00000000000E+00  0.97662307126E+03  0.97662307127E+03  0.50400001928E-02 0.  1.
        1   -1    0    0  501    0  0.00000000000E+00  0.00000000000E+00 -0.22726148266E+04  0.22726148266E+04  0.50400001928E-02 0. -1.
    10030    2    1    2    0    0  0.00000000000E+00  0.00000000000E+00 -0.12959917553E+04  0.32492378979E+04  0.29795892816E+04 0.  0.
        4    1    3    3  502    0  0.53186211132E+02 -0.47054614776E+03 -0.21883590061E+04  0.22390085312E+04  0.12699999809E+01 0. -1.
       -4    1    3    3    0  502 -0.53186211132E+02  0.47054614776E+03  0.89236725075E+03  0.10102293667E+04  0.12699999809E+01 0.  1.
</event>
<event>
 5   0  0.1097402E-06  0.3078874E+04  0.7818609E-02  0.8221560E-01
        1   -1    0    0  501    0  0.00000000000E+00  0.00000000000E+00  0.22315258009E+04  0.22315258009E+04  0.50400001928E-02 0.  1.
       -1   -1    0    0    0  501  0.00000000000E+00  0.00000000000E+00 -0.10619935225E+04  0.10619935225E+04  0.50400001928E-02 0. -1.
    10030    2    1    2    0    0  0.00000000000E+00  0.00000000000E+00  0.11695322784E+04  0.32935193234E+04  0.30788737849E+04 0.  0.
        4    1    3    3  502    0 -0.11481159944E+04 -0.57171308787E+03 -0.32596219644E+03  0.13233590435E+04  0.12699999809E+01 0. -1.
       -4    1    3    3    0  502  0.11481159944E+04  0.57171308787E+03  0.14954944748E+04  0.19701602799E+04  0.12699999809E+01 0.  1.
</event>
<event>
 5   0  0.2985941E-06  0.3027676E+04  0.7818609E-02  0.8235872E-01
       -2   -1    0    0    0  501  0.00000000000E+00  0.00000000000E+00  0.97853892366E+03  0.97853892366E+03  0.25500000920E-02 0.  1.
        2   -1    0    0  501    0  0.00000000000E+00  0.00000000000E+00 -0.23419669802E+04  0.23419669802E+04  0.25500000920E-02 0. -1.
    10030    2    1    2    0    0  0.00000000000E+00  0.00000000000E+00 -0.13634280565E+04  0.33205059038E+04  0.30276762363E+04 0.  0.
        3    1    3    3  502    0 -0.15929020790E+03  0.35807385177E+03 -0.22853670764E+04  0.23187265767E+04  0.10100000352E+00 0. -1.
       -3    1    3    3    0  502  0.15929020790E+03 -0.35807385177E+03  0.92193901987E+03  0.10017793271E+04  0.10100000352E+00 0.  1.
</event>
<event>
 5   0  0.1113245E-06  0.2954160E+04  0.7818609E-02  0.8256943E-01
        1   -1    0    0  501    0  0.00000000000E+00  0.00000000000E+00  0.14265964192E+04  0.14265964192E+04  0.50400001928E-02 0. -1.
       -1   -1    0    0    0  501  0.00000000000E+00  0.00000000000E+00 -0.15293501143E+04  0.15293501143E+04  0.50400001928E-02 0.  1.
    10030    2    1    2    0    0  0.00000000000E+00  0.00000000000E+00 -0.10275369508E+03  0.29559465334E+04  0.29541600476E+04 0.  0.
        5    1    3    3  502    0 -0.69900713669E+03 -0.11311184211E+04  0.59220994588E+03  0.14556011025E+04  0.46999998093E+01 0. -1.
       -5    1    3    3    0  502  0.69900713669E+03  0.11311184211E+04 -0.69496364096E+03  0.15003454309E+04  0.46999998093E+01 0.  1.
</event>
<event>
 5   0  0.1091075E-06  0.3026471E+04  0.7818609E-02  0.8236212E-01
        1   -1    0    0  501    0  0.00000000000E+00  0.00000000000E+00  0.32918514173E+04  0.32918514173E+04  0.50400001928E-02 0.  1.
       -1   -1    0    0    0  501  0.00000000000E+00  0.00000000000E+00 -0.69562132328E+03  0.69562132329E+03  0.50400001928E-02 0. -1.
    10030    2    1    2    0    0  0.00000000000E+00  0.00000000000E+00  0.25962300940E+04  0.39874727406E+04  0.30264712382E+04 0.  0.
        1    1    3    3  502    0 -0.10271622181E+04  0.11012886194E+04  0.11027681270E+04  0.18665466475E+04  0.50400001928E-02 0.  1.
       -1    1    3    3    0  502  0.10271622181E+04 -0.11012886194E+04  0.14934619671E+04  0.21209260931E+04  0.50400001928E-02 0. -1.
</event>
<event>
 5   0  0.1097402E-06  0.2997021E+04  0.7818609E-02  0.8244582E-01
        1   -1    0    0  501    0  0.00000000000E+00  0.00000000000E+00  0.20418076540E+04  0.20418076540E+04  0.50400001928E-02 0.  1.
       -1   -1    0    0    0  501  0.00000000000E+00  0.00000000000E+00 -0.10997775738E+04  0.10997775739E+04  0.50400001928E-02 0. -1.
    10030    2    1    2    0    0  0.00000000000E+00  0.00000000000E+00  0.94203008019E+03  0.31415852279E+04  0.29970213667E+04 0.  0.
        4    1    3    3  502    0  0.46501959192E+03 -0.13027384106E+04 -0.13311999863E+03  0.13896377709E+04  0.12699999809E+01 0. -1.
       -4    1    3    3    0  502 -0.46501959192E+03  0.13027384106E+04  0.10751500788E+04  0.17519474570E+04  0.12699999809E+01 0.  1.
</event>
<event>
 5   0  0.2862033E-06  0.3001706E+04  0.7818609E-02  0.8243244E-01
       -2   -1    0    0    0  501  0.00000000000E+00  0.00000000000E+00  0.74746231585E+03  0.74746231586E+03  0.25500000920E-02 0.  1.
        2   -1    0    0  501    0  0.00000000000E+00  0.00000000000E+00 -0.30136098953E+04  0.30136098953E+04  0.25500000920E-02 0. -1.
    10030    2    1    2    0    0  0.00000000000E+00  0.00000000000E+00 -0.22661475795E+04  0.37610722112E+04  0.30017060692E+04 0.  0.
        2    1    3    3  502    0 -0.24939684286E+03  0.67354580777E+03 -0.27842960962E+04  0.28754421385E+04  0.25500000920E-02 0. -1.
       -2    1    3    3    0  502  0.24939684286E+03 -0.67354580777E+03  0.51814851669E+03  0.88563007275E+03  0.25500000920E-02 0.  1.
</event>
<event>
 5   0  0.2862033E-06  0.2990224E+04  0.7818609E-02  0.8246528E-01
       -2   -1    0    0    0  501  0.00000000000E+00  0.00000000000E+00  0.13181444483E+04  0.13181444483E+04  0.25500000920E-02 0. -1.
        2   -1    0    0  501    0  0.00000000000E+00  0.00000000000E+00 -0.16958381676E+04  0.16958381676E+04  0.25500000920E-02 0.  1.
    10030    2    1    2    0    0  0.00000000000E+00  0.00000000000E+00 -0.37769371937E+03  0.30139826159E+04  0.29902238484E+04 0.  0.
        2    1    3    3  502    0 -0.82944331781E+03  0.12356284837E+04 -0.44159459129E+02  0.14888599750E+04  0.25500000920E-02 0. -1.
       -2    1    3    3    0  502  0.82944331781E+03 -0.12356284837E+04 -0.33353426024E+03  0.15251226410E+04  0.25500000920E-02 0.  1.
</event>
<event>
 5   0  0.2862033E-06  0.3031473E+04  0.7818609E-02  0.8234800E-01
       -2   -1    0    0    0  501  0.00000000000E+00  0.00000000000E+00  0.15393971258E+04  0.15393971258E+04  0.25500000920E-02 0.  1.
        2   -1    0    0  501    0  0.00000000000E+00  0.00000000000E+00 -0.14924398484E+04  0.14924398484E+04  0.25500000920E-02 0. -1.
    10030    2    1    2    0    0  0.00000000000E+00  0.00000000000E+00  0.46957277393E+02  0.30318369742E+04  0.30314733138E+04 0.  0.
        2    1    3    3  502    0  0.71183373392E+03 -0.56124165035E+03 -0.11914749604E+04  0.14971012111E+04  0.25500000920E-02 0. -1.
       -2    1    3    3    0  502 -0.71183373392E+03  0.56124165035E+03  0.12384322378E+04  0.15347357631E+04  0.25500000920E-02 0.  1.
</event>
<event>
 5   0  0.1054384E-06  0.2999754E+04  0.7818609E-02  0.8243801E-01
       -1   -1    0    0    0  501  0.00000000000E+00  0.00000000000E+00  0.19888548672E+04  0.19888548672E+04  0.50400001928E-02 0. -1.
        1   -1    0    0  501    0  0.00000000000E+00  0.00000000000E+00 -0.11311188552E+04  0.11311188552E+04  0.50400001928E-02 0.  1.
    10030    2    1    2    0    0  0.00000000000E+00  0.00000000000E+00  0.85773601205E+03  0.31199737224E+04  0.29997541503E+04 0.  0.
        2    1    3    3  502    0 -0.14342868836E+04  0.31566045642E+03  0.74572598950E+03  0.16470967305E+04  0.25500000920E-02 0. -1.
       -2    1    3    3    0  502  0.14342868836E+04 -0.31566045642E+03  0.11201002255E+03  0.14728769919E+04  0.25500000920E-02 0.  1.
</event>
<event>
 5   0  0.1097402E-06  0.3003200E+04  0.7818609E-02  0.8242818E-01
       -1   -1    0    0    0  501  0.00000000000E+00  0.00000000000E+00  0.14241788684E+04  0.14241788684E+04  0.50400001928E-02 0. -1.
        1   -1    0    0  501    0  0.00000000000E+00  0.00000000000E+00 -0.15832301629E+04  0.15832301629E+04  0.50400001928E-02 0.  1.
    10030    2    1    2    0    0  0.00000000000E+00  0.00000000000E+00 -0.15905129455E+03  0.30074090313E+04  0.30032002543E+04 0.  0.
        4    1    3    3  502    0 -0.36518947058E+03 -0.73331022650E+03  0.11806870636E+04  0.14370562942E+04  0.12699999809E+01 0. -1.
       -4    1    3    3    0  502  0.36518947058E+03  0.73331022650E+03 -0.13397383582E+04  0.15703527371E+04  0.12699999809E+01 0.  1.
</event>
<event>
 5   0  0.1091076E-06  0.2979679E+04  0.7818609E-02  0.8249558E-01
       -1   -1    0    0    0  501  0.00000000000E+00  0.00000000000E+00  0.12475831755E+04  0.12475831756E+04  0.50400001928E-02 0.  1.
        1   -1    0    0  501    0  0.00000000000E+00  0.00000000000E+00 -0.17791373965E+04  0.17791373965E+04  0.50400001928E-02 0. -1.
    10030    2    1    2    0    0  0.00000000000E+00  0.00000000000E+00 -0.53155422095E+03  0.30267205721E+04  0.29796790987E+04 0.  0.
        3    1    3    3  502    0  0.11099512857E+04  0.73587143501E+03 -0.94424650462E+03  0.16325134294E+04  0.10100000352E+00 0. -1.
       -3    1    3    3    0  502 -0.11099512857E+04 -0.73587143501E+03  0.41269228367E+03  0.13942071427E+04  0.10100000352E+00 0.  1.
</event>
<event>
 5   0  0.2948711E-06  0.2977293E+04  0.7818609E-02  0.8250245E-01
        2   -1    0    0  501    0  0.00000000000E+00  0.00000000000E+00  0.15166096861E+04  0.15166096861E+04  0.25500000920E-02 0. -1.
       -2   -1    0    0    0  501  0.00000000000E+00  0.00000000000E+00 -0.14611991471E+04  0.14611991471E+04  0.25500000920E-02 0.  1.
    10030    2    1    2    0    0  0.00000000000E+00  0.00000000000E+00  0.55410539012E+02  0.29778088332E+04  0.29772932539E+04 0.  0.
        5    1    3    3  502    0 -0.77445501883E+03  0.11219096596E+04 -0.57038225453E+03  0.14777753100E+04  0.46999998093E+01 0.  1.
       -5    1    3    3    0  502  0.77445501883E+03 -0.11219096596E+04  0.62579279354E+03  0.15000335233E+04  0.46999998093E+01 0. -1.
</event>
<event>
 5   0  0.1097402E-06  0.2983910E+04  0.7818609E-02  0.8248340E-01
       -1   -1    0    0    0  501  0.00000000000E+00  0.00000000000E+00  0.11188751317E+04  0.11188751317E+04  0.50400001928E-02 0. -1.
        1   -1    0    0  501    0  0.00000000000E+00  0.00000000000E+00 -0.19894356886E+04  0.19894356886E+04  0.50400001928E-02 0.  1.
    10030    2    1    2    0    0  0.00000000000E+00  0.00000000000E+00 -0.87056055685E+03  0.31083108203E+04  0.29839102655E+04 0.  0.
        4    1    3    3  502    0  0.13515327085E+04 -0.18036327226E+03  0.19557224979E+03  0.13774693063E+04  0.12699999809E+01 0. -1.
       -4    1    3    3    0  502 -0.13515327085E+04  0.18036327226E+03 -0.10661328066E+04  0.17308415139E+04  0.12699999809E+01 0.  1.
</event>
<event>
 5   0  0.2948711E-06  0.2812872E+04  0.7818609E-02  0.8299283E-01
       -2   -1    0    0    0  501  0.00000000000E+00  0.00000000000E+00  0.11515995525E+04  0.11515995525E+04  0.25500000920E-02 0. -1.
        2   -1    0    0  501    0  0.00000000000E+00  0.00000000000E+00 -0.17176646677E+04  0.17176646677E+04  0.25500000920E-02 0.  1.
    10030    2    1    2    0    0  0.00000000000E+00  0.00000000000E+00 -0.56606511519E+03  0.28692642203E+04  0.28128717445E+04 0.  0.
        5    1    3    3  502    0  0.37062236296E+03 -0.98925177472E+03  0.66405318655E+03  0.12477855322E+04  0.46999998093E+01 0. -1.
       -5    1    3    3    0  502 -0.37062236296E+03  0.98925177472E+03 -0.12301183017E+04  0.16214786881E+04  0.46999998093E+01 0.  1.
</event>
<event>
 5   0  0.1097402E-06  0.3001181E+04  0.7818609E-02  0.8243394E-01
        1   -1    0    0  501    0  0.00000000000E+00  0.00000000000E+00  0.15308515332E+04  0.15308515332E+04  0.50400001928E-02 0. -1.
       -1   -1    0    0    0  501  0.00000000000E+00  0.00000000000E+00 -0.14709272666E+04  0.14709272666E+04  0.50400001928E-02 0.  1.
    10030    2    1    2    0    0  0.00000000000E+00  0.00000000000E+00  0.59924266584E+02  0.30017787998E+04  0.30011806086E+04 0.  0.
        4    1    3    3  502    0 -0.99388200671E+03  0.10364588313E+03  0.11496609180E+04  0.15232418559E+04  0.12699999809E+01 0. -1.
       -4    1    3    3    0  502  0.99388200671E+03 -0.10364588313E+03 -0.10897366514E+04  0.14785369439E+04  0.12699999809E+01 0.  1.
</event>
<event>
 5   0  0.9749500E-07  0.2963707E+04  0.7818609E-02  0.8254171E-01
        3   -1    0    0  501    0  0.00000000000E+00  0.00000000000E+00  0.11821962455E+04  0.11821962498E+04  0.10100000352E+00 0. -1.
       -3   -1    0    0    0  501  0.00000000000E+00  0.00000000000E+00 -0.18574662207E+04  0.18574662234E+04  0.10100000352E+00 0.  1.
    10030    2    1    2    0    0  0.00000000000E+00  0.00000000000E+00 -0.67526997516E+03  0.30396624733E+04  0.29637068701E+04 0.  0.
        4    1    3    3  502    0  0.64971936955E+03 -0.21267424144E+03  0.10107925736E+04  0.12202740806E+04  0.12699999809E+01 0. -1.
       -4    1    3    3    0  502 -0.64971936955E+03  0.21267424144E+03 -0.16860625487E+04  0.18193883926E+04  0.12699999809E+01 0.  1.
</event>
<event>
 5   0  0.1091076E-06  0.2980267E+04  0.7818609E-02  0.8249388E-01
        1   -1    0    0  501    0  0.00000000000E+00  0.00000000000E+00  0.13288262923E+04  0.13288262924E+04  0.50400001928E-02 0. -1.
       -1   -1    0    0    0  501  0.00000000000E+00  0.00000000000E+00 -0.16710223393E+04  0.16710223393E+04  0.50400001928E-02 0.  1.
    10030    2    1    2    0    0  0.00000000000E+00  0.00000000000E+00 -0.34219604693E+03  0.29998486316E+04  0.29802673837E+04 0.  0.
        3    1    3    3  502    0 -0.94562950934E+03  0.67757083137E+03  0.76624594819E+03  0.13930004536E+04  0.10100000352E+00 0. -1.
       -3    1    3    3    0  502  0.94562950934E+03 -0.67757083137E+03 -0.11084419951E+04  0.16068481780E+04  0.10100000352E+00 0.  1.
</event>
<event>
 5   0  0.1091076E-06  0.3004375E+04  0.7818609E-02  0.8242483E-01
       -1   -1    0    0    0  501  0.00000000000E+00  0.00000000000E+00  0.96789767956E+03  0.96789767957E+03  0.50400001928E-02 0. -1.
        1   -1    0    0  501    0  0.00000000000E+00  0.00000000000E+00 -0.23314106899E+04  0.23314106899E+04  0.50400001928E-02 0.  1.
    10030    2    1    2    0    0  0.00000000000E+00  0.00000000000E+00 -0.13635130103E+04  0.32993083694E+04  0.30043748081E+04 0.  0.
        3    1    3    3  502    0 -0.14320599829E+04  0.31169223240E+03 -0.31982866945E+03  0.15000794080E+04  0.10100000352E+00 0. -1.
       -3    1    3    3    0  502  0.14320599829E+04 -0.31169223240E+03 -0.10436843408E+04  0.17992289615E+04  0.10100000352E+00 0.  1.
</event>
<event>
 5   0  0.2970915E-06  0.3005025E+04  0.7818609E-02  0.8242297E-01
       -2   -1    0    0    0  501  0.00000000000E+00  0.00000000000E+00  0.15399235214E+04  0.15399235214E+04  0.25500000920E-02 0. -1.
        2   -1    0    0  501    0  0.00000000000E+00  0.00000000000E+00 -0.14660105393E+04  0.14660105393E+04  0.25500000920E-02 0.  1.
    10030    2    1    2    0    0  0.00000000000E+00  0.00000000000E+00  0.73912982060E+02  0.30059340607E+04  0.30050251993E+04 0.  0.
        4    1    3    3  502    0 -0.85199554103E+03  0.89496336271E+03 -0.81810416869E+03  0.14819419240E+04  0.12699999809E+01 0.  1.
       -4    1    3    3    0  502  0.85199554103E+03 -0.89496336271E+03  0.89201715075E+03  0.15239921367E+04  0.12699999809E+01 0. -1.
</event>
<event>
 5   0  0.2862033E-06  0.3013648E+04  0.7818609E-02  0.8239844E-01
        2   -1    0    0  501    0  0.00000000000E+00  0.00000000000E+00  0.25080386598E+04  0.25080386598E+04  0.25500000920E-02 0. -1.
       -2   -1    0    0    0  501  0.00000000000E+00  0.00000000000E+00 -0.90529636874E+03  0.90529636875E+03  0.25500000920E-02 0.  1.
    10030    2    1    2    0    0  0.00000000000E+00  0.00000000000E+00  0.16027422910E+04  0.34133350285E+04  0.30136478171E+04 0.  0.
        2    1    3    3  502    0 -0.31497478817E+03  0.64814365804E+03 -0.69747358822E+03  0.10028802146E+04  0.25500000920E-02 0.  1.
       -2    1    3    3    0  502  0.31497478817E+03 -0.64814365804E+03  0.23002158793E+04  0.24104548139E+04  0.25500000920E-02 0. -1.
</event>
<event>
 5   0  0.1091076E-06  0.2810194E+04  0.7818609E-02  0.8300110E-01
        1   -1    0    0  501    0  0.00000000000E+00  0.00000000000E+00  0.19581927377E+04  0.19581927377E+04  0.50400001928E-02 0. -1.
       -1   -1    0    0    0  501  0.00000000000E+00  0.00000000000E+00 -0.10082245343E+04  0.10082245344E+04  0.50400001928E-02 0.  1.
    10030    2    1    2    0    0  0.00000000000E+00  0.00000000000E+00  0.94996820332E+03  0.29664172720E+04  0.28101942717E+04 0.  0.
        3    1    3    3  502    0 -0.33475426716E+03  0.33301669063E+03 -0.92196573096E+03  0.10358481331E+04  0.10100000352E+00 0.  1.
       -3    1    3    3    0  502  0.33475426716E+03 -0.33301669063E+03  0.18719339343E+04  0.19305691389E+04  0.10100000352E+00 0. -1.
</event>
<event>
 5   0  0.2985941E-06  0.3003874E+04  0.7818609E-02  0.8242626E-01
       -2   -1    0    0    0  501  0.00000000000E+00  0.00000000000E+00  0.25650964678E+04  0.25650964678E+04  0.25500000920E-02 0. -1.
        2   -1    0    0  501    0  0.00000000000E+00  0.00000000000E+00 -0.87942667284E+03  0.87942667285E+03  0.25500000920E-02 0.  1.
    10030    2    1    2    0    0  0.00000000000E+00  0.00000000000E+00  0.16856697949E+04  0.34445231406E+04  0.30038736672E+04 0.  0.
        3    1    3    3  502    0 -0.23437129495E+03  0.80299466973E+03  0.22732561281E+04  0.24222765692E+04  0.10100000352E+00 0. -1.
       -3    1    3    3    0  502  0.23437129495E+03 -0.80299466973E+03 -0.58758633322E+03  0.10222465714E+04  0.10100000352E+00 0.  1.
</event>
<event>
 5   0  0.1091075E-06  0.2966583E+04  0.7818609E-02  0.8253338E-01
        1   -1    0    0  501    0  0.00000000000E+00  0.00000000000E+00  0.21264782891E+04  0.21264782891E+04  0.50400001928E-02 0.  1.
       -1   -1    0    0    0  501  0.00000000000E+00  0.00000000000E+00 -0.10346468240E+04  0.10346468240E+04  0.50400001928E-02 0. -1.
    10030    2    1    2    0    0  0.00000000000E+00  0.00000000000E+00  0.10918314651E+04  0.31611251131E+04  0.29665832253E+04 0.  0.
        1    1    3    3  502    0 -0.87969975380E+02 -0.22694079582E+03  0.21050541576E+04  0.21190785374E+04  0.50400001928E-02 0.  1.
       -1    1    3    3    0  502  0.87969975380E+02  0.22694079582E+03 -0.10132226925E+04  0.10420465757E+04  0.50400001928E-02 0. -1.
</event>
<event>
 5   0  0.1097402E-06  0.3001583E+04  0.7818609E-02  0.8243279E-01
        1   -1    0    0  501    0  0.00000000000E+00  0.00000000000E+00  0.13634176565E+04  0.13634176565E+04  0.50400001928E-02 0.  1.
       -1   -1    0    0    0  501  0.00000000000E+00  0.00000000000E+00 -0.16520062911E+04  0.16520062911E+04  0.50400001928E-02 0. -1.
    10030    2    1    2    0    0  0.00000000000E+00  0.00000000000E+00 -0.28858863462E+03  0.30154239476E+04  0.30015826131E+04 0.  0.
        4    1    3    3  502    0  0.19363890922E+03  0.67170237917E+03 -0.14784593437E+04  0.16353971252E+04  0.12699999809E+01 0. -1.
       -4    1    3    3    0  502 -0.19363890922E+03 -0.67170237917E+03  0.11898707090E+04  0.13800268224E+04  0.12699999809E+01 0.  1.
</event>
<event>
 5   0  0.1113245E-06  0.3018840E+04  0.7818609E-02  0.8238371E-01
       -1   -1    0    0    0  501  0.00000000000E+00  0.00000000000E+00  0.13433259192E+04  0.13433259192E+04  0.50400001928E-02 0.  1.
        1   -1    0    0  501    0  0.00000000000E+00  0.00000000000E+00 -0.16960509963E+04  0.16960509964E+04  0.50400001928E-02 0. -1.
    10030    2    1    2    0    0  0.00000000000E+00  0.00000000000E+00 -0.35272507715E+03  0.30393769156E+04  0.30188403493E+04 0.  0.
        5    1    3    3  502    0 -0.13278374252E+04 -0.71455561076E+03 -0.10818760263E+03  0.15117766357E+04  0.46999998093E+01 0. -1.
       -5    1    3    3    0  502  0.13278374252E+04  0.71455561076E+03 -0.24453747452E+03  0.15276002799E+04  0.46999998093E+01 0.  1.
</event>
<event>
 5   0  0.2985941E-06  0.3192047E+04  0.7818609E-02  0.8190921E-01
       -2   -1    0    0    0  501  0.00000000000E+00  0.00000000000E+00  0.96681243360E+03  0.96681243360E+03  0.25500000920E-02 0.  1.
        2   -1    0    0  501    0  0.00000000000E+00  0.00000000000E+00 -0.26347312339E+04  0.26347312339E+04  0.25500000920E-02 0. -1.
    10030    2    1    2    0    0  0.00000000000E+00  0.00000000000E+00 -0.16679188003E+04  0.36015436675E+04  0.31920469396E+04 0.  0.
        3    1    3    3  502    0  0.66576011940E+03 -0.14028541969E+04 -0.12501342442E+04  0.19935074801E+04  0.10100000352E+00 0. -1.
       -3    1    3    3    0  502 -0.66576011940E+03  0.14028541969E+04 -0.41778455611E+03  0.16080361874E+04  0.10100000352E+00 0.  1.
</event>
<event>
 5   0  0.1091075E-06  0.3009432E+04  0.7818609E-02  0.8241043E-01
        1   -1    0    0  501    0  0.00000000000E+00  0.00000000000E+00  0.19148698334E+04  0.19148698334E+04  0.50400001928E-02 0. -1.
       -1   -1    0    0    0  501  0.00000000000E+00  0.00000000000E+00 -0.11824147594E+04  0.11824147594E+04  0.50400001928E-02 0.  1.
    10030    2    1    2    0    0  0.00000000000E+00  0.00000000000E+00  0.73245507397E+03  0.30972845928E+04  0.30094320749E+04 0.  0.
        1    1    3    3  502    0  0.12332743150E+04 -0.86028535182E+03  0.42365915297E+03  0.15622238958E+04  0.50400001928E-02 0. -1.
       -1    1    3    3    0  502 -0.12332743150E+04  0.86028535182E+03  0.30879592100E+03  0.15350606970E+04  0.50400001928E-02 0.  1.
</event>
<event>
 5   0  0.3113328E-06  0.2993617E+04  0.7818609E-02  0.8245556E-01
       -2   -1    0    0    0  501  0.00000000000E+00  0.00000000000E+00  0.19034213636E+04  0.19034213636E+04  0.25500000920E-02 0.  1.
        2   -1    0    0  501    0  0.00000000000E+00  0.00000000000E+00 -0.11770573730E+04  0.11770573730E+04  0.25500000920E-02 0. -1.
    10030    2    1    2    0    0  0.00000000000E+00  0.00000000000E+00  0.72636399056E+03  0.30804787366E+04  0.29936173102E+04 0.  0.
        1    1    3    3  502    0 -0.20312526861E+03 -0.13948528559E+04  0.88134193639E+03  0.16624193133E+04  0.50400001928E-02 0.  1.
       -1    1    3    3    0  502  0.20312526861E+03  0.13948528559E+04 -0.15497794583E+03  0.14180594233E+04  0.50400001928E-02 0. -1.
</event>
<event>
 5   0  0.1097402E-06  0.2956878E+04  0.7818609E-02  0.8256153E-01
        1   -1    0    0  501    0  0.00000000000E+00  0.00000000000E+00  0.28167637763E+04  0.28167637763E+04  0.50400001928E-02 0.  1.
       -1   -1    0    0    0  501  0.00000000000E+00  0.00000000000E+00 -0.77599057831E+03  0.77599057832E+03  0.50400001928E-02 0. -1.
    10030    2    1    2    0    0  0.00000000000E+00  0.00000000000E+00  0.20407731980E+04  0.35927543547E+04  0.29568781861E+04 0.  0.
        4    1    3    3  502    0 -0.95095890126E+03 -0.82901215042E+03  0.83775805614E+02  0.12643591167E+04  0.12699999809E+01 0. -1.
       -4    1    3    3    0  502  0.95095890126E+03  0.82901215042E+03  0.19569973924E+04  0.23283952380E+04  0.12699999809E+01 0.  1.
</event>
<event>
 5   0  0.1113245E-06  0.3071824E+04  0.7818609E-02  0.8223513E-01
       -1   -1    0    0    0  501  0.00000000000E+00  0.00000000000E+00  0.12604415022E+04  0.12604415023E+04  0.50400001928E-02 0. -1.
        1   -1    0    0  501    0  0.00000000000E+00  0.00000000000E+00 -0.18715868104E+04  0.18715868104E+04  0.50400001928E-02 0.  1.
    10030    2    1    2    0    0  0.00000000000E+00  0.00000000000E+00 -0.61114530817E+03  0.31320283127E+04  0.30718240125E+04 0.  0.
        5    1    3    3  502    0  0.87871181094E+03 -0.71642404090E+03 -0.13620295015E+04  0.17721580928E+04  0.46999998093E+01 0.  1.
       -5    1    3    3    0  502 -0.87871181094E+03  0.71642404090E+03  0.75088419331E+03  0.13598702198E+04  0.46999998093E+01 0. -1.
</event>
<event>
 5   0  0.1054384E-06  0.2731280E+04  0.7818609E-02  0.8324927E-01
        1   -1    0    0  501    0  0.00000000000E+00  0.00000000000E+00  0.20839899059E+04  0.20839899059E+04  0.50400001928E-02 0. -1.
       -1   -1    0    0    0  501  0.00000000000E+00  0.00000000000E+00 -0.89490453821E+03  0.89490453822E+03  0.50400001928E-02 0.  1.
    10030    2    1    2    0    0  0.00000000000E+00  0.00000000000E+00  0.11890853677E+04  0.29788944441E+04  0.27312795715E+04 0.  0.
        2    1    3    3  502    0  0.10007562551E+04 -0.91232201723E+03  0.40211793296E+03  0.14126370296E+04  0.25500000920E-02 0. -1.
       -2    1    3    3    0  502 -0.10007562551E+04  0.91232201723E+03  0.78696743470E+03  0.15662574145E+04  0.25500000920E-02 0.  1.
</event>
<event>
 5   0  0.1097402E-06  0.3014122E+04  0.7818609E-02  0.8239710E-01
       -1   -1    0    0    0  501  0.00000000000E+00  0.00000000000E+00  0.17274112644E+04  0.17274112644E+04  0.50400001928E-02 0. -1.
        1   -1    0    0  501    0  0.00000000000E+00  0.00000000000E+00 -0.13148187678E+04  0.13148187678E+04  0.50400001928E-02 0.  1.
    10030    2    1    2    0    0  0.00000000000E+00  0.00000000000E+00  0.41259249659E+03  0.30422300322E+04  0.30141219286E+04 0.  0.
        4    1    3    3  502    0 -0.12916972051E+04  0.45474100148E+03 -0.42882543405E+03  0.14349787155E+04  0.12699999809E+01 0.  1.
       -4    1    3    3    0  502  0.12916972051E+04 -0.45474100148E+03  0.84141793064E+03  0.16072513167E+04  0.12699999809E+01 0. -1.
</event>
<event>
 5   0  0.1113245E-06  0.2896028E+04  0.7818609E-02  0.8274060E-01
        1   -1    0    0  501    0  0.00000000000E+00  0.00000000000E+00  0.82624326543E+03  0.82624326545E+03  0.50400001928E-02 0.  1.
       -1   -1    0    0    0  501  0.00000000000E+00  0.00000000000E+00 -0.25376837051E+04  0.25376837051E+04  0.50400001928E-02 0. -1.
    10030    2    1    2    0    0  0.00000000000E+00  0.00000000000E+00 -0.17114404397E+04  0.33639269706E+04  0.28960276733E+04 0.  0.
        5    1    3    3  502    0  0.90360594594E+03 -0.33912746624E+03 -0.21095717347E+04  0.23198763195E+04  0.46999998093E+01 0. -1.
       -5    1    3    3    0  502 -0.90360594594E+03  0.33912746624E+03  0.39813129503E+03  0.10440506511E+04  0.46999998093E+01 0.  1.
</event>
<event>
 5   0  0.2862033E-06  0.3030828E+04  0.7818609E-02  0.8234982E-01
       -2   -1    0    0    0  501  0.00000000000E+00  0.00000000000E+00  0.15575751085E+04  0.15575751085E+04  0.25500000920E-02 0.  1.
        2   -1    0    0  501    0  0.00000000000E+00  0.00000000000E+00 -0.14743945449E+04  0.14743945449E+04  0.25500000920E-02 0. -1.
    10030    2    1    2    0    0  0.00000000000E+00  0.00000000000E+00  0.83180563589E+02  0.30319696534E+04  0.30308284301E+04 0.  0.
        2    1    3    3  502    0  0.57311123110E+03 -0.10405480928E+04 -0.89965901482E+03  0.14901621253E+04  0.25500000920E-02 0. -1.
       -2    1    3    3    0  502 -0.57311123110E+03  0.10405480928E+04  0.98283957841E+03  0.15418075281E+04  0.25500000920E-02 0.  1.
</event>
<event>
 5   0  0.1091075E-06  0.2911759E+04  0.7818609E-02  0.8269387E-01
       -1   -1    0    0    0  501  0.00000000000E+00  0.00000000000E+00  0.11402314899E+04  0.11402314899E+04  0.50400001928E-02 0.  1.
        1   -1    0    0  501    0  0.00000000000E+00  0.00000000000E+00 -0.18589079581E+04  0.18589079581E+04  0.50400001928E-02 0. -1.
    10030    2    1    2    0    0  0.00000000000E+00  0.00000000000E+00 -0.71867646820E+03  0.29991394480E+04  0.29117591869E+04 0.  0.
        1    1    3    3  502    0 -0.38259043736E+03  0.14045694466E+04 -0.37979935661E+03  0.15044727729E+04  0.50400001928E-02 0. -1.
       -1    1    3    3    0  502  0.38259043736E+03 -0.14045694466E+04 -0.33887711159E+03  0.14946666751E+04  0.50400001928E-02 0.  1.
</event>
<event>
 5   0  0.1091075E-06  0.3156772E+04  0.7818609E-02  0.8200328E-01
        1   -1    0    0  501    0  0.00000000000E+00  0.00000000000E+00  0.16872047959E+04  0.16872047959E+04  0.50400001928E-02 0.  1.
       -1   -1    0    0    0  501  0.00000000000E+00  0.00000000000E+00 -0.14765858481E+04  0.14765858481E+04  0.50400001928E-02 0. -1.
    10030    2    1    2    0    0  0.00000000000E+00  0.00000000000E+00  0.21061894781E+03  0.31637906441E+04  0.31567722278E+04 0.  0.
        1    1    3    3  502    0  0.66586293627E+03  0.84668155208E+02 -0.13264185260E+04  0.14865827433E+04  0.50400001928E-02 0. -1.
       -1    1    3    3    0  502 -0.66586293627E+03 -0.84668155208E+02  0.15370374738E+04  0.16772079008E+04  0.50400001928E-02 0.  1.
</event>
<event>
 5   0  0.1091075E-06  0.3005904E+04  0.7818609E-02  0.8242047E-01
       -1   -1    0    0    0  501  0.00000000000E+00  0.00000000000E+00  0.13733883462E+04  0.13733883462E+04  0.50400001928E-02 0.  1.
        1   -1    0    0  501    0  0.00000000000E+00  0.00000000000E+00 -0.16447389811E+04  0.16447389811E+04  0.50400001928E-02 0. -1.
    10030    2    1    2    0    0  0.00000000000E+00  0.00000000000E+00 -0.27135063487E+03  0.30181273274E+04  0.30059044225E+04 0.  0.
        1    1    3    3  502    0  0.11077214285E+04 -0.88521684874E+02 -0.11517102902E+04  0.16004122733E+04  0.50400001928E-02 0. -1.
       -1    1    3    3    0  502 -0.11077214285E+04  0.88521684874E+02  0.88035965536E+03  0.14177150541E+04  0.50400001928E-02 0.  1.
</event>
<event>
 5   0  0.2970915E-06  0.2984503E+04  0.7818609E-02  0.8248170E-01
        2   -1    0    0  501    0  0.00000000000E+00  0.00000000000E+00  0.11356787301E+04  0.11356787301E+04  0.25500000920E-02 0.  1.
       -2   -1    0    0    0  501  0.00000000000E+00  0.00000000000E+00 -0.19607781349E+04  0.19607781349E+04  0.25500000920E-02 0. -1.
    10030    2    1    2    0    0  0.00000000000E+00  0.00000000000E+00 -0.82509940482E+03  0.30964568650E+04  0.29845026535E+04 0.  0.
        4    1    3    3  502    0 -0.64334118292E+03 -0.26358597393E+03  0.95737733027E+03  0.11831899293E+04  0.12699999809E+01 0.  1.
       -4    1    3    3    0  502  0.64334118292E+03  0.26358597393E+03 -0.17824767351E+04  0.19132669357E+04  0.12699999809E+01 0. -1.
</event>
<event>
 5   0  0.1091076E-06  0.3017304E+04  0.7818609E-02  0.8238807E-01
       -1   -1    0    0    0  501  0.00000000000E+00  0.00000000000E+00  0.12557386941E+04  0.12557386941E+04  0.50400001928E-02 0.  1.
        1   -1    0    0  501    0  0.00000000000E+00  0.00000000000E+00 -0.18125038119E+04  0.18125038119E+04  0.50400001928E-02 0. -1.
    10030    2    1    2    0    0  0.00000000000E+00  0.00000000000E+00 -0.55676511776E+03  0.30682425060E+04  0.30173042073E+04 0.  0.
        3    1    3    3  502    0  0.12155626919E+04  0.73740037877E+03  0.23479458790E+03  0.14409998214E+04  0.10100000352E+00 0.  1.
       -3    1    3    3    0  502 -0.12155626919E+04 -0.73740037877E+03 -0.79155970566E+03  0.16272426846E+04  0.10100000352E+00 0. -1.
</event>
<event>
 5   0  0.2970915E-06  0.3016117E+04  0.7818609E-02  0.8239143E-01
       -2   -1    0    0    0  501  0.00000000000E+00  0.00000000000E+00  0.12053586912E+04  0.12053586912E+04  0.25500000920E-02 0.  1.
        2   -1    0    0  501    0  0.00000000000E+00  0.00000000000E+00 -0.18867750391E+04  0.18867750391E+04  0.25500000920E-02 0. -1.
    10030    2    1    2    0    0  0.00000000000E+00  0.00000000000E+00 -0.68141634797E+03  0.30921337303E+04  0.30161171673E+04 0.  0.
        4    1    3    3  502    0 -0.16258588523E+03 -0.11918588389E+04 -0.12731798398E+04  0.17515565019E+04  0.12699999809E+01 0. -1.
       -4    1    3    3    0  502  0.16258588523E+03  0.11918588389E+04  0.59176349186E+03  0.13405772284E+04  0.12699999809E+01 0.  1.
</event>
<event>
 5   0  0.2985941E-06  0.2984874E+04  0.7818609E-02  0.8248063E-01
        2   -1    0    0  501    0  0.00000000000E+00  0.00000000000E+00  0.13079209604E+04  0.13079209604E+04  0.25500000920E-02 0.  1.
       -2   -1    0    0    0  501  0.00000000000E+00  0.00000000000E+00 -0.17029840977E+04  0.17029840978E+04  0.25500000920E-02 0. -1.
    10030    2    1    2    0    0  0.00000000000E+00  0.00000000000E+00 -0.39506313731E+03  0.30109050582E+04  0.29848742665E+04 0.  0.
        3    1    3    3  502    0 -0.10197512834E+04  0.55802418458E+03 -0.11416883590E+04  0.16293360580E+04  0.10100000352E+00 0. -1.
       -3    1    3    3    0  502  0.10197512834E+04 -0.55802418458E+03  0.74662522171E+03  0.13815690002E+04  0.10100000352E+00 0.  1.
</event>
<event>
 5   0  0.3113328E-06  0.2930817E+04  0.7818609E-02  0.8263767E-01
       -2   -1    0    0    0  501  0.00000000000E+00  0.00000000000E+00  0.10271316560E+04  0.10271316560E+04  0.25500000920E-02 0.  1.
        2   -1    0    0  501    0  0.00000000000E+00  0.00000000000E+00 -0.20906983206E+04  0.20906983206E+04  0.25500000920E-02 0. -1.
    10030    2    1    2    0    0  0.00000000000E+00  0.00000000000E+00 -0.10635666646E+04  0.31178299766E+04  0.29308172431E+04 0.  0.
        1    1    3    3  502    0 -0.12628667152E+04  0.21920785265E+03  0.22384917523E+03  0.13011505971E+04  0.50400001928E-02 0.  1.
       -1    1    3    3    0  502  0.12628667152E+04 -0.21920785265E+03 -0.12874158399E+04  0.18166793795E+04  0.50400001928E-02 0. -1.
</event>
<event>
 5   0  0.2970915E-06  0.2972635E+04  0.7818609E-02  0.8251588E-01
        2   -1    0    0  501    0  0.00000000000E+00  0.00000000000E+00  0.14700795219E+04  0.14700795219E+04  0.25500000920E-02 0. -1.
       -2   -1    0    0    0  501  0.00000000000E+00  0.00000000000E+00 -0.15027350212E+04  0.15027350212E+04  0.25500000920E-02 0.  1.
    10030    2    1    2    0    0  0.00000000000E+00  0.00000000000E+00 -0.32655499288E+02  0.29728145431E+04  0.29726351822E+04 0.  0.
        4    1    3    3  502    0 -0.77376609167E+03  0.12664155441E+04 -0.97671907425E+02  0.14873008134E+04  0.12699999809E+01 0. -1.
       -4    1    3    3    0  502  0.77376609167E+03 -0.12664155441E+04  0.65016408137E+02  0.14855137298E+04  0.12699999809E+01 0.  1.
</event>
<event>
 5   0  0.1091076E-06  0.3025069E+04  0.7818609E-02  0.8236608E-01
        1   -1    0    0  501    0  0.00000000000E+00  0.00000000000E+00  0.19925526044E+04  0.19925526044E+04  0.50400001928E-02 0. -1.
       -1   -1    0    0    0  501  0.00000000000E+00  0.00000000000E+00 -0.11481560267E+04  0.11481560267E+04  0.50400001928E-02 0.  1.
    10030    2    1    2    0    0  0.00000000000E+00  0.00000000000E+00  0.84439657766E+03  0.31407086311E+04  0.30250694413E+04 0.  0.
        3    1    3    3  502    0  0.11605251072E+04  0.48981612708E+03  0.12914757207E+04  0.18040642755E+04  0.10100000352E+00 0. -1.
       -3    1    3    3    0  502 -0.11605251072E+04 -0.48981612708E+03 -0.44707914306E+03  0.13366443555E+04  0.10100000352E+00 0.  1.
</event>
<event>
 5   0  0.2985941E-06  0.2807240E+04  0.7818609E-02  0.8301024E-01
       -2   -1    0    0    0  501  0.00000000000E+00  0.00000000000E+00  0.16428168866E+04  0.16428168866E+04  0.25500000920E-02 0.  1.
        2   -1    0    0  501    0  0.00000000000E+00  0.00000000000E+00 -0.11992507219E+04  0.11992507219E+04  0.25500000920E-02 0. -1.
    10030    2    1    2    0    0  0.00000000000E+00  0.00000000000E+00  0.44356616466E+03  0.28420676085E+04  0.28072401659E+04 0.  0.
        3    1    3    3  502    0 -0.23406244975E+03  0.92420170078E+03  0.12647165156E+04  0.15838061400E+04  0.10100000352E+00 0.  1.
       -3    1    3    3    0  502  0.23406244975E+03 -0.92420170078E+03 -0.82115035096E+03  0.12582614685E+04  0.10100000352E+00 0. -1.
</event>
<event>
 5   0  0.1091076E-06  0.2860217E+04  0.7818609E-02  0.8284813E-01
        1   -1    0    0  501    0  0.00000000000E+00  0.00000000000E+00  0.16800566327E+04  0.16800566327E+04  0.50400001928E-02 0. -1.
       -1   -1    0    0    0  501  0.00000000000E+00  0.00000000000E+00 -0.12173460299E+04  0.12173460299E+04  0.50400001928E-02 0.  1.
    10030    2    1    2    0    0  0.00000000000E+00  0.00000000000E+00  0.46271060281E+03  0.28974026627E+04  0.28602169651E+04 0.  0.
        3    1    3    3  502    0  0.30979783041E+03 -0.56836075578E+03  0.15231606278E+04  0.16550005900E+04  0.10100000352E+00 0. -1.
       -3    1    3    3    0  502 -0.30979783041E+03  0.56836075578E+03 -0.10604500250E+04  0.12424020727E+04  0.10100000352E+00 0.  1.
</event>
<event>
 5   0  0.2970915E-06  0.3006257E+04  0.7818609E-02  0.8241946E-01
        2   -1    0    0  501    0  0.00000000000E+00  0.00000000000E+00  0.29245757440E+04  0.29245757440E+04  0.25500000920E-02 0.  1.
       -2   -1    0    0    0  501  0.00000000000E+00  0.00000000000E+00 -0.77255493297E+03  0.77255493298E+03  0.25500000920E-02 0. -1.
    10030    2    1    2    0    0  0.00000000000E+00  0.00000000000E+00  0.21520208110E+04  0.36971306770E+04  0.30062570867E+04 0.  0.
        4    1    3    3  502    0  0.10741641344E+04 -0.91802266255E+03  0.44555983705E+03  0.14815935265E+04  0.12699999809E+01 0. -1.
       -4    1    3    3    0  502 -0.10741641344E+04  0.91802266255E+03  0.17064609740E+04  0.22155371505E+04  0.12699999809E+01 0.  1.
</event>
<event>
 5   0  0.2862033E-06  0.2991790E+04  0.7818609E-02  0.8246079E-01
       -2   -1    0    0    0  501  0.00000000000E+00  0.00000000000E+00  0.98968068114E+03  0.98968068114E+03  0.25500000920E-02 0. -1.
        2   -1    0    0  501    0  0.00000000000E+00  0.00000000000E+00 -0.22610342351E+04  0.22610342351E+04  0.25500000920E-02 0.  1.
    10030    2    1    2    0    0  0.00000000000E+00  0.00000000000E+00 -0.12713535540E+04  0.32507149163E+04  0.29917900340E+04 0.  0.
        2    1    3    3  502    0  0.39142466989E+03  0.62809651386E+03 -0.20481785192E+04  0.21777864334E+04  0.25500000920E-02 0.  1.
       -2    1    3    3    0  502 -0.39142466989E+03 -0.62809651386E+03  0.77682496518E+03  0.10729284829E+04  0.25500000920E-02 0. -1.
</event>
<event>
 5   0  0.3113328E-06  0.2959890E+04  0.7818609E-02  0.8255278E-01
        2   -1    0    0  501    0  0.00000000000E+00  0.00000000000E+00  0.20129870350E+04  0.20129870350E+04  0.25500000920E-02 0.  1.
       -2   -1    0    0    0  501  0.00000000000E+00  0.00000000000E+00 -0.10880532528E+04  0.10880532529E+04  0.25500000920E-02 0. -1.
    10030    2    1    2    0    0  0.00000000000E+00  0.00000000000E+00  0.92493378216E+03  0.31010402879E+04  0.29598899246E+04 0.  0.
        1    1    3    3  502    0 -0.97760245739E+03 -0.11026601284E+04  0.60562553946E+03  0.15932194506E+04  0.50400001928E-02 0.  1.
       -1    1    3    3    0  502  0.97760245739E+03  0.11026601284E+04  0.31930824270E+03  0.15078208373E+04  0.50400001928E-02 0. -1.
</event>
<event>
 5   0  0.2985941E-06  0.3008938E+04  0.7818609E-02  0.8241183E-01
       -2   -1    0    0    0  501  0.00000000000E+00  0.00000000000E+00  0.13885291240E+04  0.13885291240E+04  0.25500000920E-02 0.  1.
        2   -1    0    0  501    0  0.00000000000E+00  0.00000000000E+00 -0.16300894072E+04  0.16300894072E+04  0.25500000920E-02 0. -1.
    10030    2    1    2    0    0  0.00000000000E+00  0.00000000000E+00 -0.24156028328E+03  0.30186185312E+04  0.30089377638E+04 0.  0.
        3    1    3    3  502    0 -0.68322863742E+03  0.31453252329E+03 -0.14279282633E+04  0.16139117741E+04  0.10100000352E+00 0. -1.
       -3    1    3    3    0  502  0.68322863742E+03 -0.31453252329E+03  0.11863679800E+04  0.14047067571E+04  0.10100000352E+00 0.  1.
</event>
<event>
 5   0  0.2862033E-06  0.2915060E+04  0.7818609E-02  0.8268411E-01
       -2   -1    0    0    0  501  0.00000000000E+00  0.00000000000E+00  0.98189532107E+03  0.98189532107E+03  0.25500000920E-02 0.  1.
        2   -1    0    0  501    0  0.00000000000E+00  0.00000000000E+00 -0.21635643411E+04  0.21635643411E+04  0.25500000920E-02 0. -1.
    10030    2    1    2    0    0  0.00000000000E+00  0.00000000000E+00 -0.11816690200E+04  0.31454596622E+04  0.29150600017E+04 0.  0.
        2    1    3    3  502    0  0.76537628409E+03 -0.28559584847E+03  0.71164394900E+03  0.10834218731E+04  0.25500000920E-02 0.  1.
       -2    1    3    3    0  502 -0.76537628409E+03  0.28559584847E+03 -0.18933129690E+04  0.20620377891E+04  0.25500000920E-02 0. -1.
</event>
<event>
 5   0  0.1054384E-06  0.3005575E+04  0.7818609E-02  0.8242141E-01
        1   -1    0    0  501    0  0.00000000000E+00  0.00000000000E+00  0.24681279936E+04  0.24681279936E+04  0.50400001928E-02 0.  1.
       -1   -1    0    0    0  501  0.00000000000E+00  0.00000000000E+00 -0.91501330907E+03  0.91501330909E+03  0.50400001928E-02 0. -1.
    10030    2    1    2    0    0  0.00000000000E+00  0.00000000000E+00  0.15531146846E+04  0.33831413027E+04  0.30055747954E+04 0.  0.
        2    1    3    3  502    0  0.92418007006E+03  0.31215123497E+03 -0.51021270527E+03  0.11008470375E+04  0.25500000920E-02 0. -1.
       -2    1    3    3    0  502 -0.92418007006E+03 -0.31215123497E+03  0.20633273898E+04  0.22822942652E+04  0.25500000920E-02 0.  1.
</event>
<event>
 5   0  0.1054384E-06  0.2830086E+04  0.7818609E-02  0.8293988E-01
       -1   -1    0    0    0  501  0.00000000000E+00  0.00000000000E+00  0.83876927376E+03  0.83876927378E+03  0.50400001928E-02 0.  1.
        1   -1    0    0  501    0  0.00000000000E+00  0.00000000000E+00 -0.23872442070E+04  0.23872442070E+04  0.50400001928E-02 0. -1.
    10030    2    1    2    0    0  0.00000000000E+00  0.00000000000E+00 -0.15484749333E+04  0.32260134808E+04  0.28300862813E+04 0.  0.
        2    1    3    3  502    0 -0.11836953836E+04 -0.75392296005E+03 -0.98072134784E+03  0.17121182649E+04  0.25500000920E-02 0. -1.
       -2    1    3    3    0  502  0.11836953836E+04  0.75392296005E+03 -0.56775358541E+03  0.15138952159E+04  0.25500000920E-02 0.  1.
</event>
<event>
 5   0  0.1097402E-06  0.2924489E+04  0.7818609E-02  0.8265628E-01
       -1   -1    0    0    0  501  0.00000000000E+00  0.00000000000E+00  0.12145742561E+04  0.12145742562E+04  0.50400001928E-02 0. -1.
        1   -1    0    0  501    0  0.00000000000E+00  0.00000000000E+00 -0.17604190801E+04  0.17604190801E+04  0.50400001928E-02 0.  1.
    10030    2    1    2    0    0  0.00000000000E+00  0.00000000000E+00 -0.54584482399E+03  0.29749933363E+04  0.29244894904E+04 0.  0.
        4    1    3    3  502    0 -0.96710347627E+02 -0.10174734721E+03  0.12077033953E+04  0.12158349057E+04  0.12699999809E+01 0. -1.
       -4    1    3    3    0  502  0.96710347627E+02  0.10174734721E+03 -0.17535482192E+04  0.17591584306E+04  0.12699999809E+01 0.  1.
</event>
<event>
 5   0  0.1113245E-06  0.2984945E+04  0.7818609E-02  0.8248043E-01
       -1   -1    0    0    0  501  0.00000000000E+00  0.00000000000E+00  0.17891036843E+04  0.17891036843E+04  0.50400001928E-02 0. -1.
        1   -1    0    0  501    0  0.00000000000E+00  0.00000000000E+00 -0.12450221007E+04  0.12450221007E+04  0.50400001928E-02 0.  1.
    10030    2    1    2    0    0  0.00000000000E+00  0.00000000000E+00  0.54408158363E+03  0.30341257851E+04  0.29849446410E+04 0.  0.
        5    1    3    3  502    0 -0.55021901860E+03  0.29148684316E+02 -0.11378456590E+04  0.12642410561E+04  0.46999998093E+01 0.  1.
       -5    1    3    3    0  502  0.55021901860E+03 -0.29148684316E+02  0.16819272426E+04  0.17698847289E+04  0.46999998093E+01 0. -1.
</event>
<event>
 5   0  0.1113245E-06  0.2967297E+04  0.7818609E-02  0.8253132E-01
       -1   -1    0    0    0  501  0.00000000000E+00  0.00000000000E+00  0.12037904775E+04  0.12037904775E+04  0.50400001928E-02 0.  1.
        1   -1    0    0  501    0  0.00000000000E+00  0.00000000000E+00 -0.18285681409E+04  0.18285681409E+04  0.50400001928E-02 0. -1.
    10030    2    1    2    0    0  0.00000000000E+00  0.00000000000E+00 -0.62477766341E+03  0.30323586184E+04  0.29672970296E+04 0.  0.
        5    1    3    3  502    0  0.14118873365E+04  0.41781929897E+03 -0.49857023622E+03  0.15545395421E+04  0.46999998093E+01 0. -1.
       -5    1    3    3    0  502 -0.14118873365E+04 -0.41781929897E+03 -0.12620742719E+03  0.14778190763E+04  0.46999998093E+01 0.  1.
</event>
<event>
 5   0  0.2985941E-06  0.2996018E+04  0.7818609E-02  0.8244869E-01
        2   -1    0    0  501    0  0.00000000000E+00  0.00000000000E+00  0.18264405999E+04  0.18264405999E+04  0.25500000920E-02 0.  1.
       -2   -1    0    0    0  501  0.00000000000E+00  0.00000000000E+00 -0.12286363394E+04  0.12286363394E+04  0.25500000920E-02 0. -1.
    10030    2    1    2    0    0  0.00000000000E+00  0.00000000000E+00  0.59780426056E+03  0.30550769393E+04  0.29960182194E+04 0.  0.
        3    1    3    3  502    0 -0.88490942060E+03  0.86850413033E+03 -0.55830378921E+03  0.13598041176E+04  0.10100000352E+00 0. -1.
       -3    1    3    3    0  502  0.88490942060E+03 -0.86850413033E+03  0.11561080498E+04  0.16952728217E+04  0.10100000352E+00 0.  1.
</event>
<event>
 5   0  0.2985941E-06  0.3049656E+04  0.7818609E-02  0.8229692E-01
        2   -1    0    0  501    0  0.00000000000E+00  0.00000000000E+00  0.20313177937E+04  0.20313177937E+04  0.25500000920E-02 0.  1.
       -2   -1    0    0    0  501  0.00000000000E+00  0.00000000000E+00 -0.11446268622E+04  0.11446268622E+04  0.25500000920E-02 0. -1.
    10030    2    1    2    0    0  0.00000000000E+00  0.00000000000E+00  0.88669093152E+03  0.31759446560E+04  0.30496563167E+04 0.  0.
        3    1    3    3  502    0 -0.10597619938E+04 -0.66229632054E+03 -0.46654536245E+03  0.13339402105E+04  0.10100000352E+00 0. -1.
       -3    1    3    3    0  502  0.10597619938E+04  0.66229632054E+03  0.13532362940E+04  0.18420044455E+04  0.10100000352E+00 0.  1.
</event>
<event>
 5   0  0.9749500E-07  0.2986524E+04  0.7818609E-02  0.8247589E-01
        3   -1    0    0  501    0  0.00000000000E+00  0.00000000000E+00  0.11793766142E+04  0.11793766185E+04  0.10100000352E+00 0. -1.
       -3   -1    0    0    0  501  0.00000000000E+00  0.00000000000E+00 -0.18906870245E+04  0.18906870272E+04  0.10100000352E+00 0.  1.
    10030    2    1    2    0    0  0.00000000000E+00  0.00000000000E+00 -0.71131041035E+03  0.30700636457E+04  0.29865244497E+04 0.  0.
        2    1    3    3  502    0 -0.10062767414E+03 -0.11393934575E+04 -0.13424487722E+04  0.17636643915E+04  0.25500000920E-02 0.  1.
       -2    1    3    3    0  502  0.10062767414E+03  0.11393934575E+04  0.63113836186E+03  0.13063992543E+04  0.25500000920E-02 0. -1.
</event>
<event>
 5   0  0.3113328E-06  0.2981430E+04  0.7818609E-02  0.8249054E-01
        2   -1    0    0  501    0  0.00000000000E+00  0.00000000000E+00  0.18046237983E+04  0.18046237984E+04  0.25500000920E-02 0. -1.
       -2   -1    0    0    0  501  0.00000000000E+00  0.00000000000E+00 -0.12314099621E+04  0.12314099621E+04  0.25500000920E-02 0.  1.
    10030    2    1    2    0    0  0.00000000000E+00  0.00000000000E+00  0.57321383623E+03  0.30360337605E+04  0.29814303434E+04 0.  0.
        1    1    3    3  502    0  0.33028733436E+03  0.36302856128E+03 -0.11467778235E+04  0.12473888071E+04  0.50400001928E-02 0.  1.
       -1    1    3    3    0  502 -0.33028733436E+03 -0.36302856128E+03  0.17199916598E+04  0.17886449534E+04  0.50400001928E-02 0. -1.
</event>
<event>
 5   0  0.1054384E-06  0.3087402E+04  0.7818609E-02  0.8219204E-01
       -1   -1    0    0    0  501  0.00000000000E+00  0.00000000000E+00  0.98424753294E+03  0.98424753295E+03  0.50400001928E-02 0.  1.
        1   -1    0    0  501    0  0.00000000000E+00  0.00000000000E+00 -0.24211523213E+04  0.24211523213E+04  0.50400001928E-02 0. -1.
    10030    2    1    2    0    0  0.00000000000E+00  0.00000000000E+00 -0.14369047883E+04  0.34053998542E+04  0.30874022732E+04 0.  0.
        2    1    3    3  502    0  0.11872990677E+04 -0.93705917974E+03 -0.10588739077E+04  0.18463404169E+04  0.25500000920E-02 0.  1.
       -2    1    3    3    0  502 -0.11872990677E+04  0.93705917974E+03 -0.37803088062E+03  0.15590594374E+04  0.25500000920E-02 0. -1.
</event>
<event>
 5   0  0.2985941E-06  0.3038622E+04  0.7818609E-02  0.8232787E-01
        2   -1    0    0  501    0  0.00000000000E+00  0.00000000000E+00  0.22344733640E+04  0.22344733640E+04  0.25500000920E-02 0.  1.
       -2   -1    0    0    0  501  0.00000000000E+00  0.00000000000E+00 -0.10330425337E+04  0.10330425337E+04  0.25500000920E-02 0. -1.
    10030    2    1    2    0    0  0.00000000000E+00  0.00000000000E+00  0.12014308303E+04  0.32675158977E+04  0.30386220728E+04 0.  0.
        3    1    3    3  502    0 -0.95979020098E+03  0.10694811285E+04  0.70284358273E+02  0.14387240928E+04  0.10100000352E+00 0.  1.
       -3    1    3    3    0  502  0.95979020098E+03 -0.10694811285E+04  0.11311464721E+04  0.18287918049E+04  0.10100000352E+00 0. -1.
</event>
<event>
 5   0  0.2970915E-06  0.3004878E+04  0.7818609E-02  0.8242339E-01
        2   -1    0    0  501    0  0.00000000000E+00  0.00000000000E+00  0.14685117478E+04  0.14685117478E+04  0.25500000920E-02 0. -1.
       -2   -1    0    0    0  501  0.00000000000E+00  0.00000000000E+00 -0.15371501501E+04  0.15371501501E+04  0.25500000920E-02 0.  1.
    10030    2    1    2    0    0  0.00000000000E+00  0.00000000000E+00 -0.68638402250E+02  0.30056618979E+04  0.30048780698E+04 0.  0.
        4    1    3    3  502    0 -0.75101311743E+03  0.15916500184E+03  0.12575157491E+04  0.14733301302E+04  0.12699999809E+01 0. -1.
       -4    1    3    3    0  502  0.75101311743E+03 -0.15916500184E+03 -0.13261541513E+04  0.15323317677E+04  0.12699999809E+01 0.  1.
</event>
<event>
 5   0  0.2948711E-06  0.3003531E+04  0.7818609E-02  0.8242723E-01
        2   -1    0    0  501    0  0.00000000000E+00  0.00000000000E+00  0.14841218824E+04  0.14841218824E+04  0.25500000920E-02 0.  1.
       -2   -1    0    0    0  501  0.00000000000E+00  0.00000000000E+00 -0.15196190669E+04  0.15196190669E+04  0.25500000920E-02 0. -1.
    10030    2    1    2    0    0  0.00000000000E+00  0.00000000000E+00 -0.35497184496E+02  0.30037409494E+04  0.30035311952E+04 0.  0.
        5    1    3    3  502    0  0.10479535118E+04  0.12826875140E+03 -0.10858205479E+04  0.15144925842E+04  0.46999998093E+01 0. -1.
       -5    1    3    3    0  502 -0.10479535118E+04 -0.12826875140E+03  0.10503233634E+04  0.14892483651E+04  0.46999998093E+01 0.  1.
</event>
<event>
 5   0  0.1091075E-06  0.3010977E+04  0.7818609E-02  0.8240603E-01
       -1   -1    0    0    0  501  0.00000000000E+00  0.00000000000E+00  0.10217401210E+04  0.10217401210E+04  0.50400001928E-02 0.  1.
        1   -1    0    0  501    0  0.00000000000E+00  0.00000000000E+00 -0.22182704723E+04  0.22182704723E+04  0.50400001928E-02 0. -1.
    10030    2    1    2    0    0  0.00000000000E+00  0.00000000000E+00 -0.11965303513E+04  0.32400105934E+04  0.30109772107E+04 0.  0.
        1    1    3    3  502    0 -0.89450322049E+03 -0.25224992981E+03 -0.18727245297E+04  0.20906609488E+04  0.50400001928E-02 0. -1.
       -1    1    3    3    0  502  0.89450322049E+03  0.25224992981E+03  0.67619417840E+03  0.11493496446E+04  0.50400001928E-02 0.  1.
</event>
<event>
 5   0  0.1091076E-06  0.2997972E+04  0.7818609E-02  0.8244310E-01
       -1   -1    0    0    0  501  0.00000000000E+00  0.00000000000E+00  0.13938812172E+04  0.13938812172E+04  0.50400001928E-02 0. -1.
        1   -1    0    0  501    0  0.00000000000E+00  0.00000000000E+00 -0.16120166810E+04  0.16120166810E+04  0.50400001928E-02 0.  1.
    10030    2    1    2    0    0  0.00000000000E+00  0.00000000000E+00 -0.21813546384E+03  0.30058978982E+04  0.29979724971E+04 0.  0.
        3    1    3    3  502    0  0.29787351481E+03 -0.11735249326E+04 -0.99518593975E+03  0.15672537967E+04  0.10100000352E+00 0.  1.
       -3    1    3    3    0  502 -0.29787351481E+03  0.11735249326E+04  0.77705047592E+03  0.14386441015E+04  0.10100000352E+00 0. -1.
</event>
<event>
 5   0  0.1097402E-06  0.2998172E+04  0.7818609E-02  0.8244253E-01
        1   -1    0    0  501    0  0.00000000000E+00  0.00000000000E+00  0.13167104422E+04  0.13167104422E+04  0.50400001928E-02 0. -1.
       -1   -1    0    0    0  501  0.00000000000E+00  0.00000000000E+00 -0.17067217153E+04  0.17067217153E+04  0.50400001928E-02 0.  1.
    10030    2    1    2    0    0  0.00000000000E+00  0.00000000000E+00 -0.39001127307E+03  0.30234321575E+04  0.29981716458E+04 0.  0.
        4    1    3    3  502    0  0.94782138654E+03  0.44581545919E+03 -0.12764870697E+04  0.16512230789E+04  0.12699999809E+01 0.  1.
       -4    1    3    3    0  502 -0.94782138654E+03 -0.44581545919E+03  0.88647579660E+03  0.13722090786E+04  0.12699999809E+01 0. -1.
</event>
<event>
 5   0  0.1113245E-06  0.3017328E+04  0.7818609E-02  0.8238800E-01
       -1   -1    0    0    0  501  0.00000000000E+00  0.00000000000E+00  0.10146610657E+04  0.10146610657E+04  0.50400001928E-02 0.  1.
        1   -1    0    0  501    0  0.00000000000E+00  0.00000000000E+00 -0.22431802980E+04  0.22431802981E+04  0.50400001928E-02 0. -1.
    10030    2    1    2    0    0  0.00000000000E+00  0.00000000000E+00 -0.12285192323E+04  0.32578413638E+04  0.30173284289E+04 0.  0.
        5    1    3    3  502    0  0.14299457548E+04 -0.12928946461E+03 -0.11410184235E+03  0.14403131422E+04  0.46999998093E+01 0.  1.
       -5    1    3    3    0  502 -0.14299457548E+04  0.12928946461E+03 -0.11144173900E+04  0.18175282216E+04  0.46999998093E+01 0. -1.
</event>
<event>
 5   0  0.2985941E-06  0.2996620E+04  0.7818609E-02  0.8244697E-01
       -2   -1    0    0    0  501  0.00000000000E+00  0.00000000000E+00  0.10447886761E+04  0.10447886761E+04  0.25500000920E-02 0.  1.
        2   -1    0    0  501    0  0.00000000000E+00  0.00000000000E+00 -0.21486963255E+04  0.21486963255E+04  0.25500000920E-02 0. -1.
    10030    2    1    2    0    0  0.00000000000E+00  0.00000000000E+00 -0.11039076494E+04  0.31934850017E+04  0.29966204894E+04 0.  0.
        3    1    3    3  502    0 -0.14233560495E+04  0.43372161504E+03 -0.73921534607E+03  0.16614741109E+04  0.10100000352E+00 0. -1.
       -3    1    3    3    0  502  0.14233560495E+04 -0.43372161504E+03 -0.36469230333E+03  0.15320108908E+04  0.10100000352E+00 0.  1.
</event>
<event>
 5   0  0.1054384E-06  0.2961422E+04  0.7818609E-02  0.8254833E-01
        1   -1    0    0  501    0  0.00000000000E+00  0.00000000000E+00  0.21798648001E+04  0.21798648001E+04  0.50400001928E-02 0.  1.
       -1   -1    0    0    0  501  0.00000000000E+00  0.00000000000E+00 -0.10057989829E+04  0.10057989829E+04  0.50400001928E-02 0. -1.
    10030    2    1    2    0    0  0.00000000000E+00  0.00000000000E+00  0.11740658172E+04  0.31856637831E+04  0.29614224953E+04 0.  0.
        2    1    3    3  502    0  0.94454818997E+03  0.48533585971E+03 -0.52298567009E+03  0.11837382274E+04  0.25500000920E-02 0. -1.
       -2    1    3    3    0  502 -0.94454818997E+03 -0.48533585971E+03  0.16970514873E+04  0.20019255557E+04  0.25500000920E-02 0.  1.
</event>
<event>
 5   0  0.1097402E-06  0.2995722E+04  0.7818609E-02  0.8244953E-01
       -1   -1    0    0    0  501  0.00000000000E+00  0.00000000000E+00  0.16290405896E+04  0.16290405896E+04  0.50400001928E-02 0. -1.
        1   -1    0    0  501    0  0.00000000000E+00  0.00000000000E+00 -0.13772449575E+04  0.13772449575E+04  0.50400001928E-02 0.  1.
    10030    2    1    2    0    0  0.00000000000E+00  0.00000000000E+00  0.25179563207E+03  0.30062855470E+04  0.29957222418E+04 0.  0.
        4    1    3    3  502    0 -0.17795435108E+03  0.11134884412E+04 -0.86351078755E+03  0.14202734782E+04  0.12699999809E+01 0.  1.
       -4    1    3    3    0  502  0.17795435108E+03 -0.11134884412E+04  0.11153064196E+04  0.15860120688E+04  0.12699999809E+01 0. -1.
</event>
<event>
 5   0  0.1091076E-06  0.3005797E+04  0.7818609E-02  0.8242078E-01
       -1   -1    0    0    0  501  0.00000000000E+00  0.00000000000E+00  0.14699717738E+04  0.14699717738E+04  0.50400001928E-02 0. -1.
        1   -1    0    0  501    0  0.00000000000E+00  0.00000000000E+00 -0.15365623980E+04  0.15365623981E+04  0.50400001928E-02 0.  1.
    10030    2    1    2    0    0  0.00000000000E+00  0.00000000000E+00 -0.66590624234E+02  0.30065341719E+04  0.30057966357E+04 0.  0.
        3    1    3    3  502    0  0.86285588165E+03  0.81818859785E+02 -0.12613949111E+04  0.15304678142E+04  0.10100000352E+00 0.  1.
       -3    1    3    3    0  502 -0.86285588165E+03 -0.81818859785E+02  0.11948042868E+04  0.14760663577E+04  0.10100000352E+00 0. -1.
</event>
<event>
 5   0  0.1097402E-06  0.3009802E+04  0.7818609E-02  0.8240937E-01
        1   -1    0    0  501    0  0.00000000000E+00  0.00000000000E+00  0.17150671633E+04  0.17150671633E+04  0.50400001928E-02 0. -1.
       -1   -1    0    0    0  501  0.00000000000E+00  0.00000000000E+00 -0.13204891616E+04  0.13204891616E+04  0.50400001928E-02 0.  1.
    10030    2    1    2    0    0  0.00000000000E+00  0.00000000000E+00  0.39457800169E+03  0.30355563250E+04  0.30098023860E+04 0.  0.
        4    1    3    3  502    0  0.18107007361E+03  0.14036912144E+04 -0.31854667230E+03  0.14507270564E+04  0.12699999809E+01 0.  1.
       -4    1    3    3    0  502 -0.18107007361E+03 -0.14036912144E+04  0.71312467399E+03  0.15848292685E+04  0.12699999809E+01 0. -1.
</event>
<event>
 5   0  0.2862033E-06  0.2994275E+04  0.7818609E-02  0.8245367E-01
        2   -1    0    0  501    0  0.00000000000E+00  0.00000000000E+00  0.14589310778E+04  0.14589310778E+04  0.25500000920E-02 0.  1.
       -2   -1    0    0    0  501  0.00000000000E+00  0.00000000000E+00 -0.15363448546E+04  0.15363448546E+04  0.25500000920E-02 0. -1.
    10030    2    1    2    0    0  0.00000000000E+00  0.00000000000E+00 -0.77413776786E+02  0.29952759324E+04  0.29942753745E+04 0.  0.
        2    1    3    3  502    0  0.47580058847E+03 -0.10933773786E+04 -0.94430546283E+03  0.15210434245E+04  0.25500000920E-02 0.  1.
       -2    1    3    3    0  502 -0.47580058847E+03  0.10933773786E+04  0.86689168605E+03  0.14742325079E+04  0.25500000920E-02 0. -1.
</event>
<event>
 5   0  0.2948711E-06  0.3001433E+04  0.7818609E-02  0.8243322E-01
        2   -1    0    0  501    0  0.00000000000E+00  0.00000000000E+00  0.27390399516E+04  0.27390399516E+04  0.25500000920E-02 0.  1.
       -2   -1    0    0    0  501  0.00000000000E+00  0.00000000000E+00 -0.82224079381E+03  0.82224079381E+03  0.25500000920E-02 0. -1.
    10030    2    1    2    0    0  0.00000000000E+00  0.00000000000E+00  0.19167991578E+04  0.35612807455E+04  0.30014332470E+04 0.  0.
        5    1    3    3  502    0 -0.23462447836E+03  0.47060532734E+03 -0.70933971252E+03  0.88300789222E+03  0.46999998093E+01 0. -1.
       -5    1    3    3    0  502  0.23462447836E+03 -0.47060532734E+03  0.26261388704E+04  0.26782728532E+04  0.46999998093E+01 0.  1.
</event>
<event>
 5   0  0.2985941E-06  0.3008607E+04  0.7818609E-02  0.8241277E-01
       -2   -1    0    0    0  501  0.00000000000E+00  0.00000000000E+00  0.11678247691E+04  0.11678247691E+04  0.25500000920E-02 0. -1.
        2   -1    0    0  501    0  0.00000000000E+00  0.00000000000E+00 -0.19377299388E+04  0.19377299388E+04  0.25500000920E-02 0.  1.
    10030    2    1    2    0    0  0.00000000000E+00  0.00000000000E+00 -0.76990516975E+03  0.31055547079E+04  0.30086069989E+04 0.  0.
        3    1    3    3  502    0 -0.57954422273E+03 -0.49866755500E+03 -0.17222251284E+04  0.18843036484E+04  0.10100000352E+00 0.  1.
       -3    1    3    3    0  502  0.57954422273E+03  0.49866755500E+03  0.95231995863E+03  0.12212510595E+04  0.10100000352E+00 0. -1.
</event>
<event>
 5   0  0.2948711E-06  0.3008502E+04  0.7818609E-02  0.8241307E-01
        2   -1    0    0  501    0  0.00000000000E+00  0.00000000000E+00  0.22133418036E+04  0.22133418036E+04  0.25500000920E-02 0. -1.
       -2   -1    0    0    0  501  0.00000000000E+00  0.00000000000E+00 -0.10223321656E+04  0.10223321656E+04  0.25500000920E-02 0.  1.
    10030    2    1    2    0    0  0.00000000000E+00  0.00000000000E+00  0.11910096380E+04  0.32356739692E+04  0.30085016332E+04 0.  0.
        5    1    3    3  502    0 -0.20319603837E+03  0.54605847504E+03 -0.89603809953E+03  0.10688193739E+04  0.46999998093E+01 0.  1.
       -5    1    3    3    0  502  0.20319603837E+03 -0.54605847504E+03  0.20870477376E+04  0.21668545953E+04  0.46999998093E+01 0. -1.
</event>
<event>
 5   0  0.1097402E-06  0.2961540E+04  0.7818609E-02  0.8254800E-01
       -1   -1    0    0    0  501  0.00000000000E+00  0.00000000000E+00  0.96266243360E+03  0.96266243361E+03  0.50400001928E-02 0.  1.
        1   -1    0    0  501    0  0.00000000000E+00  0.00000000000E+00 -0.22777239834E+04  0.22777239834E+04  0.50400001928E-02 0. -1.
    10030    2    1    2    0    0  0.00000000000E+00  0.00000000000E+00 -0.13150615498E+04  0.32403864170E+04  0.29615396759E+04 0.  0.
        4    1    3    3  502    0 -0.90991342364E+03  0.84300412221E+03 -0.15424313026E+04  0.19793166307E+04  0.12699999809E+01 0. -1.
       -4    1    3    3    0  502  0.90991342364E+03 -0.84300412221E+03  0.22736975275E+03  0.12610697863E+04  0.12699999809E+01 0.  1.
</event>
<event>
 5   0  0.1113245E-06  0.3017432E+04  0.7818609E-02  0.8238770E-01
        1   -1    0    0  501    0  0.00000000000E+00  0.00000000000E+00  0.17912791462E+04  0.17912791462E+04  0.50400001928E-02 0. -1.
       -1   -1    0    0    0  501  0.00000000000E+00  0.00000000000E+00 -0.12707255852E+04  0.12707255852E+04  0.50400001928E-02 0.  1.
    10030    2    1    2    0    0  0.00000000000E+00  0.00000000000E+00  0.52055356098E+03  0.30620047314E+04  0.30174321807E+04 0.  0.
        5    1    3    3  502    0 -0.13900809141E+04  0.57117954698E+03  0.39502045805E+03  0.15539093522E+04  0.46999998093E+01 0.  1.
       -5    1    3    3    0  502  0.13900809141E+04 -0.57117954698E+03  0.12553310293E+03  0.15080953792E+04  0.46999998093E+01 0. -1.
</event>
<event>
 5   0  0.1091076E-06  0.3001530E+04  0.7818609E-02  0.8243294E-01
       -1   -1    0    0    0  501  0.00000000000E+00  0.00000000000E+00  0.16581531777E+04  0.16581531777E+04  0.50400001928E-02 0. -1.
        1   -1    0    0  501    0  0.00000000000E+00  0.00000000000E+00 -0.13583160934E+04  0.13583160934E+04  0.50400001928E-02 0.  1.
    10030    2    1    2    0    0  0.00000000000E+00  0.00000000000E+00  0.29983708424E+03  0.30164692711E+04  0.30015303740E+04 0.  0.
        3    1    3    3  502    0 -0.23150382101E+02  0.54309112002E+03  0.15557418522E+04  0.16479734906E+04  0.10100000352E+00 0. -1.
       -3    1    3    3    0  502  0.23150382101E+02 -0.54309112002E+03 -0.12559047680E+04  0.13684957805E+04  0.10100000352E+00 0.  1.
</event>
<event>
 5   0  0.1113245E-06  0.2936851E+04  0.7818609E-02  0.8261997E-01
       -1   -1    0    0    0  501  0.00000000000E+00  0.00000000000E+00  0.12755511890E+04  0.12755511890E+04  0.50400001928E-02 0.  1.
        1   -1    0    0  501    0  0.00000000000E+00  0.00000000000E+00 -0.16904638318E+04  0.16904638318E+04  0.50400001928E-02 0. -1.
    10030    2    1    2    0    0  0.00000000000E+00  0.00000000000E+00 -0.41491264283E+03  0.29660150208E+04  0.29368507967E+04 0.  0.
        5    1    3    3  502    0 -0.12948719439E+04  0.68798578458E+03 -0.28719139865E+03  0.14941615643E+04  0.46999998093E+01 0.  1.
       -5    1    3    3    0  502  0.12948719439E+04 -0.68798578458E+03 -0.12772124418E+03  0.14718534564E+04  0.46999998093E+01 0. -1.
</event>
<event>
 5   0  0.2862033E-06  0.2993422E+04  0.7818609E-02  0.8245612E-01
       -2   -1    0    0    0  501  0.00000000000E+00  0.00000000000E+00  0.83404457264E+03  0.83404457264E+03  0.25500000920E-02 0.  1.
        2   -1    0    0  501    0  0.00000000000E+00  0.00000000000E+00 -0.26858799302E+04  0.26858799302E+04  0.25500000920E-02 0. -1.
    10030    2    1    2    0    0  0.00000000000E+00  0.00000000000E+00 -0.18518353576E+04  0.35199245029E+04  0.29934218404E+04 0.  0.
        2    1    3    3  502    0  0.31030452078E+03 -0.12777757517E+04 -0.17666098035E+04  0.22022511131E+04  0.25500000920E-02 0. -1.
       -2    1    3    3    0  502 -0.31030452078E+03  0.12777757517E+04 -0.85225554110E+02  0.13176733898E+04  0.25500000920E-02 0.  1.
</event>
<event>
 5   0  0.2985941E-06  0.3015253E+04  0.7818609E-02  0.8239389E-01
       -2   -1    0    0    0  501  0.00000000000E+00  0.00000000000E+00  0.84389863040E+03  0.84389863041E+03  0.25500000920E-02 0.  1.
        2   -1    0    0  501    0  0.00000000000E+00  0.00000000000E+00 -0.26933779429E+04  0.26933779429E+04  0.25500000920E-02 0. -1.
    10030    2    1    2    0    0  0.00000000000E+00  0.00000000000E+00 -0.18494793125E+04  0.35372765733E+04  0.30152531948E+04 0.  0.
        3    1    3    3  502    0  0.13362822823E+04  0.69441165657E+03 -0.10083537832E+04  0.18123562699E+04  0.10100000352E+00 0.  1.
       -3    1    3    3    0  502 -0.13362822823E+04 -0.69441165657E+03 -0.84112552932E+03  0.17249203034E+04  0.10100000352E+00 0. -1.
</event>
<event>
 5   0  0.2985941E-06  0.3005545E+04  0.7818609E-02  0.8242149E-01
        2   -1    0    0  501    0  0.00000000000E+00  0.00000000000E+00  0.22391514719E+04  0.22391514719E+04  0.25500000920E-02 0.  1.
       -2   -1    0    0    0  501  0.00000000000E+00  0.00000000000E+00 -0.10085629530E+04  0.10085629530E+04  0.25500000920E-02 0. -1.
    10030    2    1    2    0    0  0.00000000000E+00  0.00000000000E+00  0.12305885189E+04  0.32477144249E+04  0.30055450226E+04 0.  0.
        3    1    3    3  502    0 -0.23021799180E+02 -0.14031610783E+03 -0.10012774712E+04  0.10113234883E+04  0.10100000352E+00 0. -1.
       -3    1    3    3    0  502  0.23021799180E+02  0.14031610783E+03  0.22318659901E+04  0.22363909367E+04  0.10100000352E+00 0.  1.
</event>
<event>
 5   0  0.1054384E-06  0.2995652E+04  0.7818609E-02  0.8244974E-01
        1   -1    0    0  501    0  0.00000000000E+00  0.00000000000E+00  0.15545454995E+04  0.15545454995E+04  0.50400001928E-02 0.  1.
       -1   -1    0    0    0  501  0.00000000000E+00  0.00000000000E+00 -0.14431760694E+04  0.14431760694E+04  0.50400001928E-02 0. -1.
    10030    2    1    2    0    0  0.00000000000E+00  0.00000000000E+00  0.11136943017E+03  0.29977215689E+04  0.29956520918E+04 0.  0.
        2    1    3    3  502    0 -0.11068364071E+04 -0.98898779472E+03  0.25656993655E+03  0.15063239434E+04  0.25500000920E-02 0.  1.
       -2    1    3    3    0  502  0.11068364071E+04  0.98898779472E+03 -0.14520050639E+03  0.14913976255E+04  0.25500000920E-02 0. -1.
</event>
<event>
 5   0  0.2970915E-06  0.3036422E+04  0.7818609E-02  0.8233406E-01
       -2   -1    0    0    0  501  0.00000000000E+00  0.00000000000E+00  0.10557550824E+04  0.10557550824E+04  0.25500000920E-02 0.  1.
        2   -1    0    0  501    0  0.00000000000E+00  0.00000000000E+00 -0.21832385710E+04  0.21832385710E+04  0.25500000920E-02 0. -1.
    10030    2    1    2    0    0  0.00000000000E+00  0.00000000000E+00 -0.11274834887E+04  0.32389936534E+04  0.30364223800E+04 0.  0.
        4    1    3    3  502    0  0.13899312945E+04 -0.19525853583E+03  0.53597802311E+02  0.14046028750E+04  0.12699999809E+01 0.  1.
       -4    1    3    3    0  502 -0.13899312945E+04  0.19525853583E+03 -0.11810812910E+04  0.18343907784E+04  0.12699999809E+01 0. -1.
</event>
<event>
 5   0  0.2985941E-06  0.2989523E+04  0.7818609E-02  0.8246729E-01
        2   -1    0    0  501    0  0.00000000000E+00  0.00000000000E+00  0.19658315991E+04  0.19658315991E+04  0.25500000920E-02 0. -1.
       -2   -1    0    0    0  501  0.00000000000E+00  0.00000000000E+00 -0.11365735373E+04  0.11365735373E+04  0.25500000920E-02 0.  1.
    10030    2    1    2    0    0  0.00000000000E+00  0.00000000000E+00  0.82925806180E+03  0.31024051364E+04  0.29895231555E+04 0.  0.
        3    1    3    3  502    0 -0.82995332799E+03  0.96297171763E+03  0.12305579873E+04  0.17692964777E+04  0.10100000352E+00 0.  1.
       -3    1    3    3    0  502  0.82995332799E+03 -0.96297171763E+03 -0.40129992550E+03  0.13331086587E+04  0.10100000352E+00 0. -1.
</event>
<event>
 5   0  0.2985941E-06  0.2998750E+04  0.7818609E-02  0.8244088E-01
        2   -1    0    0  501    0  0.00000000000E+00  0.00000000000E+00  0.15519641187E+04  0.15519641187E+04  0.25500000920E-02 0.  1.
       -2   -1    0    0    0  501  0.00000000000E+00  0.00000000000E+00 -0.14485679173E+04  0.14485679174E+04  0.25500000920E-02 0. -1.
    10030    2    1    2    0    0  0.00000000000E+00  0.00000000000E+00  0.10339620136E+03  0.30005320361E+04  0.29987500271E+04 0.  0.
        3    1    3    3  502    0 -0.10989166994E+04  0.88437477307E+03 -0.45692352304E+03  0.14827392784E+04  0.10100000352E+00 0.  1.
       -3    1    3    3    0  502  0.10989166994E+04 -0.88437477307E+03  0.56031972440E+03  0.15177927577E+04  0.10100000352E+00 0. -1.
</event>
<event>
 5   0  0.2985941E-06  0.2987341E+04  0.7818609E-02  0.8247355E-01
        2   -1    0    0  501    0  0.00000000000E+00  0.00000000000E+00  0.10511781072E+04  0.10511781072E+04  0.25500000920E-02 0. -1.
       -2   -1    0    0    0  501  0.00000000000E+00  0.00000000000E+00 -0.21224290416E+04  0.21224290416E+04  0.25500000920E-02 0.  1.
    10030    2    1    2    0    0  0.00000000000E+00  0.00000000000E+00 -0.10712509344E+04  0.31736071488E+04  0.29873405849E+04 0.  0.
        3    1    3    3  502    0  0.12531801361E+04 -0.77433914469E+03 -0.79798418096E+03  0.16753627451E+04  0.10100000352E+00 0. -1.
       -3    1    3    3    0  502 -0.12531801361E+04  0.77433914469E+03 -0.27326675345E+03  0.14982444037E+04  0.10100000352E+00 0.  1.
</event>
<event>
 5   0  0.2948711E-06  0.2996687E+04  0.7818609E-02  0.8244678E-01
       -2   -1    0    0    0  501  0.00000000000E+00  0.00000000000E+00  0.99200630633E+03  0.99200630634E+03  0.25500000920E-02 0.  1.
        2   -1    0    0  501    0  0.00000000000E+00  0.00000000000E+00 -0.22631239054E+04  0.22631239055E+04  0.25500000920E-02 0. -1.
    10030    2    1    2    0    0  0.00000000000E+00  0.00000000000E+00 -0.12711175991E+04  0.32551302118E+04  0.29966869614E+04 0.  0.
        5    1    3    3  502    0 -0.58095362490E+03  0.13303258939E+04 -0.10386954602E+04  0.17849886407E+04  0.46999998093E+01 0. -1.
       -5    1    3    3    0  502  0.58095362490E+03 -0.13303258939E+04 -0.23242213887E+03  0.14701415711E+04  0.46999998093E+01 0.  1.
</event>
<event>
 5   0  0.1091076E-06  0.2977596E+04  0.7818609E-02  0.8250157E-01
       -1   -1    0    0    0  501  0.00000000000E+00  0.00000000000E+00  0.94064089700E+03  0.94064089701E+03  0.50400001928E-02 0. -1.
        1   -1    0    0  501    0  0.00000000000E+00  0.00000000000E+00 -0.23563933000E+04  0.23563933000E+04  0.50400001928E-02 0.  1.
    10030    2    1    2    0    0  0.00000000000E+00  0.00000000000E+00 -0.14157524030E+04  0.32970341970E+04  0.29775962839E+04 0.  0.
        3    1    3    3  502    0 -0.63483529638E+03 -0.39151575701E+03 -0.21346015829E+04  0.22611555385E+04  0.10100000352E+00 0.  1.
       -3    1    3    3    0  502  0.63483529638E+03  0.39151575701E+03  0.71884917988E+03  0.10358786585E+04  0.10100000352E+00 0. -1.
</event>
<event>
 5   0  0.1054384E-06  0.2974703E+04  0.7818609E-02  0.8250992E-01
        1   -1    0    0  501    0  0.00000000000E+00  0.00000000000E+00  0.12043568751E+04  0.12043568751E+04  0.50400001928E-02 0.  1.
       -1   -1    0    0    0  501  0.00000000000E+00  0.00000000000E+00 -0.18368424421E+04  0.18368424421E+04  0.50400001928E-02 0. -1.
    10030    2    1    2    0    0  0.00000000000E+00  0.00000000000E+00 -0.63248556695E+03  0.30411993172E+04  0.29747025556E+04 0.  0.
        2    1    3    3  502    0 -0.13293280284E+04  0.42825922209E+03  0.20675389432E+03  0.14118307764E+04  0.25500000920E-02 0.  1.
       -2    1    3    3    0  502  0.13293280284E+04 -0.42825922209E+03 -0.83923946126E+03  0.16293685408E+04  0.25500000920E-02 0. -1.
</event>
<event>
 5   0  0.1097402E-06  0.3041831E+04  0.7818609E-02  0.8231886E-01
       -1   -1    0    0    0  501  0.00000000000E+00  0.00000000000E+00  0.14437404240E+04  0.14437404240E+04  0.50400001928E-02 0. -1.
        1   -1    0    0  501    0  0.00000000000E+00  0.00000000000E+00 -0.16022161127E+04  0.16022161127E+04  0.50400001928E-02 0.  1.
    10030    2    1    2    0    0  0.00000000000E+00  0.00000000000E+00 -0.15847568871E+03  0.30459565368E+04  0.30418311393E+04 0.  0.
        4    1    3    3  502    0 -0.50229442422E+03  0.62455449244E+03 -0.13735908170E+04  0.15903211462E+04  0.12699999809E+01 0.  1.
       -4    1    3    3    0  502  0.50229442422E+03 -0.62455449244E+03  0.12151151282E+04  0.14556353906E+04  0.12699999809E+01 0. -1.
</event>
<event>
 5   0  0.2985941E-06  0.3014502E+04  0.7818609E-02  0.8239602E-01
        2   -1    0    0  501    0  0.00000000000E+00  0.00000000000E+00  0.22437102085E+04  0.22437102085E+04  0.25500000920E-02 0.  1.
       -2   -1    0    0    0  501  0.00000000000E+00  0.00000000000E+00 -0.10125221679E+04  0.10125221679E+04  0.25500000920E-02 0. -1.
    10030    2    1    2    0    0  0.00000000000E+00  0.00000000000E+00  0.12311880405E+04  0.32562323764E+04  0.30145024960E+04 0.  0.
        3    1    3    3  502    0 -0.10745029599E+04  0.83109672231E+03 -0.89867753159E+02  0.13613796663E+04  0.10100000352E+00 0. -1.
       -3    1    3    3    0  502  0.10745029599E+04 -0.83109672231E+03  0.13210557937E+04  0.18948527101E+04  0.10100000352E+00 0.  1.
</event>
<event>
 5   0  0.2985941E-06  0.2958358E+04  0.7818609E-02  0.8255723E-01
        2   -1    0    0  501    0  0.00000000000E+00  0.00000000000E+00  0.18288965252E+04  0.18288965252E+04  0.25500000920E-02 0.  1.
       -2   -1    0    0    0  501  0.00000000000E+00  0.00000000000E+00 -0.11963337940E+04  0.11963337940E+04  0.25500000920E-02 0. -1.
    10030    2    1    2    0    0  0.00000000000E+00  0.00000000000E+00  0.63256273111E+03  0.30252303192E+04  0.29583581385E+04 0.  0.
        3    1    3    3  502    0  0.39417028694E+03  0.81481618252E+03 -0.88006759380E+03  0.12624637049E+04  0.10100000352E+00 0. -1.
       -3    1    3    3    0  502 -0.39417028694E+03 -0.81481618252E+03  0.15126303249E+04  0.17627666143E+04  0.10100000352E+00 0.  1.
</event>
<event>
 5   0  0.3113328E-06  0.2992072E+04  0.7818609E-02  0.8245998E-01
        2   -1    0    0  501    0  0.00000000000E+00  0.00000000000E+00  0.26033747240E+04  0.26033747240E+04  0.25500000920E-02 0. -1.
       -2   -1    0    0    0  501  0.00000000000E+00  0.00000000000E+00 -0.85970073489E+03  0.85970073490E+03  0.25500000920E-02 0.  1.
    10030    2    1    2    0    0  0.00000000000E+00  0.00000000000E+00  0.17436739892E+04  0.34630754589E+04  0.29920716325E+04 0.  0.
        1    1    3    3  502    0 -0.30042165495E+03  0.55447610191E+03  0.24420160391E+04  0.25221299042E+04  0.50400001928E-02 0. -1.
       -1    1    3    3    0  502  0.30042165495E+03 -0.55447610191E+03 -0.69834204992E+03  0.94094555478E+03  0.50400001928E-02 0.  1.
</event>
<event>
 5   0  0.1091075E-06  0.3001860E+04  0.7818609E-02  0.8243200E-01
        1   -1    0    0  501    0  0.00000000000E+00  0.00000000000E+00  0.22396787108E+04  0.22396787109E+04  0.50400001928E-02 0. -1.
       -1   -1    0    0    0  501  0.00000000000E+00  0.00000000000E+00 -0.10058543950E+04  0.10058543950E+04  0.50400001928E-02 0.  1.
    10030    2    1    2    0    0  0.00000000000E+00  0.00000000000E+00  0.12338243159E+04  0.32455331058E+04  0.30018598733E+04 0.  0.
        1    1    3    3  502    0  0.97689062558E+03 -0.10649801573E+04  0.10551447650E+04  0.17893653917E+04  0.50400001928E-02 0. -1.
       -1    1    3    3    0  502 -0.97689062558E+03  0.10649801573E+04  0.17867955090E+03  0.14561677142E+04  0.50400001928E-02 0.  1.
</event>
<event>
 5   0  0.2862033E-06  0.2989354E+04  0.7818609E-02  0.8246777E-01
        2   -1    0    0  501    0  0.00000000000E+00  0.00000000000E+00  0.14262389775E+04  0.14262389775E+04  0.25500000920E-02 0. -1.
       -2   -1    0    0    0  501  0.00000000000E+00  0.00000000000E+00 -0.15663990106E+04  0.15663990106E+04  0.25500000920E-02 0.  1.
    10030    2    1    2    0    0  0.00000000000E+00  0.00000000000E+00 -0.14016003315E+03  0.29926379881E+04  0.29893539926E+04 0.  0.
        2    1    3    3  502    0  0.25733709038E+02  0.14939994358E+04 -0.33123540638E+02  0.14945881396E+04  0.25500000920E-02 0. -1.
       -2    1    3    3    0  502 -0.25733709038E+02 -0.14939994358E+04 -0.10703649251E+03  0.14980498485E+04  0.25500000920E-02 0.  1.
</event>
<event>
 5   0  0.2985941E-06  0.2991070E+04  0.7818609E-02  0.8246285E-01
       -2   -1    0    0    0  501  0.00000000000E+00  0.00000000000E+00  0.17159662911E+04  0.17159662911E+04  0.25500000920E-02 0.  1.
        2   -1    0    0  501    0  0.00000000000E+00  0.00000000000E+00 -0.13034201270E+04  0.13034201270E+04  0.25500000920E-02 0. -1.
    10030    2    1    2    0    0  0.00000000000E+00  0.00000000000E+00  0.41254616407E+03  0.30193864180E+04  0.29910700433E+04 0.  0.
        3    1    3    3  502    0  0.44461326365E+02 -0.33092540358E+03  0.16778587014E+04  0.17107595577E+04  0.10100000352E+00 0.  1.
       -3    1    3    3    0  502 -0.44461326365E+02  0.33092540358E+03 -0.12653125373E+04  0.13086268603E+04  0.10100000352E+00 0. -1.
</event>
<event>
 5   0  0.1091075E-06  0.3169770E+04  0.7818609E-02  0.8196847E-01
        1   -1    0    0  501    0  0.00000000000E+00  0.00000000000E+00  0.22035913411E+04  0.22035913411E+04  0.50400001928E-02 0.  1.
       -1   -1    0    0    0  501  0.00000000000E+00  0.00000000000E+00 -0.11398936657E+04  0.11398936658E+04  0.50400001928E-02 0. -1.
    10030    2    1    2    0    0  0.00000000000E+00  0.00000000000E+00  0.10636976754E+04  0.33434850069E+04  0.31697695889E+04 0.  0.
        1    1    3    3  502    0  0.82555269442E+03  0.10267727115E+04 -0.39737306044E+03  0.13761194721E+04  0.50400001928E-02 0. -1.
       -1    1    3    3    0  502 -0.82555269442E+03 -0.10267727115E+04  0.14610707358E+04  0.19673655348E+04  0.50400001928E-02 0.  1.
</event>
<event>
 5   0  0.2970915E-06  0.3024055E+04  0.7818609E-02  0.8236895E-01
        2   -1    0    0  501    0  0.00000000000E+00  0.00000000000E+00  0.15433536239E+04  0.15433536239E+04  0.25500000920E-02 0.  1.
       -2   -1    0    0    0  501  0.00000000000E+00  0.00000000000E+00 -0.14813376362E+04  0.14813376362E+04  0.25500000920E-02 0. -1.
    10030    2    1    2    0    0  0.00000000000E+00  0.00000000000E+00  0.62015987698E+02  0.30246912601E+04  0.30240554288E+04 0.  0.
        4    1    3    3  502    0  0.16165236026E+03 -0.12990191257E+04 -0.72588357882E+03  0.14968268963E+04  0.12699999809E+01 0. -1.
       -4    1    3    3    0  502 -0.16165236026E+03  0.12990191257E+04  0.78789956652E+03  0.15278643639E+04  0.12699999809E+01 0.  1.
</event>
<event>
 5   0  0.9749500E-07  0.3001357E+04  0.7818609E-02  0.8243343E-01
        3   -1    0    0  501    0  0.00000000000E+00  0.00000000000E+00  0.12265174966E+04  0.12265175008E+04  0.10100000352E+00 0.  1.
       -3   -1    0    0    0  501  0.00000000000E+00  0.00000000000E+00 -0.18361223201E+04  0.18361223229E+04  0.10100000352E+00 0. -1.
    10030    2    1    2    0    0  0.00000000000E+00  0.00000000000E+00 -0.60960482351E+03  0.30626398236E+04  0.30013571344E+04 0.  0.
        1    1    3    3  502    0 -0.17623484389E+03  0.50148839543E+03  0.11272364060E+04  0.12462789599E+04  0.50400001928E-02 0.  1.
       -1    1    3    3    0  502  0.17623484389E+03 -0.50148839543E+03 -0.17368412295E+04  0.18163608637E+04  0.50400001928E-02 0. -1.
</event>
<event>
 5   0  0.2948711E-06  0.3004537E+04  0.7818609E-02  0.8242436E-01
       -2   -1    0    0    0  501  0.00000000000E+00  0.00000000000E+00  0.10585139393E+04  0.10585139393E+04  0.25500000920E-02 0.  1.
        2   -1    0    0  501    0  0.00000000000E+00  0.00000000000E+00 -0.21320559033E+04  0.21320559033E+04  0.25500000920E-02 0. -1.
    10030    2    1    2    0    0  0.00000000000E+00  0.00000000000E+00 -0.10735419640E+04  0.31905698426E+04  0.30045371643E+04 0.  0.
        5    1    3    3  502    0  0.11486050579E+04 -0.22865986079E+03  0.46234016591E+03  0.12591105710E+04  0.46999998093E+01 0.  1.
       -5    1    3    3    0  502 -0.11486050579E+04  0.22865986079E+03 -0.15358821299E+04  0.19314592716E+04  0.46999998093E+01 0. -1.
</event>
<event>
 5   0  0.2970915E-06  0.3045911E+04  0.7818609E-02  0.8230741E-01
       -2   -1    0    0    0  501  0.00000000000E+00  0.00000000000E+00  0.10659448296E+04  0.10659448296E+04  0.25500000920E-02 0.  1.
        2   -1    0    0  501    0  0.00000000000E+00  0.00000000000E+00 -0.21759040252E+04  0.21759040252E+04  0.25500000920E-02 0. -1.
    10030    2    1    2    0    0  0.00000000000E+00  0.00000000000E+00 -0.11099591956E+04  0.32418488548E+04  0.30459111250E+04 0.  0.
        4    1    3    3  502    0  0.14896643536E+04  0.10808646704E+03 -0.23815741296E+03  0.15124493833E+04  0.12699999809E+01 0. -1.
       -4    1    3    3    0  502 -0.14896643536E+04 -0.10808646704E+03 -0.87180178265E+03  0.17293994715E+04  0.12699999809E+01 0.  1.
</event>
<event>
 5   0  0.2985941E-06  0.2999263E+04  0.7818609E-02  0.8243941E-01
       -2   -1    0    0    0  501  0.00000000000E+00  0.00000000000E+00  0.12261214611E+04  0.12261214611E+04  0.25500000920E-02 0. -1.
        2   -1    0    0  501    0  0.00000000000E+00  0.00000000000E+00 -0.18341533625E+04  0.18341533625E+04  0.25500000920E-02 0.  1.
    10030    2    1    2    0    0  0.00000000000E+00  0.00000000000E+00 -0.60803190143E+03  0.30602748237E+04  0.29992631100E+04 0.  0.
        3    1    3    3  502    0  0.31882189344E+03 -0.10838220240E+04  0.70223871756E+03  0.13302093091E+04  0.10100000352E+00 0. -1.
       -3    1    3    3    0  502 -0.31882189344E+03  0.10838220240E+04 -0.13102706190E+04  0.17300655145E+04  0.10100000352E+00 0.  1.
</event>
<event>
 5   0  0.2985941E-06  0.3009281E+04  0.7818609E-02  0.8241086E-01
        2   -1    0    0  501    0  0.00000000000E+00  0.00000000000E+00  0.15023010091E+04  0.15023010091E+04  0.25500000920E-02 0. -1.
       -2   -1    0    0    0  501  0.00000000000E+00  0.00000000000E+00 -0.15069832730E+04  0.15069832730E+04  0.25500000920E-02 0.  1.
    10030    2    1    2    0    0  0.00000000000E+00  0.00000000000E+00 -0.46822639245E+01  0.30092842821E+04  0.30092806394E+04 0.  0.
        3    1    3    3  502    0 -0.92130796914E+02  0.12603766420E+04 -0.81898470937E+03  0.15059127889E+04  0.10100000352E+00 0.  1.
       -3    1    3    3    0  502  0.92130796914E+02 -0.12603766420E+04  0.81430244545E+03  0.15033714931E+04  0.10100000352E+00 0. -1.
</event>
<event>
 5   0  0.2862033E-06  0.2982273E+04  0.7818609E-02  0.8248811E-01
        2   -1    0    0  501    0  0.00000000000E+00  0.00000000000E+00  0.12395085146E+04  0.12395085146E+04  0.25500000920E-02 0. -1.
       -2   -1    0    0    0  501  0.00000000000E+00  0.00000000000E+00 -0.17938465170E+04  0.17938465170E+04  0.25500000920E-02 0.  1.
    10030    2    1    2    0    0  0.00000000000E+00  0.00000000000E+00 -0.55433800235E+03  0.30333550316E+04  0.29822729799E+04 0.  0.
        2    1    3    3  502    0 -0.13975787117E+04 -0.40664710037E+03  0.52261200990E+02  0.14564749750E+04  0.25500000920E-02 0. -1.
       -2    1    3    3    0  502  0.13975787117E+04  0.40664710037E+03 -0.60659920334E+03  0.15768800566E+04  0.25500000920E-02 0.  1.
</event>
<event>
 5   0  0.2985941E-06  0.2949262E+04  0.7818609E-02  0.8258370E-01
       -2   -1    0    0    0  501  0.00000000000E+00  0.00000000000E+00  0.96902466376E+03  0.96902466376E+03  0.25500000920E-02 0. -1.
        2   -1    0    0  501    0  0.00000000000E+00  0.00000000000E+00 -0.22440463527E+04  0.22440463527E+04  0.25500000920E-02 0.  1.
    10030    2    1    2    0    0  0.00000000000E+00  0.00000000000E+00 -0.12750216889E+04  0.32130710164E+04  0.29492617804E+04 0.  0.
        3    1    3    3  502    0 -0.19958306818E+03  0.17959014374E+03 -0.22171935511E+04  0.22333905333E+04  0.10100000352E+00 0.  1.
       -3    1    3    3    0  502  0.19958306818E+03 -0.17959014374E+03  0.94217186223E+03  0.97968048312E+03  0.10100000352E+00 0. -1.
</event>
<event>
 5   0  0.1113245E-06  0.3100835E+04  0.7818609E-02  0.8215509E-01
        1   -1    0    0  501    0  0.00000000000E+00  0.00000000000E+00  0.22199675792E+04  0.22199675792E+04  0.50400001928E-02 0.  1.
       -1   -1    0    0    0  501  0.00000000000E+00  0.00000000000E+00 -0.10828059557E+04  0.10828059557E+04  0.50400001928E-02 0. -1.
    10030    2    1    2    0    0  0.00000000000E+00  0.00000000000E+00  0.11371616235E+04  0.33027735349E+04  0.31008348013E+04 0.  0.
        5    1    3    3  502    0 -0.73388565279E+03  0.77214507457E+03 -0.63126888585E+03  0.12382724514E+04  0.46999998093E+01 0. -1.
       -5    1    3    3    0  502  0.73388565279E+03 -0.77214507457E+03  0.17684305093E+04  0.20645010835E+04  0.46999998093E+01 0.  1.
</event>
<event>
 5   0  0.3113328E-06  0.2998161E+04  0.7818609E-02  0.8244256E-01
        2   -1    0    0  501    0  0.00000000000E+00  0.00000000000E+00  0.17414328166E+04  0.17414328166E+04  0.25500000920E-02 0. -1.
       -2   -1    0    0    0  501  0.00000000000E+00  0.00000000000E+00 -0.12904560278E+04  0.12904560278E+04  0.25500000920E-02 0.  1.
    10030    2    1    2    0    0  0.00000000000E+00  0.00000000000E+00  0.45097678886E+03  0.30318888444E+04  0.29981610865E+04 0.  0.
        1    1    3    3  502    0 -0.57423928938E+03  0.56842807966E+03 -0.10514042897E+04  0.13260136589E+04  0.50400001928E-02 0.  1.
       -1    1    3    3    0  502  0.57423928938E+03 -0.56842807966E+03  0.15023810785E+04  0.17058751855E+04  0.50400001928E-02 0. -1.
</event>
<event>
 5   0  0.1091076E-06  0.3001463E+04  0.7818609E-02  0.8243313E-01
        1   -1    0    0  501    0  0.00000000000E+00  0.00000000000E+00  0.15582537950E+04  0.15582537950E+04  0.50400001928E-02 0.  1.
       -1   -1    0    0    0  501  0.00000000000E+00  0.00000000000E+00 -0.14453321670E+04  0.14453321670E+04  0.50400001928E-02 0. -1.
    10030    2    1    2    0    0  0.00000000000E+00  0.00000000000E+00  0.11292162801E+03  0.30035859620E+04  0.30014625330E+04 0.  0.
        3    1    3    3  502    0  0.12865373160E+04  0.76910654271E+03  0.13061576731E+03  0.15045808813E+04  0.10100000352E+00 0.  1.
       -3    1    3    3    0  502 -0.12865373160E+04 -0.76910654271E+03 -0.17694139299E+02  0.14990050808E+04  0.10100000352E+00 0. -1.
</event>
<event>
 5   0  0.2970915E-06  0.3012695E+04  0.7818609E-02  0.8240115E-01
       -2   -1    0    0    0  501  0.00000000000E+00  0.00000000000E+00  0.15766571735E+04  0.15766571735E+04  0.25500000920E-02 0.  1.
        2   -1    0    0  501    0  0.00000000000E+00  0.00000000000E+00 -0.14391736549E+04  0.14391736549E+04  0.25500000920E-02 0. -1.
    10030    2    1    2    0    0  0.00000000000E+00  0.00000000000E+00  0.13748351860E+03  0.30158308285E+04  0.30126954489E+04 0.  0.
        4    1    3    3  502    0  0.87236415768E+03 -0.32107747542E+03  0.12552904428E+04  0.15620069390E+04  0.12699999809E+01 0.  1.
       -4    1    3    3    0  502 -0.87236415768E+03  0.32107747542E+03 -0.11178069242E+04  0.14538238895E+04  0.12699999809E+01 0. -1.
</event>
<event>
 5   0  0.2970915E-06  0.3009648E+04  0.7818609E-02  0.8240981E-01
        2   -1    0    0  501    0  0.00000000000E+00  0.00000000000E+00  0.27945620048E+04  0.27945620048E+04  0.25500000920E-02 0. -1.
       -2   -1    0    0    0  501  0.00000000000E+00  0.00000000000E+00 -0.81032189838E+03  0.81032189839E+03  0.25500000920E-02 0.  1.
    10030    2    1    2    0    0  0.00000000000E+00  0.00000000000E+00  0.19842401065E+04  0.36048839032E+04  0.30096476797E+04 0.  0.
        4    1    3    3  502    0 -0.87036847201E+03 -0.10906134456E+04  0.16670476844E+04  0.21739430903E+04  0.12699999809E+01 0. -1.
       -4    1    3    3    0  502  0.87036847201E+03  0.10906134456E+04  0.31719242206E+03  0.14309408130E+04  0.12699999809E+01 0.  1.
</event>
<event>
 5   0  0.2970915E-06  0.3067868E+04  0.7818609E-02  0.8224612E-01
       -2   -1    0    0    0  501  0.00000000000E+00  0.00000000000E+00  0.14664962783E+04  0.14664962783E+04  0.25500000920E-02 0.  1.
        2   -1    0    0  501    0  0.00000000000E+00  0.00000000000E+00 -0.16044724428E+04  0.16044724428E+04  0.25500000920E-02 0. -1.
    10030    2    1    2    0    0  0.00000000000E+00  0.00000000000E+00 -0.13797616452E+03  0.30709687211E+04  0.30678675760E+04 0.  0.
        4    1    3    3  502    0  0.10064713758E+04 -0.53379947070E+03  0.95919417950E+03  0.14892889552E+04  0.12699999809E+01 0.  1.
       -4    1    3    3    0  502 -0.10064713758E+04  0.53379947070E+03 -0.10971703440E+04  0.15816797659E+04  0.12699999809E+01 0. -1.
</event>
<event>
 5   0  0.3113328E-06  0.2985650E+04  0.7818609E-02  0.8247841E-01
       -2   -1    0    0    0  501  0.00000000000E+00  0.00000000000E+00  0.81358534054E+03  0.81358534054E+03  0.25500000920E-02 0.  1.
        2   -1    0    0  501    0  0.00000000000E+00  0.00000000000E+00 -0.27391424994E+04  0.27391424994E+04  0.25500000920E-02 0. -1.
    10030    2    1    2    0    0  0.00000000000E+00  0.00000000000E+00 -0.19255571588E+04  0.35527278399E+04  0.29856498007E+04 0.  0.
        1    1    3    3  502    0  0.11387232027E+04 -0.56799781706E+03 -0.34008839801E+02  0.12729762974E+04  0.50400001928E-02 0.  1.
       -1    1    3    3    0  502 -0.11387232027E+04  0.56799781706E+03 -0.18915483190E+04  0.22797515426E+04  0.50400001928E-02 0. -1.
</event>
<event>
 5   0  0.1097402E-06  0.2975363E+04  0.7818609E-02  0.8250801E-01
        1   -1    0    0  501    0  0.00000000000E+00  0.00000000000E+00  0.11292124020E+04  0.11292124020E+04  0.50400001928E-02 0.  1.
       -1   -1    0    0    0  501  0.00000000000E+00  0.00000000000E+00 -0.19599467482E+04  0.19599467482E+04  0.50400001928E-02 0. -1.
    10030    2    1    2    0    0  0.00000000000E+00  0.00000000000E+00 -0.83073434614E+03  0.30891591502E+04  0.29753629529E+04 0.  0.
        4    1    3    3  502    0  0.47060418006E+02 -0.78433854902E+03  0.89619414359E+03  0.11918754961E+04  0.12699999809E+01 0.  1.
       -4    1    3    3    0  502 -0.47060418006E+02  0.78433854902E+03 -0.17269284897E+04  0.18972836541E+04  0.12699999809E+01 0. -1.
</event>
<event>
 5   0  0.1113245E-06  0.2974800E+04  0.7818609E-02  0.8250964E-01
       -1   -1    0    0    0  501  0.00000000000E+00  0.00000000000E+00  0.93588066357E+03  0.93588066359E+03  0.50400001928E-02 0. -1.
        1   -1    0    0  501    0  0.00000000000E+00  0.00000000000E+00 -0.23639325360E+04  0.23639325360E+04  0.50400001928E-02 0.  1.
    10030    2    1    2    0    0  0.00000000000E+00  0.00000000000E+00 -0.14280518725E+04  0.32998131996E+04  0.29747999936E+04 0.  0.
        5    1    3    3  502    0 -0.30516483294E+03 -0.21367238831E+03  0.88328470047E+03  0.95864248647E+03  0.46999998093E+01 0. -1.
       -5    1    3    3    0  502  0.30516483294E+03  0.21367238831E+03 -0.23113365729E+04  0.23411707132E+04  0.46999998093E+01 0.  1.
</event>
<event>
 5   0  0.2970915E-06  0.3023364E+04  0.7818609E-02  0.8237090E-01
       -2   -1    0    0    0  501  0.00000000000E+00  0.00000000000E+00  0.18010880378E+04  0.18010880378E+04  0.25500000920E-02 0. -1.
        2   -1    0    0  501    0  0.00000000000E+00  0.00000000000E+00 -0.12687792353E+04  0.12687792353E+04  0.25500000920E-02 0.  1.
    10030    2    1    2    0    0  0.00000000000E+00  0.00000000000E+00  0.53230880258E+03  0.30698672731E+04  0.30233644195E+04 0.  0.
        4    1    3    3  502    0  0.90846168896E+02 -0.10462292445E+03 -0.12623172130E+04  0.12698997369E+04  0.12699999809E+01 0.  1.
       -4    1    3    3    0  502 -0.90846168896E+02  0.10462292445E+03  0.17946260156E+04  0.17999675362E+04  0.12699999809E+01 0. -1.
</event>
<event>
 5   0  0.3113328E-06  0.3003124E+04  0.7818609E-02  0.8242839E-01
       -2   -1    0    0    0  501  0.00000000000E+00  0.00000000000E+00  0.16039703826E+04  0.16039703826E+04  0.25500000920E-02 0.  1.
        2   -1    0    0  501    0  0.00000000000E+00  0.00000000000E+00 -0.14056919147E+04  0.14056919147E+04  0.25500000920E-02 0. -1.
    10030    2    1    2    0    0  0.00000000000E+00  0.00000000000E+00  0.19827846783E+03  0.30096622973E+04  0.30031238391E+04 0.  0.
        1    1    3    3  502    0  0.90102901312E+03 -0.80223234208E+03 -0.79681963450E+03  0.14458048081E+04  0.50400001928E-02 0. -1.
       -1    1    3    3    0  502 -0.90102901312E+03  0.80223234208E+03  0.99509810233E+03  0.15638574892E+04  0.50400001928E-02 0.  1.
</event>
<event>
 5   0  0.2862033E-06  0.2993423E+04  0.7818609E-02  0.8245612E-01
       -2   -1    0    0    0  501  0.00000000000E+00  0.00000000000E+00  0.23965532425E+04  0.23965532425E+04  0.25500000920E-02 0. -1.
        2   -1    0    0  501    0  0.00000000000E+00  0.00000000000E+00 -0.93473613608E+03  0.93473613608E+03  0.25500000920E-02 0.  1.
    10030    2    1    2    0    0  0.00000000000E+00  0.00000000000E+00  0.14618171064E+04  0.33312893786E+04  0.29934227351E+04 0.  0.
        2    1    3    3  502    0 -0.33593971404E+03 -0.73208144303E+03 -0.67296063144E+03  0.10496069465E+04  0.25500000920E-02 0.  1.
       -2    1    3    3    0  502  0.33593971404E+03  0.73208144303E+03  0.21347777378E+04  0.22816824320E+04  0.25500000920E-02 0. -1.
</event>
<event>
 5   0  0.2948711E-06  0.3007666E+04  0.7818609E-02  0.8241545E-01
        2   -1    0    0  501    0  0.00000000000E+00  0.00000000000E+00  0.18365740830E+04  0.18365740830E+04  0.25500000920E-02 0.  1.
       -2   -1    0    0    0  501  0.00000000000E+00  0.00000000000E+00 -0.12313759761E+04  0.12313759761E+04  0.25500000920E-02 0. -1.
    10030    2    1    2    0    0  0.00000000000E+00  0.00000000000E+00  0.60519810698E+03  0.30679500591E+04  0.30076656756E+04 0.  0.
        5    1    3    3  502    0 -0.13409303570E+04  0.61488979220E+03  0.60052763511E+03  0.15927458081E+04  0.46999998093E+01 0.  1.
       -5    1    3    3    0  502  0.13409303570E+04 -0.61488979220E+03  0.46704718703E+01  0.14752042510E+04  0.46999998093E+01 0. -1.
</event>
<event>
 5   0  0.2862033E-06  0.3002026E+04  0.7818609E-02  0.8243153E-01
        2   -1    0    0  501    0  0.00000000000E+00  0.00000000000E+00  0.16749180282E+04  0.16749180282E+04  0.25500000920E-02 0.  1.
       -2   -1    0    0    0  501  0.00000000000E+00  0.00000000000E+00 -0.13451643243E+04  0.13451643243E+04  0.25500000920E-02 0. -1.
    10030    2    1    2    0    0  0.00000000000E+00  0.00000000000E+00  0.32975370387E+03  0.30200823526E+04  0.30020259677E+04 0.  0.
        2    1    3    3  502    0  0.12010092864E+04  0.50901534403E+02 -0.73943230722E+03  0.14113023805E+04  0.25500000920E-02 0. -1.
       -2    1    3    3    0  502 -0.12010092864E+04 -0.50901534403E+02  0.10691860111E+04  0.16087799721E+04  0.25500000920E-02 0.  1.
</event>
<event>
 5   0  0.1091076E-06  0.3153713E+04  0.7818609E-02  0.8201150E-01
        1   -1    0    0  501    0  0.00000000000E+00  0.00000000000E+00  0.15284409638E+04  0.15284409638E+04  0.50400001928E-02 0. -1.
       -1   -1    0    0    0  501  0.00000000000E+00  0.00000000000E+00 -0.16268054502E+04  0.16268054502E+04  0.50400001928E-02 0.  1.
    10030    2    1    2    0    0  0.00000000000E+00  0.00000000000E+00 -0.98364486384E+02  0.31552464139E+04  0.31537127898E+04 0.  0.
        3    1    3    3  502    0 -0.74583917497E+03 -0.13000277253E+04  0.44108454099E+03  0.15623391898E+04  0.10100000352E+00 0. -1.
       -3    1    3    3    0  502  0.74583917497E+03  0.13000277253E+04 -0.53944902737E+03  0.15929072242E+04  0.10100000352E+00 0.  1.
</event>
<event>
 5   0  0.3113328E-06  0.3079353E+04  0.7818609E-02  0.8221427E-01
       -2   -1    0    0    0  501  0.00000000000E+00  0.00000000000E+00  0.15918108042E+04  0.15918108042E+04  0.25500000920E-02 0. -1.
        2   -1    0    0  501    0  0.00000000000E+00  0.00000000000E+00 -0.14892501416E+04  0.14892501416E+04  0.25500000920E-02 0.  1.
    10030    2    1    2    0    0  0.00000000000E+00  0.00000000000E+00  0.10256066262E+03  0.30810609458E+04  0.30793534812E+04 0.  0.
        1    1    3    3  502    0  0.68624662770E+03 -0.14194575170E+03 -0.13204362419E+04  0.14948695258E+04  0.50400001928E-02 0.  1.
       -1    1    3    3    0  502 -0.68624662770E+03  0.14194575170E+03  0.14229969045E+04  0.15861914199E+04  0.50400001928E-02 0. -1.
</event>
<event>
 5   0  0.1054384E-06  0.3002806E+04  0.7818609E-02  0.8242930E-01
       -1   -1    0    0    0  501  0.00000000000E+00  0.00000000000E+00  0.19515832558E+04  0.19515832558E+04  0.50400001928E-02 0.  1.
        1   -1    0    0  501    0  0.00000000000E+00  0.00000000000E+00 -0.11550675119E+04  0.11550675119E+04  0.50400001928E-02 0. -1.
    10030    2    1    2    0    0  0.00000000000E+00  0.00000000000E+00  0.79651574397E+03  0.31066507677E+04  0.30028056317E+04 0.  0.
        2    1    3    3  502    0  0.10789414204E+03 -0.14969545073E+04  0.35564521209E+03  0.15423999027E+04  0.25500000920E-02 0.  1.
       -2    1    3    3    0  502 -0.10789414204E+03  0.14969545073E+04  0.44087053188E+03  0.15642508650E+04  0.25500000920E-02 0. -1.
</event>
<event>
 5   0  0.1097402E-06  0.2994664E+04  0.7818609E-02  0.8245256E-01
       -1   -1    0    0    0  501  0.00000000000E+00  0.00000000000E+00  0.13455823933E+04  0.13455823933E+04  0.50400001928E-02 0. -1.
        1   -1    0    0  501    0  0.00000000000E+00  0.00000000000E+00 -0.16661958148E+04  0.16661958148E+04  0.50400001928E-02 0.  1.
    10030    2    1    2    0    0  0.00000000000E+00  0.00000000000E+00 -0.32061342151E+03  0.30117782081E+04  0.29946644234E+04 0.  0.
        4    1    3    3  502    0  0.13950395169E+04 -0.16809293459E+03  0.35996154973E+03  0.14505048840E+04  0.12699999809E+01 0. -1.
       -4    1    3    3    0  502 -0.13950395169E+04  0.16809293459E+03 -0.68057497124E+03  0.15612733241E+04  0.12699999809E+01 0.  1.
</event>
<event>
 5   0  0.2985941E-06  0.2983995E+04  0.7818609E-02  0.8248316E-01
        2   -1    0    0  501    0  0.00000000000E+00  0.00000000000E+00  0.13817039568E+04  0.13817039568E+04  0.25500000920E-02 0.  1.
       -2   -1    0    0    0  501  0.00000000000E+00  0.00000000000E+00 -0.16110947414E+04  0.16110947414E+04  0.25500000920E-02 0. -1.
    10030    2    1    2    0    0  0.00000000000E+00  0.00000000000E+00 -0.22939078458E+03  0.29927986982E+04  0.29839946240E+04 0.  0.
        3    1    3    3  502    0 -0.10822931762E+02  0.35624084616E+03 -0.15677733889E+04  0.16077742645E+04  0.10100000352E+00 0. -1.
       -3    1    3    3    0  502  0.10822931762E+02 -0.35624084616E+03  0.13383826043E+04  0.13850244338E+04  0.10100000352E+00 0.  1.
</event>
<event>
 5   0  0.2948711E-06  0.3037973E+04  0.7818609E-02  0.8232970E-01
       -2   -1    0    0    0  501  0.00000000000E+00  0.00000000000E+00  0.96094164811E+03  0.96094164811E+03  0.25500000920E-02 0.  1.
        2   -1    0    0  501    0  0.00000000000E+00  0.00000000000E+00 -0.24011034446E+04  0.24011034447E+04  0.25500000920E-02 0. -1.
    10030    2    1    2    0    0  0.00000000000E+00  0.00000000000E+00 -0.14401617965E+04  0.33620450928E+04  0.30379732069E+04 0.  0.
        5    1    3    3  502    0  0.42955936545E+03 -0.44026073470E+03  0.81694007170E+03  0.10226259989E+04  0.46999998093E+01 0.  1.
       -5    1    3    3    0  502 -0.42955936545E+03  0.44026073470E+03 -0.22571018682E+04  0.23394190938E+04  0.46999998093E+01 0. -1.
</event>
<event>
 5   0  0.2948711E-06  0.2973983E+04  0.7818609E-02  0.8251200E-01
       -2   -1    0    0    0  501  0.00000000000E+00  0.00000000000E+00  0.10092983137E+04  0.10092983137E+04  0.25500000920E-02 0. -1.
        2   -1    0    0  501    0  0.00000000000E+00  0.00000000000E+00 -0.21907726957E+04  0.21907726957E+04  0.25500000920E-02 0.  1.
    10030    2    1    2    0    0  0.00000000000E+00  0.00000000000E+00 -0.11814743820E+04  0.32000710094E+04  0.29739826412E+04 0.  0.
        5    1    3    3  502    0  0.66447854395E+01  0.12549604458E+04 -0.14489626027E+04  0.19168945166E+04  0.46999998093E+01 0.  1.
       -5    1    3    3    0  502 -0.66447854395E+01 -0.12549604458E+04  0.26748822071E+03  0.12831764929E+04  0.46999998093E+01 0. -1.
</event>
<event>
 5   0  0.3113328E-06  0.3013762E+04  0.7818609E-02  0.8239812E-01
        2   -1    0    0  501    0  0.00000000000E+00  0.00000000000E+00  0.11988498089E+04  0.11988498089E+04  0.25500000920E-02 0. -1.
       -2   -1    0    0    0  501  0.00000000000E+00  0.00000000000E+00 -0.18940573544E+04  0.18940573544E+04  0.25500000920E-02 0.  1.
    10030    2    1    2    0    0  0.00000000000E+00  0.00000000000E+00 -0.69520754551E+03  0.30929071633E+04  0.30137619663E+04 0.  0.
        1    1    3    3  502    0  0.12697699960E+04 -0.73098744287E+03  0.13826464403E+02  0.14652131775E+04  0.50400001928E-02 0. -1.
       -1    1    3    3    0  502 -0.12697699960E+04  0.73098744287E+03 -0.70903400991E+03  0.16276939858E+04  0.50400001928E-02 0.  1.
</event>
<event>
 5   0  0.1097402E-06  0.2988658E+04  0.7818609E-02  0.8246977E-01
       -1   -1    0    0    0  501  0.00000000000E+00  0.00000000000E+00  0.11503377891E+04  0.11503377891E+04  0.50400001928E-02 0.  1.
        1   -1    0    0  501    0  0.00000000000E+00  0.00000000000E+00 -0.19411861944E+04  0.19411861944E+04  0.50400001928E-02 0. -1.
    10030    2    1    2    0    0  0.00000000000E+00  0.00000000000E+00 -0.79084840531E+03  0.30915239835E+04  0.29886584516E+04 0.  0.
        4    1    3    3  502    0 -0.13188334387E+04  0.32045141649E+03 -0.10422522790E+04  0.17112282652E+04  0.12699999809E+01 0. -1.
       -4    1    3    3    0  502  0.13188334387E+04 -0.32045141649E+03  0.25140387373E+03  0.13802957183E+04  0.12699999809E+01 0.  1.
</event>
<event>
 5   0  0.9749500E-07  0.2848468E+04  0.7818609E-02  0.8288377E-01
       -3   -1    0    0    0  501  0.00000000000E+00  0.00000000000E+00  0.12294188323E+04  0.12294188364E+04  0.10100000352E+00 0.  1.
        3   -1    0    0  501    0  0.00000000000E+00  0.00000000000E+00 -0.16499197861E+04  0.16499197892E+04  0.10100000352E+00 0. -1.
    10030    2    1    2    0    0  0.00000000000E+00  0.00000000000E+00 -0.42050095382E+03  0.28793386256E+04  0.28484679863E+04 0.  0.
        4    1    3    3  502    0  0.11711409697E+04 -0.74171629644E+03 -0.54048142878E+03  0.14878965095E+04  0.12699999809E+01 0.  1.
       -4    1    3    3    0  502 -0.11711409697E+04  0.74171629644E+03  0.11998047496E+03  0.13914421161E+04  0.12699999809E+01 0. -1.
</event>
<event>
 5   0  0.2948711E-06  0.2995231E+04  0.7818609E-02  0.8245094E-01
       -2   -1    0    0    0  501  0.00000000000E+00  0.00000000000E+00  0.22859190209E+04  0.22859190209E+04  0.25500000920E-02 0.  1.
        2   -1    0    0  501    0  0.00000000000E+00  0.00000000000E+00 -0.98116020300E+03  0.98116020300E+03  0.25500000920E-02 0. -1.
    10030    2    1    2    0    0  0.00000000000E+00  0.00000000000E+00  0.13047588179E+04  0.32670792239E+04  0.29952313905E+04 0.  0.
        5    1    3    3  502    0  0.78608290518E+03 -0.11949039219E+04  0.11366437325E+04  0.18269380890E+04  0.46999998093E+01 0.  1.
       -5    1    3    3    0  502 -0.78608290518E+03  0.11949039219E+04  0.16811508544E+03  0.14401411349E+04  0.46999998093E+01 0. -1.
</event>
<event>
 5   0  0.2862033E-06  0.3005208E+04  0.7818609E-02  0.8242245E-01
        2   -1    0    0  501    0  0.00000000000E+00  0.00000000000E+00  0.11791029888E+04  0.11791029888E+04  0.25500000920E-02 0.  1.
       -2   -1    0    0    0  501  0.00000000000E+00  0.00000000000E+00 -0.19148620131E+04  0.19148620131E+04  0.25500000920E-02 0. -1.
    10030    2    1    2    0    0  0.00000000000E+00  0.00000000000E+00 -0.73575902432E+03  0.30939650020E+04  0.30052084938E+04 0.  0.
        2    1    3    3  502    0 -0.71519072262E+03  0.78405436069E+03 -0.14630545060E+04  0.18074201221E+04  0.25500000920E-02 0. -1.
       -2    1    3    3    0  502  0.71519072262E+03 -0.78405436069E+03  0.72729548167E+03  0.12865448799E+04  0.25500000920E-02 0.  1.
</event>
<event>
 5   0  0.2985941E-06  0.3008591E+04  0.7818609E-02  0.8241282E-01
       -2   -1    0    0    0  501  0.00000000000E+00  0.00000000000E+00  0.80143013854E+03  0.80143013854E+03  0.25500000920E-02 0. -1.
        2   -1    0    0  501    0  0.00000000000E+00  0.00000000000E+00 -0.28235839238E+04  0.28235839238E+04  0.25500000920E-02 0.  1.
    10030    2    1    2    0    0  0.00000000000E+00  0.00000000000E+00 -0.20221537853E+04  0.36250140624E+04  0.30085912020E+04 0.  0.
        3    1    3    3  502    0 -0.99377567243E+03  0.10155608748E+04 -0.16061879969E+04  0.21444798598E+04  0.10100000352E+00 0.  1.
       -3    1    3    3    0  502  0.99377567243E+03 -0.10155608748E+04 -0.41596578843E+03  0.14805342026E+04  0.10100000352E+00 0. -1.
</event>
<event>
 5   0  0.1091075E-06  0.3020913E+04  0.7818609E-02  0.8237784E-01
       -1   -1    0    0    0  501  0.00000000000E+00  0.00000000000E+00  0.12552435515E+04  0.12552435515E+04  0.50400001928E-02 0. -1.
        1   -1    0    0  501    0  0.00000000000E+00  0.00000000000E+00 -0.18175583557E+04  0.18175583557E+04  0.50400001928E-02 0.  1.
    10030    2    1    2    0    0  0.00000000000E+00  0.00000000000E+00 -0.56231480419E+03  0.30728019072E+04  0.30209127134E+04 0.  0.
        1    1    3    3  502    0 -0.64285645242E+03 -0.99971928454E+03 -0.12292486317E+04  0.17098991973E+04  0.50400001928E-02 0.  1.
       -1    1    3    3    0  502  0.64285645242E+03  0.99971928454E+03  0.66693382753E+03  0.13629027099E+04  0.50400001928E-02 0. -1.
</event>
<event>
 5   0  0.2985941E-06  0.2976154E+04  0.7818609E-02  0.8250573E-01
        2   -1    0    0  501    0  0.00000000000E+00  0.00000000000E+00  0.26425199397E+04  0.26425199397E+04  0.25500000920E-02 0. -1.
       -2   -1    0    0    0  501  0.00000000000E+00  0.00000000000E+00 -0.83797784462E+03  0.83797784463E+03  0.25500000920E-02 0.  1.
    10030    2    1    2    0    0  0.00000000000E+00  0.00000000000E+00  0.18045420950E+04  0.34804977843E+04  0.29761540037E+04 0.  0.
        3    1    3    3  502    0 -0.97588392738E+02 -0.10867840331E+03  0.26341163877E+04  0.26381629298E+04  0.10100000352E+00 0. -1.
       -3    1    3    3    0  502  0.97588392738E+02  0.10867840331E+03 -0.82957429272E+03  0.84233485449E+03  0.10100000352E+00 0.  1.
</event>
<event>
 5   0  0.2948711E-06  0.2998386E+04  0.7818609E-02  0.8244192E-01
       -2   -1    0    0    0  501  0.00000000000E+00  0.00000000000E+00  0.20835280660E+04  0.20835280660E+04  0.25500000920E-02 0. -1.
        2   -1    0    0  501    0  0.00000000000E+00  0.00000000000E+00 -0.10787374509E+04  0.10787374510E+04  0.25500000920E-02 0.  1.
    10030    2    1    2    0    0  0.00000000000E+00  0.00000000000E+00  0.10047906151E+04  0.31622655170E+04  0.29983860692E+04 0.  0.
        5    1    3    3  502    0  0.33527446000E+03  0.13164951028E+04  0.11710748741E+04  0.17936016196E+04  0.46999998093E+01 0. -1.
       -5    1    3    3    0  502 -0.33527446000E+03 -0.13164951028E+04 -0.16628425901E+03  0.13686638974E+04  0.46999998093E+01 0.  1.
</event>
<event>
 5   0  0.1091075E-06  0.3015281E+04  0.7818609E-02  0.8239381E-01
       -1   -1    0    0    0  501  0.00000000000E+00  0.00000000000E+00  0.16769326853E+04  0.16769326853E+04  0.50400001928E-02 0. -1.
        1   -1    0    0  501    0  0.00000000000E+00  0.00000000000E+00 -0.13554388237E+04  0.13554388237E+04  0.50400001928E-02 0.  1.
    10030    2    1    2    0    0  0.00000000000E+00  0.00000000000E+00  0.32149386161E+03  0.30323715091E+04  0.30152808602E+04 0.  0.
        1    1    3    3  502    0 -0.10264793935E+03 -0.13982466669E+04  0.71828017548E+03  0.15752957664E+04  0.50400001928E-02 0. -1.
       -1    1    3    3    0  502  0.10264793935E+03  0.13982466669E+04 -0.39678631388E+03  0.14570757427E+04  0.50400001928E-02 0.  1.
</event>
<event>
 5   0  0.1054384E-06  0.2997233E+04  0.7818609E-02  0.8244521E-01
       -1   -1    0    0    0  501  0.00000000000E+00  0.00000000000E+00  0.15120940938E+04  0.15120940939E+04  0.50400001928E-02 0. -1.
        1   -1    0    0  501    0  0.00000000000E+00  0.00000000000E+00 -0.14852594358E+04  0.14852594358E+04  0.50400001928E-02 0.  1.
    10030    2    1    2    0    0  0.00000000000E+00  0.00000000000E+00  0.26834658086E+02  0.29973535296E+04  0.29972334048E+04 0.  0.
        2    1    3    3  502    0 -0.92328876980E+03 -0.41699168595E+03 -0.10909402020E+04  0.14887896906E+04  0.25500000920E-02 0.  1.
       -2    1    3    3    0  502  0.92328876980E+03  0.41699168595E+03  0.11177748601E+04  0.15085638390E+04  0.25500000920E-02 0. -1.
</event>
<event>
 5   0  0.2970915E-06  0.2954231E+04  0.7818609E-02  0.8256923E-01
       -2   -1    0    0    0  501  0.00000000000E+00  0.00000000000E+00  0.84824836104E+03  0.84824836105E+03  0.25500000920E-02 0. -1.
        2   -1    0    0  501    0  0.00000000000E+00  0.00000000000E+00 -0.25722068651E+04  0.25722068651E+04  0.25500000920E-02 0.  1.
    10030    2    1    2    0    0  0.00000000000E+00  0.00000000000E+00 -0.17239585040E+04  0.34204552261E+04  0.29542310388E+04 0.  0.
        4    1    3    3  502    0 -0.12865600502E+04 -0.65349830081E+03 -0.49663039985E+03  0.15260865503E+04  0.12699999809E+01 0. -1.
       -4    1    3    3    0  502  0.12865600502E+04  0.65349830081E+03 -0.12273281042E+04  0.18943686759E+04  0.12699999809E+01 0.  1.
</event>
<event>
 5   0  0.2970915E-06  0.3020888E+04  0.7818609E-02  0.8237791E-01
       -2   -1    0    0    0  501  0.00000000000E+00  0.00000000000E+00  0.20420803779E+04  0.20420803779E+04  0.25500000920E-02 0. -1.
        2   -1    0    0  501    0  0.00000000000E+00  0.00000000000E+00 -0.11172138994E+04  0.11172138994E+04  0.25500000920E-02 0.  1.
    10030    2    1    2    0    0  0.00000000000E+00  0.00000000000E+00  0.92486647851E+03  0.31592942774E+04  0.30208876722E+04 0.  0.
        4    1    3    3  502    0 -0.15076155641E+04  0.86330210764E+02  0.42804233709E+03  0.15695793863E+04  0.12699999809E+01 0.  1.
       -4    1    3    3    0  502  0.15076155641E+04 -0.86330210764E+02  0.49682414142E+03  0.15897148911E+04  0.12699999809E+01 0. -1.
</event>
<event>
 5   0  0.2862033E-06  0.2951688E+04  0.7818609E-02  0.8257663E-01
        2   -1    0    0  501    0  0.00000000000E+00  0.00000000000E+00  0.16158848092E+04  0.16158848092E+04  0.25500000920E-02 0.  1.
       -2   -1    0    0    0  501  0.00000000000E+00  0.00000000000E+00 -0.13479398299E+04  0.13479398299E+04  0.25500000920E-02 0. -1.
    10030    2    1    2    0    0  0.00000000000E+00  0.00000000000E+00  0.26794497926E+03  0.29638246391E+04  0.29516879881E+04 0.  0.
        2    1    3    3  502    0 -0.58755303572E+03 -0.25021215091E+03 -0.12020210650E+04  0.13611316362E+04  0.25500000920E-02 0. -1.
       -2    1    3    3    0  502  0.58755303572E+03  0.25021215091E+03  0.14699660443E+04  0.16026930029E+04  0.25500000920E-02 0.  1.
</event>
<event>
 5   0  0.3113328E-06  0.2963208E+04  0.7818609E-02  0.8254316E-01
        2   -1    0    0  501    0  0.00000000000E+00  0.00000000000E+00  0.23655523294E+04  0.23655523294E+04  0.25500000920E-02 0.  1.
       -2   -1    0    0    0  501  0.00000000000E+00  0.00000000000E+00 -0.92796557029E+03  0.92796557029E+03  0.25500000920E-02 0. -1.
    10030    2    1    2    0    0  0.00000000000E+00  0.00000000000E+00  0.14375867591E+04  0.32935178997E+04  0.29632084749E+04 0.  0.
        1    1    3    3  502    0 -0.13474529189E+04  0.33760313196E+01  0.34078708659E+02  0.13478880238E+04  0.50400001928E-02 0.  1.
       -1    1    3    3    0  502  0.13474529189E+04 -0.33760313196E+01  0.14035080505E+04  0.19456298759E+04  0.50400001928E-02 0. -1.
</event>
<event>
 5   0  0.2970915E-06  0.2985314E+04  0.7818609E-02  0.8247937E-01
       -2   -1    0    0    0  501  0.00000000000E+00  0.00000000000E+00  0.13220628024E+04  0.13220628024E+04  0.25500000920E-02 0. -1.
        2   -1    0    0  501    0  0.00000000000E+00  0.00000000000E+00 -0.16852635102E+04  0.16852635102E+04  0.25500000920E-02 0.  1.
    10030    2    1    2    0    0  0.00000000000E+00  0.00000000000E+00 -0.36320070780E+03  0.30073263126E+04  0.29853135173E+04 0.  0.
        4    1    3    3  502    0 -0.74128805448E+03 -0.11926426006E+04  0.32821258763E+03  0.14420920456E+04  0.12699999809E+01 0. -1.
       -4    1    3    3    0  502  0.74128805448E+03  0.11926426006E+04 -0.69141329543E+03  0.15652342670E+04  0.12699999809E+01 0.  1.
</event>
<event>
 5   0  0.2985941E-06  0.2999266E+04  0.7818609E-02  0.8243941E-01
        2   -1    0    0  501    0  0.00000000000E+00  0.00000000000E+00  0.22732810078E+04  0.22732810078E+04  0.25500000920E-02 0. -1.
       -2   -1    0    0    0  501  0.00000000000E+00  0.00000000000E+00 -0.98927428988E+03  0.98927428989E+03  0.25500000920E-02 0.  1.
    10030    2    1    2    0    0  0.00000000000E+00  0.00000000000E+00  0.12840067180E+04  0.32625552977E+04  0.29992655466E+04 0.  0.
        3    1    3    3  502    0 -0.54148392757E+03 -0.11959770114E+04 -0.14642118244E+03  0.13209863847E+04  0.10100000352E+00 0.  1.
       -3    1    3    3    0  502  0.54148392757E+03  0.11959770114E+04  0.14304279004E+04  0.19415689130E+04  0.10100000352E+00 0. -1.
</event>
<event>
 5   0  0.1091076E-06  0.3010922E+04  0.7818609E-02  0.8240619E-01
       -1   -1    0    0    0  501  0.00000000000E+00  0.00000000000E+00  0.16045958631E+04  0.16045958631E+04  0.50400001928E-02 0.  1.
        1   -1    0    0  501    0  0.00000000000E+00  0.00000000000E+00 -0.14124510097E+04  0.14124510097E+04  0.50400001928E-02 0. -1.
    10030    2    1    2    0    0  0.00000000000E+00  0.00000000000E+00  0.19214485337E+03  0.30170468728E+04  0.30109221492E+04 0.  0.
        3    1    3    3  502    0 -0.32957250358E+03 -0.38604124800E+03 -0.13241204515E+04  0.14180764650E+04  0.10100000352E+00 0. -1.
       -3    1    3    3    0  502  0.32957250358E+03  0.38604124800E+03  0.15162653049E+04  0.15989704079E+04  0.10100000352E+00 0.  1.
</event>
<event>
 5   0  0.1091076E-06  0.3000104E+04  0.7818609E-02  0.8243701E-01
        1   -1    0    0  501    0  0.00000000000E+00  0.00000000000E+00  0.18724703026E+04  0.18724703026E+04  0.50400001928E-02 0. -1.
       -1   -1    0    0    0  501  0.00000000000E+00  0.00000000000E+00 -0.12017045017E+04  0.12017045017E+04  0.50400001928E-02 0.  1.
    10030    2    1    2    0    0  0.00000000000E+00  0.00000000000E+00  0.67076580089E+03  0.30741748042E+04  0.30001039927E+04 0.  0.
        3    1    3    3  502    0 -0.12435177882E+04  0.51667038010E+02 -0.52263771350E+03  0.13498726466E+04  0.10100000352E+00 0.  1.
       -3    1    3    3    0  502  0.12435177882E+04 -0.51667038010E+02  0.11934035144E+04  0.17243021576E+04  0.10100000352E+00 0. -1.
</event>
<event>
 5   0  0.1097402E-06  0.3000068E+04  0.7818609E-02  0.8243711E-01
       -1   -1    0    0    0  501  0.00000000000E+00  0.00000000000E+00  0.33962602443E+04  0.33962602443E+04  0.50400001928E-02 0. -1.
        1   -1    0    0  501    0  0.00000000000E+00  0.00000000000E+00 -0.66252357218E+03  0.66252357220E+03  0.50400001928E-02 0.  1.
    10030    2    1    2    0    0  0.00000000000E+00  0.00000000000E+00  0.27337366721E+04  0.40587838165E+04  0.30000683120E+04 0.  0.
        4    1    3    3  502    0 -0.60684329878E+03  0.47153083862E+03  0.31096922116E+04  0.32032463821E+04  0.12699999809E+01 0. -1.
       -4    1    3    3    0  502  0.60684329878E+03 -0.47153083862E+03 -0.37595553945E+03  0.85553743436E+03  0.12699999809E+01 0.  1.
</event>
<event>
 5   0  0.1091075E-06  0.2984884E+04  0.7818609E-02  0.8248061E-01
        1   -1    0    0  501    0  0.00000000000E+00  0.00000000000E+00  0.19019523840E+04  0.19019523840E+04  0.50400001928E-02 0.  1.
       -1   -1    0    0    0  501  0.00000000000E+00  0.00000000000E+00 -0.11711034551E+04  0.11711034551E+04  0.50400001928E-02 0. -1.
    10030    2    1    2    0    0  0.00000000000E+00  0.00000000000E+00  0.73084892890E+03  0.30730558392E+04  0.29848839230E+04 0.  0.
        1    1    3    3  502    0  0.66165740589E+03 -0.20966312584E+03 -0.99482819432E+03  0.12130260860E+04  0.50400001928E-02 0. -1.
       -1    1    3    3    0  502 -0.66165740589E+03  0.20966312584E+03  0.17256771232E+04  0.18600297532E+04  0.50400001928E-02 0.  1.
</event>
<event>
 5   0  0.3113328E-06  0.2992978E+04  0.7818609E-02  0.8245739E-01
       -2   -1    0    0    0  501  0.00000000000E+00  0.00000000000E+00  0.12995969533E+04  0.12995969533E+04  0.25500000920E-02 0.  1.
        2   -1    0    0  501    0  0.00000000000E+00  0.00000000000E+00 -0.17232106865E+04  0.17232106865E+04  0.25500000920E-02 0. -1.
    10030    2    1    2    0    0  0.00000000000E+00  0.00000000000E+00 -0.42361373320E+03  0.30228076398E+04  0.29929780207E+04 0.  0.
        1    1    3    3  502    0  0.85811243036E+03 -0.12174226162E+04 -0.35818091082E+03  0.15319165560E+04  0.50400001928E-02 0.  1.
       -1    1    3    3    0  502 -0.85811243036E+03  0.12174226162E+04 -0.65432822388E+02  0.14908910838E+04  0.50400001928E-02 0. -1.
</event>
<event>
 5   0  0.2970915E-06  0.2957694E+04  0.7818609E-02  0.8255916E-01
       -2   -1    0    0    0  501  0.00000000000E+00  0.00000000000E+00  0.15031899214E+04  0.15031899214E+04  0.25500000920E-02 0. -1.
        2   -1    0    0  501    0  0.00000000000E+00  0.00000000000E+00 -0.14548981090E+04  0.14548981090E+04  0.25500000920E-02 0.  1.
    10030    2    1    2    0    0  0.00000000000E+00  0.00000000000E+00  0.48291812355E+02  0.29580880304E+04  0.29576938138E+04 0.  0.
        4    1    3    3  502    0  0.12320236583E+03  0.63126010953E+03  0.13559834179E+04  0.15007867242E+04  0.12699999809E+01 0. -1.
       -4    1    3    3    0  502 -0.12320236583E+03 -0.63126010953E+03 -0.13076916056E+04  0.14573013062E+04  0.12699999809E+01 0.  1.
</event>
<event>
 5   0  0.2862033E-06  0.2966042E+04  0.7818609E-02  0.8253495E-01
       -2   -1    0    0    0  501  0.00000000000E+00  0.00000000000E+00  0.11947155678E+04  0.11947155678E+04  0.25500000920E-02 0.  1.
        2   -1    0    0  501    0  0.00000000000E+00  0.00000000000E+00 -0.18408996989E+04  0.18408996989E+04  0.25500000920E-02 0. -1.
    10030    2    1    2    0    0  0.00000000000E+00  0.00000000000E+00 -0.64618413109E+03  0.30356152668E+04  0.29660421637E+04 0.  0.
        2    1    3    3  502    0  0.13868355180E+04  0.48984964501E+03 -0.12867276100E+03  0.14764220630E+04  0.25500000920E-02 0.  1.
       -2    1    3    3    0  502 -0.13868355180E+04 -0.48984964501E+03 -0.51751137010E+03  0.15591932038E+04  0.25500000920E-02 0. -1.
</event>
<event>
 5   0  0.1113245E-06  0.2997970E+04  0.7818609E-02  0.8244311E-01
        1   -1    0    0  501    0  0.00000000000E+00  0.00000000000E+00  0.18739263214E+04  0.18739263214E+04  0.50400001928E-02 0.  1.
       -1   -1    0    0    0  501  0.00000000000E+00  0.00000000000E+00 -0.11990633389E+04  0.11990633389E+04  0.50400001928E-02 0. -1.
    10030    2    1    2    0    0  0.00000000000E+00  0.00000000000E+00  0.67486298251E+03  0.30729896602E+04  0.29979702145E+04 0.  0.
        5    1    3    3  502    0 -0.11407355590E+04  0.12399258849E+03  0.13260783873E+04  0.17536127728E+04  0.46999998093E+01 0.  1.
       -5    1    3    3    0  502  0.11407355590E+04 -0.12399258849E+03 -0.65121540482E+03  0.13193768874E+04  0.46999998093E+01 0. -1.
</event>
<event>
 5   0  0.1091076E-06  0.3004544E+04  0.7818609E-02  0.8242435E-01
       -1   -1    0    0    0  501  0.00000000000E+00  0.00000000000E+00  0.24168577593E+04  0.24168577593E+04  0.50400001928E-02 0.  1.
        1   -1    0    0  501    0  0.00000000000E+00  0.00000000000E+00 -0.93378310996E+03  0.93378310997E+03  0.50400001928E-02 0. -1.
    10030    2    1    2    0    0  0.00000000000E+00  0.00000000000E+00  0.14830746494E+04  0.33506408693E+04  0.30045438621E+04 0.  0.
        3    1    3    3  502    0  0.62743626202E+03 -0.53439209529E+03 -0.65915781218E+03  0.10553389057E+04  0.10100000352E+00 0. -1.
       -3    1    3    3    0  502 -0.62743626202E+03  0.53439209529E+03  0.21422324616E+04  0.22953019636E+04  0.10100000352E+00 0.  1.
</event>
<event>
 5   0  0.3113328E-06  0.3021372E+04  0.7818609E-02  0.8237654E-01
       -2   -1    0    0    0  501  0.00000000000E+00  0.00000000000E+00  0.13024319676E+04  0.13024319676E+04  0.25500000920E-02 0.  1.
        2   -1    0    0  501    0  0.00000000000E+00  0.00000000000E+00 -0.17522386311E+04  0.17522386311E+04  0.25500000920E-02 0. -1.
    10030    2    1    2    0    0  0.00000000000E+00  0.00000000000E+00 -0.44980666344E+03  0.30546705987E+04  0.30213716144E+04 0.  0.
        1    1    3    3  502    0 -0.83394417102E+03  0.82958205945E+03  0.73343717470E+03  0.13862176463E+04  0.50400001928E-02 0.  1.
       -1    1    3    3    0  502  0.83394417102E+03 -0.82958205945E+03 -0.11832438381E+04  0.16684529524E+04  0.50400001928E-02 0. -1.
</event>
<event>
 5   0  0.1097402E-06  0.3009455E+04  0.7818609E-02  0.8241036E-01
        1   -1    0    0  501    0  0.00000000000E+00  0.00000000000E+00  0.17610503374E+04  0.17610503374E+04  0.50400001928E-02 0.  1.
       -1   -1    0    0    0  501  0.00000000000E+00  0.00000000000E+00 -0.12857127650E+04  0.12857127651E+04  0.50400001928E-02 0. -1.
    10030    2    1    2    0    0  0.00000000000E+00  0.00000000000E+00  0.47533757232E+03  0.30467631024E+04  0.30094550328E+04 0.  0.
        4    1    3    3  502    0 -0.47012288665E+00 -0.14384087894E+04 -0.20960358037E+03  0.14536008188E+04  0.12699999809E+01 0. -1.
       -4    1    3    3    0  502  0.47012288665E+00  0.14384087894E+04  0.68494115269E+03  0.15931622837E+04  0.12699999809E+01 0.  1.
</event>
<event>
 5   0  0.1091076E-06  0.2988693E+04  0.7818609E-02  0.8246967E-01
       -1   -1    0    0    0  501  0.00000000000E+00  0.00000000000E+00  0.14420345116E+04  0.14420345117E+04  0.50400001928E-02 0. -1.
        1   -1    0    0  501    0  0.00000000000E+00  0.00000000000E+00 -0.15485561170E+04  0.15485561170E+04  0.50400001928E-02 0.  1.
    10030    2    1    2    0    0  0.00000000000E+00  0.00000000000E+00 -0.10652160536E+03  0.29905906287E+04  0.29886929344E+04 0.  0.
        3    1    3    3  502    0  0.14487531516E+04 -0.28297546240E+03 -0.28602524337E+03  0.15035861321E+04  0.10100000352E+00 0.  1.
       -3    1    3    3    0  502 -0.14487531516E+04  0.28297546240E+03  0.17950363801E+03  0.14870044966E+04  0.10100000352E+00 0. -1.
</event>
<event>
 5   0  0.1091075E-06  0.2781047E+04  0.7818609E-02  0.8309177E-01
        1   -1    0    0  501    0  0.00000000000E+00  0.00000000000E+00  0.87092880112E+03  0.87092880113E+03  0.50400001928E-02 0.  1.
       -1   -1    0    0    0  501  0.00000000000E+00  0.00000000000E+00 -0.22201075240E+04  0.22201075240E+04  0.50400001928E-02 0. -1.
    10030    2    1    2    0    0  0.00000000000E+00  0.00000000000E+00 -0.13491787229E+04  0.30910363252E+04  0.27810469858E+04 0.  0.
        1    1    3    3  502    0  0.40827960262E+03  0.13260608349E+04 -0.77661441446E+03  0.15900501629E+04  0.50400001928E-02 0.  1.
       -1    1    3    3    0  502 -0.40827960262E+03 -0.13260608349E+04 -0.57256430844E+03  0.15009861622E+04  0.50400001928E-02 0. -1.
</event>
<event>
 5   0  0.1113245E-06  0.2986802E+04  0.7818609E-02  0.8247510E-01
        1   -1    0    0  501    0  0.00000000000E+00  0.00000000000E+00  0.16754978564E+04  0.16754978564E+04  0.50400001928E-02 0.  1.
       -1   -1    0    0    0  501  0.00000000000E+00  0.00000000000E+00 -0.13310946006E+04  0.13310946006E+04  0.50400001928E-02 0. -1.
    10030    2    1    2    0    0  0.00000000000E+00  0.00000000000E+00  0.34440325579E+03  0.30065924571E+04  0.29868017344E+04 0.  0.
        5    1    3    3  502    0  0.47454614355E+03 -0.41668470979E+03  0.15344623429E+04  0.16593423280E+04  0.46999998093E+01 0.  1.
       -5    1    3    3    0  502 -0.47454614355E+03  0.41668470979E+03 -0.11900590871E+04  0.13472501291E+04  0.46999998093E+01 0. -1.
</event>
<event>
 5   0  0.1091076E-06  0.2992644E+04  0.7818609E-02  0.8245834E-01
       -1   -1    0    0    0  501  0.00000000000E+00  0.00000000000E+00  0.11436257566E+04  0.11436257566E+04  0.50400001928E-02 0.  1.
        1   -1    0    0  501    0  0.00000000000E+00  0.00000000000E+00 -0.19577907547E+04  0.19577907547E+04  0.50400001928E-02 0. -1.
    10030    2    1    2    0    0  0.00000000000E+00  0.00000000000E+00 -0.81416499812E+03  0.31014165113E+04  0.29926442710E+04 0.  0.
        3    1    3    3  502    0 -0.30115554540E+02 -0.49584622718E+03 -0.18698405638E+04  0.19347026056E+04  0.10100000352E+00 0. -1.
       -3    1    3    3    0  502  0.30115554540E+02  0.49584622718E+03  0.10556755657E+04  0.11667139058E+04  0.10100000352E+00 0.  1.
</event>
<event>
 5   0  0.2970915E-06  0.3003717E+04  0.7818609E-02  0.8242670E-01
       -2   -1    0    0    0  501  0.00000000000E+00  0.00000000000E+00  0.13414463575E+04  0.13414463575E+04  0.25500000920E-02 0. -1.
        2   -1    0    0  501    0  0.00000000000E+00  0.00000000000E+00 -0.16814525587E+04  0.16814525587E+04  0.25500000920E-02 0.  1.
    10030    2    1    2    0    0  0.00000000000E+00  0.00000000000E+00 -0.34000620112E+03  0.30228989162E+04  0.30037166379E+04 0.  0.
        4    1    3    3  502    0 -0.41305109852E+03  0.13858305341E+04 -0.57810394953E+03  0.15573513633E+04  0.12699999809E+01 0.  1.
       -4    1    3    3    0  502  0.41305109852E+03 -0.13858305341E+04  0.23809774841E+03  0.14655475530E+04  0.12699999809E+01 0. -1.
</event>
<event>
 5   0  0.3113328E-06  0.2990267E+04  0.7818609E-02  0.8246516E-01
        2   -1    0    0  501    0  0.00000000000E+00  0.00000000000E+00  0.14454934884E+04  0.14454934884E+04  0.25500000920E-02 0.  1.
       -2   -1    0    0    0  501  0.00000000000E+00  0.00000000000E+00 -0.15464780871E+04  0.15464780872E+04  0.25500000920E-02 0. -1.
    10030    2    1    2    0    0  0.00000000000E+00  0.00000000000E+00 -0.10098459870E+03  0.29919715756E+04  0.29902668811E+04 0.  0.
        1    1    3    3  502    0  0.73356365169E+03 -0.12985538871E+04 -0.15574816434E+03  0.14995383688E+04  0.50400001928E-02 0.  1.
       -1    1    3    3    0  502 -0.73356365169E+03  0.12985538871E+04  0.54763565633E+02  0.14924332068E+04  0.50400001928E-02 0. -1.
</event>
<event>
 5   0  0.1097402E-06  0.3011374E+04  0.7818609E-02  0.8240490E-01
        1   -1    0    0  501    0  0.00000000000E+00  0.00000000000E+00  0.17216303164E+04  0.17216303164E+04  0.50400001928E-02 0. -1.
       -1   -1    0    0    0  501  0.00000000000E+00  0.00000000000E+00 -0.13168293668E+04  0.13168293668E+04  0.50400001928E-02 0.  1.
    10030    2    1    2    0    0  0.00000000000E+00  0.00000000000E+00  0.40480094959E+03  0.30384596833E+04  0.30113740116E+04 0.  0.
        4    1    3    3  502    0  0.18390336383E+03 -0.11992562028E+04  0.11020795120E+04  0.16390902204E+04  0.12699999809E+01 0. -1.
       -4    1    3    3    0  502 -0.18390336383E+03  0.11992562028E+04 -0.69727856239E+03  0.13993694628E+04  0.12699999809E+01 0.  1.
</event>
<event>
 5   0  0.2948711E-06  0.3004524E+04  0.7818609E-02  0.8242440E-01
        2   -1    0    0  501    0  0.00000000000E+00  0.00000000000E+00  0.25175072029E+04  0.25175072029E+04  0.25500000920E-02 0.  1.
       -2   -1    0    0    0  501  0.00000000000E+00  0.00000000000E+00 -0.89643908984E+03  0.89643908984E+03  0.25500000920E-02 0. -1.
    10030    2    1    2    0    0  0.00000000000E+00  0.00000000000E+00  0.16210681131E+04  0.34139462927E+04  0.30045244986E+04 0.  0.
        5    1    3    3  502    0  0.41588151950E+03 -0.73688086284E+03  0.22209809479E+04  0.23767055571E+04  0.46999998093E+01 0.  1.
       -5    1    3    3    0  502 -0.41588151950E+03  0.73688086284E+03 -0.59991283483E+03  0.10372407356E+04  0.46999998093E+01 0. -1.
</event>
<event>
 5   0  0.1097402E-06  0.2990158E+04  0.7818609E-02  0.8246547E-01
       -1   -1    0    0    0  501  0.00000000000E+00  0.00000000000E+00  0.10018261633E+04  0.10018261633E+04  0.50400001928E-02 0. -1.
        1   -1    0    0  501    0  0.00000000000E+00  0.00000000000E+00 -0.22311869699E+04  0.22311869699E+04  0.50400001928E-02 0.  1.
    10030    2    1    2    0    0  0.00000000000E+00  0.00000000000E+00 -0.12293608066E+04  0.32330131332E+04  0.29901581775E+04 0.  0.
        4    1    3    3  502    0  0.65084546071E+03 -0.70906270981E+03 -0.18516667387E+04  0.20868735142E+04  0.12699999809E+01 0.  1.
       -4    1    3    3    0  502 -0.65084546071E+03  0.70906270981E+03  0.62230593209E+03  0.11461396190E+04  0.12699999809E+01 0. -1.
</event>
<event>
 5   0  0.1091075E-06  0.3038952E+04  0.7818609E-02  0.8232695E-01
        1   -1    0    0  501    0  0.00000000000E+00  0.00000000000E+00  0.16007596466E+04  0.16007596466E+04  0.50400001928E-02 0.  1.
       -1   -1    0    0    0  501  0.00000000000E+00  0.00000000000E+00 -0.14423200065E+04  0.14423200065E+04  0.50400001928E-02 0. -1.
    10030    2    1    2    0    0  0.00000000000E+00  0.00000000000E+00  0.15843964012E+03  0.30430796531E+04  0.30389522299E+04 0.  0.
        1    1    3    3  502    0  0.72581700666E+03  0.62961160676E+03  0.12579279477E+04  0.15829099229E+04  0.50400001928E-02 0.  1.
       -1    1    3    3    0  502 -0.72581700666E+03 -0.62961160676E+03 -0.10994883076E+04  0.14601697302E+04  0.50400001928E-02 0. -1.
</event>
<event>
 5   0  0.1091075E-06  0.3006839E+04  0.7818609E-02  0.8241781E-01
        1   -1    0    0  501    0  0.00000000000E+00  0.00000000000E+00  0.31058667242E+04  0.31058667242E+04  0.50400001928E-02 0. -1.
       -1   -1    0    0    0  501  0.00000000000E+00  0.00000000000E+00 -0.72774216134E+03  0.72774216136E+03  0.50400001928E-02 0.  1.
    10030    2    1    2    0    0  0.00000000000E+00  0.00000000000E+00  0.23781245629E+04  0.38336088856E+04  0.30068389799E+04 0.  0.
        1    1    3    3  502    0 -0.15784228407E+03 -0.14325351574E+04  0.64335571532E+03  0.15782831623E+04  0.50400001928E-02 0.  1.
       -1    1    3    3    0  502  0.15784228407E+03  0.14325351574E+04  0.17347688476E+04  0.22553257233E+04  0.50400001928E-02 0. -1.
</event>
<event>
 5   0  0.1091076E-06  0.3008763E+04  0.7818609E-02  0.8241233E-01
       -1   -1    0    0    0  501  0.00000000000E+00  0.00000000000E+00  0.90826932395E+03  0.90826932397E+03  0.50400001928E-02 0.  1.
        1   -1    0    0  501    0  0.00000000000E+00  0.00000000000E+00 -0.24917312237E+04  0.24917312237E+04  0.50400001928E-02 0. -1.
    10030    2    1    2    0    0  0.00000000000E+00  0.00000000000E+00 -0.15834618997E+04  0.34000005477E+04  0.30087625590E+04 0.  0.
        3    1    3    3  502    0  0.11498951455E+04 -0.27463482581E+03 -0.18430137564E+04  0.21896079214E+04  0.10100000352E+00 0. -1.
       -3    1    3    3    0  502 -0.11498951455E+04  0.27463482581E+03  0.25955185667E+03  0.12103926262E+04  0.10100000352E+00 0.  1.
</event>
<event>
 5   0  0.2948711E-06  0.3003627E+04  0.7818609E-02  0.8242696E-01
       -2   -1    0    0    0  501  0.00000000000E+00  0.00000000000E+00  0.17608319191E+04  0.17608319191E+04  0.25500000920E-02 0. -1.
        2   -1    0    0  501    0  0.00000000000E+00  0.00000000000E+00 -0.12808970398E+04  0.12808970398E+04  0.25500000920E-02 0.  1.
    10030    2    1    2    0    0  0.00000000000E+00  0.00000000000E+00  0.47993487934E+03  0.30417289589E+04  0.30036274022E+04 0.  0.
        5    1    3    3  502    0  0.10398614818E+04  0.35142103054E+03 -0.79802926916E+03  0.13570856445E+04  0.46999998093E+01 0.  1.
       -5    1    3    3    0  502 -0.10398614818E+04 -0.35142103054E+03  0.12779641485E+04  0.16846433144E+04  0.46999998093E+01 0. -1.
</event>
<event>
 5   0  0.3113328E-06  0.3006396E+04  0.7818609E-02  0.8241907E-01
       -2   -1    0    0    0  501  0.00000000000E+00  0.00000000000E+00  0.11773343784E+04  0.11773343784E+04  0.25500000920E-02 0. -1.
        2   -1    0    0  501    0  0.00000000000E+00  0.00000000000E+00 -0.19192543321E+04  0.19192543321E+04  0.25500000920E-02 0.  1.
    10030    2    1    2    0    0  0.00000000000E+00  0.00000000000E+00 -0.74191995374E+03  0.30965887106E+04  0.30063959195E+04 0.  0.
        1    1    3    3  502    0 -0.29755683745E+03 -0.11173205325E+04 -0.13603281411E+04  0.17853397143E+04  0.50400001928E-02 0. -1.
       -1    1    3    3    0  502  0.29755683745E+03  0.11173205325E+04  0.61840818736E+03  0.13112489963E+04  0.50400001928E-02 0.  1.
</event>
<event>
 5   0  0.1097402E-06  0.2938102E+04  0.7818609E-02  0.8261631E-01
        1   -1    0    0  501    0  0.00000000000E+00  0.00000000000E+00  0.69918511406E+03  0.69918511408E+03  0.50400001928E-02 0.  1.
       -1   -1    0    0    0  501  0.00000000000E+00  0.00000000000E+00 -0.30866082742E+04  0.30866082742E+04  0.50400001928E-02 0. -1.
    10030    2    1    2    0    0  0.00000000000E+00  0.00000000000E+00 -0.23874231602E+04  0.37857933883E+04  0.29381018078E+04 0.  0.
        4    1    3    3  502    0 -0.52832168286E+03 -0.69757844622E+03  0.32672150674E+03  0.93407068527E+03  0.12699999809E+01 0.  1.
       -4    1    3    3    0  502  0.52832168286E+03  0.69757844622E+03 -0.27141446669E+04  0.28517227030E+04  0.12699999809E+01 0. -1.
</event>
<event>
 5   0  0.1091076E-06  0.2990321E+04  0.7818609E-02  0.8246500E-01
       -1   -1    0    0    0  501  0.00000000000E+00  0.00000000000E+00  0.10390483378E+04  0.10390483378E+04  0.50400001928E-02 0. -1.
        1   -1    0    0  501    0  0.00000000000E+00  0.00000000000E+00 -0.21514920084E+04  0.21514920084E+04  0.50400001928E-02 0.  1.
    10030    2    1    2    0    0  0.00000000000E+00  0.00000000000E+00 -0.11124436706E+04  0.31905403462E+04  0.29903205147E+04 0.  0.
        3    1    3    3  502    0 -0.33936311893E+03 -0.77867801323E+03  0.75660990094E+03  0.11375259677E+04  0.10100000352E+00 0. -1.
       -3    1    3    3    0  502  0.33936311893E+03  0.77867801323E+03 -0.18690535716E+04  0.20530143785E+04  0.10100000352E+00 0.  1.
</event>
<event>
 5   0  0.2948711E-06  0.2998445E+04  0.7818609E-02  0.8244175E-01
        2   -1    0    0  501    0  0.00000000000E+00  0.00000000000E+00  0.22574765455E+04  0.22574765455E+04  0.25500000920E-02 0. -1.
       -2   -1    0    0    0  501  0.00000000000E+00  0.00000000000E+00 -0.99565494118E+03  0.99565494118E+03  0.25500000920E-02 0.  1.
    10030    2    1    2    0    0  0.00000000000E+00  0.00000000000E+00  0.12618216043E+04  0.32531314867E+04  0.29984447149E+04 0.  0.
        5    1    3    3  502    0  0.10208954134E+04  0.10155068992E+04  0.10836880722E+04  0.18021885682E+04  0.46999998093E+01 0. -1.
       -5    1    3    3    0  502 -0.10208954134E+04 -0.10155068992E+04  0.17813353208E+03  0.14509429185E+04  0.46999998093E+01 0.  1.
</event>
<event>
 5   0  0.1091076E-06  0.2957575E+04  0.7818609E-02  0.8255950E-01
        1   -1    0    0  501    0  0.00000000000E+00  0.00000000000E+00  0.18678276204E+04  0.18678276204E+04  0.50400001928E-02 0. -1.
       -1   -1    0    0    0  501  0.00000000000E+00  0.00000000000E+00 -0.11707785907E+04  0.11707785907E+04  0.50400001928E-02 0.  1.
    10030    2    1    2    0    0  0.00000000000E+00  0.00000000000E+00  0.69704902962E+03  0.30386062111E+04  0.29575750805E+04 0.  0.
        3    1    3    3  502    0 -0.13457931396E+04  0.11695912514E+03 -0.26960191243E+03  0.13775063750E+04  0.10100000352E+00 0.  1.
       -3    1    3    3    0  502  0.13457931396E+04 -0.11695912514E+03  0.96665094205E+03  0.16610998361E+04  0.10100000352E+00 0. -1.
</event>
<event>
 5   0  0.1091076E-06  0.3017945E+04  0.7818609E-02  0.8238625E-01
       -1   -1    0    0    0  501  0.00000000000E+00  0.00000000000E+00  0.14624820423E+04  0.14624820423E+04  0.50400001928E-02 0.  1.
        1   -1    0    0  501    0  0.00000000000E+00  0.00000000000E+00 -0.15569409584E+04  0.15569409584E+04  0.50400001928E-02 0. -1.
    10030    2    1    2    0    0  0.00000000000E+00  0.00000000000E+00 -0.94458916104E+02  0.30194230007E+04  0.30179451238E+04 0.  0.
        3    1    3    3  502    0 -0.49258580198E+03 -0.14250403609E+04 -0.10740356806E+03  0.15115939730E+04  0.10100000352E+00 0.  1.
       -3    1    3    3    0  502  0.49258580198E+03  0.14250403609E+04  0.12944651954E+02  0.15078290277E+04  0.10100000352E+00 0. -1.
</event>
<event>
 5   0  0.2970915E-06  0.3001252E+04  0.7818609E-02  0.8243373E-01
       -2   -1    0    0    0  501  0.00000000000E+00  0.00000000000E+00  0.11467797353E+04  0.11467797353E+04  0.25500000920E-02 0.  1.
        2   -1    0    0  501    0  0.00000000000E+00  0.00000000000E+00 -0.19636537977E+04  0.19636537977E+04  0.25500000920E-02 0. -1.
    10030    2    1    2    0    0  0.00000000000E+00  0.00000000000E+00 -0.81687406243E+03  0.31104335330E+04  0.30012519936E+04 0.  0.
        4    1    3    3  502    0  0.44278962389E+03 -0.82369566806E+03  0.80785811957E+03  0.12357886384E+04  0.12699999809E+01 0.  1.
       -4    1    3    3    0  502 -0.44278962389E+03  0.82369566806E+03 -0.16247321820E+04  0.18746448946E+04  0.12699999809E+01 0. -1.
</event>
<event>
 5   0  0.2862033E-06  0.2985552E+04  0.7818609E-02  0.8247869E-01
        2   -1    0    0  501    0  0.00000000000E+00  0.00000000000E+00  0.14120688680E+04  0.14120688680E+04  0.25500000920E-02 0.  1.
       -2   -1    0    0    0  501  0.00000000000E+00  0.00000000000E+00 -0.15780961375E+04  0.15780961375E+04  0.25500000920E-02 0. -1.
    10030    2    1    2    0    0  0.00000000000E+00  0.00000000000E+00 -0.16602726951E+03  0.29901650056E+04  0.29855521610E+04 0.  0.
        2    1    3    3  502    0  0.14875009432E+04 -0.88701976664E+01  0.42250346477E+02  0.14881272890E+04  0.25500000920E-02 0.  1.
       -2    1    3    3    0  502 -0.14875009432E+04  0.88701976664E+01 -0.20827761599E+03  0.15020377165E+04  0.25500000920E-02 0. -1.
</event>
<event>
 5   0  0.1054384E-06  0.3005159E+04  0.7818609E-02  0.8242259E-01
       -1   -1    0    0    0  501  0.00000000000E+00  0.00000000000E+00  0.18576471526E+04  0.18576471526E+04  0.50400001928E-02 0. -1.
        1   -1    0    0  501    0  0.00000000000E+00  0.00000000000E+00 -0.12153791548E+04  0.12153791548E+04  0.50400001928E-02 0.  1.
    10030    2    1    2    0    0  0.00000000000E+00  0.00000000000E+00  0.64226799778E+03  0.30730263074E+04  0.30051593144E+04 0.  0.
        2    1    3    3  502    0  0.68016509567E+03  0.83712022152E+03 -0.74860310172E+03  0.13129361853E+04  0.25500000920E-02 0.  1.
       -2    1    3    3    0  502 -0.68016509567E+03 -0.83712022152E+03  0.13908710995E+04  0.17600901221E+04  0.25500000920E-02 0. -1.
</event>
<event>
 5   0  0.2862033E-06  0.3002281E+04  0.7818609E-02  0.8243080E-01
       -2   -1    0    0    0  501  0.00000000000E+00  0.00000000000E+00  0.88582289474E+03  0.88582289474E+03  0.25500000920E-02 0. -1.
        2   -1    0    0  501    0  0.00000000000E+00  0.00000000000E+00 -0.25438759179E+04  0.25438759179E+04  0.25500000920E-02 0.  1.
    10030    2    1    2    0    0  0.00000000000E+00  0.00000000000E+00 -0.16580530232E+04  0.34296988127E+04  0.30022814855E+04 0.  0.
        2    1    3    3  502    0  0.21986578452E+03 -0.12328856364E+04  0.11650023105E+03  0.12577441152E+04  0.25500000920E-02 0. -1.
       -2    1    3    3    0  502 -0.21986578452E+03  0.12328856364E+04 -0.17745532542E+04  0.21719546974E+04  0.25500000920E-02 0.  1.
</event>
<event>
 5   0  0.1054384E-06  0.3010620E+04  0.7818609E-02  0.8240705E-01
        1   -1    0    0  501    0  0.00000000000E+00  0.00000000000E+00  0.20176919728E+04  0.20176919728E+04  0.50400001928E-02 0.  1.
       -1   -1    0    0    0  501  0.00000000000E+00  0.00000000000E+00 -0.11230445743E+04  0.11230445744E+04  0.50400001928E-02 0. -1.
    10030    2    1    2    0    0  0.00000000000E+00  0.00000000000E+00  0.89464739849E+03  0.31407365472E+04  0.30106198849E+04 0.  0.
        2    1    3    3  502    0  0.31565225794E+03  0.50469070928E+03  0.18896884871E+04  0.19812298297E+04  0.25500000920E-02 0.  1.
       -2    1    3    3    0  502 -0.31565225794E+03 -0.50469070928E+03 -0.99504108856E+03  0.11595067175E+04  0.25500000920E-02 0. -1.
</event>
<event>
 5   0  0.1091075E-06  0.3013507E+04  0.7818609E-02  0.8239884E-01
       -1   -1    0    0    0  501  0.00000000000E+00  0.00000000000E+00  0.26633690853E+04  0.26633690853E+04  0.50400001928E-02 0.  1.
        1   -1    0    0  501    0  0.00000000000E+00  0.00000000000E+00 -0.85241877279E+03  0.85241877281E+03  0.50400001928E-02 0. -1.
    10030    2    1    2    0    0  0.00000000000E+00  0.00000000000E+00  0.18109503125E+04  0.35157878581E+04  0.30135067992E+04 0.  0.
        1    1    3    3  502    0 -0.56391281234E+03 -0.86231611763E+03 -0.37718962893E+03  0.10972049776E+04  0.50400001928E-02 0. -1.
       -1    1    3    3    0  502  0.56391281234E+03  0.86231611763E+03  0.21881399414E+04  0.24185828805E+04  0.50400001928E-02 0.  1.
</event>
<event>
 5   0  0.2862033E-06  0.2996956E+04  0.7818609E-02  0.8244601E-01
       -2   -1    0    0    0  501  0.00000000000E+00  0.00000000000E+00  0.83468046911E+03  0.83468046912E+03  0.25500000920E-02 0. -1.
        2   -1    0    0  501    0  0.00000000000E+00  0.00000000000E+00 -0.26901738983E+04  0.26901738983E+04  0.25500000920E-02 0.  1.
    10030    2    1    2    0    0  0.00000000000E+00  0.00000000000E+00 -0.18554934292E+04  0.35248543674E+04  0.29969555295E+04 0.  0.
        2    1    3    3  502    0  0.39695595217E+03  0.35554349908E+03  0.71946546704E+03  0.89532997602E+03  0.25500000920E-02 0. -1.
       -2    1    3    3    0  502 -0.39695595217E+03 -0.35554349908E+03 -0.25749588962E+04  0.26295243914E+04  0.25500000920E-02 0.  1.
</event>
<event>
 5   0  0.2970915E-06  0.2996561E+04  0.7818609E-02  0.8244714E-01
        2   -1    0    0  501    0  0.00000000000E+00  0.00000000000E+00  0.16132359096E+04  0.16132359096E+04  0.25500000920E-02 0. -1.
       -2   -1    0    0    0  501  0.00000000000E+00  0.00000000000E+00 -0.13915168027E+04  0.13915168027E+04  0.25500000920E-02 0.  1.
    10030    2    1    2    0    0  0.00000000000E+00  0.00000000000E+00  0.22171910698E+03  0.30047527123E+04  0.29965612792E+04 0.  0.
        4    1    3    3  502    0 -0.82345187425E+03 -0.97183532562E+03  0.90187997685E+03  0.15607453331E+04  0.12699999809E+01 0.  1.
       -4    1    3    3    0  502  0.82345187425E+03  0.97183532562E+03 -0.68016086987E+03  0.14440073792E+04  0.12699999809E+01 0. -1.
</event>
<event>
 5   0  0.3113328E-06  0.2999045E+04  0.7818609E-02  0.8244004E-01
       -2   -1    0    0    0  501  0.00000000000E+00  0.00000000000E+00  0.88410270017E+03  0.88410270017E+03  0.25500000920E-02 0. -1.
        2   -1    0    0  501    0  0.00000000000E+00  0.00000000000E+00 -0.25433333570E+04  0.25433333570E+04  0.25500000920E-02 0.  1.
    10030    2    1    2    0    0  0.00000000000E+00  0.00000000000E+00 -0.16592306568E+04  0.34274360571E+04  0.29990451069E+04 0.  0.
        1    1    3    3  502    0  0.16788396601E+01 -0.14921375035E+04 -0.65975517999E+03  0.16314882916E+04  0.50400001928E-02 0.  1.
       -1    1    3    3    0  502 -0.16788396601E+01  0.14921375035E+04 -0.99947547680E+03  0.17959477656E+04  0.50400001928E-02 0. -1.
</event>
<event>
 5   0  0.3113328E-06  0.3003210E+04  0.7818609E-02  0.8242815E-01
        2   -1    0    0  501    0  0.00000000000E+00  0.00000000000E+00  0.19477574441E+04  0.19477574441E+04  0.25500000920E-02 0.  1.
       -2   -1    0    0    0  501  0.00000000000E+00  0.00000000000E+00 -0.11576476653E+04  0.11576476653E+04  0.25500000920E-02 0. -1.
    10030    2    1    2    0    0  0.00000000000E+00  0.00000000000E+00  0.79010977877E+03  0.31054051094E+04  0.30032095216E+04 0.  0.
        1    1    3    3  502    0  0.87085479553E+03  0.20405679321E+03 -0.85213541515E+03  0.12353793003E+04  0.50400001928E-02 0. -1.
       -1    1    3    3    0  502 -0.87085479553E+03 -0.20405679321E+03  0.16422451939E+04  0.18700258091E+04  0.50400001928E-02 0.  1.
</event>
<event>
 5   0  0.1054384E-06  0.2968812E+04  0.7818609E-02  0.8252693E-01
        1   -1    0    0  501    0  0.00000000000E+00  0.00000000000E+00  0.22679416963E+04  0.22679416963E+04  0.50400001928E-02 0.  1.
       -1   -1    0    0    0  501  0.00000000000E+00  0.00000000000E+00 -0.97156869212E+03  0.97156869214E+03  0.50400001928E-02 0. -1.
    10030    2    1    2    0    0  0.00000000000E+00  0.00000000000E+00  0.12963730042E+04  0.32395103885E+04  0.29688119831E+04 0.  0.
        2    1    3    3  502    0 -0.43764874038E+03  0.12253778258E+04 -0.13135800576E+03  0.13078005053E+04  0.25500000920E-02 0. -1.
       -2    1    3    3    0  502  0.43764874038E+03 -0.12253778258E+04  0.14277310100E+04  0.19317098832E+04  0.25500000920E-02 0.  1.
</event>
<event>
 5   0  0.1054384E-06  0.2651835E+04  0.7818609E-02  0.8350804E-01
       -1   -1    0    0    0  501  0.00000000000E+00  0.00000000000E+00  0.24160405357E+04  0.24160405357E+04  0.50400001928E-02 0. -1.
        1   -1    0    0  501    0  0.00000000000E+00  0.00000000000E+00 -0.72766025445E+03  0.72766025446E+03  0.50400001928E-02 0.  1.
    10030    2    1    2    0    0  0.00000000000E+00  0.00000000000E+00  0.16883802813E+04  0.31437007902E+04  0.26518345884E+04 0.  0.
        2    1    3    3  502    0 -0.91176913563E+03  0.57795795287E+03  0.17568556137E+04  0.20620135789E+04  0.25500000920E-02 0.  1.
       -2    1    3    3    0  502  0.91176913563E+03 -0.57795795287E+03 -0.68475332439E+02  0.10816872113E+04  0.25500000920E-02 0. -1.
</event>
<event>
 5   0  0.3113328E-06  0.2996063E+04  0.7818609E-02  0.8244856E-01
       -2   -1    0    0    0  501  0.00000000000E+00  0.00000000000E+00  0.77032012829E+03  0.77032012830E+03  0.25500000920E-02 0.  1.
        2   -1    0    0  501    0  0.00000000000E+00  0.00000000000E+00 -0.29132032043E+04  0.29132032043E+04  0.25500000920E-02 0. -1.
    10030    2    1    2    0    0  0.00000000000E+00  0.00000000000E+00 -0.21428830760E+04  0.36835233326E+04  0.29960634613E+04 0.  0.
        1    1    3    3  502    0  0.21461498946E+02  0.14538459491E+04 -0.15146771928E+04  0.20996132115E+04  0.50400001928E-02 0. -1.
       -1    1    3    3    0  502 -0.21461498946E+02 -0.14538459491E+04 -0.62820588320E+03  0.15839101210E+04  0.50400001928E-02 0.  1.
</event>
<event>
 5   0  0.2948711E-06  0.3031234E+04  0.7818609E-02  0.8234868E-01
       -2   -1    0    0    0  501  0.00000000000E+00  0.00000000000E+00  0.11589089688E+04  0.11589089688E+04  0.25500000920E-02 0. -1.
        2   -1    0    0  501    0  0.00000000000E+00  0.00000000000E+00 -0.19821185996E+04  0.19821185996E+04  0.25500000920E-02 0.  1.
    10030    2    1    2    0    0  0.00000000000E+00  0.00000000000E+00 -0.82320963078E+03  0.31410275684E+04  0.30312340868E+04 0.  0.
        5    1    3    3  502    0 -0.12638148360E+04  0.71157913619E+03  0.44214681623E+02  0.14510512861E+04  0.46999998093E+01 0. -1.
       -5    1    3    3    0  502  0.12638148360E+04 -0.71157913619E+03 -0.86742431240E+03  0.16899762823E+04  0.46999998093E+01 0.  1.
</event>
<event>
 5   0  0.2970915E-06  0.3014215E+04  0.7818609E-02  0.8239683E-01
        2   -1    0    0  501    0  0.00000000000E+00  0.00000000000E+00  0.24612891546E+04  0.24612891546E+04  0.25500000920E-02 0.  1.
       -2   -1    0    0    0  501  0.00000000000E+00  0.00000000000E+00 -0.92283895829E+03  0.92283895829E+03  0.25500000920E-02 0. -1.
    10030    2    1    2    0    0  0.00000000000E+00  0.00000000000E+00  0.15384501963E+04  0.33841281129E+04  0.30142153337E+04 0.  0.
        4    1    3    3  502    0  0.55097488816E+03 -0.86941768047E+03 -0.46674501694E+03  0.11301827083E+04  0.12699999809E+01 0. -1.
       -4    1    3    3    0  502 -0.55097488816E+03  0.86941768047E+03  0.20051952133E+04  0.22539454046E+04  0.12699999809E+01 0.  1.
</event>
<event>
 5   0  0.1091075E-06  0.2958845E+04  0.7818609E-02  0.8255582E-01
        1   -1    0    0  501    0  0.00000000000E+00  0.00000000000E+00  0.16411747876E+04  0.16411747876E+04  0.50400001928E-02 0.  1.
       -1   -1    0    0    0  501  0.00000000000E+00  0.00000000000E+00 -0.13336122635E+04  0.13336122635E+04  0.50400001928E-02 0. -1.
    10030    2    1    2    0    0  0.00000000000E+00  0.00000000000E+00  0.30756252411E+03  0.29747870511E+04  0.29588449255E+04 0.  0.
        1    1    3    3  502    0 -0.69612835594E+03  0.61564236775E+01  0.14662104920E+04  0.16230852708E+04  0.50400001928E-02 0.  1.
       -1    1    3    3    0  502  0.69612835594E+03 -0.61564236775E+01 -0.11586479679E+04  0.13517017803E+04  0.50400001928E-02 0. -1.
</event>
<event>
 5   0  0.2985941E-06  0.3002984E+04  0.7818609E-02  0.8242879E-01
        2   -1    0    0  501    0  0.00000000000E+00  0.00000000000E+00  0.13353757997E+04  0.13353757997E+04  0.25500000920E-02 0. -1.
       -2   -1    0    0    0  501  0.00000000000E+00  0.00000000000E+00 -0.16882721515E+04  0.16882721515E+04  0.25500000920E-02 0.  1.
    10030    2    1    2    0    0  0.00000000000E+00  0.00000000000E+00 -0.35289635180E+03  0.30236479512E+04  0.30029836992E+04 0.  0.
        3    1    3    3  502    0 -0.66267803699E+03 -0.14311929830E+03  0.11724918007E+04  0.13543863360E+04  0.10100000352E+00 0. -1.
       -3    1    3    3    0  502  0.66267803699E+03  0.14311929830E+03 -0.15253881525E+04  0.16692616153E+04  0.10100000352E+00 0.  1.
</event>
<event>
 5   0  0.3113328E-06  0.2997986E+04  0.7818609E-02  0.8244306E-01
        2   -1    0    0  501    0  0.00000000000E+00  0.00000000000E+00  0.23231239022E+04  0.23231239022E+04  0.25500000920E-02 0. -1.
       -2   -1    0    0    0  501  0.00000000000E+00  0.00000000000E+00 -0.96722377985E+03  0.96722377985E+03  0.25500000920E-02 0.  1.
    10030    2    1    2    0    0  0.00000000000E+00  0.00000000000E+00  0.13559001223E+04  0.32903476820E+04  0.29979864454E+04 0.  0.
        1    1    3    3  502    0 -0.11653890679E+04  0.12574632155E+03  0.17034329482E+04  0.20677590831E+04  0.50400001928E-02 0. -1.
       -1    1    3    3    0  502  0.11653890679E+04 -0.12574632155E+03 -0.34753282584E+03  0.12225885989E+04  0.50400001928E-02 0.  1.
</event>
<event>
 5   0  0.1097402E-06  0.2939723E+04  0.7818609E-02  0.8261156E-01
        1   -1    0    0  501    0  0.00000000000E+00  0.00000000000E+00  0.10207096254E+04  0.10207096254E+04  0.50400001928E-02 0. -1.
       -1   -1    0    0    0  501  0.00000000000E+00  0.00000000000E+00 -0.21166581243E+04  0.21166581243E+04  0.50400001928E-02 0.  1.
    10030    2    1    2    0    0  0.00000000000E+00  0.00000000000E+00 -0.10959484990E+04  0.31373677497E+04  0.29397233347E+04 0.  0.
        4    1    3    3  502    0  0.44706812231E+03 -0.43144987398E+03  0.87367887088E+03  0.10720705583E+04  0.12699999809E+01 0. -1.
       -4    1    3    3    0  502 -0.44706812231E+03  0.43144987398E+03 -0.19696273698E+04  0.20652971914E+04  0.12699999809E+01 0.  1.
</event>
<event>
 5   0  0.2985941E-06  0.3016993E+04  0.7818609E-02  0.8238895E-01
        2   -1    0    0  501    0  0.00000000000E+00  0.00000000000E+00  0.15438933098E+04  0.15438933098E+04  0.25500000920E-02 0.  1.
       -2   -1    0    0    0  501  0.00000000000E+00  0.00000000000E+00 -0.14739107572E+04  0.14739107572E+04  0.25500000920E-02 0. -1.
    10030    2    1    2    0    0  0.00000000000E+00  0.00000000000E+00  0.69982552622E+02  0.30178040670E+04  0.30169925140E+04 0.  0.
        3    1    3    3  502    0  0.80826346021E+03  0.45820432079E+03 -0.11537390716E+04  0.14813355043E+04  0.10100000352E+00 0. -1.
       -3    1    3    3    0  502 -0.80826346021E+03 -0.45820432079E+03  0.12237216242E+04  0.15364685628E+04  0.10100000352E+00 0.  1.
</event>
<event>
 5   0  0.3113328E-06  0.2994667E+04  0.7818609E-02  0.8245255E-01
        2   -1    0    0  501    0  0.00000000000E+00  0.00000000000E+00  0.23991227771E+04  0.23991227771E+04  0.25500000920E-02 0.  1.
       -2   -1    0    0    0  501  0.00000000000E+00  0.00000000000E+00 -0.93451152306E+03  0.93451152307E+03  0.25500000920E-02 0. -1.
    10030    2    1    2    0    0  0.00000000000E+00  0.00000000000E+00  0.14646112540E+04  0.33336343002E+04  0.29946671805E+04 0.  0.
        1    1    3    3  502    0  0.80819326272E+03 -0.94187486521E+02  0.21315464686E+04  0.22815648096E+04  0.50400001928E-02 0.  1.
       -1    1    3    3    0  502 -0.80819326272E+03  0.94187486521E+02 -0.66693521458E+03  0.10520694906E+04  0.50400001928E-02 0. -1.
</event>
<event>
 5   0  0.1054384E-06  0.2996489E+04  0.7818609E-02  0.8244734E-01
       -1   -1    0    0    0  501  0.00000000000E+00  0.00000000000E+00  0.12509631467E+04  0.12509631467E+04  0.50400001928E-02 0.  1.
        1   -1    0    0  501    0  0.00000000000E+00  0.00000000000E+00 -0.17944066576E+04  0.17944066576E+04  0.50400001928E-02 0. -1.
    10030    2    1    2    0    0  0.00000000000E+00  0.00000000000E+00 -0.54344351086E+03  0.30453698043E+04  0.29964890114E+04 0.  0.
        2    1    3    3  502    0  0.10680261850E+04 -0.10447988775E+04 -0.15831304105E+03  0.15024472188E+04  0.25500000920E-02 0. -1.
       -2    1    3    3    0  502 -0.10680261850E+04  0.10447988775E+04 -0.38513046981E+03  0.15429225856E+04  0.25500000920E-02 0.  1.
</event>
<event>
 5   0  0.2948711E-06  0.3043101E+04  0.7818609E-02  0.8231529E-01
        2   -1    0    0  501    0  0.00000000000E+00  0.00000000000E+00  0.12321654906E+04  0.12321654906E+04  0.25500000920E-02 0. -1.
       -2   -1    0    0    0  501  0.00000000000E+00  0.00000000000E+00 -0.18788995486E+04  0.18788995486E+04  0.25500000920E-02 0.  1.
    10030    2    1    2    0    0  0.00000000000E+00  0.00000000000E+00 -0.64673405804E+03  0.31110650392E+04  0.30431005136E+04 0.  0.
        5    1    3    3  502    0  0.19341745466E+03  0.13093705292E+04  0.44388191501E+03  0.13960353645E+04  0.46999998093E+01 0. -1.
       -5    1    3    3    0  502 -0.19341745466E+03 -0.13093705292E+04 -0.10906159730E+04  0.17150296747E+04  0.46999998093E+01 0.  1.
</event>
<event>
 5   0  0.1091075E-06  0.2982520E+04  0.7818609E-02  0.8248740E-01
        1   -1    0    0  501    0  0.00000000000E+00  0.00000000000E+00  0.17533197682E+04  0.17533197682E+04  0.50400001928E-02 0.  1.
       -1   -1    0    0    0  501  0.00000000000E+00  0.00000000000E+00 -0.12683692827E+04  0.12683692827E+04  0.50400001928E-02 0. -1.
    10030    2    1    2    0    0  0.00000000000E+00  0.00000000000E+00  0.48495048552E+03  0.30216890510E+04  0.29825203683E+04 0.  0.
        1    1    3    3  502    0 -0.33264142361E+01  0.14478456110E+04  0.60436217337E+03  0.15689237122E+04  0.50400001928E-02 0. -1.
       -1    1    3    3    0  502  0.33264142361E+01 -0.14478456110E+04 -0.11941168785E+03  0.14527653387E+04  0.50400001928E-02 0.  1.
</event>
<event>
 5   0  0.3113328E-06  0.2999980E+04  0.7818609E-02  0.8243737E-01
        2   -1    0    0  501    0  0.00000000000E+00  0.00000000000E+00  0.26894519653E+04  0.26894519653E+04  0.25500000920E-02 0. -1.
       -2   -1    0    0    0  501  0.00000000000E+00  0.00000000000E+00 -0.83659068108E+03  0.83659068108E+03  0.25500000920E-02 0.  1.
    10030    2    1    2    0    0  0.00000000000E+00  0.00000000000E+00  0.18528612842E+04  0.35260426463E+04  0.29999803008E+04 0.  0.
        1    1    3    3  502    0  0.74934212306E+03 -0.30786849255E+02 -0.60040471025E+03  0.96070144352E+03  0.50400001928E-02 0.  1.
       -1    1    3    3    0  502 -0.74934212306E+03  0.30786849255E+02  0.24532659944E+04  0.25653412028E+04  0.50400001928E-02 0. -1.
</event>
<event>
 5   0  0.2862033E-06  0.3032586E+04  0.7818609E-02  0.8234486E-01
        2   -1    0    0  501    0  0.00000000000E+00  0.00000000000E+00  0.16766031565E+04  0.16766031565E+04  0.25500000920E-02 0. -1.
       -2   -1    0    0    0  501  0.00000000000E+00  0.00000000000E+00 -0.13713114651E+04  0.13713114651E+04  0.25500000920E-02 0.  1.
    10030    2    1    2    0    0  0.00000000000E+00  0.00000000000E+00  0.30529169147E+03  0.30479146216E+04  0.30325864413E+04 0.  0.
        2    1    3    3  502    0 -0.96101889750E+03 -0.11090600882E+04 -0.23082364390E+03  0.14855474261E+04  0.25500000920E-02 0.  1.
       -2    1    3    3    0  502  0.96101889750E+03  0.11090600882E+04  0.53611533537E+03  0.15623671955E+04  0.25500000920E-02 0. -1.
</event>
<event>
 5   0  0.9749500E-07  0.2998536E+04  0.7818609E-02  0.8244149E-01
       -3   -1    0    0    0  501  0.00000000000E+00  0.00000000000E+00  0.19242828467E+04  0.19242828493E+04  0.10100000352E+00 0.  1.
        3   -1    0    0  501    0  0.00000000000E+00  0.00000000000E+00 -0.11681254839E+04  0.11681254883E+04  0.10100000352E+00 0. -1.
    10030    2    1    2    0    0  0.00000000000E+00  0.00000000000E+00  0.75615736277E+03  0.30924083376E+04  0.29985355374E+04 0.  0.
        2    1    3    3  502    0 -0.36416369507E+03 -0.85389358205E+03  0.15922438574E+04  0.18430924957E+04  0.25500000920E-02 0.  1.
       -2    1    3    3    0  502  0.36416369507E+03  0.85389358205E+03 -0.83608649465E+03  0.12493158419E+04  0.25500000920E-02 0. -1.
</event>
<event>
 5   0  0.1091076E-06  0.3081883E+04  0.7818609E-02  0.8220728E-01
        1   -1    0    0  501    0  0.00000000000E+00  0.00000000000E+00  0.15067316615E+04  0.15067316615E+04  0.50400001928E-02 0. -1.
       -1   -1    0    0    0  501  0.00000000000E+00  0.00000000000E+00 -0.15759277614E+04  0.15759277614E+04  0.50400001928E-02 0.  1.
    10030    2    1    2    0    0  0.00000000000E+00  0.00000000000E+00 -0.69196099837E+02  0.30826594229E+04  0.30818827066E+04 0.  0.
        3    1    3    3  502    0  0.65891998999E+03  0.12100117914E+04 -0.72484164028E+03  0.15568235296E+04  0.10100000352E+00 0.  1.
       -3    1    3    3    0  502 -0.65891998999E+03 -0.12100117914E+04  0.65564554044E+03  0.15258358933E+04  0.10100000352E+00 0. -1.
</event>
<event>
 5   0  0.2985941E-06  0.3023774E+04  0.7818609E-02  0.8236974E-01
        2   -1    0    0  501    0  0.00000000000E+00  0.00000000000E+00  0.17513422327E+04  0.17513422327E+04  0.25500000920E-02 0.  1.
       -2   -1    0    0    0  501  0.00000000000E+00  0.00000000000E+00 -0.13051718770E+04  0.13051718770E+04  0.25500000920E-02 0. -1.
    10030    2    1    2    0    0  0.00000000000E+00  0.00000000000E+00  0.44617035575E+03  0.30565141097E+04  0.30237742171E+04 0.  0.
        3    1    3    3  502    0 -0.12869912254E+04 -0.60909487430E+03  0.73697901784E+03  0.16032719866E+04  0.10100000352E+00 0.  1.
       -3    1    3    3    0  502  0.12869912254E+04  0.60909487430E+03 -0.29080866209E+03  0.14532421231E+04  0.10100000352E+00 0. -1.
</event>
<event>
 5   0  0.2948711E-06  0.2994627E+04  0.7818609E-02  0.8245267E-01
        2   -1    0    0  501    0  0.00000000000E+00  0.00000000000E+00  0.12982099930E+04  0.12982099931E+04  0.25500000920E-02 0.  1.
       -2   -1    0    0    0  501  0.00000000000E+00  0.00000000000E+00 -0.17269533472E+04  0.17269533472E+04  0.25500000920E-02 0. -1.
    10030    2    1    2    0    0  0.00000000000E+00  0.00000000000E+00 -0.42874335415E+03  0.30251633403E+04  0.29946272508E+04 0.  0.
        5    1    3    3  502    0 -0.78115785776E+03  0.74155644412E+03  0.83633633274E+03  0.13636693551E+04  0.46999998093E+01 0.  1.
       -5    1    3    3    0  502  0.78115785776E+03 -0.74155644412E+03 -0.12650796869E+04  0.16614939852E+04  0.46999998093E+01 0. -1.
</event>
<event>
 5   0  0.9749500E-07  0.2976469E+04  0.7818609E-02  0.8250482E-01
       -3   -1    0    0    0  501  0.00000000000E+00  0.00000000000E+00  0.24735663747E+04  0.24735663768E+04  0.10100000352E+00 0. -1.
        3   -1    0    0  501    0  0.00000000000E+00  0.00000000000E+00 -0.89540417496E+03  0.89540418066E+03  0.10100000352E+00 0.  1.
    10030    2    1    2    0    0  0.00000000000E+00  0.00000000000E+00  0.15781621998E+04  0.33689705574E+04  0.29764688287E+04 0.  0.
        2    1    3    3  502    0 -0.33114805806E+03  0.91568485830E+03  0.20629754942E+04  0.22812289858E+04  0.25500000920E-02 0. -1.
       -2    1    3    3    0  502  0.33114805806E+03 -0.91568485830E+03 -0.48481329447E+03  0.10877415716E+04  0.25500000920E-02 0.  1.
</event>
<event>
 5   0  0.3113328E-06  0.2894249E+04  0.7818609E-02  0.8274591E-01
       -2   -1    0    0    0  501  0.00000000000E+00  0.00000000000E+00  0.13157897844E+04  0.13157897844E+04  0.25500000920E-02 0.  1.
        2   -1    0    0  501    0  0.00000000000E+00  0.00000000000E+00 -0.15915680336E+04  0.15915680336E+04  0.25500000920E-02 0. -1.
    10030    2    1    2    0    0  0.00000000000E+00  0.00000000000E+00 -0.27577824912E+03  0.29073578180E+04  0.28942487521E+04 0.  0.
        1    1    3    3  502    0  0.21265090975E+03  0.67582417861E+03 -0.14054325160E+04  0.15739120963E+04  0.50400001928E-02 0. -1.
       -1    1    3    3    0  502 -0.21265090975E+03 -0.67582417861E+03  0.11296542669E+04  0.13334457217E+04  0.50400001928E-02 0.  1.
</event>
<event>
 5   0  0.1091075E-06  0.2981154E+04  0.7818609E-02  0.8249133E-01
        1   -1    0    0  501    0  0.00000000000E+00  0.00000000000E+00  0.17717653146E+04  0.17717653146E+04  0.50400001928E-02 0.  1.
       -1   -1    0    0    0  501  0.00000000000E+00  0.00000000000E+00 -0.12540150326E+04  0.12540150326E+04  0.50400001928E-02 0. -1.
    10030    2    1    2    0    0  0.00000000000E+00  0.00000000000E+00  0.51775028195E+03  0.30257803472E+04  0.29811543662E+04 0.  0.
        1    1    3    3  502    0  0.99412629216E+03 -0.45152424108E+03  0.12887860706E+04  0.16891212985E+04  0.50400001928E-02 0.  1.
       -1    1    3    3    0  502 -0.99412629216E+03  0.45152424108E+03 -0.77103578869E+03  0.13366590487E+04  0.50400001928E-02 0. -1.
</event>
<event>
 5   0  0.2985941E-06  0.3004788E+04  0.7818609E-02  0.8242365E-01
        2   -1    0    0  501    0  0.00000000000E+00  0.00000000000E+00  0.27887381038E+04  0.27887381038E+04  0.25500000920E-02 0.  1.
       -2   -1    0    0    0  501  0.00000000000E+00  0.00000000000E+00 -0.80939419806E+03  0.80939419807E+03  0.25500000920E-02 0. -1.
    10030    2    1    2    0    0  0.00000000000E+00  0.00000000000E+00  0.19793439058E+04  0.35981323019E+04  0.30047884725E+04 0.  0.
        3    1    3    3  502    0  0.34418338481E+03 -0.43286720904E+03  0.26624220191E+04  0.27192512280E+04  0.10100000352E+00 0.  1.
       -3    1    3    3    0  502 -0.34418338481E+03  0.43286720904E+03 -0.68307811330E+03  0.87888107393E+03  0.10100000352E+00 0. -1.
</event>
<event>
 5   0  0.2970915E-06  0.2989940E+04  0.7818609E-02  0.8246609E-01
        2   -1    0    0  501    0  0.00000000000E+00  0.00000000000E+00  0.26222528499E+04  0.26222528499E+04  0.25500000920E-02 0. -1.
       -2   -1    0    0    0  501  0.00000000000E+00  0.00000000000E+00 -0.85229572324E+03  0.85229572324E+03  0.25500000920E-02 0.  1.
    10030    2    1    2    0    0  0.00000000000E+00  0.00000000000E+00  0.17699571267E+04  0.34745485732E+04  0.29899397246E+04 0.  0.
        4    1    3    3  502    0  0.55985151383E+03  0.26594789262E+03  0.24659074303E+04  0.25426094995E+04  0.12699999809E+01 0. -1.
       -4    1    3    3    0  502 -0.55985151383E+03 -0.26594789262E+03 -0.69595030359E+03  0.93193907371E+03  0.12699999809E+01 0.  1.
</event>
<event>
 5   0  0.2862033E-06  0.3007590E+04  0.7818609E-02  0.8241567E-01
        2   -1    0    0  501    0  0.00000000000E+00  0.00000000000E+00  0.18594966502E+04  0.18594966502E+04  0.25500000920E-02 0. -1.
       -2   -1    0    0    0  501  0.00000000000E+00  0.00000000000E+00 -0.12161350051E+04  0.12161350051E+04  0.25500000920E-02 0.  1.
    10030    2    1    2    0    0  0.00000000000E+00  0.00000000000E+00  0.64336164510E+03  0.30756316553E+04  0.30075897115E+04 0.  0.
        2    1    3    3  502    0 -0.23427857003E+03  0.13986562789E+04  0.83327176521E+03  0.16448305899E+04  0.25500000920E-02 0.  1.
       -2    1    3    3    0  502  0.23427857003E+03 -0.13986562789E+04 -0.18991012011E+03  0.14308010654E+04  0.25500000920E-02 0. -1.
</event>
<event>
 5   0  0.2862033E-06  0.2997477E+04  0.7818609E-02  0.8244452E-01
        2   -1    0    0  501    0  0.00000000000E+00  0.00000000000E+00  0.11876800624E+04  0.11876800624E+04  0.25500000920E-02 0. -1.
       -2   -1    0    0    0  501  0.00000000000E+00  0.00000000000E+00 -0.18912642428E+04  0.18912642428E+04  0.25500000920E-02 0.  1.
    10030    2    1    2    0    0  0.00000000000E+00  0.00000000000E+00 -0.70358418044E+03  0.30789443052E+04  0.29974768282E+04 0.  0.
        2    1    3    3  502    0  0.41360625108E+03 -0.73658747084E+01  0.11278774147E+04  0.12013458493E+04  0.25500000920E-02 0. -1.
       -2    1    3    3    0  502 -0.41360625108E+03  0.73658747084E+01 -0.18314615952E+04  0.18775984559E+04  0.25500000920E-02 0.  1.
</event>
<event>
 5   0  0.3113328E-06  0.2977574E+04  0.7818609E-02  0.8250164E-01
       -2   -1    0    0    0  501  0.00000000000E+00  0.00000000000E+00  0.82165200096E+03  0.82165200097E+03  0.25500000920E-02 0.  1.
        2   -1    0    0  501    0  0.00000000000E+00  0.00000000000E+00 -0.26975985623E+04  0.26975985623E+04  0.25500000920E-02 0. -1.
    10030    2    1    2    0    0  0.00000000000E+00  0.00000000000E+00 -0.18759465613E+04  0.35192505632E+04  0.29775743527E+04 0.  0.
        1    1    3    3  502    0  0.44417406388E+03 -0.10627147111E+04  0.17694258624E+03  0.11653161953E+04  0.50400001928E-02 0.  1.
       -1    1    3    3    0  502 -0.44417406388E+03  0.10627147111E+04 -0.20528891475E+04  0.23539343679E+04  0.50400001928E-02 0. -1.
</event>
<event>
 5   0  0.9749500E-07  0.3010935E+04  0.7818609E-02  0.8240615E-01
       -3   -1    0    0    0  501  0.00000000000E+00  0.00000000000E+00  0.11945250482E+04  0.11945250525E+04  0.10100000352E+00 0.  1.
        3   -1    0    0  501    0  0.00000000000E+00  0.00000000000E+00 -0.18973497890E+04  0.18973497916E+04  0.10100000352E+00 0. -1.
    10030    2    1    2    0    0  0.00000000000E+00  0.00000000000E+00 -0.70282474074E+03  0.30918748441E+04  0.30109346448E+04 0.  0.
        2    1    3    3  502    0 -0.15674573978E+03 -0.13737484977E+04 -0.96297018054E+03  0.16849527384E+04  0.25500000920E-02 0. -1.
       -2    1    3    3    0  502  0.15674573978E+03  0.13737484977E+04  0.26014543979E+03  0.14069221058E+04  0.25500000920E-02 0.  1.
</event>
<event>
 5   0  0.1091075E-06  0.3010123E+04  0.7818609E-02  0.8240846E-01
        1   -1    0    0  501    0  0.00000000000E+00  0.00000000000E+00  0.23028899748E+04  0.23028899748E+04  0.50400001928E-02 0.  1.
       -1   -1    0    0    0  501  0.00000000000E+00  0.00000000000E+00 -0.98363790576E+03  0.98363790577E+03  0.50400001928E-02 0. -1.
    10030    2    1    2    0    0  0.00000000000E+00  0.00000000000E+00  0.13192520690E+04  0.32865278806E+04  0.30101228360E+04 0.  0.
        1    1    3    3  502    0 -0.76681526157E+03  0.87723290768E+03  0.16998247000E+04  0.20608122744E+04  0.50400001928E-02 0.  1.
       -1    1    3    3    0  502  0.76681526157E+03 -0.87723290768E+03 -0.38057263095E+03  0.12257156061E+04  0.50400001928E-02 0. -1.
</event>
<event>
 5   0  0.3113328E-06  0.3034135E+04  0.7818609E-02  0.8234050E-01
       -2   -1    0    0    0  501  0.00000000000E+00  0.00000000000E+00  0.14598299245E+04  0.14598299245E+04  0.25500000920E-02 0. -1.
        2   -1    0    0  501    0  0.00000000000E+00  0.00000000000E+00 -0.15765495727E+04  0.15765495727E+04  0.25500000920E-02 0.  1.
    10030    2    1    2    0    0  0.00000000000E+00  0.00000000000E+00 -0.11671964822E+03  0.30363794971E+04  0.30341352927E+04 0.  0.
        1    1    3    3  502    0 -0.68562247376E+03  0.70675858397E+03 -0.12132967909E+04  0.15625859897E+04  0.50400001928E-02 0.  1.
       -1    1    3    3    0  502  0.68562247376E+03 -0.70675858397E+03  0.10965771427E+04  0.14737935074E+04  0.50400001928E-02 0. -1.
</event>
<event>
 5   0  0.1054384E-06  0.3001272E+04  0.7818609E-02  0.8243368E-01
        1   -1    0    0  501    0  0.00000000000E+00  0.00000000000E+00  0.18351245653E+04  0.18351245653E+04  0.50400001928E-02 0.  1.
       -1   -1    0    0    0  501  0.00000000000E+00  0.00000000000E+00 -0.12271146001E+04  0.12271146001E+04  0.50400001928E-02 0. -1.
    10030    2    1    2    0    0  0.00000000000E+00  0.00000000000E+00  0.60800996517E+03  0.30622391654E+04  0.30012718285E+04 0.  0.
        2    1    3    3  502    0  0.44690863071E+03  0.14199890082E+04  0.11092008673E+03  0.14927824266E+04  0.25500000920E-02 0. -1.
       -2    1    3    3    0  502 -0.44690863071E+03 -0.14199890082E+04  0.49708987843E+03  0.15694567388E+04  0.25500000920E-02 0.  1.
</event>
<event>
 5   0  0.1091076E-06  0.2962631E+04  0.7818609E-02  0.8254483E-01
       -1   -1    0    0    0  501  0.00000000000E+00  0.00000000000E+00  0.10676650845E+04  0.10676650845E+04  0.50400001928E-02 0. -1.
        1   -1    0    0  501    0  0.00000000000E+00  0.00000000000E+00 -0.20552278265E+04  0.20552278265E+04  0.50400001928E-02 0.  1.
    10030    2    1    2    0    0  0.00000000000E+00  0.00000000000E+00 -0.98756274206E+03  0.31228929110E+04  0.29626305818E+04 0.  0.
        3    1    3    3  502    0  0.42959915221E+03  0.12723028033E+04  0.16533137235E+03  0.13530130552E+04  0.10100000352E+00 0.  1.
       -3    1    3    3    0  502 -0.42959915221E+03 -0.12723028033E+04 -0.11528941144E+04  0.17698798558E+04  0.10100000352E+00 0. -1.
</event>
<event>
 5   0  0.1097402E-06  0.3053997E+04  0.7818609E-02  0.8228478E-01
        1   -1    0    0  501    0  0.00000000000E+00  0.00000000000E+00  0.18117811324E+04  0.18117811324E+04  0.50400001928E-02 0.  1.
       -1   -1    0    0    0  501  0.00000000000E+00  0.00000000000E+00 -0.12869793073E+04  0.12869793073E+04  0.50400001928E-02 0. -1.
    10030    2    1    2    0    0  0.00000000000E+00  0.00000000000E+00  0.52480182513E+03  0.30987604397E+04  0.30539972670E+04 0.  0.
        4    1    3    3  502    0  0.34516959879E+03 -0.18640650831E+03 -0.12349780365E+04  0.12957861713E+04  0.12699999809E+01 0. -1.
       -4    1    3    3    0  502 -0.34516959879E+03  0.18640650831E+03  0.17597798616E+04  0.18029742684E+04  0.12699999809E+01 0.  1.
</event>
<event>
 5   0  0.3113328E-06  0.2991718E+04  0.7818609E-02  0.8246100E-01
        2   -1    0    0  501    0  0.00000000000E+00  0.00000000000E+00  0.14663726622E+04  0.14663726622E+04  0.25500000920E-02 0.  1.
       -2   -1    0    0    0  501  0.00000000000E+00  0.00000000000E+00 -0.15259378171E+04  0.15259378171E+04  0.25500000920E-02 0. -1.
    10030    2    1    2    0    0  0.00000000000E+00  0.00000000000E+00 -0.59565154947E+02  0.29923104793E+04  0.29917175664E+04 0.  0.
        1    1    3    3  502    0 -0.48806807708E+03  0.11000330026E+04  0.85882494792E+03  0.14784665522E+04  0.50400001928E-02 0.  1.
       -1    1    3    3    0  502  0.48806807708E+03 -0.11000330026E+04 -0.91839010286E+03  0.15138439271E+04  0.50400001928E-02 0. -1.
</event>
<event>
 5   0  0.1054384E-06  0.3019352E+04  0.7818609E-02  0.8238226E-01
       -1   -1    0    0    0  501  0.00000000000E+00  0.00000000000E+00  0.14014947060E+04  0.14014947060E+04  0.50400001928E-02 0.  1.
        1   -1    0    0  501    0  0.00000000000E+00  0.00000000000E+00 -0.16262077581E+04  0.16262077581E+04  0.50400001928E-02 0. -1.
    10030    2    1    2    0    0  0.00000000000E+00  0.00000000000E+00 -0.22471305209E+03  0.30277024641E+04  0.30193519595E+04 0.  0.
        2    1    3    3  502    0  0.35156360079E+03 -0.14517768575E+04  0.10703740542E+03  0.14975680337E+04  0.25500000920E-02 0.  1.
       -2    1    3    3    0  502 -0.35156360079E+03  0.14517768575E+04 -0.33175045750E+03  0.15301344305E+04  0.25500000920E-02 0. -1.
</event>
<event>
 5   0  0.1113245E-06  0.2998484E+04  0.7818609E-02  0.8244164E-01
       -1   -1    0    0    0  501  0.00000000000E+00  0.00000000000E+00  0.11356886532E+04  0.11356886532E+04  0.50400001928E-02 0. -1.
        1   -1    0    0  501    0  0.00000000000E+00  0.00000000000E+00 -0.19791749742E+04  0.19791749742E+04  0.50400001928E-02 0.  1.
    10030    2    1    2    0    0  0.00000000000E+00  0.00000000000E+00 -0.84348632105E+03  0.31148636274E+04  0.29984839909E+04 0.  0.
        5    1    3    3  502    0  0.77843147611E+03 -0.12799938652E+04 -0.36148652844E+03  0.15411146804E+04  0.46999998093E+01 0. -1.
       -5    1    3    3    0  502 -0.77843147611E+03  0.12799938652E+04 -0.48199979262E+03  0.15737489470E+04  0.46999998093E+01 0.  1.
</event>
<event>
 5   0  0.1113245E-06  0.2992969E+04  0.7818609E-02  0.8245742E-01
        1   -1    0    0  501    0  0.00000000000E+00  0.00000000000E+00  0.15968086690E+04  0.15968086690E+04  0.50400001928E-02 0.  1.
       -1   -1    0    0    0  501  0.00000000000E+00  0.00000000000E+00 -0.14024631486E+04  0.14024631486E+04  0.50400001928E-02 0. -1.
    10030    2    1    2    0    0  0.00000000000E+00  0.00000000000E+00  0.19434552040E+03  0.29992718177E+04  0.29929686358E+04 0.  0.
        5    1    3    3  502    0  0.55453043244E+02 -0.10602605843E+04  0.11540101436E+04  0.15681164013E+04  0.46999998093E+01 0.  1.
       -5    1    3    3    0  502 -0.55453043244E+02  0.10602605843E+04 -0.95966462323E+03  0.14311554163E+04  0.46999998093E+01 0. -1.
</event>
<event>
 5   0  0.3113328E-06  0.3014280E+04  0.7818609E-02  0.8239665E-01
        2   -1    0    0  501    0  0.00000000000E+00  0.00000000000E+00  0.11508051870E+04  0.11508051870E+04  0.25500000920E-02 0.  1.
       -2   -1    0    0    0  501  0.00000000000E+00  0.00000000000E+00 -0.19738102751E+04  0.19738102751E+04  0.25500000920E-02 0. -1.
    10030    2    1    2    0    0  0.00000000000E+00  0.00000000000E+00 -0.82300508818E+03  0.31246154621E+04  0.30142800817E+04 0.  0.
        1    1    3    3  502    0  0.34926921023E+03  0.11269510032E+04  0.56062197690E+03  0.13062559266E+04  0.50400001928E-02 0.  1.
       -1    1    3    3    0  502 -0.34926921023E+03 -0.11269510032E+04 -0.13836270651E+04  0.18183595354E+04  0.50400001928E-02 0. -1.
</event>
<event>
 5   0  0.1113245E-06  0.2992171E+04  0.7818609E-02  0.8245970E-01
       -1   -1    0    0    0  501  0.00000000000E+00  0.00000000000E+00  0.13778994687E+04  0.13778994687E+04  0.50400001928E-02 0. -1.
        1   -1    0    0  501    0  0.00000000000E+00  0.00000000000E+00 -0.16244086251E+04  0.16244086252E+04  0.50400001928E-02 0.  1.
    10030    2    1    2    0    0  0.00000000000E+00  0.00000000000E+00 -0.24650915644E+03  0.30023080939E+04  0.29921709721E+04 0.  0.
        5    1    3    3  502    0 -0.63346780077E+02  0.71232427310E+03  0.11952868227E+04  0.13928931629E+04  0.46999998093E+01 0. -1.
       -5    1    3    3    0  502  0.63346780077E+02 -0.71232427310E+03 -0.14417959792E+04  0.16094149310E+04  0.46999998093E+01 0.  1.
</event>
<event>
 5   0  0.2862033E-06  0.2993272E+04  0.7818609E-02  0.8245655E-01
        2   -1    0    0  501    0  0.00000000000E+00  0.00000000000E+00  0.22108002568E+04  0.22108002568E+04  0.25500000920E-02 0.  1.
       -2   -1    0    0    0  501  0.00000000000E+00  0.00000000000E+00 -0.10131711777E+04  0.10131711777E+04  0.25500000920E-02 0. -1.
    10030    2    1    2    0    0  0.00000000000E+00  0.00000000000E+00  0.11976290791E+04  0.32239714345E+04  0.29932718553E+04 0.  0.
        2    1    3    3  502    0 -0.12101305211E+03 -0.47226644922E+03  0.21228778853E+04  0.21781391768E+04  0.25500000920E-02 0.  1.
       -2    1    3    3    0  502  0.12101305211E+03  0.47226644922E+03 -0.92524880621E+03  0.10458322577E+04  0.25500000920E-02 0. -1.
</event>
<event>
 5   0  0.1054384E-06  0.2959454E+04  0.7818609E-02  0.8255405E-01
       -1   -1    0    0    0  501  0.00000000000E+00  0.00000000000E+00  0.11361065530E+04  0.11361065531E+04  0.50400001928E-02 0. -1.
        1   -1    0    0  501    0  0.00000000000E+00  0.00000000000E+00 -0.19272768284E+04  0.19272768284E+04  0.50400001928E-02 0.  1.
    10030    2    1    2    0    0  0.00000000000E+00  0.00000000000E+00 -0.79117027539E+03  0.30633833815E+04  0.29594538918E+04 0.  0.
        2    1    3    3  502    0 -0.95648426985E+03  0.43156617835E+03 -0.14755262199E+04  0.18106046367E+04  0.25500000920E-02 0.  1.
       -2    1    3    3    0  502  0.95648426985E+03 -0.43156617835E+03  0.68435594448E+03  0.12527787448E+04  0.25500000920E-02 0. -1.
</event>
<event>
 5   0  0.2948711E-06  0.2980378E+04  0.7818609E-02  0.8249356E-01
       -2   -1    0    0    0  501  0.00000000000E+00  0.00000000000E+00  0.15192057187E+04  0.15192057187E+04  0.25500000920E-02 0.  1.
        2   -1    0    0  501    0  0.00000000000E+00  0.00000000000E+00 -0.14617266845E+04  0.14617266845E+04  0.25500000920E-02 0. -1.
    10030    2    1    2    0    0  0.00000000000E+00  0.00000000000E+00  0.57479034156E+02  0.29809324032E+04  0.29803781896E+04 0.  0.
        5    1    3    3  502    0 -0.18351869358E+03 -0.13202906539E+04 -0.63756371194E+03  0.14776183873E+04  0.46999998093E+01 0. -1.
       -5    1    3    3    0  502  0.18351869358E+03  0.13202906539E+04  0.69504274610E+03  0.15033140160E+04  0.46999998093E+01 0.  1.
</event>
<event>
 5   0  0.2970915E-06  0.2999589E+04  0.7818609E-02  0.8243848E-01
        2   -1    0    0  501    0  0.00000000000E+00  0.00000000000E+00  0.19977520614E+04  0.19977520614E+04  0.25500000920E-02 0. -1.
       -2   -1    0    0    0  501  0.00000000000E+00  0.00000000000E+00 -0.11259570216E+04  0.11259570216E+04  0.25500000920E-02 0.  1.
    10030    2    1    2    0    0  0.00000000000E+00  0.00000000000E+00  0.87179503984E+03  0.31237090831E+04  0.29995886125E+04 0.  0.
        4    1    3    3  502    0  0.14532208765E+04  0.15073985622E+03  0.78875133998E+03  0.16603324093E+04  0.12699999809E+01 0.  1.
       -4    1    3    3    0  502 -0.14532208765E+04 -0.15073985622E+03  0.83043699856E+02  0.14633766737E+04  0.12699999809E+01 0. -1.
</event>
<event>
 5   0  0.2970915E-06  0.3072871E+04  0.7818609E-02  0.8223223E-01
       -2   -1    0    0    0  501  0.00000000000E+00  0.00000000000E+00  0.10302197237E+04  0.10302197237E+04  0.25500000920E-02 0.  1.
        2   -1    0    0  501    0  0.00000000000E+00  0.00000000000E+00 -0.22913896405E+04  0.22913896405E+04  0.25500000920E-02 0. -1.
    10030    2    1    2    0    0  0.00000000000E+00  0.00000000000E+00 -0.12611699168E+04  0.33216093642E+04  0.30728714925E+04 0.  0.
        4    1    3    3  502    0 -0.20224677238E+03  0.79765978360E+03  0.77192718273E+03  0.11282898899E+04  0.12699999809E+01 0.  1.
       -4    1    3    3    0  502  0.20224677238E+03 -0.79765978360E+03 -0.20330970995E+04  0.21933194743E+04  0.12699999809E+01 0. -1.
</event>
<event>
 5   0  0.9749500E-07  0.2981961E+04  0.7818609E-02  0.8248901E-01
        3   -1    0    0  501    0  0.00000000000E+00  0.00000000000E+00  0.11809060937E+04  0.11809060980E+04  0.10100000352E+00 0. -1.
       -3   -1    0    0    0  501  0.00000000000E+00  0.00000000000E+00 -0.18824721827E+04  0.18824721854E+04  0.10100000352E+00 0.  1.
    10030    2    1    2    0    0  0.00000000000E+00  0.00000000000E+00 -0.70156608904E+03  0.30633782834E+04  0.29819610209E+04 0.  0.
        2    1    3    3  502    0  0.56440311748E+03  0.13762539826E+04 -0.24603347518E+03  0.15076996964E+04  0.25500000920E-02 0. -1.
       -2    1    3    3    0  502 -0.56440311748E+03 -0.13762539826E+04 -0.45553261386E+03  0.15556785870E+04  0.25500000920E-02 0.  1.
</event>
<event>
 5   0  0.9749500E-07  0.2887750E+04  0.7818609E-02  0.8276532E-01
       -3   -1    0    0    0  501  0.00000000000E+00  0.00000000000E+00  0.12786560081E+04  0.12786560121E+04  0.10100000352E+00 0.  1.
        3   -1    0    0  501    0  0.00000000000E+00  0.00000000000E+00 -0.16304419113E+04  0.16304419145E+04  0.10100000352E+00 0. -1.
    10030    2    1    2    0    0  0.00000000000E+00  0.00000000000E+00 -0.35178590323E+03  0.29090979265E+04  0.28877495432E+04 0.  0.
        3    1    3    3  502    0 -0.10421650878E+04 -0.67458275934E+03  0.56685299297E+03  0.13647315836E+04  0.10100000352E+00 0.  1.
       -3    1    3    3    0  502  0.10421650878E+04  0.67458275934E+03 -0.91863889620E+03  0.15443663429E+04  0.10100000352E+00 0. -1.
</event>
<event>
 5   0  0.1113245E-06  0.2992931E+04  0.7818609E-02  0.8245752E-01
        1   -1    0    0  501    0  0.00000000000E+00  0.00000000000E+00  0.15347643500E+04  0.15347643500E+04  0.50400001928E-02 0. -1.
       -1   -1    0    0    0  501  0.00000000000E+00  0.00000000000E+00 -0.14591221776E+04  0.14591221776E+04  0.50400001928E-02 0.  1.
    10030    2    1    2    0    0  0.00000000000E+00  0.00000000000E+00  0.75642172361E+02  0.29938865276E+04  0.29929308047E+04 0.  0.
        5    1    3    3  502    0  0.11302364509E+03  0.63888510340E+03 -0.13111042743E+04  0.14628619305E+04  0.46999998093E+01 0.  1.
       -5    1    3    3    0  502 -0.11302364509E+03 -0.63888510340E+03  0.13867464466E+04  0.15310245971E+04  0.46999998093E+01 0. -1.
</event>
<event>
 5   0  0.2970915E-06  0.2986364E+04  0.7818609E-02  0.8247635E-01
        2   -1    0    0  501    0  0.00000000000E+00  0.00000000000E+00  0.24977635013E+04  0.24977635013E+04  0.25500000920E-02 0. -1.
       -2   -1    0    0    0  501  0.00000000000E+00  0.00000000000E+00 -0.89263580785E+03  0.89263580785E+03  0.25500000920E-02 0.  1.
    10030    2    1    2    0    0  0.00000000000E+00  0.00000000000E+00  0.16051276934E+04  0.33903993091E+04  0.29863644391E+04 0.  0.
        4    1    3    3  502    0 -0.10460845399E+04 -0.95774966991E+03  0.27247279977E+03  0.14442369384E+04  0.12699999809E+01 0.  1.
       -4    1    3    3    0  502  0.10460845399E+04  0.95774966991E+03  0.13326548937E+04  0.19461623707E+04  0.12699999809E+01 0. -1.
</event>
<event>
 5   0  0.2948711E-06  0.2994692E+04  0.7818609E-02  0.8245248E-01
       -2   -1    0    0    0  501  0.00000000000E+00  0.00000000000E+00  0.10556321224E+04  0.10556321224E+04  0.25500000920E-02 0.  1.
        2   -1    0    0  501    0  0.00000000000E+00  0.00000000000E+00 -0.21238890310E+04  0.21238890310E+04  0.25500000920E-02 0. -1.
    10030    2    1    2    0    0  0.00000000000E+00  0.00000000000E+00 -0.10682569087E+04  0.31795211534E+04  0.29946922950E+04 0.  0.
        5    1    3    3  502    0  0.11674172215E+04 -0.47023487982E+03 -0.13953909245E+04  0.18791279183E+04  0.46999998093E+01 0. -1.
       -5    1    3    3    0  502 -0.11674172215E+04  0.47023487982E+03  0.32713401585E+03  0.13003932350E+04  0.46999998093E+01 0.  1.
</event>
<event>
 5   0  0.1091076E-06  0.2995453E+04  0.7818609E-02  0.8245031E-01
       -1   -1    0    0    0  501  0.00000000000E+00  0.00000000000E+00  0.19655678579E+04  0.19655678579E+04  0.50400001928E-02 0.  1.
        1   -1    0    0  501    0  0.00000000000E+00  0.00000000000E+00 -0.11412399364E+04  0.11412399364E+04  0.50400001928E-02 0. -1.
    10030    2    1    2    0    0  0.00000000000E+00  0.00000000000E+00  0.82432792146E+03  0.31068077943E+04  0.29954529121E+04 0.  0.
        3    1    3    3  502    0 -0.10071969248E+04  0.11045680342E+04  0.50872898167E+03  0.15790254509E+04  0.10100000352E+00 0. -1.
       -3    1    3    3    0  502  0.10071969248E+04 -0.11045680342E+04  0.31559893979E+03  0.15277823434E+04  0.10100000352E+00 0.  1.
</event>
<event>
 5   0  0.2970915E-06  0.3012252E+04  0.7818609E-02  0.8240241E-01
        2   -1    0    0  501    0  0.00000000000E+00  0.00000000000E+00  0.18779732146E+04  0.18779732146E+04  0.25500000920E-02 0. -1.
       -2   -1    0    0    0  501  0.00000000000E+00  0.00000000000E+00 -0.12079062266E+04  0.12079062266E+04  0.25500000920E-02 0.  1.
    10030    2    1    2    0    0  0.00000000000E+00  0.00000000000E+00  0.67006698806E+03  0.30858794412E+04  0.30122520076E+04 0.  0.
        4    1    3    3  502    0  0.45110968035E+03 -0.87505411547E+03  0.15027158075E+04  0.17964899275E+04  0.12699999809E+01 0. -1.
       -4    1    3    3    0  502 -0.45110968035E+03  0.87505411547E+03 -0.83264881941E+03  0.12893895137E+04  0.12699999809E+01 0.  1.
</event>
<event>
 5   0  0.3113328E-06  0.2998987E+04  0.7818609E-02  0.8244020E-01
        2   -1    0    0  501    0  0.00000000000E+00  0.00000000000E+00  0.18569387036E+04  0.18569387036E+04  0.25500000920E-02 0.  1.
       -2   -1    0    0    0  501  0.00000000000E+00  0.00000000000E+00 -0.12108535324E+04  0.12108535324E+04  0.25500000920E-02 0. -1.
    10030    2    1    2    0    0  0.00000000000E+00  0.00000000000E+00  0.64608517113E+03  0.30677922360E+04  0.29989870215E+04 0.  0.
        1    1    3    3  502    0 -0.86415980794E+03  0.72967265543E+03 -0.68406861096E+03  0.13217958323E+04  0.50400001928E-02 0. -1.
       -1    1    3    3    0  502  0.86415980794E+03 -0.72967265543E+03  0.13301537821E+04  0.17459964037E+04  0.50400001928E-02 0.  1.
</event>
<event>
 5   0  0.1091076E-06  0.2980303E+04  0.7818609E-02  0.8249378E-01
       -1   -1    0    0    0  501  0.00000000000E+00  0.00000000000E+00  0.15857754372E+04  0.15857754372E+04  0.50400001928E-02 0. -1.
        1   -1    0    0  501    0  0.00000000000E+00  0.00000000000E+00 -0.14002940809E+04  0.14002940809E+04  0.50400001928E-02 0.  1.
    10030    2    1    2    0    0  0.00000000000E+00  0.00000000000E+00  0.18548135625E+03  0.29860695181E+04  0.29803033123E+04 0.  0.
        3    1    3    3  502    0 -0.67963735794E+03  0.85560027316E+03 -0.92242899818E+03  0.14299769343E+04  0.10100000352E+00 0.  1.
       -3    1    3    3    0  502  0.67963735794E+03 -0.85560027316E+03  0.11079103544E+04  0.15560925838E+04  0.10100000352E+00 0. -1.
</event>
<event>
 5   0  0.2985941E-06  0.2980509E+04  0.7818609E-02  0.8249319E-01
       -2   -1    0    0    0  501  0.00000000000E+00  0.00000000000E+00  0.11669209307E+04  0.11669209307E+04  0.25500000920E-02 0.  1.
        2   -1    0    0  501    0  0.00000000000E+00  0.00000000000E+00 -0.19031783541E+04  0.19031783541E+04  0.25500000920E-02 0. -1.
    10030    2    1    2    0    0  0.00000000000E+00  0.00000000000E+00 -0.73625742345E+03  0.30700992848E+04  0.29805091218E+04 0.  0.
        3    1    3    3  502    0  0.44412725286E+03  0.11879538565E+04 -0.11741950497E+04  0.17283568517E+04  0.10100000352E+00 0. -1.
       -3    1    3    3    0  502 -0.44412725286E+03 -0.11879538565E+04  0.43793762627E+03  0.13417424331E+04  0.10100000352E+00 0.  1.
</event>
<event>
 5   0  0.1091076E-06  0.2998577E+04  0.7818609E-02  0.8244137E-01
        1   -1    0    0  501    0  0.00000000000E+00  0.00000000000E+00  0.19026598541E+04  0.19026598541E+04  0.50400001928E-02 0. -1.
       -1   -1    0    0    0  501  0.00000000000E+00  0.00000000000E+00 -0.11814334025E+04  0.11814334025E+04  0.50400001928E-02 0.  1.
    10030    2    1    2    0    0  0.00000000000E+00  0.00000000000E+00  0.72122645161E+03  0.30840932567E+04  0.29985769327E+04 0.  0.
        3    1    3    3  502    0 -0.25996791551E+03  0.13830545692E+04  0.89251033340E+03  0.16664327061E+04  0.10100000352E+00 0. -1.
       -3    1    3    3    0  502  0.25996791551E+03 -0.13830545692E+04 -0.17128388180E+03  0.14176605506E+04  0.10100000352E+00 0.  1.
</event>
<event>
 5   0  0.1113245E-06  0.2975338E+04  0.7818609E-02  0.8250808E-01
        1   -1    0    0  501    0  0.00000000000E+00  0.00000000000E+00  0.26313357540E+04  0.26313357540E+04  0.50400001928E-02 0. -1.
       -1   -1    0    0    0  501  0.00000000000E+00  0.00000000000E+00 -0.84107837910E+03  0.84107837911E+03  0.50400001928E-02 0.  1.
    10030    2    1    2    0    0  0.00000000000E+00  0.00000000000E+00  0.17902573749E+04  0.34724141331E+04  0.29753383746E+04 0.  0.
        5    1    3    3  502    0  0.90725921111E+03  0.64213688364E+03 -0.25883774716E+03  0.11412616364E+04  0.46999998093E+01 0.  1.
       -5    1    3    3    0  502 -0.90725921111E+03 -0.64213688364E+03  0.20490951220E+04  0.23311524967E+04  0.46999998093E+01 0. -1.
</event>
<event>
 5   0  0.1091075E-06  0.3001892E+04  0.7818609E-02  0.8243191E-01
       -1   -1    0    0    0  501  0.00000000000E+00  0.00000000000E+00  0.20874940383E+04  0.20874940383E+04  0.50400001928E-02 0.  1.
        1   -1    0    0  501    0  0.00000000000E+00  0.00000000000E+00 -0.10792077026E+04  0.10792077026E+04  0.50400001928E-02 0. -1.
    10030    2    1    2    0    0  0.00000000000E+00  0.00000000000E+00  0.10082863357E+04  0.31667017410E+04  0.30018925000E+04 0.  0.
        1    1    3    3  502    0 -0.47887651245E+03 -0.37155165864E+03  0.19526528812E+04  0.20445602519E+04  0.50400001928E-02 0.  1.
       -1    1    3    3    0  502  0.47887651245E+03  0.37155165864E+03 -0.94436654549E+03  0.11221414891E+04  0.50400001928E-02 0. -1.
</event>
<event>
 5   0  0.1091075E-06  0.3074960E+04  0.7818609E-02  0.8222644E-01
        1   -1    0    0  501    0  0.00000000000E+00  0.00000000000E+00  0.23268962581E+04  0.23268962581E+04  0.50400001928E-02 0.  1.
       -1   -1    0    0    0  501  0.00000000000E+00  0.00000000000E+00 -0.10158786697E+04  0.10158786697E+04  0.50400001928E-02 0. -1.
    10030    2    1    2    0    0  0.00000000000E+00  0.00000000000E+00  0.13110175884E+04  0.33427749277E+04  0.30749596908E+04 0.  0.
        1    1    3    3  502    0  0.11083979822E+04 -0.61913926002E+03 -0.28717589745E+03  0.13016718121E+04  0.50400001928E-02 0. -1.
       -1    1    3    3    0  502 -0.11083979822E+04  0.61913926002E+03  0.15981934859E+04  0.20411031156E+04  0.50400001928E-02 0.  1.
</event>
<event>
 5   0  0.2985941E-06  0.2964767E+04  0.7818609E-02  0.8253864E-01
        2   -1    0    0  501    0  0.00000000000E+00  0.00000000000E+00  0.16191179068E+04  0.16191179068E+04  0.25500000920E-02 0. -1.
       -2   -1    0    0    0  501  0.00000000000E+00  0.00000000000E+00 -0.13571963279E+04  0.13571963279E+04  0.25500000920E-02 0.  1.
    10030    2    1    2    0    0  0.00000000000E+00  0.00000000000E+00  0.26192157888E+03  0.29763142347E+04  0.29647670246E+04 0.  0.
        3    1    3    3  502    0  0.35913321121E+03  0.79195320575E+03  0.13361758443E+04  0.15942184419E+04  0.10100000352E+00 0. -1.
       -3    1    3    3    0  502 -0.35913321121E+03 -0.79195320575E+03 -0.10742542654E+04  0.13820957928E+04  0.10100000352E+00 0.  1.
</event>
<event>
 5   0  0.1091075E-06  0.3004098E+04  0.7818609E-02  0.8242562E-01
       -1   -1    0    0    0  501  0.00000000000E+00  0.00000000000E+00  0.11206624929E+04  0.11206624929E+04  0.50400001928E-02 0.  1.
        1   -1    0    0  501    0  0.00000000000E+00  0.00000000000E+00 -0.20132303935E+04  0.20132303935E+04  0.50400001928E-02 0. -1.
    10030    2    1    2    0    0  0.00000000000E+00  0.00000000000E+00 -0.89256790062E+03  0.31338928865E+04  0.30040983950E+04 0.  0.
        1    1    3    3  502    0 -0.13951990574E+04  0.52448648726E+03 -0.25255833907E+03  0.15117712128E+04  0.50400001928E-02 0.  1.
       -1    1    3    3    0  502  0.13951990574E+04 -0.52448648726E+03 -0.64000956155E+03  0.16221216736E+04  0.50400001928E-02 0. -1.
</event>
<event>
 5   0  0.1054384E-06  0.3013697E+04  0.7818609E-02  0.8239830E-01
        1   -1    0    0  501    0  0.00000000000E+00  0.00000000000E+00  0.18753443204E+04  0.18753443204E+04  0.50400001928E-02 0.  1.
       -1   -1    0    0    0  501  0.00000000000E+00  0.00000000000E+00 -0.12107603168E+04  0.12107603169E+04  0.50400001928E-02 0. -1.
    10030    2    1    2    0    0  0.00000000000E+00  0.00000000000E+00  0.66458400357E+03  0.30861046373E+04  0.30136970542E+04 0.  0.
        2    1    3    3  502    0 -0.56080277611E+03 -0.23137482947E+03 -0.10801806698E+04  0.12388802787E+04  0.25500000920E-02 0. -1.
       -2    1    3    3    0  502  0.56080277611E+03  0.23137482947E+03  0.17447646734E+04  0.18472243586E+04  0.25500000920E-02 0.  1.
</event>
<event>
 5   0  0.1113245E-06  0.2978921E+04  0.7818609E-02  0.8249776E-01
       -1   -1    0    0    0  501  0.00000000000E+00  0.00000000000E+00  0.10363824983E+04  0.10363824983E+04  0.50400001928E-02 0. -1.
        1   -1    0    0  501    0  0.00000000000E+00  0.00000000000E+00 -0.21406121250E+04  0.21406121250E+04  0.50400001928E-02 0.  1.
    10030    2    1    2    0    0  0.00000000000E+00  0.00000000000E+00 -0.11042296268E+04  0.31769946233E+04  0.29789212423E+04 0.  0.
        5    1    3    3  502    0 -0.77612567303E+02 -0.37834346561E+03 -0.20862708749E+04  0.21217247093E+04  0.46999998093E+01 0.  1.
       -5    1    3    3    0  502  0.77612567303E+02  0.37834346561E+03  0.98204124808E+03  0.10552699140E+04  0.46999998093E+01 0. -1.
</event>
<event>
 5   0  0.2970915E-06  0.2990258E+04  0.7818609E-02  0.8246518E-01
       -2   -1    0    0    0  501  0.00000000000E+00  0.00000000000E+00  0.11663663053E+04  0.11663663053E+04  0.25500000920E-02 0.  1.
        2   -1    0    0  501    0  0.00000000000E+00  0.00000000000E+00 -0.19165601226E+04  0.19165601226E+04  0.25500000920E-02 0. -1.
    10030    2    1    2    0    0  0.00000000000E+00  0.00000000000E+00 -0.75019381734E+03  0.30829264279E+04  0.29902582826E+04 0.  0.
        4    1    3    3  502    0 -0.82883583112E+03  0.45918952661E+03 -0.15674785041E+04  0.18316152243E+04  0.12699999809E+01 0. -1.
       -4    1    3    3    0  502  0.82883583112E+03 -0.45918952661E+03  0.81728468672E+03  0.12513112036E+04  0.12699999809E+01 0.  1.
</event>
<event>
 5   0  0.2985941E-06  0.3031711E+04  0.7818609E-02  0.8234733E-01
       -2   -1    0    0    0  501  0.00000000000E+00  0.00000000000E+00  0.94953028740E+03  0.94953028741E+03  0.25500000920E-02 0.  1.
        2   -1    0    0  501    0  0.00000000000E+00  0.00000000000E+00 -0.24199524537E+04  0.24199524537E+04  0.25500000920E-02 0. -1.
    10030    2    1    2    0    0  0.00000000000E+00  0.00000000000E+00 -0.14704221663E+04  0.33694827411E+04  0.30317111662E+04 0.  0.
        3    1    3    3  502    0 -0.14225561019E+04 -0.52060420257E+03 -0.79732643380E+03  0.17118481390E+04  0.10100000352E+00 0.  1.
       -3    1    3    3    0  502  0.14225561019E+04  0.52060420257E+03 -0.67309573249E+03  0.16576346021E+04  0.10100000352E+00 0. -1.
</event>
<event>
 5   0  0.1091075E-06  0.3021359E+04  0.7818609E-02  0.8237658E-01
       -1   -1    0    0    0  501  0.00000000000E+00  0.00000000000E+00  0.14451456526E+04  0.14451456526E+04  0.50400001928E-02 0. -1.
        1   -1    0    0  501    0  0.00000000000E+00  0.00000000000E+00 -0.15791847617E+04  0.15791847617E+04  0.50400001928E-02 0.  1.
    10030    2    1    2    0    0  0.00000000000E+00  0.00000000000E+00 -0.13403910917E+03  0.30243304143E+04  0.30213586302E+04 0.  0.
        1    1    3    3  502    0  0.20830558343E+03 -0.99657295853E+03 -0.11841832180E+04  0.15616781908E+04  0.50400001928E-02 0.  1.
       -1    1    3    3    0  502 -0.20830558343E+03  0.99657295853E+03  0.10501441088E+04  0.14626522235E+04  0.50400001928E-02 0. -1.
</event>
<event>
 5   0  0.1054384E-06  0.2944451E+04  0.7818609E-02  0.8259774E-01
       -1   -1    0    0    0  501  0.00000000000E+00  0.00000000000E+00  0.83031732555E+03  0.83031732557E+03  0.50400001928E-02 0.  1.
        1   -1    0    0  501    0  0.00000000000E+00  0.00000000000E+00 -0.26103846278E+04  0.26103846278E+04  0.50400001928E-02 0. -1.
    10030    2    1    2    0    0  0.00000000000E+00  0.00000000000E+00 -0.17800673022E+04  0.34407019534E+04  0.29444507691E+04 0.  0.
        2    1    3    3  502    0  0.13990023985E+04 -0.43571458970E+03 -0.72316306797E+03  0.16340195034E+04  0.25500000920E-02 0.  1.
       -2    1    3    3    0  502 -0.13990023985E+04  0.43571458970E+03 -0.10569042343E+04  0.18066824500E+04  0.25500000920E-02 0. -1.
</event>
<event>
 5   0  0.1097402E-06  0.2962533E+04  0.7818609E-02  0.8254511E-01
        1   -1    0    0  501    0  0.00000000000E+00  0.00000000000E+00  0.13271323249E+04  0.13271323249E+04  0.50400001928E-02 0. -1.
       -1   -1    0    0    0  501  0.00000000000E+00  0.00000000000E+00 -0.16533022112E+04  0.16533022112E+04  0.50400001928E-02 0.  1.
    10030    2    1    2    0    0  0.00000000000E+00  0.00000000000E+00 -0.32616988632E+03  0.29804345360E+04  0.29625332452E+04 0.  0.
        4    1    3    3  502    0 -0.85707277082E+03  0.86494867213E+03 -0.10116502397E+04  0.15830817289E+04  0.12699999809E+01 0.  1.
       -4    1    3    3    0  502  0.85707277082E+03 -0.86494867213E+03  0.68548035340E+03  0.13973528072E+04  0.12699999809E+01 0. -1.
</event>
<event>
 5   0  0.1091076E-06  0.2983886E+04  0.7818609E-02  0.8248347E-01
       -1   -1    0    0    0  501  0.00000000000E+00  0.00000000000E+00  0.93493891296E+03  0.93493891297E+03  0.50400001928E-02 0.  1.
        1   -1    0    0  501    0  0.00000000000E+00  0.00000000000E+00 -0.23807908114E+04  0.23807908114E+04  0.50400001928E-02 0. -1.
    10030    2    1    2    0    0  0.00000000000E+00  0.00000000000E+00 -0.14458518985E+04  0.33157297244E+04  0.29838860389E+04 0.  0.
        3    1    3    3  502    0  0.14081285110E+03  0.14628830111E+04 -0.43736610661E+03  0.15333440855E+04  0.10100000352E+00 0.  1.
       -3    1    3    3    0  502 -0.14081285110E+03 -0.14628830111E+04 -0.10084857918E+04  0.17823856389E+04  0.10100000352E+00 0. -1.
</event>
<event>
 5   0  0.1091075E-06  0.2950172E+04  0.7818609E-02  0.8258104E-01
       -1   -1    0    0    0  501  0.00000000000E+00  0.00000000000E+00  0.14607372806E+04  0.14607372806E+04  0.50400001928E-02 0. -1.
        1   -1    0    0  501    0  0.00000000000E+00  0.00000000000E+00 -0.14895755633E+04  0.14895755633E+04  0.50400001928E-02 0.  1.
    10030    2    1    2    0    0  0.00000000000E+00  0.00000000000E+00 -0.28838282689E+02  0.29503128438E+04  0.29501718984E+04 0.  0.
        1    1    3    3  502    0  0.82264441862E+03 -0.11145404551E+04 -0.52133022117E+03  0.14801113016E+04  0.50400001928E-02 0.  1.
       -1    1    3    3    0  502 -0.82264441862E+03  0.11145404551E+04  0.49249193848E+03  0.14702015423E+04  0.50400001928E-02 0. -1.
</event>
<event>
 5   0  0.2970915E-06  0.2997325E+04  0.7818609E-02  0.8244495E-01
       -2   -1    0    0    0  501  0.00000000000E+00  0.00000000000E+00  0.25276518941E+04  0.25276518941E+04  0.25500000920E-02 0.  1.
        2   -1    0    0  501    0  0.00000000000E+00  0.00000000000E+00 -0.88856740106E+03  0.88856740106E+03  0.25500000920E-02 0. -1.
    10030    2    1    2    0    0  0.00000000000E+00  0.00000000000E+00  0.16390844930E+04  0.34162192951E+04  0.29973248568E+04 0.  0.
        4    1    3    3  502    0  0.12356398504E+04 -0.76457512892E+03  0.12377046005E+04  0.19087417999E+04  0.12699999809E+01 0. -1.
       -4    1    3    3    0  502 -0.12356398504E+04  0.76457512892E+03  0.40137989256E+03  0.15074774953E+04  0.12699999809E+01 0.  1.
</event>
<event>
 5   0  0.2970915E-06  0.2987841E+04  0.7818609E-02  0.8247211E-01
        2   -1    0    0  501    0  0.00000000000E+00  0.00000000000E+00  0.27404873171E+04  0.27404873171E+04  0.25500000920E-02 0.  1.
       -2   -1    0    0    0  501  0.00000000000E+00  0.00000000000E+00 -0.81438018249E+03  0.81438018250E+03  0.25500000920E-02 0. -1.
    10030    2    1    2    0    0  0.00000000000E+00  0.00000000000E+00  0.19261071346E+04  0.35548674996E+04  0.29878410677E+04 0.  0.
        4    1    3    3  502    0 -0.10552491997E+04 -0.26462483992E+03 -0.25507211208E+03  0.11174258698E+04  0.12699999809E+01 0. -1.
       -4    1    3    3    0  502  0.10552491997E+04  0.26462483992E+03  0.21811792467E+04  0.24374416297E+04  0.12699999809E+01 0.  1.
</event>
<event>
 5   0  0.1091075E-06  0.3011332E+04  0.7818609E-02  0.8240502E-01
       -1   -1    0    0    0  501  0.00000000000E+00  0.00000000000E+00  0.14675353824E+04  0.14675353824E+04  0.50400001928E-02 0. -1.
        1   -1    0    0  501    0  0.00000000000E+00  0.00000000000E+00 -0.15447871124E+04  0.15447871124E+04  0.50400001928E-02 0.  1.
    10030    2    1    2    0    0  0.00000000000E+00  0.00000000000E+00 -0.77251729954E+02  0.30123224948E+04  0.30113317623E+04 0.  0.
        1    1    3    3  502    0  0.27637639755E+03 -0.41540125270E+03  0.13824356248E+04  0.14697177860E+04  0.50400001928E-02 0. -1.
       -1    1    3    3    0  502 -0.27637639755E+03  0.41540125270E+03 -0.14596873547E+04  0.15426047088E+04  0.50400001928E-02 0.  1.
</event>
<event>
 5   0  0.1097402E-06  0.3006798E+04  0.7818609E-02  0.8241792E-01
        1   -1    0    0  501    0  0.00000000000E+00  0.00000000000E+00  0.27363586379E+04  0.27363586379E+04  0.50400001928E-02 0.  1.
       -1   -1    0    0    0  501  0.00000000000E+00  0.00000000000E+00 -0.82599116019E+03  0.82599116021E+03  0.50400001928E-02 0. -1.
    10030    2    1    2    0    0  0.00000000000E+00  0.00000000000E+00  0.19103674777E+04  0.35623497981E+04  0.30067976627E+04 0.  0.
        4    1    3    3  502    0 -0.63552107662E+03  0.10742908314E+04  0.19479991809E+04  0.23135881766E+04  0.12699999809E+01 0.  1.
       -4    1    3    3    0  502  0.63552107662E+03 -0.10742908314E+04 -0.37631703165E+02  0.12487616215E+04  0.12699999809E+01 0. -1.
</event>
<event>
 5   0  0.2970915E-06  0.2972033E+04  0.7818609E-02  0.8251762E-01
       -2   -1    0    0    0  501  0.00000000000E+00  0.00000000000E+00  0.94101089844E+03  0.94101089844E+03  0.25500000920E-02 0. -1.
        2   -1    0    0  501    0  0.00000000000E+00  0.00000000000E+00 -0.23466730536E+04  0.23466730536E+04  0.25500000920E-02 0.  1.
    10030    2    1    2    0    0  0.00000000000E+00  0.00000000000E+00 -0.14056621551E+04  0.32876839520E+04  0.29720329194E+04 0.  0.
        4    1    3    3  502    0  0.13860721538E+04  0.43680410604E+03 -0.35964030366E+03  0.14971094160E+04  0.12699999809E+01 0. -1.
       -4    1    3    3    0  502 -0.13860721538E+04 -0.43680410604E+03 -0.10460218515E+04  0.17905745360E+04  0.12699999809E+01 0.  1.
</event>
<event>
 5   0  0.2970915E-06  0.3004225E+04  0.7818609E-02  0.8242525E-01
        2   -1    0    0  501    0  0.00000000000E+00  0.00000000000E+00  0.20823415906E+04  0.20823415906E+04  0.25500000920E-02 0. -1.
       -2   -1    0    0    0  501  0.00000000000E+00  0.00000000000E+00 -0.10835601030E+04  0.10835601030E+04  0.25500000920E-02 0.  1.
    10030    2    1    2    0    0  0.00000000000E+00  0.00000000000E+00  0.99878148760E+03  0.31659016936E+04  0.30042252035E+04 0.  0.
        4    1    3    3  502    0  0.14744034900E+04  0.18835741162E+03  0.27093733116E+03  0.15108781606E+04  0.12699999809E+01 0.  1.
       -4    1    3    3    0  502 -0.14744034900E+04 -0.18835741162E+03  0.72784415643E+03  0.16550235330E+04  0.12699999809E+01 0. -1.
</event>
<event>
 5   0  0.2948711E-06  0.2726095E+04  0.7818609E-02  0.8326587E-01
       -2   -1    0    0    0  501  0.00000000000E+00  0.00000000000E+00  0.95482670687E+03  0.95482670687E+03  0.25500000920E-02 0.  1.
        2   -1    0    0  501    0  0.00000000000E+00  0.00000000000E+00 -0.19457969316E+04  0.19457969316E+04  0.25500000920E-02 0. -1.
    10030    2    1    2    0    0  0.00000000000E+00  0.00000000000E+00 -0.99097022473E+03  0.29006236385E+04  0.27260952855E+04 0.  0.
        5    1    3    3  502    0  0.53023620385E+03 -0.94254845476E+03  0.38728639985E+03  0.11487214053E+04  0.46999998093E+01 0.  1.
       -5    1    3    3    0  502 -0.53023620385E+03  0.94254845476E+03 -0.13782566246E+04  0.17519022332E+04  0.46999998093E+01 0. -1.
</event>
<event>
 5   0  0.3113328E-06  0.3003033E+04  0.7818609E-02  0.8242865E-01
       -2   -1    0    0    0  501  0.00000000000E+00  0.00000000000E+00  0.86446456881E+03  0.86446456882E+03  0.25500000920E-02 0.  1.
        2   -1    0    0  501    0  0.00000000000E+00  0.00000000000E+00 -0.26080330894E+04  0.26080330894E+04  0.25500000920E-02 0. -1.
    10030    2    1    2    0    0  0.00000000000E+00  0.00000000000E+00 -0.17435685206E+04  0.34724976582E+04  0.30030332666E+04 0.  0.
        1    1    3    3  502    0  0.29809962478E+03  0.14605983424E+04 -0.10797350281E+04  0.18406625533E+04  0.50400001928E-02 0. -1.
       -1    1    3    3    0  502 -0.29809962478E+03 -0.14605983424E+04 -0.66383349249E+03  0.16318351050E+04  0.50400001928E-02 0.  1.
</event>
<event>
 5   0  0.9749500E-07  0.3025254E+04  0.7818609E-02  0.8236556E-01
       -3   -1    0    0    0  501  0.00000000000E+00  0.00000000000E+00  0.81339564421E+03  0.81339565048E+03  0.10100000352E+00 0. -1.
        3   -1    0    0  501    0  0.00000000000E+00  0.00000000000E+00 -0.28129488567E+04  0.28129488586E+04  0.10100000352E+00 0.  1.
    10030    2    1    2    0    0  0.00000000000E+00  0.00000000000E+00 -0.19995532125E+04  0.36263445090E+04  0.30252539478E+04 0.  0.
        2    1    3    3  502    0  0.91406841923E+03 -0.10827735915E+04 -0.36535235401E+03  0.14633530224E+04  0.25500000920E-02 0. -1.
       -2    1    3    3    0  502 -0.91406841923E+03  0.10827735915E+04 -0.16342008585E+04  0.21629914867E+04  0.25500000920E-02 0.  1.
</event>
<event>
 5   0  0.2948711E-06  0.3002772E+04  0.7818609E-02  0.8242940E-01
        2   -1    0    0  501    0  0.00000000000E+00  0.00000000000E+00  0.19428545816E+04  0.19428545816E+04  0.25500000920E-02 0. -1.
       -2   -1    0    0    0  501  0.00000000000E+00  0.00000000000E+00 -0.11602308637E+04  0.11602308637E+04  0.25500000920E-02 0.  1.
    10030    2    1    2    0    0  0.00000000000E+00  0.00000000000E+00  0.78262371784E+03  0.31030854453E+04  0.30027719522E+04 0.  0.
        5    1    3    3  502    0 -0.58450495565E+03  0.13734651173E+04  0.22440691641E+03  0.15094479209E+04  0.46999998093E+01 0.  1.
       -5    1    3    3    0  502  0.58450495565E+03 -0.13734651173E+04  0.55821680142E+03  0.15936375244E+04  0.46999998093E+01 0. -1.
</event>
<event>
 5   0  0.1054384E-06  0.3019148E+04  0.7818609E-02  0.8238284E-01
        1   -1    0    0  501    0  0.00000000000E+00  0.00000000000E+00  0.18235423362E+04  0.18235423362E+04  0.50400001928E-02 0. -1.
       -1   -1    0    0    0  501  0.00000000000E+00  0.00000000000E+00 -0.12496633323E+04  0.12496633323E+04  0.50400001928E-02 0.  1.
    10030    2    1    2    0    0  0.00000000000E+00  0.00000000000E+00  0.57387900389E+03  0.30732056686E+04  0.30191482193E+04 0.  0.
        2    1    3    3  502    0  0.61323436714E+03 -0.94761634620E+03 -0.73339569672E+03  0.13460692317E+04  0.25500000920E-02 0.  1.
       -2    1    3    3    0  502 -0.61323436714E+03  0.94761634620E+03  0.13072747006E+04  0.17271364368E+04  0.25500000920E-02 0. -1.
</event>
<event>
 5   0  0.2948711E-06  0.3010913E+04  0.7818609E-02  0.8240621E-01
        2   -1    0    0  501    0  0.00000000000E+00  0.00000000000E+00  0.17068799228E+04  0.17068799228E+04  0.25500000920E-02 0. -1.
       -2   -1    0    0    0  501  0.00000000000E+00  0.00000000000E+00 -0.13278024723E+04  0.13278024723E+04  0.25500000920E-02 0.  1.
    10030    2    1    2    0    0  0.00000000000E+00  0.00000000000E+00  0.37907745053E+03  0.30346823952E+04  0.30109130718E+04 0.  0.
        5    1    3    3  502    0 -0.15191908816E+03  0.13905187566E+04 -0.37141174962E+03  0.14472700507E+04  0.46999998093E+01 0. -1.
       -5    1    3    3    0  502  0.15191908816E+03 -0.13905187566E+04  0.75048920015E+03  0.15874123445E+04  0.46999998093E+01 0.  1.
</event>
<event>
 5   0  0.1091076E-06  0.2967130E+04  0.7818609E-02  0.8253180E-01
        1   -1    0    0  501    0  0.00000000000E+00  0.00000000000E+00  0.18877715607E+04  0.18877715607E+04  0.50400001928E-02 0. -1.
       -1   -1    0    0    0  501  0.00000000000E+00  0.00000000000E+00 -0.11659063783E+04  0.11659063783E+04  0.50400001928E-02 0.  1.
    10030    2    1    2    0    0  0.00000000000E+00  0.00000000000E+00  0.72186518232E+03  0.30536779390E+04  0.29671298613E+04 0.  0.
        3    1    3    3  502    0 -0.12697995215E+04 -0.70947808757E+03  0.60501775792E+02  0.14558195137E+04  0.10100000352E+00 0. -1.
       -3    1    3    3    0  502  0.12697995215E+04  0.70947808757E+03  0.66136340653E+03  0.15978584253E+04  0.10100000352E+00 0.  1.
</event>
<event>
 5   0  0.1097402E-06  0.3008193E+04  0.7818609E-02  0.8241395E-01
        1   -1    0    0  501    0  0.00000000000E+00  0.00000000000E+00  0.16812848460E+04  0.16812848460E+04  0.50400001928E-02 0.  1.
       -1   -1    0    0    0  501  0.00000000000E+00  0.00000000000E+00 -0.13455822050E+04  0.13455822050E+04  0.50400001928E-02 0. -1.
    10030    2    1    2    0    0  0.00000000000E+00  0.00000000000E+00  0.33570264102E+03  0.30268670510E+04  0.30081934581E+04 0.  0.
        4    1    3    3  502    0  0.67405264553E+03 -0.11350080516E+04 -0.55753649381E+03  0.14329824845E+04  0.12699999809E+01 0. -1.
       -4    1    3    3    0  502 -0.67405264553E+03  0.11350080516E+04  0.89323913483E+03  0.15938845664E+04  0.12699999809E+01 0.  1.
</event>
<event>
 5   0  0.1091076E-06  0.2995707E+04  0.7818609E-02  0.8244958E-01
       -1   -1    0    0    0  501  0.00000000000E+00  0.00000000000E+00  0.76342823921E+03  0.76342823923E+03  0.50400001928E-02 0. -1.
        1   -1    0    0  501    0  0.00000000000E+00  0.00000000000E+00 -0.29388019894E+04  0.29388019894E+04  0.50400001928E-02 0.  1.
    10030    2    1    2    0    0  0.00000000000E+00  0.00000000000E+00 -0.21753737502E+04  0.37022302287E+04  0.29957065465E+04 0.  0.
        3    1    3    3  502    0 -0.60618039125E+03 -0.85740476471E+03  0.23239437234E+03  0.10754556020E+04  0.10100000352E+00 0. -1.
       -3    1    3    3    0  502  0.60618039125E+03  0.85740476471E+03 -0.24077681225E+04  0.26267746267E+04  0.10100000352E+00 0.  1.
</event>
<event>
 5   0  0.1091076E-06  0.3037612E+04  0.7818609E-02  0.8233071E-01
        1   -1    0    0  501    0  0.00000000000E+00  0.00000000000E+00  0.20623581284E+04  0.20623581284E+04  0.50400001928E-02 0. -1.
       -1   -1    0    0    0  501  0.00000000000E+00  0.00000000000E+00 -0.11185118060E+04  0.11185118061E+04  0.50400001928E-02 0.  1.
    10030    2    1    2    0    0  0.00000000000E+00  0.00000000000E+00  0.94384632237E+03  0.31808699345E+04  0.30376121641E+04 0.  0.
        3    1    3    3  502    0  0.25782565215E+03 -0.79594222044E+03  0.17992899931E+04  0.19842990134E+04  0.10100000352E+00 0. -1.
       -3    1    3    3    0  502 -0.25782565215E+03  0.79594222044E+03 -0.85544367071E+03  0.11965709211E+04  0.10100000352E+00 0.  1.
</event>
<event>
 5   0  0.2862033E-06  0.3003505E+04  0.7818609E-02  0.8242731E-01
       -2   -1    0    0    0  501  0.00000000000E+00  0.00000000000E+00  0.16660627893E+04  0.16660627893E+04  0.25500000920E-02 0. -1.
        2   -1    0    0  501    0  0.00000000000E+00  0.00000000000E+00 -0.13536463668E+04  0.13536463668E+04  0.25500000920E-02 0.  1.
    10030    2    1    2    0    0  0.00000000000E+00  0.00000000000E+00  0.31241642251E+03  0.30197091560E+04  0.30035045141E+04 0.  0.
        2    1    3    3  502    0  0.38119455497E+03  0.18626494575E+02  0.16164919747E+04  0.16609342369E+04  0.25500000920E-02 0. -1.
       -2    1    3    3    0  502 -0.38119455497E+03 -0.18626494575E+02 -0.13040755522E+04  0.13587749191E+04  0.25500000920E-02 0.  1.
</event>
<event>
 5   0  0.1113245E-06  0.2990768E+04  0.7818609E-02  0.8246372E-01
        1   -1    0    0  501    0  0.00000000000E+00  0.00000000000E+00  0.12435138368E+04  0.12435138368E+04  0.50400001928E-02 0. -1.
       -1   -1    0    0    0  501  0.00000000000E+00  0.00000000000E+00 -0.17982697711E+04  0.17982697711E+04  0.50400001928E-02 0.  1.
    10030    2    1    2    0    0  0.00000000000E+00  0.00000000000E+00 -0.55475593433E+03  0.30417836079E+04  0.29907680236E+04 0.  0.
        5    1    3    3  502    0 -0.10426989434E+04 -0.51849429389E+03  0.67675757854E+03  0.13468779935E+04  0.46999998093E+01 0. -1.
       -5    1    3    3    0  502  0.10426989434E+04  0.51849429389E+03 -0.12315135129E+04  0.16949056144E+04  0.46999998093E+01 0.  1.
</event>
<event>
 5   0  0.1054384E-06  0.3007917E+04  0.7818609E-02  0.8241474E-01
       -1   -1    0    0    0  501  0.00000000000E+00  0.00000000000E+00  0.10055272913E+04  0.10055272913E+04  0.50400001928E-02 0. -1.
        1   -1    0    0  501    0  0.00000000000E+00  0.00000000000E+00 -0.22494577516E+04  0.22494577516E+04  0.50400001928E-02 0.  1.
    10030    2    1    2    0    0  0.00000000000E+00  0.00000000000E+00 -0.12439304603E+04  0.32549850429E+04  0.30079169934E+04 0.  0.
        2    1    3    3  502    0 -0.19884311936E+03  0.10193680028E+04 -0.17990827867E+04  0.20773417111E+04  0.25500000920E-02 0.  1.
       -2    1    3    3    0  502  0.19884311936E+03 -0.10193680028E+04  0.55515232644E+03  0.11776433318E+04  0.25500000920E-02 0. -1.
</event>
<event>
 5   0  0.1091076E-06  0.2900700E+04  0.7818609E-02  0.8272669E-01
        1   -1    0    0  501    0  0.00000000000E+00  0.00000000000E+00  0.85347911310E+03  0.85347911312E+03  0.50400001928E-02 0.  1.
       -1   -1    0    0    0  501  0.00000000000E+00  0.00000000000E+00 -0.24646355744E+04  0.24646355745E+04  0.50400001928E-02 0. -1.
    10030    2    1    2    0    0  0.00000000000E+00  0.00000000000E+00 -0.16111564613E+04  0.33181146876E+04  0.29006999047E+04 0.  0.
        3    1    3    3  502    0 -0.12790131433E+04 -0.64720205350E+03 -0.10581962502E+04  0.17817195158E+04  0.10100000352E+00 0.  1.
       -3    1    3    3    0  502  0.12790131433E+04  0.64720205350E+03 -0.55296021113E+03  0.15363951718E+04  0.10100000352E+00 0. -1.
</event>
<event>
 5   0  0.3113328E-06  0.3029876E+04  0.7818609E-02  0.8235251E-01
       -2   -1    0    0    0  501  0.00000000000E+00  0.00000000000E+00  0.79406781333E+03  0.79406781333E+03  0.25500000920E-02 0.  1.
        2   -1    0    0  501    0  0.00000000000E+00  0.00000000000E+00 -0.28902289935E+04  0.28902289935E+04  0.25500000920E-02 0. -1.
    10030    2    1    2    0    0  0.00000000000E+00  0.00000000000E+00 -0.20961611802E+04  0.36842968068E+04  0.30298764443E+04 0.  0.
        1    1    3    3  502    0  0.14300043579E+03 -0.13191500115E+04 -0.15913353906E+03  0.13363866808E+04  0.50400001928E-02 0.  1.
       -1    1    3    3    0  502 -0.14300043579E+03  0.13191500115E+04 -0.19370276411E+04  0.23479101260E+04  0.50400001928E-02 0. -1.
</event>
<event>
 5   0  0.2862033E-06  0.2994660E+04  0.7818609E-02  0.8245257E-01
       -2   -1    0    0    0  501  0.00000000000E+00  0.00000000000E+00  0.13888814342E+04  0.13888814342E+04  0.25500000920E-02 0.  1.
        2   -1    0    0  501    0  0.00000000000E+00  0.00000000000E+00 -0.16142466290E+04  0.16142466290E+04  0.25500000920E-02 0. -1.
    10030    2    1    2    0    0  0.00000000000E+00  0.00000000000E+00 -0.22536519475E+03  0.30031280632E+04  0.29946600296E+04 0.  0.
        2    1    3    3  502    0 -0.32694722149E+03 -0.14538130770E+04  0.34464130236E+02  0.14905216284E+04  0.25500000920E-02 0. -1.
       -2    1    3    3    0  502  0.32694722149E+03  0.14538130770E+04 -0.25982932499E+03  0.15126064348E+04  0.25500000920E-02 0.  1.
</event>
<event>
 5   0  0.1091076E-06  0.3000545E+04  0.7818609E-02  0.8243575E-01
       -1   -1    0    0    0  501  0.00000000000E+00  0.00000000000E+00  0.88087747979E+03  0.88087747980E+03  0.50400001928E-02 0. -1.
        1   -1    0    0  501    0  0.00000000000E+00  0.00000000000E+00 -0.25551992226E+04  0.25551992226E+04  0.50400001928E-02 0.  1.
    10030    2    1    2    0    0  0.00000000000E+00  0.00000000000E+00 -0.16743217428E+04  0.34360767024E+04  0.30005449182E+04 0.  0.
        3    1    3    3  502    0 -0.11710118956E+04  0.97319320018E+02 -0.19053341126E+04  0.22385347888E+04  0.10100000352E+00 0.  1.
       -3    1    3    3    0  502  0.11710118956E+04 -0.97319320018E+02  0.23101236981E+03  0.11975419136E+04  0.10100000352E+00 0. -1.
</event>
<event>
 5   0  0.3113328E-06  0.2984011E+04  0.7818609E-02  0.8248312E-01
       -2   -1    0    0    0  501  0.00000000000E+00  0.00000000000E+00  0.15787088060E+04  0.15787088060E+04  0.25500000920E-02 0.  1.
        2   -1    0    0  501    0  0.00000000000E+00  0.00000000000E+00 -0.14100635251E+04  0.14100635251E+04  0.25500000920E-02 0. -1.
    10030    2    1    2    0    0  0.00000000000E+00  0.00000000000E+00  0.16864528088E+03  0.29887723311E+04  0.29840105256E+04 0.  0.
        1    1    3    3  502    0  0.34897584853E+03 -0.37677107610E+03 -0.13187479255E+04  0.14152161240E+04  0.50400001928E-02 0. -1.
       -1    1    3    3    0  502 -0.34897584853E+03  0.37677107610E+03  0.14873932064E+04  0.15735562071E+04  0.50400001928E-02 0.  1.
</event>
<event>
 5   0  0.1091075E-06  0.3005327E+04  0.7818609E-02  0.8242211E-01
       -1   -1    0    0    0  501  0.00000000000E+00  0.00000000000E+00  0.12072933547E+04  0.12072933547E+04  0.50400001928E-02 0.  1.
        1   -1    0    0  501    0  0.00000000000E+00  0.00000000000E+00 -0.18702973026E+04  0.18702973026E+04  0.50400001928E-02 0. -1.
    10030    2    1    2    0    0  0.00000000000E+00  0.00000000000E+00 -0.66300394787E+03  0.30775906573E+04  0.30053269404E+04 0.  0.
        1    1    3    3  502    0 -0.37416433876E+03  0.13906903665E+04  0.10773924528E+03  0.14441697937E+04  0.50400001928E-02 0.  1.
       -1    1    3    3    0  502  0.37416433876E+03 -0.13906903665E+04 -0.77074319315E+03  0.16334208636E+04  0.50400001928E-02 0. -1.
</event>
<event>
 5   0  0.1091076E-06  0.3003557E+04  0.7818609E-02  0.8242716E-01
       -1   -1    0    0    0  501  0.00000000000E+00  0.00000000000E+00  0.10436097470E+04  0.10436097470E+04  0.50400001928E-02 0. -1.
        1   -1    0    0  501    0  0.00000000000E+00  0.00000000000E+00 -0.21610942618E+04  0.21610942618E+04  0.50400001928E-02 0.  1.
    10030    2    1    2    0    0  0.00000000000E+00  0.00000000000E+00 -0.11174845148E+04  0.32047040088E+04  0.30035572482E+04 0.  0.
        3    1    3    3  502    0 -0.11569269007E+04 -0.46818465179E+03  0.33245663577E+03  0.12915897749E+04  0.10100000352E+00 0. -1.
       -3    1    3    3    0  502  0.11569269007E+04  0.46818465179E+03 -0.14499411506E+04  0.19131142339E+04  0.10100000352E+00 0.  1.
</event>
<event>
 5   0  0.2970915E-06  0.3008485E+04  0.7818609E-02  0.8241312E-01
        2   -1    0    0  501    0  0.00000000000E+00  0.00000000000E+00  0.22892068214E+04  0.22892068214E+04  0.25500000920E-02 0.  1.
       -2   -1    0    0    0  501  0.00000000000E+00  0.00000000000E+00 -0.98844086906E+03  0.98844086906E+03  0.25500000920E-02 0. -1.
    10030    2    1    2    0    0  0.00000000000E+00  0.00000000000E+00  0.13007659523E+04  0.32776476905E+04  0.30084850540E+04 0.  0.
        4    1    3    3  502    0  0.12766016129E+03  0.12519525272E+04 -0.24739518400E+03  0.12825319634E+04  0.12699999809E+01 0. -1.
       -4    1    3    3    0  502 -0.12766016129E+03 -0.12519525272E+04  0.15481611363E+04  0.19951157270E+04  0.12699999809E+01 0.  1.
</event>
<event>
 5   0  0.9749500E-07  0.3019934E+04  0.7818609E-02  0.8238062E-01
       -4   -1    0    0    0  501  0.00000000000E+00  0.00000000000E+00  0.15901909416E+04  0.15901914488E+04  0.12699999809E+01 0.  1.
        4   -1    0    0  501    0  0.00000000000E+00  0.00000000000E+00 -0.14337890088E+04  0.14337895713E+04  0.12699999809E+01 0. -1.
    10030    2    1    2    0    0  0.00000000000E+00  0.00000000000E+00  0.15640193281E+03  0.30239810201E+04  0.30199337154E+04 0.  0.
        4    1    3    3  502    0  0.68839895526E+03  0.27017693853E+03  0.13964415084E+04  0.15801706234E+04  0.12699999809E+01 0.  1.
       -4    1    3    3    0  502 -0.68839895526E+03 -0.27017693853E+03 -0.12400395756E+04  0.14438103967E+04  0.12699999809E+01 0. -1.
</event>
<event>
 5   0  0.3113328E-06  0.2980351E+04  0.7818609E-02  0.8249364E-01
       -2   -1    0    0    0  501  0.00000000000E+00  0.00000000000E+00  0.10347634013E+04  0.10347634013E+04  0.25500000920E-02 0. -1.
        2   -1    0    0  501    0  0.00000000000E+00  0.00000000000E+00 -0.21460206640E+04  0.21460206640E+04  0.25500000920E-02 0.  1.
    10030    2    1    2    0    0  0.00000000000E+00  0.00000000000E+00 -0.11112572627E+04  0.31807840653E+04  0.29803514166E+04 0.  0.
        1    1    3    3  502    0  0.17025410191E+03  0.72998857534E+03  0.81891232683E+03  0.11101743910E+04  0.50400001928E-02 0. -1.
       -1    1    3    3    0  502 -0.17025410191E+03 -0.72998857534E+03 -0.19301695895E+04  0.20706096744E+04  0.50400001928E-02 0.  1.
</event>
<event>
 5   0  0.2948711E-06  0.3014132E+04  0.7818609E-02  0.8239707E-01
        2   -1    0    0  501    0  0.00000000000E+00  0.00000000000E+00  0.14404311725E+04  0.14404311725E+04  0.25500000920E-02 0. -1.
       -2   -1    0    0    0  501  0.00000000000E+00  0.00000000000E+00 -0.15767835734E+04  0.15767835734E+04  0.25500000920E-02 0.  1.
    10030    2    1    2    0    0  0.00000000000E+00  0.00000000000E+00 -0.13635240091E+03  0.30172147459E+04  0.30141321878E+04 0.  0.
        5    1    3    3  502    0  0.56919472613E+03  0.69901522144E+03 -0.12771452653E+04  0.15632424747E+04  0.46999998093E+01 0.  1.
       -5    1    3    3    0  502 -0.56919472613E+03 -0.69901522144E+03  0.11407928643E+04  0.14539722712E+04  0.46999998093E+01 0. -1.
</event>
<event>
 5   0  0.2970915E-06  0.2989591E+04  0.7818609E-02  0.8246710E-01
        2   -1    0    0  501    0  0.00000000000E+00  0.00000000000E+00  0.18840468972E+04  0.18840468972E+04  0.25500000920E-02 0. -1.
       -2   -1    0    0    0  501  0.00000000000E+00  0.00000000000E+00 -0.11859645891E+04  0.11859645891E+04  0.25500000920E-02 0.  1.
    10030    2    1    2    0    0  0.00000000000E+00  0.00000000000E+00  0.69808230813E+03  0.30700114863E+04  0.29895905434E+04 0.  0.
        4    1    3    3  502    0 -0.14939044112E+04 -0.30938498861E+02  0.39142752652E+03  0.15446438754E+04  0.12699999809E+01 0. -1.
       -4    1    3    3    0  502  0.14939044112E+04  0.30938498861E+02  0.30665478161E+03  0.15253676109E+04  0.12699999809E+01 0.  1.
</event>
<event>
 5   0  0.1091076E-06  0.3001591E+04  0.7818609E-02  0.8243277E-01
        1   -1    0    0  501    0  0.00000000000E+00  0.00000000000E+00  0.16753550822E+04  0.16753550822E+04  0.50400001928E-02 0. -1.
       -1   -1    0    0    0  501  0.00000000000E+00  0.00000000000E+00 -0.13444241664E+04  0.13444241665E+04  0.50400001928E-02 0.  1.
    10030    2    1    2    0    0  0.00000000000E+00  0.00000000000E+00  0.33093091579E+03  0.30197792487E+04  0.30015914845E+04 0.  0.
        3    1    3    3  502    0  0.93845830830E+03  0.27906623547E+03 -0.97888269692E+03  0.13844830460E+04  0.10100000352E+00 0.  1.
       -3    1    3    3    0  502 -0.93845830830E+03 -0.27906623547E+03  0.13098136127E+04  0.16352962027E+04  0.10100000352E+00 0. -1.
</event>
<event>
 5   0  0.1091076E-06  0.3096864E+04  0.7818609E-02  0.8216599E-01
        1   -1    0    0  501    0  0.00000000000E+00  0.00000000000E+00  0.18426707819E+04  0.18426707819E+04  0.50400001928E-02 0. -1.
       -1   -1    0    0    0  501  0.00000000000E+00  0.00000000000E+00 -0.13011777846E+04  0.13011777846E+04  0.50400001928E-02 0.  1.
    10030    2    1    2    0    0  0.00000000000E+00  0.00000000000E+00  0.54149299733E+03  0.31438485665E+04  0.30968644049E+04 0.  0.
        3    1    3    3  502    0 -0.83719922698E+03  0.61540758150E+03 -0.89471871271E+03  0.13711858452E+04  0.10100000352E+00 0.  1.
       -3    1    3    3    0  502  0.83719922698E+03 -0.61540758150E+03  0.14362117100E+04  0.17726627212E+04  0.10100000352E+00 0. -1.
</event>
<event>
 5   0  0.2985941E-06  0.2986001E+04  0.7818609E-02  0.8247740E-01
       -2   -1    0    0    0  501  0.00000000000E+00  0.00000000000E+00  0.15115182665E+04  0.15115182665E+04  0.25500000920E-02 0. -1.
        2   -1    0    0  501    0  0.00000000000E+00  0.00000000000E+00 -0.14747093599E+04  0.14747093599E+04  0.25500000920E-02 0.  1.
    10030    2    1    2    0    0  0.00000000000E+00  0.00000000000E+00  0.36808906688E+02  0.29862276264E+04  0.29860007604E+04 0.  0.
        3    1    3    3  502    0 -0.94424565918E+02 -0.89661333994E+03  0.12085447190E+04  0.15077837471E+04  0.10100000352E+00 0. -1.
       -3    1    3    3    0  502  0.94424565918E+02  0.89661333994E+03 -0.11717358123E+04  0.14784438793E+04  0.10100000352E+00 0.  1.
</event>
<event>
 5   0  0.2970915E-06  0.2994076E+04  0.7818609E-02  0.8245425E-01
       -2   -1    0    0    0  501  0.00000000000E+00  0.00000000000E+00  0.95536581575E+03  0.95536581575E+03  0.25500000920E-02 0. -1.
        2   -1    0    0  501    0  0.00000000000E+00  0.00000000000E+00 -0.23458268707E+04  0.23458268707E+04  0.25500000920E-02 0.  1.
    10030    2    1    2    0    0  0.00000000000E+00  0.00000000000E+00 -0.13904610549E+04  0.33011926864E+04  0.29940760190E+04 0.  0.
        4    1    3    3  502    0 -0.69935553187E+03 -0.11149070220E+04  0.91397162503E+02  0.13192690711E+04  0.12699999809E+01 0. -1.
       -4    1    3    3    0  502  0.69935553187E+03  0.11149070220E+04 -0.14818582174E+04  0.19819236154E+04  0.12699999809E+01 0.  1.
</event>
<event>
 5   0  0.1054384E-06  0.3035765E+04  0.7818609E-02  0.8233591E-01
        1   -1    0    0  501    0  0.00000000000E+00  0.00000000000E+00  0.24749302636E+04  0.24749302637E+04  0.50400001928E-02 0.  1.
       -1   -1    0    0    0  501  0.00000000000E+00  0.00000000000E+00 -0.93092187168E+03  0.93092187169E+03  0.50400001928E-02 0. -1.
    10030    2    1    2    0    0  0.00000000000E+00  0.00000000000E+00  0.15440083920E+04  0.34058521353E+04  0.30357646242E+04 0.  0.
        2    1    3    3  502    0  0.94428265671E+03  0.38710821268E+03  0.20325649758E+04  0.22743884639E+04  0.25500000920E-02 0.  1.
       -2    1    3    3    0  502 -0.94428265671E+03 -0.38710821268E+03 -0.48855658382E+03  0.11314636714E+04  0.25500000920E-02 0. -1.
</event>
<event>
 5   0  0.1091075E-06  0.3004479E+04  0.7818609E-02  0.8242453E-01
        1   -1    0    0  501    0  0.00000000000E+00  0.00000000000E+00  0.15207750117E+04  0.15207750117E+04  0.50400001928E-02 0. -1.
       -1   -1    0    0    0  501  0.00000000000E+00  0.00000000000E+00 -0.14839296795E+04  0.14839296795E+04  0.50400001928E-02 0.  1.
    10030    2    1    2    0    0  0.00000000000E+00  0.00000000000E+00  0.36845332244E+02  0.30047046912E+04  0.30044787739E+04 0.  0.
        1    1    3    3  502    0 -0.11782333196E+04  0.74234874855E+03 -0.54500922114E+03  0.14954432357E+04  0.50400001928E-02 0. -1.
       -1    1    3    3    0  502  0.11782333196E+04 -0.74234874855E+03  0.58185455338E+03  0.15092614556E+04  0.50400001928E-02 0.  1.
</event>
<event>
 5   0  0.1054384E-06  0.3039236E+04  0.7818609E-02  0.8232615E-01
       -1   -1    0    0    0  501  0.00000000000E+00  0.00000000000E+00  0.13859257511E+04  0.13859257511E+04  0.50400001928E-02 0. -1.
        1   -1    0    0  501    0  0.00000000000E+00  0.00000000000E+00 -0.16662063997E+04  0.16662063997E+04  0.50400001928E-02 0.  1.
    10030    2    1    2    0    0  0.00000000000E+00  0.00000000000E+00 -0.28028064866E+03  0.30521321508E+04  0.30392356645E+04 0.  0.
        2    1    3    3  502    0  0.21881286451E+03 -0.65133818768E+03  0.12210143079E+04  0.14010697501E+04  0.25500000920E-02 0. -1.
       -2    1    3    3    0  502 -0.21881286451E+03  0.65133818768E+03 -0.15012949566E+04  0.16510624007E+04  0.25500000920E-02 0.  1.
</event>
<event>
 5   0  0.2970915E-06  0.2966348E+04  0.7818609E-02  0.8253406E-01
        2   -1    0    0  501    0  0.00000000000E+00  0.00000000000E+00  0.11859100741E+04  0.11859100741E+04  0.25500000920E-02 0.  1.
       -2   -1    0    0    0  501  0.00000000000E+00  0.00000000000E+00 -0.18549515391E+04  0.18549515391E+04  0.25500000920E-02 0. -1.
    10030    2    1    2    0    0  0.00000000000E+00  0.00000000000E+00 -0.66904146502E+03  0.30408616132E+04  0.29663484065E+04 0.  0.
        4    1    3    3  502    0 -0.10116625525E+04  0.34975494202E+03 -0.13869617914E+04  0.17519858056E+04  0.12699999809E+01 0. -1.
       -4    1    3    3    0  502  0.10116625525E+04 -0.34975494202E+03  0.71792032635E+03  0.12888758076E+04  0.12699999809E+01 0.  1.
</event>
<event>
 5   0  0.2970915E-06  0.2985913E+04  0.7818609E-02  0.8247765E-01
       -2   -1    0    0    0  501  0.00000000000E+00  0.00000000000E+00  0.93998362519E+03  0.93998362520E+03  0.25500000920E-02 0.  1.
        2   -1    0    0  501    0  0.00000000000E+00  0.00000000000E+00 -0.23712315407E+04  0.23712315407E+04  0.25500000920E-02 0. -1.
    10030    2    1    2    0    0  0.00000000000E+00  0.00000000000E+00 -0.14312479155E+04  0.33112151659E+04  0.29859128050E+04 0.  0.
        4    1    3    3  502    0  0.11851270615E+04 -0.80554207294E+03 -0.11801822428E+04  0.18564094166E+04  0.12699999809E+01 0. -1.
       -4    1    3    3    0  502 -0.11851270615E+04  0.80554207294E+03 -0.25106567274E+03  0.14548057493E+04  0.12699999809E+01 0.  1.
</event>
<event>
 5   0  0.2948711E-06  0.2986477E+04  0.7818609E-02  0.8247603E-01
       -2   -1    0    0    0  501  0.00000000000E+00  0.00000000000E+00  0.87424928835E+03  0.87424928835E+03  0.25500000920E-02 0.  1.
        2   -1    0    0  501    0  0.00000000000E+00  0.00000000000E+00 -0.25504860195E+04  0.25504860195E+04  0.25500000920E-02 0. -1.
    10030    2    1    2    0    0  0.00000000000E+00  0.00000000000E+00 -0.16762367311E+04  0.34247353078E+04  0.29864765778E+04 0.  0.
        5    1    3    3  502    0 -0.53564979925E+03 -0.62286921017E+03  0.59180377186E+03  0.10124922493E+04  0.46999998093E+01 0.  1.
       -5    1    3    3    0  502  0.53564979925E+03  0.62286921017E+03 -0.22680405030E+04  0.24122430586E+04  0.46999998093E+01 0. -1.
</event>
<event>
 5   0  0.1091076E-06  0.2991847E+04  0.7818609E-02  0.8246063E-01
        1   -1    0    0  501    0  0.00000000000E+00  0.00000000000E+00  0.10752036940E+04  0.10752036940E+04  0.50400001928E-02 0. -1.
       -1   -1    0    0    0  501  0.00000000000E+00  0.00000000000E+00 -0.20812686647E+04  0.20812686647E+04  0.50400001928E-02 0.  1.
    10030    2    1    2    0    0  0.00000000000E+00  0.00000000000E+00 -0.10060649708E+04  0.31564723587E+04  0.29918474269E+04 0.  0.
        3    1    3    3  502    0  0.46576671761E+03  0.13376767059E+04 -0.10106189550E+04  0.17400196226E+04  0.10100000352E+00 0.  1.
       -3    1    3    3    0  502 -0.46576671761E+03 -0.13376767059E+04  0.45539842394E+01  0.14164527361E+04  0.10100000352E+00 0. -1.
</event>
<event>
 5   0  0.1054384E-06  0.2979433E+04  0.7818609E-02  0.8249628E-01
       -1   -1    0    0    0  501  0.00000000000E+00  0.00000000000E+00  0.12946033591E+04  0.12946033591E+04  0.50400001928E-02 0.  1.
        1   -1    0    0  501    0  0.00000000000E+00  0.00000000000E+00 -0.17142359849E+04  0.17142359849E+04  0.50400001928E-02 0. -1.
    10030    2    1    2    0    0  0.00000000000E+00  0.00000000000E+00 -0.41963262584E+03  0.30088393440E+04  0.29794332779E+04 0.  0.
        2    1    3    3  502    0  0.14761135561E+04  0.20035229036E+03 -0.19541394154E+03  0.15024110221E+04  0.25500000920E-02 0. -1.
       -2    1    3    3    0  502 -0.14761135561E+04 -0.20035229036E+03 -0.22421868429E+03  0.15064283219E+04  0.25500000920E-02 0.  1.
</event>
<event>
 5   0  0.3113328E-06  0.3003083E+04  0.7818609E-02  0.8242851E-01
       -2   -1    0    0    0  501  0.00000000000E+00  0.00000000000E+00  0.12931479808E+04  0.12931479808E+04  0.25500000920E-02 0. -1.
        2   -1    0    0  501    0  0.00000000000E+00  0.00000000000E+00 -0.17435177887E+04  0.17435177887E+04  0.25500000920E-02 0.  1.
    10030    2    1    2    0    0  0.00000000000E+00  0.00000000000E+00 -0.45036980790E+03  0.30366657696E+04  0.30030827548E+04 0.  0.
        1    1    3    3  502    0 -0.11965848043E+04 -0.67184904015E+02 -0.11398988632E+04  0.16539946867E+04  0.50400001928E-02 0.  1.
       -1    1    3    3    0  502  0.11965848043E+04  0.67184904015E+02  0.68952905530E+03  0.13826710829E+04  0.50400001928E-02 0. -1.
</event>
<event>
 5   0  0.1097402E-06  0.2994031E+04  0.7818609E-02  0.8245437E-01
        1   -1    0    0  501    0  0.00000000000E+00  0.00000000000E+00  0.14363911648E+04  0.14363911648E+04  0.50400001928E-02 0. -1.
       -1   -1    0    0    0  501  0.00000000000E+00  0.00000000000E+00 -0.15601990407E+04  0.15601990408E+04  0.50400001928E-02 0.  1.
    10030    2    1    2    0    0  0.00000000000E+00  0.00000000000E+00 -0.12380787595E+03  0.29965902055E+04  0.29940314744E+04 0.  0.
        4    1    3    3  502    0 -0.10891807388E+04 -0.25360600238E+03  0.93414696193E+03  0.14571420128E+04  0.12699999809E+01 0. -1.
       -4    1    3    3    0  502  0.10891807388E+04  0.25360600238E+03 -0.10579548379E+04  0.15394481927E+04  0.12699999809E+01 0.  1.
</event>
<event>
 5   0  0.2970915E-06  0.2953532E+04  0.7818609E-02  0.8257126E-01
       -2   -1    0    0    0  501  0.00000000000E+00  0.00000000000E+00  0.12184511805E+04  0.12184511805E+04  0.25500000920E-02 0.  1.
        2   -1    0    0  501    0  0.00000000000E+00  0.00000000000E+00 -0.17898446977E+04  0.17898446977E+04  0.25500000920E-02 0. -1.
    10030    2    1    2    0    0  0.00000000000E+00  0.00000000000E+00 -0.57139351728E+03  0.30082958782E+04  0.29535323833E+04 0.  0.
        4    1    3    3  502    0  0.11041826601E+04 -0.94961158817E+03 -0.36507131410E+02  0.14568170437E+04  0.12699999809E+01 0. -1.
       -4    1    3    3    0  502 -0.11041826601E+04  0.94961158817E+03 -0.53488638587E+03  0.15514788345E+04  0.12699999809E+01 0.  1.
</event>
<event>
 5   0  0.2862033E-06  0.2933347E+04  0.7818609E-02  0.8263025E-01
       -2   -1    0    0    0  501  0.00000000000E+00  0.00000000000E+00  0.14361634210E+04  0.14361634210E+04  0.25500000920E-02 0.  1.
        2   -1    0    0  501    0  0.00000000000E+00  0.00000000000E+00 -0.14978312488E+04  0.14978312488E+04  0.25500000920E-02 0. -1.
    10030    2    1    2    0    0  0.00000000000E+00  0.00000000000E+00 -0.61667827783E+02  0.29339946698E+04  0.29333465192E+04 0.  0.
        2    1    3    3  502    0  0.58700548438E+03  0.72024665740E+03  0.11042294897E+04  0.14431401360E+04  0.25500000920E-02 0.  1.
       -2    1    3    3    0  502 -0.58700548438E+03 -0.72024665740E+03 -0.11658973175E+04  0.14908545339E+04  0.25500000920E-02 0. -1.
</event>
<event>
 5   0  0.1097402E-06  0.3004797E+04  0.7818609E-02  0.8242362E-01
       -1   -1    0    0    0  501  0.00000000000E+00  0.00000000000E+00  0.11339011423E+04  0.11339011423E+04  0.50400001928E-02 0.  1.
        1   -1    0    0  501    0  0.00000000000E+00  0.00000000000E+00 -0.19906513745E+04  0.19906513746E+04  0.50400001928E-02 0. -1.
    10030    2    1    2    0    0  0.00000000000E+00  0.00000000000E+00 -0.85675023225E+03  0.31245525169E+04  0.30047974092E+04 0.  0.
        4    1    3    3  502    0  0.20162922381E+03 -0.31604833979E+02 -0.19761689802E+04  0.19866803116E+04  0.12699999809E+01 0. -1.
       -4    1    3    3    0  502 -0.20162922381E+03  0.31604833979E+02  0.11194187479E+04  0.11378722053E+04  0.12699999809E+01 0.  1.
</event>
<event>
 5   0  0.2970915E-06  0.3151312E+04  0.7818609E-02  0.8201795E-01
        2   -1    0    0  501    0  0.00000000000E+00  0.00000000000E+00  0.22453758649E+04  0.22453758649E+04  0.25500000920E-02 0. -1.
       -2   -1    0    0    0  501  0.00000000000E+00  0.00000000000E+00 -0.11056911595E+04  0.11056911595E+04  0.25500000920E-02 0.  1.
    10030    2    1    2    0    0  0.00000000000E+00  0.00000000000E+00  0.11396847054E+04  0.33510670244E+04  0.31513122622E+04 0.  0.
        4    1    3    3  502    0  0.14296554710E+04  0.30791857228E+03  0.11935009575E+04  0.18876373490E+04  0.12699999809E+01 0.  1.
       -4    1    3    3    0  502 -0.14296554710E+04 -0.30791857228E+03 -0.53816252067E+02  0.14634296754E+04  0.12699999809E+01 0. -1.
</event>
<event>
 5   0  0.1091076E-06  0.3005071E+04  0.7818609E-02  0.8242284E-01
        1   -1    0    0  501    0  0.00000000000E+00  0.00000000000E+00  0.23184874704E+04  0.23184874704E+04  0.50400001928E-02 0. -1.
       -1   -1    0    0    0  501  0.00000000000E+00  0.00000000000E+00 -0.97374397436E+03  0.97374397438E+03  0.50400001928E-02 0.  1.
    10030    2    1    2    0    0  0.00000000000E+00  0.00000000000E+00  0.13447434961E+04  0.32922314448E+04  0.30050711832E+04 0.  0.
        3    1    3    3  502    0  0.11901118153E+03  0.88150395241E+02 -0.96572792030E+03  0.97701820851E+03  0.10100000352E+00 0.  1.
       -3    1    3    3    0  502 -0.11901118153E+03 -0.88150395241E+02  0.23104714164E+04  0.23152132363E+04  0.10100000352E+00 0. -1.
</event>
<event>
 5   0  0.2948711E-06  0.2933696E+04  0.7818609E-02  0.8262922E-01
        2   -1    0    0  501    0  0.00000000000E+00  0.00000000000E+00  0.25757365247E+04  0.25757365247E+04  0.25500000920E-02 0.  1.
       -2   -1    0    0    0  501  0.00000000000E+00  0.00000000000E+00 -0.83535061425E+03  0.83535061425E+03  0.25500000920E-02 0. -1.
    10030    2    1    2    0    0  0.00000000000E+00  0.00000000000E+00  0.17403859105E+04  0.34110871390E+04  0.29336960225E+04 0.  0.
        5    1    3    3  502    0 -0.92463819068E+03 -0.35551158705E+03 -0.38763715256E+03  0.10637804869E+04  0.46999998093E+01 0. -1.
       -5    1    3    3    0  502  0.92463819068E+03  0.35551158705E+03  0.21280230630E+04  0.23473066521E+04  0.46999998093E+01 0.  1.
</event>
<event>
 5   0  0.2948711E-06  0.3022292E+04  0.7818609E-02  0.8237394E-01
        2   -1    0    0  501    0  0.00000000000E+00  0.00000000000E+00  0.14959077007E+04  0.14959077007E+04  0.25500000920E-02 0. -1.
       -2   -1    0    0    0  501  0.00000000000E+00  0.00000000000E+00 -0.15265394591E+04  0.15265394592E+04  0.25500000920E-02 0.  1.
    10030    2    1    2    0    0  0.00000000000E+00  0.00000000000E+00 -0.30631758490E+02  0.30224471598E+04  0.30222919332E+04 0.  0.
        5    1    3    3  502    0  0.13448030589E+03 -0.49376968979E+03 -0.14372350943E+04  0.15256343814E+04  0.46999998093E+01 0.  1.
       -5    1    3    3    0  502 -0.13448030589E+03  0.49376968979E+03  0.14066033359E+04  0.14968127784E+04  0.46999998093E+01 0. -1.
</event>
<event>
 5   0  0.3113328E-06  0.3007694E+04  0.7818609E-02  0.8241537E-01
        2   -1    0    0  501    0  0.00000000000E+00  0.00000000000E+00  0.16149609391E+04  0.16149609391E+04  0.25500000920E-02 0. -1.
       -2   -1    0    0    0  501  0.00000000000E+00  0.00000000000E+00 -0.14003783843E+04  0.14003783843E+04  0.25500000920E-02 0.  1.
    10030    2    1    2    0    0  0.00000000000E+00  0.00000000000E+00  0.21458255475E+03  0.30153393234E+04  0.30076943932E+04 0.  0.
        1    1    3    3  502    0 -0.12929378827E+04  0.71276030016E+03  0.39409669865E+03  0.15280797826E+04  0.50400001928E-02 0. -1.
       -1    1    3    3    0  502  0.12929378827E+04 -0.71276030016E+03 -0.17951414390E+03  0.14872595409E+04  0.50400001928E-02 0.  1.
</event>
<event>
 5   0  0.1097402E-06  0.2998986E+04  0.7818609E-02  0.8244021E-01
        1   -1    0    0  501    0  0.00000000000E+00  0.00000000000E+00  0.13710946943E+04  0.13710946943E+04  0.50400001928E-02 0.  1.
       -1   -1    0    0    0  501  0.00000000000E+00  0.00000000000E+00 -0.16399148609E+04  0.16399148610E+04  0.50400001928E-02 0. -1.
    10030    2    1    2    0    0  0.00000000000E+00  0.00000000000E+00 -0.26882016663E+03  0.30110095553E+04  0.29989855385E+04 0.  0.
        4    1    3    3  502    0  0.44952724708E+03 -0.89121898013E+03 -0.12578830712E+04  0.16058074138E+04  0.12699999809E+01 0. -1.
       -4    1    3    3    0  502 -0.44952724708E+03  0.89121898013E+03  0.98906290457E+03  0.14052021415E+04  0.12699999809E+01 0.  1.
</event>
<event>
 5   0  0.1091076E-06  0.3015081E+04  0.7818609E-02  0.8239437E-01
       -1   -1    0    0    0  501  0.00000000000E+00  0.00000000000E+00  0.11872547187E+04  0.11872547187E+04  0.50400001928E-02 0. -1.
        1   -1    0    0  501    0  0.00000000000E+00  0.00000000000E+00 -0.19142298056E+04  0.19142298056E+04  0.50400001928E-02 0.  1.
    10030    2    1    2    0    0  0.00000000000E+00  0.00000000000E+00 -0.72697508691E+03  0.31014845244E+04  0.30150810069E+04 0.  0.
        3    1    3    3  502    0 -0.59574696758E+03 -0.37770798800E+02 -0.17874764545E+04  0.18845193468E+04  0.10100000352E+00 0.  1.
       -3    1    3    3    0  502  0.59574696758E+03  0.37770798800E+02  0.10605013676E+04  0.12169651776E+04  0.10100000352E+00 0. -1.
</event>
<event>
 5   0  0.1091076E-06  0.3001664E+04  0.7818609E-02  0.8243256E-01
       -1   -1    0    0    0  501  0.00000000000E+00  0.00000000000E+00  0.13503031544E+04  0.13503031544E+04  0.50400001928E-02 0. -1.
        1   -1    0    0  501    0  0.00000000000E+00  0.00000000000E+00 -0.16681417221E+04  0.16681417221E+04  0.50400001928E-02 0.  1.
    10030    2    1    2    0    0  0.00000000000E+00  0.00000000000E+00 -0.31783856770E+03  0.30184448765E+04  0.30016642246E+04 0.  0.
        3    1    3    3  502    0  0.72084440860E+03 -0.11997746760E+04  0.38579253567E+03  0.14518649474E+04  0.10100000352E+00 0. -1.
       -3    1    3    3    0  502 -0.72084440860E+03  0.11997746760E+04 -0.70363110337E+03  0.15665799291E+04  0.10100000352E+00 0.  1.
</event>
<event>
 5   0  0.2970915E-06  0.2998572E+04  0.7818609E-02  0.8244139E-01
        2   -1    0    0  501    0  0.00000000000E+00  0.00000000000E+00  0.28819901582E+04  0.28819901582E+04  0.25500000920E-02 0.  1.
       -2   -1    0    0    0  501  0.00000000000E+00  0.00000000000E+00 -0.77996741769E+03  0.77996741770E+03  0.25500000920E-02 0. -1.
    10030    2    1    2    0    0  0.00000000000E+00  0.00000000000E+00  0.21020227405E+04  0.36619575759E+04  0.29985719411E+04 0.  0.
        4    1    3    3  502    0  0.12399850088E+04  0.25918431688E+03  0.71647695627E+02  0.12688082350E+04  0.12699999809E+01 0. -1.
       -4    1    3    3    0  502 -0.12399850088E+04 -0.25918431688E+03  0.20303750449E+04  0.23931493409E+04  0.12699999809E+01 0.  1.
</event>
<event>
 5   0  0.1113245E-06  0.2982843E+04  0.7818609E-02  0.8248647E-01
        1   -1    0    0  501    0  0.00000000000E+00  0.00000000000E+00  0.17438059807E+04  0.17438059807E+04  0.50400001928E-02 0.  1.
       -1   -1    0    0    0  501  0.00000000000E+00  0.00000000000E+00 -0.12755650282E+04  0.12755650282E+04  0.50400001928E-02 0. -1.
    10030    2    1    2    0    0  0.00000000000E+00  0.00000000000E+00  0.46824095248E+03  0.30193710089E+04  0.29828428889E+04 0.  0.
        5    1    3    3  502    0  0.84631016431E+03  0.47620232502E+03 -0.91168944996E+03  0.13319944789E+04  0.46999998093E+01 0. -1.
       -5    1    3    3    0  502 -0.84631016431E+03 -0.47620232502E+03  0.13799304024E+04  0.16873765300E+04  0.46999998093E+01 0.  1.
</event>
<event>
 5   0  0.1097402E-06  0.2996432E+04  0.7818609E-02  0.8244750E-01
       -1   -1    0    0    0  501  0.00000000000E+00  0.00000000000E+00  0.85721757756E+03  0.85721757758E+03  0.50400001928E-02 0.  1.
        1   -1    0    0  501    0  0.00000000000E+00  0.00000000000E+00 -0.26185317532E+04  0.26185317532E+04  0.50400001928E-02 0. -1.
    10030    2    1    2    0    0  0.00000000000E+00  0.00000000000E+00 -0.17613141756E+04  0.34757493308E+04  0.29964321760E+04 0.  0.
        4    1    3    3  502    0  0.91541767637E+03  0.33664716898E+03  0.43850603741E+03  0.10693970247E+04  0.12699999809E+01 0.  1.
       -4    1    3    3    0  502 -0.91541767637E+03 -0.33664716898E+03 -0.21998202131E+04  0.24063523061E+04  0.12699999809E+01 0. -1.
</event>
<event>
 5   0  0.1054384E-06  0.3003055E+04  0.7818609E-02  0.8242859E-01
       -1   -1    0    0    0  501  0.00000000000E+00  0.00000000000E+00  0.16201760134E+04  0.16201760134E+04  0.50400001928E-02 0. -1.
        1   -1    0    0  501    0  0.00000000000E+00  0.00000000000E+00 -0.13915678431E+04  0.13915678432E+04  0.50400001928E-02 0.  1.
    10030    2    1    2    0    0  0.00000000000E+00  0.00000000000E+00  0.22860817029E+03  0.30117438566E+04  0.30030550049E+04 0.  0.
        2    1    3    3  502    0  0.14158937864E+04  0.24510092534E+02 -0.38636863672E+03  0.14678680739E+04  0.25500000920E-02 0.  1.
       -2    1    3    3    0  502 -0.14158937864E+04 -0.24510092534E+02  0.61497680701E+03  0.15438757826E+04  0.25500000920E-02 0. -1.
</event>
<event>
 5   0  0.2985941E-06  0.3027473E+04  0.7818609E-02  0.8235929E-01
        2   -1    0    0  501    0  0.00000000000E+00  0.00000000000E+00  0.15522967418E+04  0.15522967418E+04  0.25500000920E-02 0. -1.
       -2   -1    0    0    0  501  0.00000000000E+00  0.00000000000E+00 -0.14761346104E+04  0.14761346104E+04  0.25500000920E-02 0.  1.
    10030    2    1    2    0    0  0.00000000000E+00  0.00000000000E+00  0.76162131428E+02  0.30284313522E+04  0.30274734986E+04 0.  0.
        3    1    3    3  502    0 -0.10292466833E+04  0.47202937872E+03  0.10430075246E+04  0.15394886086E+04  0.10100000352E+00 0. -1.
       -3    1    3    3    0  502  0.10292466833E+04 -0.47202937872E+03 -0.96684539315E+03  0.14889427437E+04  0.10100000352E+00 0.  1.
</event>
<event>
 5   0  0.2970915E-06  0.3032251E+04  0.7818609E-02  0.8234581E-01
        2   -1    0    0  501    0  0.00000000000E+00  0.00000000000E+00  0.11639133524E+04  0.11639133525E+04  0.25500000920E-02 0.  1.
       -2   -1    0    0    0  501  0.00000000000E+00  0.00000000000E+00 -0.19749201417E+04  0.19749201417E+04  0.25500000920E-02 0. -1.
    10030    2    1    2    0    0  0.00000000000E+00  0.00000000000E+00 -0.81100678921E+03  0.31388334941E+04  0.30322505984E+04 0.  0.
        4    1    3    3  502    0 -0.12570482401E+04  0.71810892900E+03  0.60640070568E+02  0.14489753424E+04  0.12699999809E+01 0. -1.
       -4    1    3    3    0  502  0.12570482401E+04 -0.71810892900E+03 -0.87164685978E+03  0.16898581517E+04  0.12699999809E+01 0.  1.
</event>
<event>
 5   0  0.3113328E-06  0.3015562E+04  0.7818609E-02  0.8239301E-01
        2   -1    0    0  501    0  0.00000000000E+00  0.00000000000E+00  0.18637137435E+04  0.18637137435E+04  0.25500000920E-02 0. -1.
       -2   -1    0    0    0  501  0.00000000000E+00  0.00000000000E+00 -0.12198246105E+04  0.12198246105E+04  0.25500000920E-02 0.  1.
    10030    2    1    2    0    0  0.00000000000E+00  0.00000000000E+00  0.64388913301E+03  0.30835383541E+04  0.30155622304E+04 0.  0.
        1    1    3    3  502    0  0.14599868697E+04  0.38962560419E+02 -0.61098204383E+02  0.14617840919E+04  0.50400001928E-02 0.  1.
       -1    1    3    3    0  502 -0.14599868697E+04 -0.38962560419E+02  0.70498733739E+03  0.16217542621E+04  0.50400001928E-02 0. -1.
</event>
<event>
 5   0  0.2985941E-06  0.2953789E+04  0.7818609E-02  0.8257051E-01
       -2   -1    0    0    0  501  0.00000000000E+00  0.00000000000E+00  0.10916185737E+04  0.10916185737E+04  0.25500000920E-02 0.  1.
        2   -1    0    0  501    0  0.00000000000E+00  0.00000000000E+00 -0.19981491021E+04  0.19981491021E+04  0.25500000920E-02 0. -1.
    10030    2    1    2    0    0  0.00000000000E+00  0.00000000000E+00 -0.90653052840E+03  0.30897676759E+04  0.29537885320E+04 0.  0.
        3    1    3    3  502    0  0.12061890670E+03 -0.83088229067E+03 -0.17242317026E+04  0.19177823850E+04  0.10100000352E+00 0. -1.
       -3    1    3    3    0  502 -0.12061890670E+03  0.83088229067E+03  0.81770117422E+03  0.11719852909E+04  0.10100000352E+00 0.  1.
</event>
<event>
 5   0  0.1113245E-06  0.3023137E+04  0.7818609E-02  0.8237155E-01
        1   -1    0    0  501    0  0.00000000000E+00  0.00000000000E+00  0.12463539863E+04  0.12463539863E+04  0.50400001928E-02 0.  1.
       -1   -1    0    0    0  501  0.00000000000E+00  0.00000000000E+00 -0.18332182230E+04  0.18332182230E+04  0.50400001928E-02 0. -1.
    10030    2    1    2    0    0  0.00000000000E+00  0.00000000000E+00 -0.58686423668E+03  0.30795722094E+04  0.30231366758E+04 0.  0.
        5    1    3    3  502    0  0.13412862935E+04 -0.67882970791E+03 -0.45436248155E+03  0.15704540898E+04  0.46999998093E+01 0.  1.
       -5    1    3    3    0  502 -0.13412862935E+04  0.67882970791E+03 -0.13250175513E+03  0.15091181195E+04  0.46999998093E+01 0. -1.
</event>
<event>
 5   0  0.1097402E-06  0.3047863E+04  0.7818609E-02  0.8230194E-01
        1   -1    0    0  501    0  0.00000000000E+00  0.00000000000E+00  0.13677266890E+04  0.13677266890E+04  0.50400001928E-02 0. -1.
       -1   -1    0    0    0  501  0.00000000000E+00  0.00000000000E+00 -0.16979755539E+04  0.16979755539E+04  0.50400001928E-02 0.  1.
    10030    2    1    2    0    0  0.00000000000E+00  0.00000000000E+00 -0.33024886486E+03  0.30657022429E+04  0.30478625181E+04 0.  0.
        4    1    3    3  502    0 -0.15238828648E+03 -0.11009851813E+04  0.88355859338E+03  0.14198830797E+04  0.12699999809E+01 0. -1.
       -4    1    3    3    0  502  0.15238828648E+03  0.11009851813E+04 -0.12138074582E+04  0.16458191632E+04  0.12699999809E+01 0.  1.
</event>
<event>
 5   0  0.1113245E-06  0.3055192E+04  0.7818609E-02  0.8228144E-01
       -1   -1    0    0    0  501  0.00000000000E+00  0.00000000000E+00  0.14086876399E+04  0.14086876399E+04  0.50400001928E-02 0.  1.
        1   -1    0    0  501    0  0.00000000000E+00  0.00000000000E+00 -0.16565410776E+04  0.16565410776E+04  0.50400001928E-02 0. -1.
    10030    2    1    2    0    0  0.00000000000E+00  0.00000000000E+00 -0.24785343767E+03  0.30652287175E+04  0.30551916084E+04 0.  0.
        5    1    3    3  502    0 -0.91785982152E+03  0.89539884807E+03  0.70905452011E+03  0.14652597557E+04  0.46999998093E+01 0.  1.
       -5    1    3    3    0  502  0.91785982152E+03 -0.89539884807E+03 -0.95690795777E+03  0.15999689618E+04  0.46999998093E+01 0. -1.
</event>
<event>
 5   0  0.1091075E-06  0.3031407E+04  0.7818609E-02  0.8234819E-01
        1   -1    0    0  501    0  0.00000000000E+00  0.00000000000E+00  0.13419801495E+04  0.13419801495E+04  0.50400001928E-02 0.  1.
       -1   -1    0    0    0  501  0.00000000000E+00  0.00000000000E+00 -0.17119159376E+04  0.17119159376E+04  0.50400001928E-02 0. -1.
    10030    2    1    2    0    0  0.00000000000E+00  0.00000000000E+00 -0.36993578813E+03  0.30538960871E+04  0.30314070699E+04 0.  0.
        1    1    3    3  502    0 -0.39551327006E+03  0.14451177532E+04 -0.41593087567E+03  0.15549259020E+04  0.50400001928E-02 0. -1.
       -1    1    3    3    0  502  0.39551327006E+03 -0.14451177532E+04  0.45995087533E+02  0.14989701850E+04  0.50400001928E-02 0.  1.
</event>
<event>
 5   0  0.2970915E-06  0.3006851E+04  0.7818609E-02  0.8241777E-01
       -2   -1    0    0    0  501  0.00000000000E+00  0.00000000000E+00  0.10013709137E+04  0.10013709137E+04  0.25500000920E-02 0.  1.
        2   -1    0    0  501    0  0.00000000000E+00  0.00000000000E+00 -0.22571941178E+04  0.22571941178E+04  0.25500000920E-02 0. -1.
    10030    2    1    2    0    0  0.00000000000E+00  0.00000000000E+00 -0.12558232040E+04  0.32585650315E+04  0.30068512010E+04 0.  0.
        4    1    3    3  502    0  0.68263636910E+03  0.78126921564E+03  0.55125273694E+03  0.11748426246E+04  0.12699999809E+01 0.  1.
       -4    1    3    3    0  502 -0.68263636910E+03 -0.78126921564E+03 -0.18070759410E+04  0.20837224069E+04  0.12699999809E+01 0. -1.
</event>
<event>
 5   0  0.3113328E-06  0.2981226E+04  0.7818609E-02  0.8249112E-01
        2   -1    0    0  501    0  0.00000000000E+00  0.00000000000E+00  0.13392672466E+04  0.13392672466E+04  0.25500000920E-02 0.  1.
       -2   -1    0    0    0  501  0.00000000000E+00  0.00000000000E+00 -0.16590618726E+04  0.16590618726E+04  0.25500000920E-02 0. -1.
    10030    2    1    2    0    0  0.00000000000E+00  0.00000000000E+00 -0.31979462595E+03  0.29983291192E+04  0.29812260740E+04 0.  0.
        1    1    3    3  502    0  0.12719778619E+04 -0.70451971996E+03  0.17008787992E+03  0.14639691267E+04  0.50400001928E-02 0.  1.
       -1    1    3    3    0  502 -0.12719778619E+04  0.70451971996E+03 -0.48988250587E+03  0.15343599925E+04  0.50400001928E-02 0. -1.
</event>
<event>
 5   0  0.2862033E-06  0.3011612E+04  0.7818609E-02  0.8240423E-01
        2   -1    0    0  501    0  0.00000000000E+00  0.00000000000E+00  0.13450154909E+04  0.13450154909E+04  0.25500000920E-02 0.  1.
       -2   -1    0    0    0  501  0.00000000000E+00  0.00000000000E+00 -0.16858182577E+04  0.16858182577E+04  0.25500000920E-02 0. -1.
    10030    2    1    2    0    0  0.00000000000E+00  0.00000000000E+00 -0.34080276679E+03  0.30308337486E+04  0.30116119747E+04 0.  0.
        2    1    3    3  502    0 -0.10289263165E+04  0.85335244112E+03 -0.86804440859E+03  0.15938634976E+04  0.25500000920E-02 0. -1.
       -2    1    3    3    0  502  0.10289263165E+04 -0.85335244112E+03  0.52724164180E+03  0.14369702511E+04  0.25500000920E-02 0.  1.
</event>
<event>
 5   0  0.1091076E-06  0.3003204E+04  0.7818609E-02  0.8242817E-01
       -1   -1    0    0    0  501  0.00000000000E+00  0.00000000000E+00  0.19874998995E+04  0.19874998995E+04  0.50400001928E-02 0. -1.
        1   -1    0    0  501    0  0.00000000000E+00  0.00000000000E+00 -0.11344950081E+04  0.11344950081E+04  0.50400001928E-02 0.  1.
    10030    2    1    2    0    0  0.00000000000E+00  0.00000000000E+00  0.85300489146E+03  0.31219949076E+04  0.30032040987E+04 0.  0.
        3    1    3    3  502    0  0.13190552416E+03  0.84137612659E+03 -0.85914382355E+03  0.12097276443E+04  0.10100000352E+00 0.  1.
       -3    1    3    3    0  502 -0.13190552416E+03 -0.84137612659E+03  0.17121487150E+04  0.19122672633E+04  0.10100000352E+00 0. -1.
</event>
<event>
 5   0  0.2985941E-06  0.3047686E+04  0.7818609E-02  0.8230243E-01
        2   -1    0    0  501    0  0.00000000000E+00  0.00000000000E+00  0.12592993787E+04  0.12592993787E+04  0.25500000920E-02 0.  1.
       -2   -1    0    0    0  501  0.00000000000E+00  0.00000000000E+00 -0.18439597209E+04  0.18439597209E+04  0.25500000920E-02 0. -1.
    10030    2    1    2    0    0  0.00000000000E+00  0.00000000000E+00 -0.58466034221E+03  0.31032590996E+04  0.30476858965E+04 0.  0.
        3    1    3    3  502    0  0.55904583250E+03 -0.34807866063E+01 -0.17357662638E+04  0.18235758530E+04  0.10100000352E+00 0. -1.
       -3    1    3    3    0  502 -0.55904583250E+03  0.34807866063E+01  0.11511059216E+04  0.12796832466E+04  0.10100000352E+00 0.  1.
</event>
<event>
 5   0  0.2948711E-06  0.3010511E+04  0.7818609E-02  0.8240736E-01
       -2   -1    0    0    0  501  0.00000000000E+00  0.00000000000E+00  0.13790818090E+04  0.13790818090E+04  0.25500000920E-02 0. -1.
        2   -1    0    0  501    0  0.00000000000E+00  0.00000000000E+00 -0.16429727665E+04  0.16429727665E+04  0.25500000920E-02 0.  1.
    10030    2    1    2    0    0  0.00000000000E+00  0.00000000000E+00 -0.26389095747E+03  0.30220545755E+04  0.30105108237E+04 0.  0.
        5    1    3    3  502    0  0.45963983183E+03 -0.13348682606E+04  0.39219621329E+03  0.14652583416E+04  0.46999998093E+01 0. -1.
       -5    1    3    3    0  502 -0.45963983183E+03  0.13348682606E+04 -0.65608717076E+03  0.15567962338E+04  0.46999998093E+01 0.  1.
</event>
<event>
 5   0  0.3113328E-06  0.2973729E+04  0.7818609E-02  0.8251273E-01
        2   -1    0    0  501    0  0.00000000000E+00  0.00000000000E+00  0.11076151299E+04  0.11076151299E+04  0.25500000920E-02 0. -1.
       -2   -1    0    0    0  501  0.00000000000E+00  0.00000000000E+00 -0.19959688671E+04  0.19959688671E+04  0.25500000920E-02 0.  1.
    10030    2    1    2    0    0  0.00000000000E+00  0.00000000000E+00 -0.88835373714E+03  0.31035839970E+04  0.29737285122E+04 0.  0.
        1    1    3    3  502    0 -0.21508839006E+03  0.12135290768E+04 -0.13122733510E+04  0.18002714194E+04  0.50400001928E-02 0.  1.
       -1    1    3    3    0  502  0.21508839006E+03 -0.12135290768E+04  0.42391961386E+03  0.13033125776E+04  0.50400001928E-02 0. -1.
</event>
<event>
 5   0  0.1091076E-06  0.2994997E+04  0.7818609E-02  0.8245161E-01
       -1   -1    0    0    0  501  0.00000000000E+00  0.00000000000E+00  0.12194587395E+04  0.12194587395E+04  0.50400001928E-02 0.  1.
        1   -1    0    0  501    0  0.00000000000E+00  0.00000000000E+00 -0.18389319204E+04  0.18389319204E+04  0.50400001928E-02 0. -1.
    10030    2    1    2    0    0  0.00000000000E+00  0.00000000000E+00 -0.61947318090E+03  0.30583906599E+04  0.29949968959E+04 0.  0.
        3    1    3    3  502    0 -0.12845514077E+04 -0.76968099446E+03 -0.31435324013E+03  0.15301304265E+04  0.10100000352E+00 0. -1.
       -3    1    3    3    0  502  0.12845514077E+04  0.76968099446E+03 -0.30511994077E+03  0.15282602333E+04  0.10100000352E+00 0.  1.
</event>
<event>
 5   0  0.1097402E-06  0.2967967E+04  0.7818609E-02  0.8252938E-01
       -1   -1    0    0    0  501  0.00000000000E+00  0.00000000000E+00  0.18021748348E+04  0.18021748348E+04  0.50400001928E-02 0.  1.
        1   -1    0    0  501    0  0.00000000000E+00  0.00000000000E+00 -0.12219716283E+04  0.12219716283E+04  0.50400001928E-02 0. -1.
    10030    2    1    2    0    0  0.00000000000E+00  0.00000000000E+00  0.58020320647E+03  0.30241464631E+04  0.29679666557E+04 0.  0.
        4    1    3    3  502    0  0.76865136155E+03 -0.34994760500E+01  0.15835262608E+04  0.17602256087E+04  0.12699999809E+01 0.  1.
       -4    1    3    3    0  502 -0.76865136155E+03  0.34994760500E+01 -0.10033230543E+04  0.12639208544E+04  0.12699999809E+01 0. -1.
</event>
<event>
 5   0  0.1091076E-06  0.2953675E+04  0.7818609E-02  0.8257084E-01
        1   -1    0    0  501    0  0.00000000000E+00  0.00000000000E+00  0.23929245059E+04  0.23929245059E+04  0.50400001928E-02 0. -1.
       -1   -1    0    0    0  501  0.00000000000E+00  0.00000000000E+00 -0.91145724223E+03  0.91145724224E+03  0.50400001928E-02 0.  1.
    10030    2    1    2    0    0  0.00000000000E+00  0.00000000000E+00  0.14814672637E+04  0.33043817481E+04  0.29536745732E+04 0.  0.
        3    1    3    3  502    0  0.11521697466E+04 -0.15528718080E+02  0.17741647173E+04  0.21155133468E+04  0.10100000352E+00 0. -1.
       -3    1    3    3    0  502 -0.11521697466E+04  0.15528718080E+02 -0.29269745363E+03  0.11888684013E+04  0.10100000352E+00 0.  1.
</event>
<event>
 5   0  0.2970915E-06  0.3020325E+04  0.7818609E-02  0.8237951E-01
        2   -1    0    0  501    0  0.00000000000E+00  0.00000000000E+00  0.21548758655E+04  0.21548758655E+04  0.25500000920E-02 0. -1.
       -2   -1    0    0    0  501  0.00000000000E+00  0.00000000000E+00 -0.10583399995E+04  0.10583399995E+04  0.25500000920E-02 0.  1.
    10030    2    1    2    0    0  0.00000000000E+00  0.00000000000E+00  0.10965358660E+04  0.32132158651E+04  0.30203253616E+04 0.  0.
        4    1    3    3  502    0 -0.45154623599E+03 -0.81811349074E+03  0.18103650944E+04  0.20373087824E+04  0.12699999809E+01 0.  1.
       -4    1    3    3    0  502  0.45154623599E+03  0.81811349074E+03 -0.71382922837E+03  0.11759070827E+04  0.12699999809E+01 0. -1.
</event>
<event>
 5   0  0.2948711E-06  0.3013865E+04  0.7818609E-02  0.8239783E-01
       -2   -1    0    0    0  501  0.00000000000E+00  0.00000000000E+00  0.10790884126E+04  0.10790884126E+04  0.25500000920E-02 0.  1.
        2   -1    0    0  501    0  0.00000000000E+00  0.00000000000E+00 -0.21044112468E+04  0.21044112468E+04  0.25500000920E-02 0. -1.
    10030    2    1    2    0    0  0.00000000000E+00  0.00000000000E+00 -0.10253228342E+04  0.31834996594E+04  0.30138651541E+04 0.  0.
        5    1    3    3  502    0  0.51154930831E+03  0.69560630865E+03  0.79187066253E+03  0.11715938151E+04  0.46999998093E+01 0. -1.
       -5    1    3    3    0  502 -0.51154930831E+03 -0.69560630865E+03 -0.18171934967E+04  0.20119058442E+04  0.46999998093E+01 0.  1.
</event>
<event>
 5   0  0.2862033E-06  0.2988258E+04  0.7818609E-02  0.8247092E-01
       -2   -1    0    0    0  501  0.00000000000E+00  0.00000000000E+00  0.14024266130E+04  0.14024266130E+04  0.25500000920E-02 0. -1.
        2   -1    0    0  501    0  0.00000000000E+00  0.00000000000E+00 -0.15918275632E+04  0.15918275632E+04  0.25500000920E-02 0.  1.
    10030    2    1    2    0    0  0.00000000000E+00  0.00000000000E+00 -0.18940095026E+03  0.29942541762E+04  0.29882579125E+04 0.  0.
        2    1    3    3  502    0 -0.99957093370E+03  0.46854273583E+03 -0.11035708630E+04  0.15609429831E+04  0.25500000920E-02 0.  1.
       -2    1    3    3    0  502  0.99957093370E+03 -0.46854273583E+03  0.91416991275E+03  0.14333111931E+04  0.25500000920E-02 0. -1.
</event>
<event>
 5   0  0.2985941E-06  0.2993522E+04  0.7818609E-02  0.8245583E-01
       -2   -1    0    0    0  501  0.00000000000E+00  0.00000000000E+00  0.10950448077E+04  0.10950448077E+04  0.25500000920E-02 0. -1.
        2   -1    0    0  501    0  0.00000000000E+00  0.00000000000E+00 -0.20458470262E+04  0.20458470262E+04  0.25500000920E-02 0.  1.
    10030    2    1    2    0    0  0.00000000000E+00  0.00000000000E+00 -0.95080221852E+03  0.31408918339E+04  0.29935224492E+04 0.  0.
        3    1    3    3  502    0 -0.63764371862E+03  0.12747624136E+04  0.39089299778E+01  0.14253504878E+04  0.10100000352E+00 0. -1.
       -3    1    3    3    0  502  0.63764371862E+03 -0.12747624136E+04 -0.95471114850E+03  0.17155413461E+04  0.10100000352E+00 0.  1.
</event>
<event>
 5   0  0.2862033E-06  0.3006413E+04  0.7818609E-02  0.8241902E-01
        2   -1    0    0  501    0  0.00000000000E+00  0.00000000000E+00  0.29534504256E+04  0.29534504256E+04  0.25500000920E-02 0.  1.
       -2   -1    0    0    0  501  0.00000000000E+00  0.00000000000E+00 -0.76508140842E+03  0.76508140843E+03  0.25500000920E-02 0. -1.
    10030    2    1    2    0    0  0.00000000000E+00  0.00000000000E+00  0.21883690172E+04  0.37185318340E+04  0.30064131528E+04 0.  0.
        2    1    3    3  502    0  0.14878140840E+03 -0.11173309476E+04  0.23242703006E+04  0.25831757168E+04  0.25500000920E-02 0.  1.
       -2    1    3    3    0  502 -0.14878140840E+03  0.11173309476E+04 -0.13590128335E+03  0.11353561172E+04  0.25500000920E-02 0. -1.
</event>
<event>
 5   0  0.2985941E-06  0.2984676E+04  0.7818609E-02  0.8248120E-01
        2   -1    0    0  501    0  0.00000000000E+00  0.00000000000E+00  0.14170720146E+04  0.14170720146E+04  0.25500000920E-02 0. -1.
       -2   -1    0    0    0  501  0.00000000000E+00  0.00000000000E+00 -0.15716012261E+04  0.15716012261E+04  0.25500000920E-02 0.  1.
    10030    2    1    2    0    0  0.00000000000E+00  0.00000000000E+00 -0.15452921155E+03  0.29886732407E+04  0.29846756042E+04 0.  0.
        3    1    3    3  502    0 -0.89486673882E+03 -0.16496793906E+03  0.11071430565E+04  0.14330968770E+04  0.10100000352E+00 0. -1.
       -3    1    3    3    0  502  0.89486673882E+03  0.16496793906E+03 -0.12616722681E+04  0.15555763637E+04  0.10100000352E+00 0.  1.
</event>
<event>
 5   0  0.2985941E-06  0.2985614E+04  0.7818609E-02  0.8247851E-01
        2   -1    0    0  501    0  0.00000000000E+00  0.00000000000E+00  0.79982530596E+03  0.79982530596E+03  0.25500000920E-02 0. -1.
       -2   -1    0    0    0  501  0.00000000000E+00  0.00000000000E+00 -0.27861984449E+04  0.27861984449E+04  0.25500000920E-02 0.  1.
    10030    2    1    2    0    0  0.00000000000E+00  0.00000000000E+00 -0.19863731389E+04  0.35860237508E+04  0.29856135206E+04 0.  0.
        3    1    3    3  502    0 -0.11395809524E+04  0.93956954469E+03 -0.12536797268E+04  0.19373044531E+04  0.10100000352E+00 0. -1.
       -3    1    3    3    0  502  0.11395809524E+04 -0.93956954469E+03 -0.73269341211E+03  0.16487192977E+04  0.10100000352E+00 0.  1.
</event>
<event>
 5   0  0.2862033E-06  0.2732335E+04  0.7818609E-02  0.8324589E-01
        2   -1    0    0  501    0  0.00000000000E+00  0.00000000000E+00  0.16532416206E+04  0.16532416206E+04  0.25500000920E-02 0. -1.
       -2   -1    0    0    0  501  0.00000000000E+00  0.00000000000E+00 -0.11289420606E+04  0.11289420606E+04  0.25500000920E-02 0.  1.
    10030    2    1    2    0    0  0.00000000000E+00  0.00000000000E+00  0.52429955998E+03  0.27821836813E+04  0.27323352663E+04 0.  0.
        2    1    3    3  502    0 -0.26263995021E+03 -0.11551167434E+04 -0.43080956243E+03  0.12605043885E+04  0.25500000920E-02 0.  1.
       -2    1    3    3    0  502  0.26263995021E+03  0.11551167434E+04  0.95510912242E+03  0.15216792928E+04  0.25500000920E-02 0. -1.
</event>
<event>
 5   0  0.1113245E-06  0.3122924E+04  0.7818609E-02  0.8209475E-01
        1   -1    0    0  501    0  0.00000000000E+00  0.00000000000E+00  0.16218924640E+04  0.16218924640E+04  0.50400001928E-02 0. -1.
       -1   -1    0    0    0  501  0.00000000000E+00  0.00000000000E+00 -0.15032831900E+04  0.15032831900E+04  0.50400001928E-02 0.  1.
    10030    2    1    2    0    0  0.00000000000E+00  0.00000000000E+00  0.11860927394E+03  0.31251756540E+04  0.31229240638E+04 0.  0.
        5    1    3    3  502    0  0.11457590225E+04 -0.50792500850E+03  0.99131388654E+03  0.15979602197E+04  0.46999998093E+01 0. -1.
       -5    1    3    3    0  502 -0.11457590225E+04  0.50792500850E+03 -0.87270461260E+03  0.15272154343E+04  0.46999998093E+01 0.  1.
</event>
<event>
 5   0  0.1054384E-06  0.3003644E+04  0.7818609E-02  0.8242691E-01
       -1   -1    0    0    0  501  0.00000000000E+00  0.00000000000E+00  0.10159257633E+04  0.10159257633E+04  0.50400001928E-02 0. -1.
        1   -1    0    0  501    0  0.00000000000E+00  0.00000000000E+00 -0.22201130684E+04  0.22201130684E+04  0.50400001928E-02 0.  1.
    10030    2    1    2    0    0  0.00000000000E+00  0.00000000000E+00 -0.12041873051E+04  0.32360388317E+04  0.30036444953E+04 0.  0.
        2    1    3    3  502    0  0.92300832871E+03 -0.11500067683E+04 -0.90873791096E+03  0.17321271699E+04  0.25500000920E-02 0.  1.
       -2    1    3    3    0  502 -0.92300832871E+03  0.11500067683E+04 -0.29544939412E+03  0.15039116618E+04  0.25500000920E-02 0. -1.
</event>
<event>
 5   0  0.1054384E-06  0.2637465E+04  0.7818609E-02  0.8355586E-01
       -1   -1    0    0    0  501  0.00000000000E+00  0.00000000000E+00  0.10228481440E+04  0.10228481440E+04  0.50400001928E-02 0.  1.
        1   -1    0    0  501    0  0.00000000000E+00  0.00000000000E+00 -0.17002081880E+04  0.17002081880E+04  0.50400001928E-02 0. -1.
    10030    2    1    2    0    0  0.00000000000E+00  0.00000000000E+00 -0.67736004403E+03  0.27230563320E+04  0.26374645321E+04 0.  0.
        2    1    3    3  502    0  0.89342860827E+03 -0.96787518632E+03 -0.27291244413E+03  0.13451684863E+04  0.25500000920E-02 0.  1.
       -2    1    3    3    0  502 -0.89342860827E+03  0.96787518632E+03 -0.40444759990E+03  0.13778878457E+04  0.25500000920E-02 0. -1.
</event>
<event>
 5   0  0.1091076E-06  0.3065329E+04  0.7818609E-02  0.8225318E-01
       -1   -1    0    0    0  501  0.00000000000E+00  0.00000000000E+00  0.17599571073E+04  0.17599571074E+04  0.50400001928E-02 0.  1.
        1   -1    0    0  501    0  0.00000000000E+00  0.00000000000E+00 -0.13347263689E+04  0.13347263689E+04  0.50400001928E-02 0. -1.
    10030    2    1    2    0    0  0.00000000000E+00  0.00000000000E+00  0.42523073846E+03  0.30946834763E+04  0.30653294500E+04 0.  0.
        3    1    3    3  502    0 -0.13599080688E+04 -0.70538415141E+03  0.16586433524E+03  0.15409178254E+04  0.10100000352E+00 0. -1.
       -3    1    3    3    0  502  0.13599080688E+04  0.70538415141E+03  0.25936640321E+03  0.15537656509E+04  0.10100000352E+00 0.  1.
</event>
<event>
 5   0  0.3113328E-06  0.2999981E+04  0.7818609E-02  0.8243736E-01
       -2   -1    0    0    0  501  0.00000000000E+00  0.00000000000E+00  0.10280168290E+04  0.10280168290E+04  0.25500000920E-02 0.  1.
        2   -1    0    0  501    0  0.00000000000E+00  0.00000000000E+00 -0.21886524269E+04  0.21886524269E+04  0.25500000920E-02 0. -1.
    10030    2    1    2    0    0  0.00000000000E+00  0.00000000000E+00 -0.11606355978E+04  0.32166692559E+04  0.29999810184E+04 0.  0.
        1    1    3    3  502    0 -0.10572767471E+04  0.10045992426E+04 -0.20439796784E+03  0.14726955855E+04  0.50400001928E-02 0.  1.
       -1    1    3    3    0  502  0.10572767471E+04 -0.10045992426E+04 -0.95623763001E+03  0.17439736704E+04  0.50400001928E-02 0. -1.
</event>
<event>
 5   0  0.1091076E-06  0.3011738E+04  0.7818609E-02  0.8240387E-01
       -1   -1    0    0    0  501  0.00000000000E+00  0.00000000000E+00  0.14092476336E+04  0.14092476336E+04  0.50400001928E-02 0.  1.
        1   -1    0    0  501    0  0.00000000000E+00  0.00000000000E+00 -0.16091152644E+04  0.16091152644E+04  0.50400001928E-02 0. -1.
    10030    2    1    2    0    0  0.00000000000E+00  0.00000000000E+00 -0.19986763081E+03  0.30183628980E+04  0.30117382878E+04 0.  0.
        3    1    3    3  502    0 -0.12421955434E+04  0.13365027221E+03 -0.94245512991E+03  0.15649708768E+04  0.10100000352E+00 0. -1.
       -3    1    3    3    0  502  0.12421955434E+04 -0.13365027221E+03  0.74258749910E+03  0.14533920212E+04  0.10100000352E+00 0.  1.
</event>
<event>
 5   0  0.2985941E-06  0.3010014E+04  0.7818609E-02  0.8240877E-01
       -2   -1    0    0    0  501  0.00000000000E+00  0.00000000000E+00  0.14107039980E+04  0.14107039980E+04  0.25500000920E-02 0.  1.
        2   -1    0    0  501    0  0.00000000000E+00  0.00000000000E+00 -0.16056142364E+04  0.16056142364E+04  0.25500000920E-02 0. -1.
    10030    2    1    2    0    0  0.00000000000E+00  0.00000000000E+00 -0.19491023840E+03  0.30163182344E+04  0.30100142342E+04 0.  0.
        3    1    3    3  502    0  0.35060005680E+03 -0.14111502501E+04  0.29166339683E+03  0.14830148264E+04  0.10100000352E+00 0. -1.
       -3    1    3    3    0  502 -0.35060005680E+03  0.14111502501E+04 -0.48657363523E+03  0.15333034080E+04  0.10100000352E+00 0.  1.
</event>
<event>
 5   0  0.1091075E-06  0.2998970E+04  0.7818609E-02  0.8244025E-01
       -1   -1    0    0    0  501  0.00000000000E+00  0.00000000000E+00  0.18283291411E+04  0.18283291411E+04  0.50400001928E-02 0. -1.
        1   -1    0    0  501    0  0.00000000000E+00  0.00000000000E+00 -0.12297869568E+04  0.12297869568E+04  0.50400001928E-02 0.  1.
    10030    2    1    2    0    0  0.00000000000E+00  0.00000000000E+00  0.59854218424E+03  0.30581160979E+04  0.29989700435E+04 0.  0.
        1    1    3    3  502    0 -0.12749489362E+04 -0.59279245470E+03  0.83066045801E+03  0.16330629139E+04  0.50400001928E-02 0. -1.
       -1    1    3    3    0  502  0.12749489362E+04  0.59279245470E+03 -0.23211827377E+03  0.14250531840E+04  0.50400001928E-02 0.  1.
</event>
<event>
 5   0  0.2970915E-06  0.2994125E+04  0.7818609E-02  0.8245411E-01
        2   -1    0    0  501    0  0.00000000000E+00  0.00000000000E+00  0.13357169046E+04  0.13357169046E+04  0.25500000920E-02 0.  1.
       -2   -1    0    0    0  501  0.00000000000E+00  0.00000000000E+00 -0.16778972376E+04  0.16778972376E+04  0.25500000920E-02 0. -1.
    10030    2    1    2    0    0  0.00000000000E+00  0.00000000000E+00 -0.34218033294E+03  0.30136141422E+04  0.29941247165E+04 0.  0.
        4    1    3    3  502    0 -0.11929043886E+04  0.72326561978E+03  0.37563991284E+03  0.14447286922E+04  0.12699999809E+01 0.  1.
       -4    1    3    3    0  502  0.11929043886E+04 -0.72326561978E+03 -0.71782024579E+03  0.15688854500E+04  0.12699999809E+01 0. -1.
</event>
<event>
 5   0  0.2970915E-06  0.3006343E+04  0.7818609E-02  0.8241922E-01
        2   -1    0    0  501    0  0.00000000000E+00  0.00000000000E+00  0.26218772720E+04  0.26218772720E+04  0.25500000920E-02 0. -1.
       -2   -1    0    0    0  501  0.00000000000E+00  0.00000000000E+00 -0.86179659335E+03  0.86179659335E+03  0.25500000920E-02 0.  1.
    10030    2    1    2    0    0  0.00000000000E+00  0.00000000000E+00  0.17600806787E+04  0.34836738654E+04  0.30063432280E+04 0.  0.
        4    1    3    3  502    0  0.61174736441E+03  0.58756333735E+03 -0.55798796977E+03  0.10152919287E+04  0.12699999809E+01 0.  1.
       -4    1    3    3    0  502 -0.61174736441E+03 -0.58756333735E+03  0.23180686484E+04  0.24683819366E+04  0.12699999809E+01 0. -1.
</event>
<event>
 5   0  0.1113245E-06  0.3009061E+04  0.7818609E-02  0.8241148E-01
       -1   -1    0    0    0  501  0.00000000000E+00  0.00000000000E+00  0.17051409543E+04  0.17051409543E+04  0.50400001928E-02 0.  1.
        1   -1    0    0  501    0  0.00000000000E+00  0.00000000000E+00 -0.13275221784E+04  0.13275221784E+04  0.50400001928E-02 0. -1.
    10030    2    1    2    0    0  0.00000000000E+00  0.00000000000E+00  0.37761877595E+03  0.30326631327E+04  0.30090612716E+04 0.  0.
        5    1    3    3  502    0  0.13619359979E+04  0.45237415162E+03  0.64410300724E+03  0.15730234611E+04  0.46999998093E+01 0.  1.
       -5    1    3    3    0  502 -0.13619359979E+04 -0.45237415162E+03 -0.26648423129E+03  0.14596396716E+04  0.46999998093E+01 0. -1.
</event>
<event>
 5   0  0.1091076E-06  0.3008396E+04  0.7818609E-02  0.8241337E-01
        1   -1    0    0  501    0  0.00000000000E+00  0.00000000000E+00  0.23464071522E+04  0.23464071522E+04  0.50400001928E-02 0. -1.
       -1   -1    0    0    0  501  0.00000000000E+00  0.00000000000E+00 -0.96428759270E+03  0.96428759271E+03  0.50400001928E-02 0.  1.
    10030    2    1    2    0    0  0.00000000000E+00  0.00000000000E+00  0.13821195595E+04  0.33106947450E+04  0.30083957880E+04 0.  0.
        3    1    3    3  502    0 -0.51079636364E+03 -0.79927130685E+03  0.19757854063E+04  0.21916832638E+04  0.10100000352E+00 0. -1.
       -3    1    3    3    0  502  0.51079636364E+03  0.79927130685E+03 -0.59366584676E+03  0.11190114811E+04  0.10100000352E+00 0.  1.
</event>
<event>
 5   0  0.1054384E-06  0.2971679E+04  0.7818609E-02  0.8251865E-01
        1   -1    0    0  501    0  0.00000000000E+00  0.00000000000E+00  0.24029697282E+04  0.24029697282E+04  0.50400001928E-02 0. -1.
       -1   -1    0    0    0  501  0.00000000000E+00  0.00000000000E+00 -0.91874578568E+03  0.91874578569E+03  0.50400001928E-02 0.  1.
    10030    2    1    2    0    0  0.00000000000E+00  0.00000000000E+00  0.14842239425E+04  0.33217155139E+04  0.29716785229E+04 0.  0.
        2    1    3    3  502    0 -0.14042266382E+04 -0.14077217979E+03  0.12616732687E+04  0.18930104847E+04  0.25500000920E-02 0.  1.
       -2    1    3    3    0  502  0.14042266382E+04  0.14077217979E+03  0.22255067375E+03  0.14287050292E+04  0.25500000920E-02 0. -1.
</event>
<event>
 5   0  0.2970915E-06  0.3059890E+04  0.7818609E-02  0.8226833E-01
       -2   -1    0    0    0  501  0.00000000000E+00  0.00000000000E+00  0.10663223823E+04  0.10663223823E+04  0.25500000920E-02 0.  1.
        2   -1    0    0  501    0  0.00000000000E+00  0.00000000000E+00 -0.21951443846E+04  0.21951443846E+04  0.25500000920E-02 0. -1.
    10030    2    1    2    0    0  0.00000000000E+00  0.00000000000E+00 -0.11288220023E+04  0.32614667670E+04  0.30598899260E+04 0.  0.
        4    1    3    3  502    0  0.14450365663E+04  0.28316609761E+03 -0.12182643607E+03  0.14775510178E+04  0.12699999809E+01 0.  1.
       -4    1    3    3    0  502 -0.14450365663E+04 -0.28316609761E+03 -0.10069955663E+04  0.17839157492E+04  0.12699999809E+01 0. -1.
</event>
<event>
 5   0  0.1091076E-06  0.2752503E+04  0.7818609E-02  0.8318168E-01
        1   -1    0    0  501    0  0.00000000000E+00  0.00000000000E+00  0.26888046098E+04  0.26888046098E+04  0.50400001928E-02 0. -1.
       -1   -1    0    0    0  501  0.00000000000E+00  0.00000000000E+00 -0.70442784653E+03  0.70442784655E+03  0.50400001928E-02 0.  1.
    10030    2    1    2    0    0  0.00000000000E+00  0.00000000000E+00  0.19843767633E+04  0.33932324564E+04  0.27525034722E+04 0.  0.
        3    1    3    3  502    0 -0.15471745667E+03  0.12223616381E+04  0.23629855383E+03  0.12545686440E+04  0.10100000352E+00 0.  1.
       -3    1    3    3    0  502  0.15471745667E+03 -0.12223616381E+04  0.17480782094E+04  0.21386638124E+04  0.10100000352E+00 0. -1.
</event>
<event>
 5   0  0.2862033E-06  0.2894158E+04  0.7818609E-02  0.8274618E-01
        2   -1    0    0  501    0  0.00000000000E+00  0.00000000000E+00  0.19540747144E+04  0.19540747144E+04  0.25500000920E-02 0.  1.
       -2   -1    0    0    0  501  0.00000000000E+00  0.00000000000E+00 -0.10716265358E+04  0.10716265358E+04  0.25500000920E-02 0. -1.
    10030    2    1    2    0    0  0.00000000000E+00  0.00000000000E+00  0.88244817864E+03  0.30257012502E+04  0.28941584731E+04 0.  0.
        2    1    3    3  502    0  0.11333976664E+04  0.77695360879E+03 -0.33036536093E+02  0.13745321361E+04  0.25500000920E-02 0. -1.
       -2    1    3    3    0  502 -0.11333976664E+04 -0.77695360879E+03  0.91548471473E+03  0.16511691141E+04  0.25500000920E-02 0.  1.
</event>
<event>
 5   0  0.2970915E-06  0.3016217E+04  0.7818609E-02  0.8239115E-01
       -2   -1    0    0    0  501  0.00000000000E+00  0.00000000000E+00  0.20976708459E+04  0.20976708459E+04  0.25500000920E-02 0.  1.
        2   -1    0    0  501    0  0.00000000000E+00  0.00000000000E+00 -0.10842459469E+04  0.10842459469E+04  0.25500000920E-02 0. -1.
    10030    2    1    2    0    0  0.00000000000E+00  0.00000000000E+00  0.10134248990E+04  0.31819167928E+04  0.30162169103E+04 0.  0.
        4    1    3    3  502    0  0.77803735087E+03 -0.48011001806E+03  0.17719948978E+04  0.19939446531E+04  0.12699999809E+01 0.  1.
       -4    1    3    3    0  502 -0.77803735087E+03  0.48011001806E+03 -0.75856999874E+03  0.11879721397E+04  0.12699999809E+01 0. -1.
</event>
<event>
 5   0  0.1113245E-06  0.2996120E+04  0.7818609E-02  0.8244840E-01
        1   -1    0    0  501    0  0.00000000000E+00  0.00000000000E+00  0.22014184454E+04  0.22014184454E+04  0.50400001928E-02 0.  1.
       -1   -1    0    0    0  501  0.00000000000E+00  0.00000000000E+00 -0.10194261613E+04  0.10194261613E+04  0.50400001928E-02 0. -1.
    10030    2    1    2    0    0  0.00000000000E+00  0.00000000000E+00  0.11819922841E+04  0.32208446067E+04  0.29961198609E+04 0.  0.
        5    1    3    3  502    0 -0.78895569427E+03  0.12660179077E+04  0.44317203223E+03  0.15561735026E+04  0.46999998093E+01 0.  1.
       -5    1    3    3    0  502  0.78895569427E+03 -0.12660179077E+04  0.73882025186E+03  0.16646711040E+04  0.46999998093E+01 0. -1.
</event>
<event>
 5   0  0.1054384E-06  0.2986063E+04  0.7818609E-02  0.8247722E-01
        1   -1    0    0  501    0  0.00000000000E+00  0.00000000000E+00  0.27431759748E+04  0.27431759748E+04  0.50400001928E-02 0.  1.
       -1   -1    0    0    0  501  0.00000000000E+00  0.00000000000E+00 -0.81261418457E+03  0.81261418458E+03  0.50400001928E-02 0. -1.
    10030    2    1    2    0    0  0.00000000000E+00  0.00000000000E+00  0.19305617902E+04  0.35557901594E+04  0.29860634340E+04 0.  0.
        2    1    3    3  502    0 -0.22887338053E+03 -0.12227800671E+04  0.19483684474E+04  0.23116474047E+04  0.25500000920E-02 0. -1.
       -2    1    3    3    0  502  0.22887338053E+03  0.12227800671E+04 -0.17806657187E+02  0.12441427547E+04  0.25500000920E-02 0.  1.
</event>
<event>
 5   0  0.2862033E-06  0.3015962E+04  0.7818609E-02  0.8239188E-01
        2   -1    0    0  501    0  0.00000000000E+00  0.00000000000E+00  0.16016344272E+04  0.16016344272E+04  0.25500000920E-02 0.  1.
       -2   -1    0    0    0  501  0.00000000000E+00  0.00000000000E+00 -0.14198035721E+04  0.14198035721E+04  0.25500000920E-02 0. -1.
    10030    2    1    2    0    0  0.00000000000E+00  0.00000000000E+00  0.18183085518E+03  0.30214379993E+04  0.30159617245E+04 0.  0.
        2    1    3    3  502    0 -0.27196362785E+03  0.13539035410E+04  0.69781014844E+03  0.15472420678E+04  0.25500000920E-02 0.  1.
       -2    1    3    3    0  502  0.27196362785E+03 -0.13539035410E+04 -0.51597929326E+03  0.14741959315E+04  0.25500000920E-02 0. -1.
</event>
<event>
 5   0  0.2985941E-06  0.3025112E+04  0.7818609E-02  0.8236596E-01
        2   -1    0    0  501    0  0.00000000000E+00  0.00000000000E+00  0.20608069565E+04  0.20608069565E+04  0.25500000920E-02 0.  1.
       -2   -1    0    0    0  501  0.00000000000E+00  0.00000000000E+00 -0.11101604255E+04  0.11101604255E+04  0.25500000920E-02 0. -1.
    10030    2    1    2    0    0  0.00000000000E+00  0.00000000000E+00  0.95064653103E+03  0.31709673820E+04  0.30251124460E+04 0.  0.
        3    1    3    3  502    0  0.14778794394E+04 -0.15391120336E+02  0.81248653253E+03  0.16865642294E+04  0.10100000352E+00 0.  1.
       -3    1    3    3    0  502 -0.14778794394E+04  0.15391120336E+02  0.13815999850E+03  0.14844031526E+04  0.10100000352E+00 0. -1.
</event>
<event>
 5   0  0.2948711E-06  0.3025889E+04  0.7818609E-02  0.8236377E-01
       -2   -1    0    0    0  501  0.00000000000E+00  0.00000000000E+00  0.10002359849E+04  0.10002359849E+04  0.25500000920E-02 0. -1.
        2   -1    0    0  501    0  0.00000000000E+00  0.00000000000E+00 -0.22884603794E+04  0.22884603794E+04  0.25500000920E-02 0.  1.
    10030    2    1    2    0    0  0.00000000000E+00  0.00000000000E+00 -0.12882243945E+04  0.32886963643E+04  0.30258885779E+04 0.  0.
        5    1    3    3  502    0  0.12250935169E+04 -0.65161611678E+03 -0.12994049803E+04  0.19010347397E+04  0.46999998093E+01 0.  1.
       -5    1    3    3    0  502 -0.12250935169E+04  0.65161611678E+03  0.11180585846E+02  0.13876616246E+04  0.46999998093E+01 0. -1.
</event>
<event>
 5   0  0.1054384E-06  0.2988876E+04  0.7818609E-02  0.8246915E-01
        1   -1    0    0  501    0  0.00000000000E+00  0.00000000000E+00  0.18270064573E+04  0.18270064573E+04  0.50400001928E-02 0.  1.
       -1   -1    0    0    0  501  0.00000000000E+00  0.00000000000E+00 -0.12224063017E+04  0.12224063017E+04  0.50400001928E-02 0. -1.
    10030    2    1    2    0    0  0.00000000000E+00  0.00000000000E+00  0.60460015557E+03  0.30494127591E+04  0.29888755121E+04 0.  0.
        2    1    3    3  502    0  0.18319669364E+03 -0.47191244096E+02 -0.12101406995E+04  0.12248381749E+04  0.25500000920E-02 0. -1.
       -2    1    3    3    0  502 -0.18319669364E+03  0.47191244096E+02  0.18147408551E+04  0.18245745842E+04  0.25500000920E-02 0.  1.
</event>
<event>
 5   0  0.2862033E-06  0.2994565E+04  0.7818609E-02  0.8245285E-01
       -2   -1    0    0    0  501  0.00000000000E+00  0.00000000000E+00  0.13165980705E+04  0.13165980705E+04  0.25500000920E-02 0. -1.
        2   -1    0    0  501    0  0.00000000000E+00  0.00000000000E+00 -0.17027630832E+04  0.17027630832E+04  0.25500000920E-02 0.  1.
    10030    2    1    2    0    0  0.00000000000E+00  0.00000000000E+00 -0.38616501270E+03  0.30193611538E+04  0.29945648031E+04 0.  0.
        2    1    3    3  502    0  0.10301872405E+04 -0.78494700677E+03  0.56442205380E+03  0.14127985733E+04  0.25500000920E-02 0. -1.
       -2    1    3    3    0  502 -0.10301872405E+04  0.78494700677E+03 -0.95058706650E+03  0.16065625805E+04  0.25500000920E-02 0.  1.
</event>
<event>
 5   0  0.1054384E-06  0.2967390E+04  0.7818609E-02  0.8253105E-01
        1   -1    0    0  501    0  0.00000000000E+00  0.00000000000E+00  0.13539419379E+04  0.13539419379E+04  0.50400001928E-02 0. -1.
       -1   -1    0    0    0  501  0.00000000000E+00  0.00000000000E+00 -0.16258823699E+04  0.16258823699E+04  0.50400001928E-02 0.  1.
    10030    2    1    2    0    0  0.00000000000E+00  0.00000000000E+00 -0.27194043204E+03  0.29798243078E+04  0.29673896453E+04 0.  0.
        2    1    3    3  502    0  0.49498056683E+03  0.59513775244E+03 -0.14070371781E+04  0.16059104354E+04  0.25500000920E-02 0.  1.
       -2    1    3    3    0  502 -0.49498056683E+03 -0.59513775244E+03  0.11350967461E+04  0.13739138724E+04  0.25500000920E-02 0. -1.
</event>
<event>
 5   0  0.2948711E-06  0.2985956E+04  0.7818609E-02  0.8247753E-01
       -2   -1    0    0    0  501  0.00000000000E+00  0.00000000000E+00  0.12937251079E+04  0.12937251079E+04  0.25500000920E-02 0.  1.
        2   -1    0    0  501    0  0.00000000000E+00  0.00000000000E+00 -0.17229191643E+04  0.17229191643E+04  0.25500000920E-02 0. -1.
    10030    2    1    2    0    0  0.00000000000E+00  0.00000000000E+00 -0.42919405640E+03  0.30166442722E+04  0.29859563170E+04 0.  0.
        5    1    3    3  502    0 -0.72715744865E+03 -0.72610034040E+02  0.11006784660E+04  0.13211908824E+04  0.46999998093E+01 0.  1.
       -5    1    3    3    0  502  0.72715744865E+03  0.72610034040E+02 -0.15298725224E+04  0.16954533898E+04  0.46999998093E+01 0. -1.
</event>
<event>
 5   0  0.1091075E-06  0.2983111E+04  0.7818609E-02  0.8248570E-01
       -1   -1    0    0    0  501  0.00000000000E+00  0.00000000000E+00  0.18050099277E+04  0.18050099277E+04  0.50400001928E-02 0. -1.
        1   -1    0    0  501    0  0.00000000000E+00  0.00000000000E+00 -0.12325350134E+04  0.12325350134E+04  0.50400001928E-02 0.  1.
    10030    2    1    2    0    0  0.00000000000E+00  0.00000000000E+00  0.57247491435E+03  0.30375449411E+04  0.29831110843E+04 0.  0.
        1    1    3    3  502    0 -0.14367239697E+04 -0.35621787411E+03  0.99392547489E+02  0.14835584982E+04  0.50400001928E-02 0.  1.
       -1    1    3    3    0  502  0.14367239697E+04  0.35621787411E+03  0.47308236686E+03  0.15539864429E+04  0.50400001928E-02 0. -1.
</event>
<event>
 5   0  0.1054384E-06  0.2990199E+04  0.7818609E-02  0.8246535E-01
        1   -1    0    0  501    0  0.00000000000E+00  0.00000000000E+00  0.13215997544E+04  0.13215997544E+04  0.50400001928E-02 0.  1.
       -1   -1    0    0    0  501  0.00000000000E+00  0.00000000000E+00 -0.16913759320E+04  0.16913759320E+04  0.50400001928E-02 0. -1.
    10030    2    1    2    0    0  0.00000000000E+00  0.00000000000E+00 -0.36977617753E+03  0.30129756864E+04  0.29901986666E+04 0.  0.
        2    1    3    3  502    0  0.12711156599E+04 -0.65858262131E+03  0.24950588405E+03  0.14531755833E+04  0.25500000920E-02 0.  1.
       -2    1    3    3    0  502 -0.12711156599E+04  0.65858262131E+03 -0.61928206158E+03  0.15598001031E+04  0.25500000920E-02 0. -1.
</event>
<event>
 5   0  0.1091075E-06  0.3012420E+04  0.7818609E-02  0.8240193E-01
       -1   -1    0    0    0  501  0.00000000000E+00  0.00000000000E+00  0.14391056449E+04  0.14391056449E+04  0.50400001928E-02 0.  1.
        1   -1    0    0  501    0  0.00000000000E+00  0.00000000000E+00 -0.15764431930E+04  0.15764431930E+04  0.50400001928E-02 0. -1.
    10030    2    1    2    0    0  0.00000000000E+00  0.00000000000E+00 -0.13733754806E+03  0.30155488379E+04  0.30124198233E+04 0.  0.
        1    1    3    3  502    0  0.45327404261E+03  0.12442881716E+04  0.64968226841E+03  0.14750584604E+04  0.50400001928E-02 0.  1.
       -1    1    3    3    0  502 -0.45327404261E+03 -0.12442881716E+04 -0.78701981647E+03  0.15404903775E+04  0.50400001928E-02 0. -1.
</event>
<event>
 5   0  0.2948711E-06  0.3244145E+04  0.7818609E-02  0.8177255E-01
        2   -1    0    0  501    0  0.00000000000E+00  0.00000000000E+00  0.13946869895E+04  0.13946869895E+04  0.25500000920E-02 0.  1.
       -2   -1    0    0    0  501  0.00000000000E+00  0.00000000000E+00 -0.18865308009E+04  0.18865308009E+04  0.25500000920E-02 0. -1.
    10030    2    1    2    0    0  0.00000000000E+00  0.00000000000E+00 -0.49184381140E+03  0.32812177904E+04  0.32441454735E+04 0.  0.
        5    1    3    3  502    0 -0.10610213100E+04  0.98256379865E+03  0.49725364686E+03  0.15292093114E+04  0.46999998093E+01 0.  1.
       -5    1    3    3    0  502  0.10610213100E+04 -0.98256379865E+03 -0.98909745826E+03  0.17520084790E+04  0.46999998093E+01 0. -1.
</event>
<event>
 5   0  0.1113245E-06  0.3066953E+04  0.7818609E-02  0.8224866E-01
       -1   -1    0    0    0  501  0.00000000000E+00  0.00000000000E+00  0.13134699727E+04  0.13134699728E+04  0.50400001928E-02 0.  1.
        1   -1    0    0  501    0  0.00000000000E+00  0.00000000000E+00 -0.17903336617E+04  0.17903336617E+04  0.50400001928E-02 0. -1.
    10030    2    1    2    0    0  0.00000000000E+00  0.00000000000E+00 -0.47686368894E+03  0.31038036344E+04  0.30669525629E+04 0.  0.
        5    1    3    3  502    0 -0.96250058994E+03  0.11694734827E+04 -0.48100291895E+03  0.15891700697E+04  0.46999998093E+01 0.  1.
       -5    1    3    3    0  502  0.96250058994E+03 -0.11694734827E+04  0.41392300090E+01  0.15146335648E+04  0.46999998093E+01 0. -1.
</event>
<event>
 5   0  0.1091076E-06  0.3007400E+04  0.7818609E-02  0.8241621E-01
       -1   -1    0    0    0  501  0.00000000000E+00  0.00000000000E+00  0.14386989637E+04  0.14386989637E+04  0.50400001928E-02 0.  1.
        1   -1    0    0  501    0  0.00000000000E+00  0.00000000000E+00 -0.15716376347E+04  0.15716376347E+04  0.50400001928E-02 0. -1.
    10030    2    1    2    0    0  0.00000000000E+00  0.00000000000E+00 -0.13293867098E+03  0.30103365984E+04  0.30073998313E+04 0.  0.
        3    1    3    3  502    0  0.14539831628E+04 -0.93019572690E+02 -0.43884571286E+03  0.15216127130E+04  0.10100000352E+00 0. -1.
       -3    1    3    3    0  502 -0.14539831628E+04  0.93019572690E+02  0.30590704188E+03  0.14887238854E+04  0.10100000352E+00 0.  1.
</event>
<event>
 5   0  0.3113328E-06  0.2985416E+04  0.7818609E-02  0.8247908E-01
       -2   -1    0    0    0  501  0.00000000000E+00  0.00000000000E+00  0.14630375052E+04  0.14630375052E+04  0.25500000920E-02 0. -1.
        2   -1    0    0  501    0  0.00000000000E+00  0.00000000000E+00 -0.15229799894E+04  0.15229799894E+04  0.25500000920E-02 0.  1.
    10030    2    1    2    0    0  0.00000000000E+00  0.00000000000E+00 -0.59942484142E+02  0.29860174946E+04  0.29854157795E+04 0.  0.
        1    1    3    3  502    0 -0.60697580492E+02 -0.12609128805E+04 -0.82674422548E+03  0.15090034801E+04  0.50400001928E-02 0.  1.
       -1    1    3    3    0  502  0.60697580492E+02  0.12609128805E+04  0.76680174134E+03  0.14770140145E+04  0.50400001928E-02 0. -1.
</event>
<event>
 5   0  0.1091076E-06  0.2958999E+04  0.7818609E-02  0.8255537E-01
        1   -1    0    0  501    0  0.00000000000E+00  0.00000000000E+00  0.16478691435E+04  0.16478691435E+04  0.50400001928E-02 0. -1.
       -1   -1    0    0    0  501  0.00000000000E+00  0.00000000000E+00 -0.13283326540E+04  0.13283326540E+04  0.50400001928E-02 0.  1.
    10030    2    1    2    0    0  0.00000000000E+00  0.00000000000E+00  0.31953648950E+03  0.29762017975E+04  0.29589987447E+04 0.  0.
        3    1    3    3  502    0 -0.21463925378E+03  0.14255222075E+04  0.49447129851E+03  0.15240359079E+04  0.10100000352E+00 0. -1.
       -3    1    3    3    0  502  0.21463925378E+03 -0.14255222075E+04 -0.17493480901E+03  0.14521658896E+04  0.10100000352E+00 0.  1.
</event>
<event>
 5   0  0.2985941E-06  0.2989059E+04  0.7818609E-02  0.8246862E-01
       -2   -1    0    0    0  501  0.00000000000E+00  0.00000000000E+00  0.17585229427E+04  0.17585229427E+04  0.25500000920E-02 0. -1.
        2   -1    0    0  501    0  0.00000000000E+00  0.00000000000E+00 -0.12701671064E+04  0.12701671064E+04  0.25500000920E-02 0.  1.
    10030    2    1    2    0    0  0.00000000000E+00  0.00000000000E+00  0.48835583630E+03  0.30286900492E+04  0.29890587132E+04 0.  0.
        3    1    3    3  502    0  0.39678137704E+03 -0.14225888264E+04  0.12180245360E+02  0.14769369651E+04  0.10100000352E+00 0.  1.
       -3    1    3    3    0  502 -0.39678137704E+03  0.14225888264E+04  0.47617559094E+03  0.15517530841E+04  0.10100000352E+00 0. -1.
</event>
<event>
 5   0  0.1091075E-06  0.2993345E+04  0.7818609E-02  0.8245634E-01
        1   -1    0    0  501    0  0.00000000000E+00  0.00000000000E+00  0.18267309407E+04  0.18267309407E+04  0.50400001928E-02 0. -1.
       -1   -1    0    0    0  501  0.00000000000E+00  0.00000000000E+00 -0.12262494830E+04  0.12262494830E+04  0.50400001928E-02 0.  1.
    10030    2    1    2    0    0  0.00000000000E+00  0.00000000000E+00  0.60048145769E+03  0.30529804237E+04  0.29933445319E+04 0.  0.
        1    1    3    3  502    0 -0.61268397467E+03  0.13641950769E+04  0.23889246752E+03  0.15144238085E+04  0.50400001928E-02 0.  1.
       -1    1    3    3    0  502  0.61268397467E+03 -0.13641950769E+04  0.36158899017E+03  0.15385566153E+04  0.50400001928E-02 0. -1.
</event>
<event>
 5   0  0.1091075E-06  0.2984460E+04  0.7818609E-02  0.8248182E-01
        1   -1    0    0  501    0  0.00000000000E+00  0.00000000000E+00  0.16316720489E+04  0.16316720489E+04  0.50400001928E-02 0.  1.
       -1   -1    0    0    0  501  0.00000000000E+00  0.00000000000E+00 -0.13647045424E+04  0.13647045424E+04  0.50400001928E-02 0. -1.
    10030    2    1    2    0    0  0.00000000000E+00  0.00000000000E+00  0.26696750651E+03  0.29963765913E+04  0.29844599222E+04 0.  0.
        1    1    3    3  502    0 -0.13398872841E+04 -0.11273112177E+03 -0.51620440608E+03  0.14403031725E+04  0.50400001928E-02 0. -1.
       -1    1    3    3    0  502  0.13398872841E+04  0.11273112177E+03  0.78317191258E+03  0.15560734188E+04  0.50400001928E-02 0.  1.
</event>
<event>
 5   0  0.3113328E-06  0.2993767E+04  0.7818609E-02  0.8245513E-01
        2   -1    0    0  501    0  0.00000000000E+00  0.00000000000E+00  0.20382407299E+04  0.20382407299E+04  0.25500000920E-02 0.  1.
       -2   -1    0    0    0  501  0.00000000000E+00  0.00000000000E+00 -0.10993108752E+04  0.10993108752E+04  0.25500000920E-02 0. -1.
    10030    2    1    2    0    0  0.00000000000E+00  0.00000000000E+00  0.93892985468E+03  0.31375516051E+04  0.29937669921E+04 0.  0.
        1    1    3    3  502    0  0.10743582476E+04 -0.75921955869E+03  0.12179067760E+04  0.17927512091E+04  0.50400001928E-02 0.  1.
       -1    1    3    3    0  502 -0.10743582476E+04  0.75921955869E+03 -0.27897692136E+03  0.13448003960E+04  0.50400001928E-02 0. -1.
</event>
<event>
 5   0  0.1091076E-06  0.2979386E+04  0.7818609E-02  0.8249642E-01
        1   -1    0    0  501    0  0.00000000000E+00  0.00000000000E+00  0.23756991982E+04  0.23756991982E+04  0.50400001928E-02 0.  1.
       -1   -1    0    0    0  501  0.00000000000E+00  0.00000000000E+00 -0.93411871147E+03  0.93411871149E+03  0.50400001928E-02 0. -1.
    10030    2    1    2    0    0  0.00000000000E+00  0.00000000000E+00  0.14415804867E+04  0.33098179097E+04  0.29793858923E+04 0.  0.
        3    1    3    3  502    0 -0.48797302821E+03  0.14055967566E+04  0.80216095034E+03  0.16903497031E+04  0.10100000352E+00 0. -1.
       -3    1    3    3    0  502  0.48797302821E+03 -0.14055967566E+04  0.63941953636E+03  0.16194682066E+04  0.10100000352E+00 0.  1.
</event>
<event>
 5   0  0.1091075E-06  0.2983486E+04  0.7818609E-02  0.8248462E-01
        1   -1    0    0  501    0  0.00000000000E+00  0.00000000000E+00  0.17629462401E+04  0.17629462401E+04  0.50400001928E-02 0.  1.
       -1   -1    0    0    0  501  0.00000000000E+00  0.00000000000E+00 -0.12622605196E+04  0.12622605197E+04  0.50400001928E-02 0. -1.
    10030    2    1    2    0    0  0.00000000000E+00  0.00000000000E+00  0.50068572045E+03  0.30252067597E+04  0.29834861737E+04 0.  0.
        1    1    3    3  502    0 -0.11978616166E+04 -0.29323004241E+03 -0.60070382438E+03  0.13717512146E+04  0.50400001928E-02 0. -1.
       -1    1    3    3    0  502  0.11978616166E+04  0.29323004241E+03  0.11013895448E+04  0.16534555451E+04  0.50400001928E-02 0.  1.
</event>
<event>
 5   0  0.2985941E-06  0.2999053E+04  0.7818609E-02  0.8244001E-01
       -2   -1    0    0    0  501  0.00000000000E+00  0.00000000000E+00  0.90641924273E+03  0.90641924273E+03  0.25500000920E-02 0. -1.
        2   -1    0    0  501    0  0.00000000000E+00  0.00000000000E+00 -0.24807285206E+04  0.24807285206E+04  0.25500000920E-02 0.  1.
    10030    2    1    2    0    0  0.00000000000E+00  0.00000000000E+00 -0.15743092779E+04  0.33871477634E+04  0.29990532287E+04 0.  0.
        3    1    3    3  502    0 -0.12481625464E+04  0.81550048777E+03 -0.60634645653E+03  0.16095362137E+04  0.10100000352E+00 0. -1.
       -3    1    3    3    0  502  0.12481625464E+04 -0.81550048777E+03 -0.96796282137E+03  0.17776115496E+04  0.10100000352E+00 0.  1.
</event>
<event>
 5   0  0.2948711E-06  0.2988224E+04  0.7818609E-02  0.8247102E-01
       -2   -1    0    0    0  501  0.00000000000E+00  0.00000000000E+00  0.10944844974E+04  0.10944844974E+04  0.25500000920E-02 0. -1.
        2   -1    0    0  501    0  0.00000000000E+00  0.00000000000E+00 -0.20396552675E+04  0.20396552675E+04  0.25500000920E-02 0.  1.
    10030    2    1    2    0    0  0.00000000000E+00  0.00000000000E+00 -0.94517077016E+03  0.31341397649E+04  0.29882242689E+04 0.  0.
        5    1    3    3  502    0 -0.26155055758E+03  0.33309497155E+03 -0.19753756716E+04  0.20202703008E+04  0.46999998093E+01 0.  1.
       -5    1    3    3    0  502  0.26155055758E+03 -0.33309497155E+03  0.10302049014E+04  0.11138694642E+04  0.46999998093E+01 0. -1.
</event>
<event>
 5   0  0.2862033E-06  0.2974383E+04  0.7818609E-02  0.8251084E-01
       -2   -1    0    0    0  501  0.00000000000E+00  0.00000000000E+00  0.10741489273E+04  0.10741489273E+04  0.25500000920E-02 0. -1.
        2   -1    0    0  501    0  0.00000000000E+00  0.00000000000E+00 -0.20590615045E+04  0.20590615045E+04  0.25500000920E-02 0.  1.
    10030    2    1    2    0    0  0.00000000000E+00  0.00000000000E+00 -0.98491257715E+03  0.31332104318E+04  0.29743831000E+04 0.  0.
        2    1    3    3  502    0 -0.33332777267E+03  0.10676023492E+04  0.54011948446E+03  0.12420190166E+04  0.25500000920E-02 0. -1.
       -2    1    3    3    0  502  0.33332777267E+03 -0.10676023492E+04 -0.15250320616E+04  0.18911914152E+04  0.25500000920E-02 0.  1.
</event>
<event>
 5   0  0.2862033E-06  0.3002930E+04  0.7818609E-02  0.8242895E-01
       -2   -1    0    0    0  501  0.00000000000E+00  0.00000000000E+00  0.10032469199E+04  0.10032469199E+04  0.25500000920E-02 0. -1.
        2   -1    0    0  501    0  0.00000000000E+00  0.00000000000E+00 -0.22471014595E+04  0.22471014595E+04  0.25500000920E-02 0.  1.
    10030    2    1    2    0    0  0.00000000000E+00  0.00000000000E+00 -0.12438545396E+04  0.32503483795E+04  0.30029303142E+04 0.  0.
        2    1    3    3  502    0  0.65529355479E+03 -0.11250904199E+04 -0.14313073664E+04  0.19349105595E+04  0.25500000920E-02 0.  1.
       -2    1    3    3    0  502 -0.65529355479E+03  0.11250904199E+04  0.18745282680E+03  0.13154378200E+04  0.25500000920E-02 0. -1.
</event>
<event>
 5   0  0.2985941E-06  0.3004687E+04  0.7818609E-02  0.8242394E-01
        2   -1    0    0  501    0  0.00000000000E+00  0.00000000000E+00  0.16486892206E+04  0.16486892206E+04  0.25500000920E-02 0.  1.
       -2   -1    0    0    0  501  0.00000000000E+00  0.00000000000E+00 -0.13689883730E+04  0.13689883730E+04  0.25500000920E-02 0. -1.
    10030    2    1    2    0    0  0.00000000000E+00  0.00000000000E+00  0.27970084758E+03  0.30176775937E+04  0.30046872541E+04 0.  0.
        3    1    3    3  502    0 -0.81944321612E+03 -0.95237323782E+03 -0.68744285699E+03  0.14321590905E+04  0.10100000352E+00 0. -1.
       -3    1    3    3    0  502  0.81944321612E+03  0.95237323782E+03  0.96714370457E+03  0.15855185032E+04  0.10100000352E+00 0.  1.
</event>
<event>
 5   0  0.1054384E-06  0.2984590E+04  0.7818609E-02  0.8248145E-01
       -1   -1    0    0    0  501  0.00000000000E+00  0.00000000000E+00  0.11208289724E+04  0.11208289724E+04  0.50400001928E-02 0.  1.
        1   -1    0    0  501    0  0.00000000000E+00  0.00000000000E+00 -0.19868732030E+04  0.19868732030E+04  0.50400001928E-02 0. -1.
    10030    2    1    2    0    0  0.00000000000E+00  0.00000000000E+00 -0.86604423053E+03  0.31077021754E+04  0.29845904580E+04 0.  0.
        2    1    3    3  502    0 -0.14093946542E+04  0.44828528796E+03 -0.64020729817E+03  0.16115887737E+04  0.25500000920E-02 0. -1.
       -2    1    3    3    0  502  0.14093946542E+04 -0.44828528796E+03 -0.22583693236E+03  0.14961134017E+04  0.25500000920E-02 0.  1.
</event>
<event>
 5   0  0.3113328E-06  0.2972246E+04  0.7818609E-02  0.8251701E-01
       -2   -1    0    0    0  501  0.00000000000E+00  0.00000000000E+00  0.10757831005E+04  0.10757831005E+04  0.25500000920E-02 0. -1.
        2   -1    0    0  501    0  0.00000000000E+00  0.00000000000E+00 -0.20529810044E+04  0.20529810044E+04  0.25500000920E-02 0.  1.
    10030    2    1    2    0    0  0.00000000000E+00  0.00000000000E+00 -0.97719790391E+03  0.31287641049E+04  0.29722464704E+04 0.  0.
        1    1    3    3  502    0  0.17739842847E+02 -0.13984536295E+04  0.40434572125E+02  0.13991505318E+04  0.50400001928E-02 0.  1.
       -1    1    3    3    0  502 -0.17739842847E+02  0.13984536295E+04 -0.10176324760E+04  0.17296135731E+04  0.50400001928E-02 0. -1.
</event>
<event>
 5   0  0.1091076E-06  0.3063691E+04  0.7818609E-02  0.8225774E-01
        1   -1    0    0  501    0  0.00000000000E+00  0.00000000000E+00  0.16429869743E+04  0.16429869743E+04  0.50400001928E-02 0.  1.
       -1   -1    0    0    0  501  0.00000000000E+00  0.00000000000E+00 -0.14282221218E+04  0.14282221218E+04  0.50400001928E-02 0. -1.
    10030    2    1    2    0    0  0.00000000000E+00  0.00000000000E+00  0.21476485243E+03  0.30712090961E+04  0.30636908085E+04 0.  0.
        3    1    3    3  502    0  0.26250272726E+03  0.13309929960E+04 -0.60577062886E+03  0.14857348694E+04  0.10100000352E+00 0. -1.
       -3    1    3    3    0  502 -0.26250272726E+03 -0.13309929960E+04  0.82053548129E+03  0.15854742267E+04  0.10100000352E+00 0.  1.
</event>
<event>
 5   0  0.1091076E-06  0.3015658E+04  0.7818609E-02  0.8239274E-01
        1   -1    0    0  501    0  0.00000000000E+00  0.00000000000E+00  0.19468390249E+04  0.19468390249E+04  0.50400001928E-02 0. -1.
       -1   -1    0    0    0  501  0.00000000000E+00  0.00000000000E+00 -0.11678149585E+04  0.11678149585E+04  0.50400001928E-02 0.  1.
    10030    2    1    2    0    0  0.00000000000E+00  0.00000000000E+00  0.77902406642E+03  0.31146539834E+04  0.30156576298E+04 0.  0.
        3    1    3    3  502    0 -0.66307143013E+03  0.78506766054E+03 -0.75013842438E+03  0.12722824447E+04  0.10100000352E+00 0.  1.
       -3    1    3    3    0  502  0.66307143013E+03 -0.78506766054E+03  0.15291624908E+04  0.18423715387E+04  0.10100000352E+00 0. -1.
</event>
<event>
 5   0  0.1097402E-06  0.3006871E+04  0.7818609E-02  0.8241771E-01
       -1   -1    0    0    0  501  0.00000000000E+00  0.00000000000E+00  0.88889964222E+03  0.88889964223E+03  0.50400001928E-02 0. -1.
        1   -1    0    0  501    0  0.00000000000E+00  0.00000000000E+00 -0.25428276515E+04  0.25428276515E+04  0.50400001928E-02 0.  1.
    10030    2    1    2    0    0  0.00000000000E+00  0.00000000000E+00 -0.16539280093E+04  0.34317272937E+04  0.30068711909E+04 0.  0.
        4    1    3    3  502    0 -0.60624529568E+03  0.12170511935E+04 -0.94780727160E+02  0.13629864142E+04  0.12699999809E+01 0. -1.
       -4    1    3    3    0  502  0.60624529568E+03 -0.12170511935E+04 -0.15591472821E+04  0.20687408795E+04  0.12699999809E+01 0.  1.
</event>
<event>
 5   0  0.2970915E-06  0.2982469E+04  0.7818609E-02  0.8248755E-01
       -2   -1    0    0    0  501  0.00000000000E+00  0.00000000000E+00  0.14763634222E+04  0.14763634222E+04  0.25500000920E-02 0.  1.
        2   -1    0    0  501    0  0.00000000000E+00  0.00000000000E+00 -0.15062558011E+04  0.15062558011E+04  0.25500000920E-02 0. -1.
    10030    2    1    2    0    0  0.00000000000E+00  0.00000000000E+00 -0.29892378880E+02  0.29826192233E+04  0.29824694260E+04 0.  0.
        4    1    3    3  502    0  0.25001040686E+03 -0.41283233702E+03  0.13960972554E+04  0.14771678651E+04  0.12699999809E+01 0.  1.
       -4    1    3    3    0  502 -0.25001040686E+03  0.41283233702E+03 -0.14259896343E+04  0.15054513583E+04  0.12699999809E+01 0. -1.
</event>
<event>
 5   0  0.1091076E-06  0.2920650E+04  0.7818609E-02  0.8266760E-01
       -1   -1    0    0    0  501  0.00000000000E+00  0.00000000000E+00  0.13524995524E+04  0.13524995524E+04  0.50400001928E-02 0. -1.
        1   -1    0    0  501    0  0.00000000000E+00  0.00000000000E+00 -0.15767466800E+04  0.15767466800E+04  0.50400001928E-02 0.  1.
    10030    2    1    2    0    0  0.00000000000E+00  0.00000000000E+00 -0.22424712759E+03  0.29292462325E+04  0.29206500503E+04 0.  0.
        3    1    3    3  502    0  0.68963792842E+03  0.13799773566E+03  0.11714499698E+04  0.13663597218E+04  0.10100000352E+00 0. -1.
       -3    1    3    3    0  502 -0.68963792842E+03 -0.13799773566E+03 -0.13956970974E+04  0.15628865107E+04  0.10100000352E+00 0.  1.
</event>
<event>
 5   0  0.2948711E-06  0.3004702E+04  0.7818609E-02  0.8242389E-01
        2   -1    0    0  501    0  0.00000000000E+00  0.00000000000E+00  0.16291080665E+04  0.16291080665E+04  0.25500000920E-02 0.  1.
       -2   -1    0    0    0  501  0.00000000000E+00  0.00000000000E+00 -0.13854565780E+04  0.13854565780E+04  0.25500000920E-02 0. -1.
    10030    2    1    2    0    0  0.00000000000E+00  0.00000000000E+00  0.24365148848E+03  0.30145646445E+04  0.30047019732E+04 0.  0.
        5    1    3    3  502    0  0.87078451012E+03 -0.24073982370E+01  0.13500847625E+04  0.16065560726E+04  0.46999998093E+01 0.  1.
       -5    1    3    3    0  502 -0.87078451012E+03  0.24073982370E+01 -0.11064332740E+04  0.14080085719E+04  0.46999998093E+01 0. -1.
</event>
<event>
 5   0  0.1091076E-06  0.2720402E+04  0.7818609E-02  0.8328416E-01
       -1   -1    0    0    0  501  0.00000000000E+00  0.00000000000E+00  0.75592127865E+03  0.75592127867E+03  0.50400001928E-02 0.  1.
        1   -1    0    0  501    0  0.00000000000E+00  0.00000000000E+00 -0.24475384384E+04  0.24475384384E+04  0.50400001928E-02 0. -1.
    10030    2    1    2    0    0  0.00000000000E+00  0.00000000000E+00 -0.16916171598E+04  0.32034597171E+04  0.27204017247E+04 0.  0.
        3    1    3    3  502    0 -0.96885299278E+03  0.52722705100E+03  0.91451637282E+02  0.11068007486E+04  0.10100000352E+00 0. -1.
       -3    1    3    3    0  502  0.96885299278E+03 -0.52722705100E+03 -0.17830687970E+04  0.20966589685E+04  0.10100000352E+00 0.  1.
</event>
<event>
 5   0  0.3113328E-06  0.2909187E+04  0.7818609E-02  0.8270149E-01
        2   -1    0    0  501    0  0.00000000000E+00  0.00000000000E+00  0.15069145172E+04  0.15069145172E+04  0.25500000920E-02 0.  1.
       -2   -1    0    0    0  501  0.00000000000E+00  0.00000000000E+00 -0.14040892413E+04  0.14040892413E+04  0.25500000920E-02 0. -1.
    10030    2    1    2    0    0  0.00000000000E+00  0.00000000000E+00  0.10282527592E+03  0.29110037585E+04  0.29091871450E+04 0.  0.
        1    1    3    3  502    0 -0.74944120042E+03  0.11271474965E+04  0.58439792020E+03  0.14743284983E+04  0.50400001928E-02 0.  1.
       -1    1    3    3    0  502  0.74944120042E+03 -0.11271474965E+04 -0.48157264427E+03  0.14366752602E+04  0.50400001928E-02 0. -1.
</event>
<event>
 5   0  0.1091076E-06  0.2958816E+04  0.7818609E-02  0.8255590E-01
       -1   -1    0    0    0  501  0.00000000000E+00  0.00000000000E+00  0.10904084581E+04  0.10904084581E+04  0.50400001928E-02 0.  1.
        1   -1    0    0  501    0  0.00000000000E+00  0.00000000000E+00 -0.20071822195E+04  0.20071822195E+04  0.50400001928E-02 0. -1.
    10030    2    1    2    0    0  0.00000000000E+00  0.00000000000E+00 -0.91677376139E+03  0.30975906776E+04  0.29588162965E+04 0.  0.
        3    1    3    3  502    0  0.93347663794E+03  0.98469166822E+03 -0.10756615884E+04  0.17314861183E+04  0.10100000352E+00 0. -1.
       -3    1    3    3    0  502 -0.93347663794E+03 -0.98469166822E+03  0.15888782700E+03  0.13661045592E+04  0.10100000352E+00 0.  1.
</event>
<event>
 5   0  0.2948711E-06  0.3007089E+04  0.7818609E-02  0.8241709E-01
        2   -1    0    0  501    0  0.00000000000E+00  0.00000000000E+00  0.23990112628E+04  0.23990112628E+04  0.25500000920E-02 0. -1.
       -2   -1    0    0    0  501  0.00000000000E+00  0.00000000000E+00 -0.94232409414E+03  0.94232409414E+03  0.25500000920E-02 0.  1.
    10030    2    1    2    0    0  0.00000000000E+00  0.00000000000E+00  0.14566871686E+04  0.33413353569E+04  0.30070890343E+04 0.  0.
        5    1    3    3  502    0 -0.61935454687E+03  0.13661775806E+04  0.61403631846E+03  0.16208343305E+04  0.46999998093E+01 0.  1.
       -5    1    3    3    0  502  0.61935454687E+03 -0.13661775806E+04  0.84265085016E+03  0.17205010264E+04  0.46999998093E+01 0. -1.
</event>
<event>
 5   0  0.2985941E-06  0.2989494E+04  0.7818609E-02  0.8246737E-01
       -2   -1    0    0    0  501  0.00000000000E+00  0.00000000000E+00  0.15611334027E+04  0.15611334027E+04  0.25500000920E-02 0.  1.
        2   -1    0    0  501    0  0.00000000000E+00  0.00000000000E+00 -0.14311835624E+04  0.14311835624E+04  0.25500000920E-02 0. -1.
    10030    2    1    2    0    0  0.00000000000E+00  0.00000000000E+00  0.12994984036E+03  0.29923169651E+04  0.29894939135E+04 0.  0.
        3    1    3    3  502    0 -0.12937579492E+04  0.32767947884E+03 -0.60877659537E+03  0.14668989145E+04  0.10100000352E+00 0. -1.
       -3    1    3    3    0  502  0.12937579492E+04 -0.32767947884E+03  0.73872643574E+03  0.15254180506E+04  0.10100000352E+00 0.  1.
</event>
<event>
 5   0  0.2985941E-06  0.2994212E+04  0.7818609E-02  0.8245386E-01
        2   -1    0    0  501    0  0.00000000000E+00  0.00000000000E+00  0.23662688567E+04  0.23662688567E+04  0.25500000920E-02 0.  1.
       -2   -1    0    0    0  501  0.00000000000E+00  0.00000000000E+00 -0.94719866818E+03  0.94719866818E+03  0.25500000920E-02 0. -1.
    10030    2    1    2    0    0  0.00000000000E+00  0.00000000000E+00  0.14190701885E+04  0.33134675249E+04  0.29942122234E+04 0.  0.
        3    1    3    3  502    0 -0.10135223620E+04 -0.76354955771E+02 -0.50688045659E+03  0.11357752704E+04  0.10100000352E+00 0. -1.
       -3    1    3    3    0  502  0.10135223620E+04  0.76354955771E+02  0.19259506451E+04  0.21776922544E+04  0.10100000352E+00 0.  1.
</event>
<event>
 5   0  0.1091075E-06  0.3005157E+04  0.7818609E-02  0.8242260E-01
        1   -1    0    0  501    0  0.00000000000E+00  0.00000000000E+00  0.16395550040E+04  0.16395550040E+04  0.50400001928E-02 0.  1.
       -1   -1    0    0    0  501  0.00000000000E+00  0.00000000000E+00 -0.13770454787E+04  0.13770454787E+04  0.50400001928E-02 0. -1.
    10030    2    1    2    0    0  0.00000000000E+00  0.00000000000E+00  0.26250952530E+03  0.30166004828E+04  0.30051567716E+04 0.  0.
        1    1    3    3  502    0 -0.12768751302E+04 -0.66285020311E+03 -0.30394124366E+03  0.14704287706E+04  0.50400001928E-02 0. -1.
       -1    1    3    3    0  502  0.12768751302E+04  0.66285020311E+03  0.56645076897E+03  0.15461717122E+04  0.50400001928E-02 0.  1.
</event>
<event>
 5   0  0.1097402E-06  0.2977826E+04  0.7818609E-02  0.8250091E-01
       -1   -1    0    0    0  501  0.00000000000E+00  0.00000000000E+00  0.22430684821E+04  0.22430684821E+04  0.50400001928E-02 0. -1.
        1   -1    0    0  501    0  0.00000000000E+00  0.00000000000E+00 -0.98831674662E+03  0.98831674663E+03  0.50400001928E-02 0.  1.
    10030    2    1    2    0    0  0.00000000000E+00  0.00000000000E+00  0.12547517354E+04  0.32313852287E+04  0.29778261498E+04 0.  0.
        4    1    3    3  502    0  0.51113913619E+03 -0.13620920710E+03 -0.88291007493E+03  0.10292463155E+04  0.12699999809E+01 0.  1.
       -4    1    3    3    0  502 -0.51113913619E+03  0.13620920710E+03  0.21376618104E+04  0.22021389132E+04  0.12699999809E+01 0. -1.
</event>
<event>
 5   0  0.1091075E-06  0.2994368E+04  0.7818609E-02  0.8245341E-01
       -1   -1    0    0    0  501  0.00000000000E+00  0.00000000000E+00  0.18036602292E+04  0.18036602292E+04  0.50400001928E-02 0.  1.
        1   -1    0    0  501    0  0.00000000000E+00  0.00000000000E+00 -0.12427835634E+04  0.12427835635E+04  0.50400001928E-02 0. -1.
    10030    2    1    2    0    0  0.00000000000E+00  0.00000000000E+00  0.56087666575E+03  0.30464437927E+04  0.29943675706E+04 0.  0.
        1    1    3    3  502    0 -0.11659898299E+03 -0.13723476971E+04  0.87769626866E+03  0.16331822509E+04  0.50400001928E-02 0.  1.
       -1    1    3    3    0  502  0.11659898299E+03  0.13723476971E+04 -0.31681960291E+03  0.14132615418E+04  0.50400001928E-02 0. -1.
</event>
<event>
 5   0  0.9749500E-07  0.2996529E+04  0.7818609E-02  0.8244723E-01
        3   -1    0    0  501    0  0.00000000000E+00  0.00000000000E+00  0.10166106410E+04  0.10166106460E+04  0.10100000352E+00 0. -1.
       -3   -1    0    0    0  501  0.00000000000E+00  0.00000000000E+00 -0.22081189282E+04  0.22081189305E+04  0.10100000352E+00 0.  1.
    10030    2    1    2    0    0  0.00000000000E+00  0.00000000000E+00 -0.11915082872E+04  0.32247295765E+04  0.29965294664E+04 0.  0.
        3    1    3    3  502    0 -0.64613877572E+03 -0.63360127456E+03  0.68927171584E+03  0.11375594055E+04  0.10100000352E+00 0. -1.
       -3    1    3    3    0  502  0.64613877572E+03  0.63360127456E+03 -0.18807800030E+04  0.20871701710E+04  0.10100000352E+00 0.  1.
</event>
<event>
 5   0  0.1113245E-06  0.3010002E+04  0.7818609E-02  0.8240880E-01
        1   -1    0    0  501    0  0.00000000000E+00  0.00000000000E+00  0.24370509048E+04  0.24370509048E+04  0.50400001928E-02 0. -1.
       -1   -1    0    0    0  501  0.00000000000E+00  0.00000000000E+00 -0.92941364889E+03  0.92941364891E+03  0.50400001928E-02 0.  1.
    10030    2    1    2    0    0  0.00000000000E+00  0.00000000000E+00  0.15076372559E+04  0.33664645537E+04  0.30100022418E+04 0.  0.
        5    1    3    3  502    0 -0.43149301977E+03 -0.60274069913E+03 -0.71107331060E+03  0.10271951711E+04  0.46999998093E+01 0.  1.
       -5    1    3    3    0  502  0.43149301977E+03  0.60274069913E+03  0.22187105665E+04  0.23392693826E+04  0.46999998093E+01 0. -1.
</event>
<event>
 5   0  0.1097402E-06  0.2987941E+04  0.7818609E-02  0.8247183E-01
        1   -1    0    0  501    0  0.00000000000E+00  0.00000000000E+00  0.16137269959E+04  0.16137269959E+04  0.50400001928E-02 0.  1.
       -1   -1    0    0    0  501  0.00000000000E+00  0.00000000000E+00 -0.13831009010E+04  0.13831009010E+04  0.50400001928E-02 0. -1.
    10030    2    1    2    0    0  0.00000000000E+00  0.00000000000E+00  0.23062609485E+03  0.29968278969E+04  0.29879406032E+04 0.  0.
        4    1    3    3  502    0 -0.80032136926E+03  0.10847126241E+04  0.76130165262E+03  0.15481271234E+04  0.12699999809E+01 0.  1.
       -4    1    3    3    0  502  0.80032136926E+03 -0.10847126241E+04 -0.53067555777E+03  0.14487007736E+04  0.12699999809E+01 0. -1.
</event>
<event>
 5   0  0.1054384E-06  0.2998478E+04  0.7818609E-02  0.8244166E-01
        1   -1    0    0  501    0  0.00000000000E+00  0.00000000000E+00  0.18863338231E+04  0.18863338231E+04  0.50400001928E-02 0. -1.
       -1   -1    0    0    0  501  0.00000000000E+00  0.00000000000E+00 -0.11915802113E+04  0.11915802113E+04  0.50400001928E-02 0.  1.
    10030    2    1    2    0    0  0.00000000000E+00  0.00000000000E+00  0.69475361186E+03  0.30779140344E+04  0.29984783177E+04 0.  0.
        2    1    3    3  502    0  0.12813697390E+04 -0.33655101816E+03  0.10677833929E+04  0.17015687967E+04  0.25500000920E-02 0. -1.
       -2    1    3    3    0  502 -0.12813697390E+04  0.33655101816E+03 -0.37302978100E+03  0.13763452377E+04  0.25500000920E-02 0.  1.
</event>
<event>
 5   0  0.2862033E-06  0.2996256E+04  0.7818609E-02  0.8244801E-01
        2   -1    0    0  501    0  0.00000000000E+00  0.00000000000E+00  0.19119275645E+04  0.19119275645E+04  0.25500000920E-02 0.  1.
       -2   -1    0    0    0  501  0.00000000000E+00  0.00000000000E+00 -0.11738870511E+04  0.11738870511E+04  0.25500000920E-02 0. -1.
    10030    2    1    2    0    0  0.00000000000E+00  0.00000000000E+00  0.73804051340E+03  0.30858146157E+04  0.29962556705E+04 0.  0.
        2    1    3    3  502    0  0.92746319651E+03  0.81917628776E+03  0.12387436957E+04  0.17509208191E+04  0.25500000920E-02 0.  1.
       -2    1    3    3    0  502 -0.92746319651E+03 -0.81917628776E+03 -0.50070318225E+03  0.13348937965E+04  0.25500000920E-02 0. -1.
</event>
<event>
 5   0  0.1113245E-06  0.2969134E+04  0.7818609E-02  0.8252600E-01
        1   -1    0    0  501    0  0.00000000000E+00  0.00000000000E+00  0.24752794305E+04  0.24752794305E+04  0.50400001928E-02 0.  1.
       -1   -1    0    0    0  501  0.00000000000E+00  0.00000000000E+00 -0.89038009057E+03  0.89038009059E+03  0.50400001928E-02 0. -1.
    10030    2    1    2    0    0  0.00000000000E+00  0.00000000000E+00  0.15848993399E+04  0.33656595211E+04  0.29691342331E+04 0.  0.
        5    1    3    3  502    0 -0.22384142837E+03  0.13170521680E+04  0.58538072913E+02  0.13372285497E+04  0.46999998093E+01 0. -1.
       -5    1    3    3    0  502  0.22384142837E+03 -0.13170521680E+04  0.15263612670E+04  0.20284309714E+04  0.46999998093E+01 0.  1.
</event>
<event>
 5   0  0.1091076E-06  0.3030545E+04  0.7818609E-02  0.8235062E-01
       -1   -1    0    0    0  501  0.00000000000E+00  0.00000000000E+00  0.13472228154E+04  0.13472228154E+04  0.50400001928E-02 0.  1.
        1   -1    0    0  501    0  0.00000000000E+00  0.00000000000E+00 -0.17042847599E+04  0.17042847599E+04  0.50400001928E-02 0. -1.
    10030    2    1    2    0    0  0.00000000000E+00  0.00000000000E+00 -0.35706194452E+03  0.30515075753E+04  0.30305453717E+04 0.  0.
        3    1    3    3  502    0 -0.88146654955E+03 -0.11934383838E+04 -0.48851236746E+03  0.15620252230E+04  0.10100000352E+00 0. -1.
       -3    1    3    3    0  502  0.88146654955E+03  0.11934383838E+04  0.13145042293E+03  0.14894823523E+04  0.10100000352E+00 0.  1.
</event>
<event>
 5   0  0.2862033E-06  0.2981794E+04  0.7818609E-02  0.8248949E-01
       -2   -1    0    0    0  501  0.00000000000E+00  0.00000000000E+00  0.13729967184E+04  0.13729967184E+04  0.25500000920E-02 0.  1.
        2   -1    0    0  501    0  0.00000000000E+00  0.00000000000E+00 -0.16189216884E+04  0.16189216884E+04  0.25500000920E-02 0. -1.
    10030    2    1    2    0    0  0.00000000000E+00  0.00000000000E+00 -0.24592496996E+03  0.29919184068E+04  0.29817942018E+04 0.  0.
        2    1    3    3  502    0  0.44204651153E+03 -0.92604754678E+03 -0.12082100352E+04  0.15851626625E+04  0.25500000920E-02 0. -1.
       -2    1    3    3    0  502 -0.44204651153E+03  0.92604754678E+03  0.96228506526E+03  0.14067557443E+04  0.25500000920E-02 0.  1.
</event>
<event>
 5   0  0.1054384E-06  0.2959893E+04  0.7818609E-02  0.8255277E-01
        1   -1    0    0  501    0  0.00000000000E+00  0.00000000000E+00  0.21751492294E+04  0.21751492294E+04  0.50400001928E-02 0.  1.
       -1   -1    0    0    0  501  0.00000000000E+00  0.00000000000E+00 -0.10069385776E+04  0.10069385776E+04  0.50400001928E-02 0. -1.
    10030    2    1    2    0    0  0.00000000000E+00  0.00000000000E+00  0.11682106518E+04  0.31820878070E+04  0.29598930191E+04 0.  0.
        2    1    3    3  502    0 -0.73803354028E+03 -0.12637950711E+04  0.34766311586E+03  0.15042410480E+04  0.25500000920E-02 0. -1.
       -2    1    3    3    0  502  0.73803354028E+03  0.12637950711E+04  0.82054753591E+03  0.16778467591E+04  0.25500000920E-02 0.  1.
</event>
<event>
 5   0  0.1113245E-06  0.2989508E+04  0.7818609E-02  0.8246733E-01
        1   -1    0    0  501    0  0.00000000000E+00  0.00000000000E+00  0.17405064183E+04  0.17405064183E+04  0.50400001928E-02 0.  1.
       -1   -1    0    0    0  501  0.00000000000E+00  0.00000000000E+00 -0.12837011714E+04  0.12837011714E+04  0.50400001928E-02 0. -1.
    10030    2    1    2    0    0  0.00000000000E+00  0.00000000000E+00  0.45680524684E+03  0.30242075897E+04  0.29895084064E+04 0.  0.
        5    1    3    3  502    0 -0.26207015769E+03 -0.91756377979E+03  0.13922624977E+04  0.16879043249E+04  0.46999998093E+01 0.  1.
       -5    1    3    3    0  502  0.26207015769E+03  0.91756377979E+03 -0.93545725081E+03  0.13363032648E+04  0.46999998093E+01 0. -1.
</event>
<event>
 5   0  0.3113328E-06  0.3042295E+04  0.7818609E-02  0.8231755E-01
        2   -1    0    0  501    0  0.00000000000E+00  0.00000000000E+00  0.10216532194E+04  0.10216532194E+04  0.25500000920E-02 0. -1.
       -2   -1    0    0    0  501  0.00000000000E+00  0.00000000000E+00 -0.22648479144E+04  0.22648479144E+04  0.25500000920E-02 0.  1.
    10030    2    1    2    0    0  0.00000000000E+00  0.00000000000E+00 -0.12431946950E+04  0.32865011338E+04  0.30422946360E+04 0.  0.
        1    1    3    3  502    0  0.13966000402E+04  0.86667411245E+02  0.22851007775E+02  0.13994731441E+04  0.50400001928E-02 0.  1.
       -1    1    3    3    0  502 -0.13966000402E+04 -0.86667411245E+02 -0.12660457028E+04  0.18870279897E+04  0.50400001928E-02 0. -1.
</event>
<event>
 5   0  0.2862033E-06  0.2999590E+04  0.7818609E-02  0.8243848E-01
       -2   -1    0    0    0  501  0.00000000000E+00  0.00000000000E+00  0.98282714578E+03  0.98282714578E+03  0.25500000920E-02 0. -1.
        2   -1    0    0  501    0  0.00000000000E+00  0.00000000000E+00 -0.22886889588E+04  0.22886889588E+04  0.25500000920E-02 0.  1.
    10030    2    1    2    0    0  0.00000000000E+00  0.00000000000E+00 -0.13058618130E+04  0.32715161046E+04  0.29995903967E+04 0.  0.
        2    1    3    3  502    0 -0.10155753302E+04  0.10508949917E+04 -0.28531067391E+03  0.14890183732E+04  0.25500000920E-02 0. -1.
       -2    1    3    3    0  502  0.10155753302E+04 -0.10508949917E+04 -0.10205511391E+04  0.17824977314E+04  0.25500000920E-02 0.  1.
</event>
<event>
 5   0  0.2970915E-06  0.2997652E+04  0.7818609E-02  0.8244402E-01
       -2   -1    0    0    0  501  0.00000000000E+00  0.00000000000E+00  0.11218391503E+04  0.11218391503E+04  0.25500000920E-02 0.  1.
        2   -1    0    0  501    0  0.00000000000E+00  0.00000000000E+00 -0.20024970217E+04  0.20024970218E+04  0.25500000920E-02 0. -1.
    10030    2    1    2    0    0  0.00000000000E+00  0.00000000000E+00 -0.88065787142E+03  0.31243361721E+04  0.29976521195E+04 0.  0.
        4    1    3    3  502    0  0.13711493706E+03  0.52296273863E+03 -0.18973292033E+04  0.19728533272E+04  0.12699999809E+01 0. -1.
       -4    1    3    3    0  502 -0.13711493706E+03 -0.52296273863E+03  0.10166713319E+04  0.11514828449E+04  0.12699999809E+01 0.  1.
</event>
<event>
 5   0  0.2948711E-06  0.2950223E+04  0.7818609E-02  0.8258090E-01
       -2   -1    0    0    0  501  0.00000000000E+00  0.00000000000E+00  0.84832418089E+03  0.84832418089E+03  0.25500000920E-02 0.  1.
        2   -1    0    0  501    0  0.00000000000E+00  0.00000000000E+00 -0.25650030159E+04  0.25650030159E+04  0.25500000920E-02 0. -1.
    10030    2    1    2    0    0  0.00000000000E+00  0.00000000000E+00 -0.17166788350E+04  0.34133271968E+04  0.29502230983E+04 0.  0.
        5    1    3    3  502    0 -0.56695333872E+03 -0.13610572314E+04 -0.91032750174E+03  0.17328101817E+04  0.46999998093E+01 0. -1.
       -5    1    3    3    0  502  0.56695333872E+03  0.13610572314E+04 -0.80635133326E+03  0.16805170151E+04  0.46999998093E+01 0.  1.
</event>
<event>
 5   0  0.2970915E-06  0.2992495E+04  0.7818609E-02  0.8245877E-01
       -2   -1    0    0    0  501  0.00000000000E+00  0.00000000000E+00  0.17904618132E+04  0.17904618132E+04  0.25500000920E-02 0. -1.
        2   -1    0    0  501    0  0.00000000000E+00  0.00000000000E+00 -0.12503794282E+04  0.12503794282E+04  0.25500000920E-02 0.  1.
    10030    2    1    2    0    0  0.00000000000E+00  0.00000000000E+00  0.54008238502E+03  0.30408412414E+04  0.29924950247E+04 0.  0.
        4    1    3    3  502    0 -0.32190891332E+03  0.11821903418E+04  0.11427265871E+04  0.16754178639E+04  0.12699999809E+01 0. -1.
       -4    1    3    3    0  502  0.32190891332E+03 -0.11821903418E+04 -0.60264420208E+03  0.13654233776E+04  0.12699999809E+01 0.  1.
</event>
<event>
 5   0  0.3113328E-06  0.3019036E+04  0.7818609E-02  0.8238316E-01
       -2   -1    0    0    0  501  0.00000000000E+00  0.00000000000E+00  0.10247703951E+04  0.10247703951E+04  0.25500000920E-02 0. -1.
        2   -1    0    0  501    0  0.00000000000E+00  0.00000000000E+00 -0.22235653699E+04  0.22235653699E+04  0.25500000920E-02 0.  1.
    10030    2    1    2    0    0  0.00000000000E+00  0.00000000000E+00 -0.11987949748E+04  0.32483357650E+04  0.30190355829E+04 0.  0.
        1    1    3    3  502    0  0.79817335837E+03  0.11627715041E+04 -0.11783410492E+04  0.18378264089E+04  0.50400001928E-02 0. -1.
       -1    1    3    3    0  502 -0.79817335837E+03 -0.11627715041E+04 -0.20453925514E+02  0.14105093562E+04  0.50400001928E-02 0.  1.
</event>
<event>
 5   0  0.1097402E-06  0.3007876E+04  0.7818609E-02  0.8241485E-01
       -1   -1    0    0    0  501  0.00000000000E+00  0.00000000000E+00  0.82793923160E+03  0.82793923162E+03  0.50400001928E-02 0.  1.
        1   -1    0    0  501    0  0.00000000000E+00  0.00000000000E+00 -0.27318792313E+04  0.27318792313E+04  0.50400001928E-02 0. -1.
    10030    2    1    2    0    0  0.00000000000E+00  0.00000000000E+00 -0.19039399997E+04  0.35598184629E+04  0.30078763217E+04 0.  0.
        4    1    3    3  502    0  0.66710746802E+03  0.10326448068E+04 -0.19772112428E+04  0.23282511855E+04  0.12699999809E+01 0. -1.
       -4    1    3    3    0  502 -0.66710746802E+03 -0.10326448068E+04  0.73271243106E+02  0.12315672775E+04  0.12699999809E+01 0.  1.
</event>
<event>
 5   0  0.2862033E-06  0.3029084E+04  0.7818609E-02  0.8235474E-01
        2   -1    0    0  501    0  0.00000000000E+00  0.00000000000E+00  0.17070813473E+04  0.17070813473E+04  0.25500000920E-02 0.  1.
       -2   -1    0    0    0  501  0.00000000000E+00  0.00000000000E+00 -0.13437185734E+04  0.13437185734E+04  0.25500000920E-02 0. -1.
    10030    2    1    2    0    0  0.00000000000E+00  0.00000000000E+00  0.36336277397E+03  0.30507999207E+04  0.30290836322E+04 0.  0.
        2    1    3    3  502    0 -0.10122200781E+04 -0.87203761931E+03 -0.53673310044E+03  0.14398338505E+04  0.25500000920E-02 0. -1.
       -2    1    3    3    0  502  0.10122200781E+04  0.87203761931E+03  0.90009587441E+03  0.16109660702E+04  0.25500000920E-02 0.  1.
</event>
<event>
 5   0  0.2985941E-06  0.2983071E+04  0.7818609E-02  0.8248582E-01
       -2   -1    0    0    0  501  0.00000000000E+00  0.00000000000E+00  0.11045836791E+04  0.11045836792E+04  0.25500000920E-02 0. -1.
        2   -1    0    0  501    0  0.00000000000E+00  0.00000000000E+00 -0.20140423239E+04  0.20140423239E+04  0.25500000920E-02 0.  1.
    10030    2    1    2    0    0  0.00000000000E+00  0.00000000000E+00 -0.90945864473E+03  0.31186260030E+04  0.29830710887E+04 0.  0.
        3    1    3    3  502    0  0.95050783664E+03  0.11473294988E+04 -0.38193669028E+03  0.15380850991E+04  0.10100000352E+00 0.  1.
       -3    1    3    3    0  502 -0.95050783664E+03 -0.11473294988E+04 -0.52752195445E+03  0.15805409040E+04  0.10100000352E+00 0. -1.
</event>
<event>
 5   0  0.2948711E-06  0.2996286E+04  0.7818609E-02  0.8244792E-01
       -2   -1    0    0    0  501  0.00000000000E+00  0.00000000000E+00  0.14832130674E+04  0.14832130674E+04  0.25500000920E-02 0.  1.
        2   -1    0    0  501    0  0.00000000000E+00  0.00000000000E+00 -0.15132233781E+04  0.15132233781E+04  0.25500000920E-02 0. -1.
    10030    2    1    2    0    0  0.00000000000E+00  0.00000000000E+00 -0.30010310697E+02  0.29964364455E+04  0.29962861601E+04 0.  0.
        5    1    3    3  502    0 -0.12787278868E+04  0.49413528119E+02 -0.79403324719E+03  0.15060204490E+04  0.46999998093E+01 0. -1.
       -5    1    3    3    0  502  0.12787278868E+04 -0.49413528119E+02  0.76402293650E+03  0.14904159965E+04  0.46999998093E+01 0.  1.
</event>
<event>
 5   0  0.3113328E-06  0.2988770E+04  0.7818609E-02  0.8246945E-01
        2   -1    0    0  501    0  0.00000000000E+00  0.00000000000E+00  0.18487034078E+04  0.18487034078E+04  0.25500000920E-02 0. -1.
       -2   -1    0    0    0  501  0.00000000000E+00  0.00000000000E+00 -0.12079745010E+04  0.12079745010E+04  0.25500000920E-02 0.  1.
    10030    2    1    2    0    0  0.00000000000E+00  0.00000000000E+00  0.64072890682E+03  0.30566779089E+04  0.29887700324E+04 0.  0.
        1    1    3    3  502    0 -0.88292841401E+03 -0.94164496115E+03 -0.44968997472E+03  0.13669231473E+04  0.50400001928E-02 0.  1.
       -1    1    3    3    0  502  0.88292841401E+03  0.94164496115E+03  0.10904188815E+04  0.16897547616E+04  0.50400001928E-02 0. -1.
</event>
<event>
 5   0  0.1091075E-06  0.3074406E+04  0.7818609E-02  0.8222797E-01
        1   -1    0    0  501    0  0.00000000000E+00  0.00000000000E+00  0.19981410924E+04  0.19981410924E+04  0.50400001928E-02 0.  1.
       -1   -1    0    0    0  501  0.00000000000E+00  0.00000000000E+00 -0.11825959498E+04  0.11825959499E+04  0.50400001928E-02 0. -1.
    10030    2    1    2    0    0  0.00000000000E+00  0.00000000000E+00  0.81554514254E+03  0.31807370423E+04  0.30744063252E+04 0.  0.
        1    1    3    3  502    0  0.19783603793E+03  0.13388581231E+04  0.11618950437E+04  0.17837265105E+04  0.50400001928E-02 0.  1.
       -1    1    3    3    0  502 -0.19783603793E+03 -0.13388581231E+04 -0.34634990117E+03  0.13970105317E+04  0.50400001928E-02 0. -1.
</event>
<event>
 5   0  0.2862033E-06  0.3184860E+04  0.7818609E-02  0.8192827E-01
       -2   -1    0    0    0  501  0.00000000000E+00  0.00000000000E+00  0.14773505557E+04  0.14773505557E+04  0.25500000920E-02 0. -1.
        2   -1    0    0  501    0  0.00000000000E+00  0.00000000000E+00 -0.17164739676E+04  0.17164739676E+04  0.25500000920E-02 0.  1.
    10030    2    1    2    0    0  0.00000000000E+00  0.00000000000E+00 -0.23912341185E+03  0.31938245233E+04  0.31848602920E+04 0.  0.
        2    1    3    3  502    0  0.43734729393E+03  0.77947011118E+03 -0.14412194549E+04  0.16958655097E+04  0.25500000920E-02 0.  1.
       -2    1    3    3    0  502 -0.43734729393E+03 -0.77947011118E+03  0.12020960430E+04  0.14979590136E+04  0.25500000920E-02 0. -1.
</event>
<event>
 5   0  0.1113245E-06  0.2994643E+04  0.7818609E-02  0.8245262E-01
       -1   -1    0    0    0  501  0.00000000000E+00  0.00000000000E+00  0.93644341257E+03  0.93644341258E+03  0.50400001928E-02 0. -1.
        1   -1    0    0  501    0  0.00000000000E+00  0.00000000000E+00 -0.23941341027E+04  0.23941341027E+04  0.50400001928E-02 0.  1.
    10030    2    1    2    0    0  0.00000000000E+00  0.00000000000E+00 -0.14576906901E+04  0.33305775153E+04  0.29946426226E+04 0.  0.
        5    1    3    3  502    0 -0.42678898780E+03  0.48944183982E+03  0.77166740502E+03  0.10085607709E+04  0.46999998093E+01 0. -1.
       -5    1    3    3    0  502  0.42678898780E+03 -0.48944183982E+03 -0.22293580951E+04  0.23220167443E+04  0.46999998093E+01 0.  1.
</event>
<event>
 5   0  0.2948711E-06  0.2988992E+04  0.7818609E-02  0.8246881E-01
        2   -1    0    0  501    0  0.00000000000E+00  0.00000000000E+00  0.25682735252E+04  0.25682735252E+04  0.25500000920E-02 0.  1.
       -2   -1    0    0    0  501  0.00000000000E+00  0.00000000000E+00 -0.86965753240E+03  0.86965753240E+03  0.25500000920E-02 0. -1.
    10030    2    1    2    0    0  0.00000000000E+00  0.00000000000E+00  0.16986159928E+04  0.34379310576E+04  0.29889920820E+04 0.  0.
        5    1    3    3  502    0  0.11539659962E+04 -0.94703440853E+03  0.93051417720E+03  0.17590879499E+04  0.46999998093E+01 0. -1.
       -5    1    3    3    0  502 -0.11539659962E+04  0.94703440853E+03  0.76810181564E+03  0.16788431078E+04  0.46999998093E+01 0.  1.
</event>
<event>
 5   0  0.1097402E-06  0.2967578E+04  0.7818609E-02  0.8253050E-01
        1   -1    0    0  501    0  0.00000000000E+00  0.00000000000E+00  0.25413162889E+04  0.25413162889E+04  0.50400001928E-02 0. -1.
       -1   -1    0    0    0  501  0.00000000000E+00  0.00000000000E+00 -0.86633439402E+03  0.86633439404E+03  0.50400001928E-02 0.  1.
    10030    2    1    2    0    0  0.00000000000E+00  0.00000000000E+00  0.16749818949E+04  0.34076506830E+04  0.29675779398E+04 0.  0.
        4    1    3    3  502    0 -0.28727113863E+03  0.50125615402E+03 -0.73187212126E+03  0.93242739868E+03  0.12699999809E+01 0.  1.
       -4    1    3    3    0  502  0.28727113863E+03 -0.50125615402E+03  0.24068540162E+04  0.24752232843E+04  0.12699999809E+01 0. -1.
</event>
<event>
 5   0  0.2970915E-06  0.2996810E+04  0.7818609E-02  0.8244642E-01
        2   -1    0    0  501    0  0.00000000000E+00  0.00000000000E+00  0.16571599148E+04  0.16571599148E+04  0.25500000920E-02 0. -1.
       -2   -1    0    0    0  501  0.00000000000E+00  0.00000000000E+00 -0.13548586733E+04  0.13548586733E+04  0.25500000920E-02 0.  1.
    10030    2    1    2    0    0  0.00000000000E+00  0.00000000000E+00  0.30230124153E+03  0.30120185881E+04  0.29968099596E+04 0.  0.
        4    1    3    3  502    0  0.13948934318E+04  0.24523539338E+03 -0.34056403409E+03  0.14566583534E+04  0.12699999809E+01 0. -1.
       -4    1    3    3    0  502 -0.13948934318E+04 -0.24523539338E+03  0.64286527562E+03  0.15553602347E+04  0.12699999809E+01 0.  1.
</event>
<event>
 5   0  0.1091075E-06  0.3013974E+04  0.7818609E-02  0.8239752E-01
        1   -1    0    0  501    0  0.00000000000E+00  0.00000000000E+00  0.22397029282E+04  0.22397029282E+04  0.50400001928E-02 0.  1.
       -1   -1    0    0    0  501  0.00000000000E+00  0.00000000000E+00 -0.10139784127E+04  0.10139784127E+04  0.50400001928E-02 0. -1.
    10030    2    1    2    0    0  0.00000000000E+00  0.00000000000E+00  0.12257245155E+04  0.32536813409E+04  0.30139743994E+04 0.  0.
        1    1    3    3  502    0 -0.16400411568E+03 -0.14751808082E+04  0.89427584236E+03  0.17328545955E+04  0.50400001928E-02 0.  1.
       -1    1    3    3    0  502  0.16400411568E+03  0.14751808082E+04  0.33144867319E+03  0.15208267455E+04  0.50400001928E-02 0. -1.
</event>
<event>
 5   0  0.3113328E-06  0.3012870E+04  0.7818609E-02  0.8240065E-01
       -2   -1    0    0    0  501  0.00000000000E+00  0.00000000000E+00  0.13911554835E+04  0.13911554835E+04  0.25500000920E-02 0.  1.
        2   -1    0    0  501    0  0.00000000000E+00  0.00000000000E+00 -0.16312675208E+04  0.16312675208E+04  0.25500000920E-02 0. -1.
    10030    2    1    2    0    0  0.00000000000E+00  0.00000000000E+00 -0.24011203725E+03  0.30224230043E+04  0.30128702306E+04 0.  0.
        1    1    3    3  502    0  0.59249640692E+02  0.24443646454E+02 -0.16298990903E+04  0.16311588078E+04  0.50400001928E-02 0. -1.
       -1    1    3    3    0  502 -0.59249640692E+02 -0.24443646454E+02  0.13897870530E+04  0.13912641965E+04  0.50400001928E-02 0.  1.
</event>
<event>
 5   0  0.1097402E-06  0.3002241E+04  0.7818609E-02  0.8243091E-01
        1   -1    0    0  501    0  0.00000000000E+00  0.00000000000E+00  0.23925605800E+04  0.23925605800E+04  0.50400001928E-02 0.  1.
       -1   -1    0    0    0  501  0.00000000000E+00  0.00000000000E+00 -0.94182065704E+03  0.94182065706E+03  0.50400001928E-02 0. -1.
    10030    2    1    2    0    0  0.00000000000E+00  0.00000000000E+00  0.14507399230E+04  0.33343812371E+04  0.30022411479E+04 0.  0.
        4    1    3    3  502    0 -0.63488537416E+03 -0.10546141319E+04 -0.22878461844E+03  0.12520520836E+04  0.12699999809E+01 0. -1.
       -4    1    3    3    0  502  0.63488537416E+03  0.10546141319E+04  0.16795245414E+04  0.20823291535E+04  0.12699999809E+01 0.  1.
</event>
<event>
 5   0  0.2985941E-06  0.3001432E+04  0.7818609E-02  0.8243322E-01
        2   -1    0    0  501    0  0.00000000000E+00  0.00000000000E+00  0.18274176101E+04  0.18274176101E+04  0.25500000920E-02 0. -1.
       -2   -1    0    0    0  501  0.00000000000E+00  0.00000000000E+00 -0.12324210317E+04  0.12324210317E+04  0.25500000920E-02 0.  1.
    10030    2    1    2    0    0  0.00000000000E+00  0.00000000000E+00  0.59499657832E+03  0.30598386418E+04  0.30014315894E+04 0.  0.
        3    1    3    3  502    0  0.54734974523E+03  0.31799890796E+03 -0.10896537253E+04  0.12601826456E+04  0.10100000352E+00 0.  1.
       -3    1    3    3    0  502 -0.54734974523E+03 -0.31799890796E+03  0.16846503036E+04  0.17996559962E+04  0.10100000352E+00 0. -1.
</event>
<event>
 5   0  0.1091076E-06  0.2961008E+04  0.7818609E-02  0.8254954E-01
       -1   -1    0    0    0  501  0.00000000000E+00  0.00000000000E+00  0.94769970181E+03  0.94769970182E+03  0.50400001928E-02 0.  1.
        1   -1    0    0  501    0  0.00000000000E+00  0.00000000000E+00 -0.23128547526E+04  0.23128547526E+04  0.50400001928E-02 0. -1.
    10030    2    1    2    0    0  0.00000000000E+00  0.00000000000E+00 -0.13651550508E+04  0.32605544544E+04  0.29610077740E+04 0.  0.
        3    1    3    3  502    0  0.12686538050E+04 -0.18980598490E+03  0.13137764008E+03  0.12894839601E+04  0.10100000352E+00 0.  1.
       -3    1    3    3    0  502 -0.12686538050E+04  0.18980598490E+03 -0.14965326909E+04  0.19710704944E+04  0.10100000352E+00 0. -1.
</event>
<event>
 5   0  0.3113328E-06  0.2999740E+04  0.7818609E-02  0.8243805E-01
       -2   -1    0    0    0  501  0.00000000000E+00  0.00000000000E+00  0.12343879852E+04  0.12343879852E+04  0.25500000920E-02 0.  1.
        2   -1    0    0  501    0  0.00000000000E+00  0.00000000000E+00 -0.18224498469E+04  0.18224498469E+04  0.25500000920E-02 0. -1.
    10030    2    1    2    0    0  0.00000000000E+00  0.00000000000E+00 -0.58806186172E+03  0.30568378321E+04  0.29997401185E+04 0.  0.
        1    1    3    3  502    0 -0.45713039683E+02 -0.42096318759E+03 -0.17602758203E+04  0.18104890640E+04  0.50400001928E-02 0. -1.
       -1    1    3    3    0  502  0.45713039683E+02  0.42096318759E+03  0.11722139585E+04  0.12463487682E+04  0.50400001928E-02 0.  1.
</event>
<event>
 5   0  0.1097402E-06  0.2988879E+04  0.7818609E-02  0.8246914E-01
        1   -1    0    0  501    0  0.00000000000E+00  0.00000000000E+00  0.10130135746E+04  0.10130135746E+04  0.50400001928E-02 0.  1.
       -1   -1    0    0    0  501  0.00000000000E+00  0.00000000000E+00 -0.22046587473E+04  0.22046587473E+04  0.50400001928E-02 0. -1.
    10030    2    1    2    0    0  0.00000000000E+00  0.00000000000E+00 -0.11916451728E+04  0.32176723219E+04  0.29888788790E+04 0.  0.
        4    1    3    3  502    0  0.10799881589E+04 -0.31395455117E+03  0.46358279975E+03  0.12164918860E+04  0.12699999809E+01 0.  1.
       -4    1    3    3    0  502 -0.10799881589E+04  0.31395455117E+03 -0.16552279725E+04  0.20011804360E+04  0.12699999809E+01 0. -1.
</event>
<event>
 5   0  0.2985941E-06  0.3005657E+04  0.7818609E-02  0.8242117E-01
       -2   -1    0    0    0  501  0.00000000000E+00  0.00000000000E+00  0.10431726895E+04  0.10431726895E+04  0.25500000920E-02 0.  1.
        2   -1    0    0  501    0  0.00000000000E+00  0.00000000000E+00 -0.21650238859E+04  0.21650238859E+04  0.25500000920E-02 0. -1.
    10030    2    1    2    0    0  0.00000000000E+00  0.00000000000E+00 -0.11218511964E+04  0.32081965753E+04  0.30056571925E+04 0.  0.
        3    1    3    3  502    0  0.13195089523E+04 -0.66098979053E+03 -0.25811436141E+03  0.14982104032E+04  0.10100000352E+00 0.  1.
       -3    1    3    3    0  502 -0.13195089523E+04  0.66098979053E+03 -0.86373683500E+03  0.17099861721E+04  0.10100000352E+00 0. -1.
</event>
<event>
 5   0  0.1097402E-06  0.3005533E+04  0.7818609E-02  0.8242153E-01
       -1   -1    0    0    0  501  0.00000000000E+00  0.00000000000E+00  0.98595442426E+03  0.98595442427E+03  0.50400001928E-02 0. -1.
        1   -1    0    0  501    0  0.00000000000E+00  0.00000000000E+00 -0.22904778536E+04  0.22904778536E+04  0.50400001928E-02 0.  1.
    10030    2    1    2    0    0  0.00000000000E+00  0.00000000000E+00 -0.13045234294E+04  0.32764322779E+04  0.30055327471E+04 0.  0.
        4    1    3    3  502    0  0.17012617575E+03  0.57566283131E+03  0.84958263098E+03  0.10402513498E+04  0.12699999809E+01 0. -1.
       -4    1    3    3    0  502 -0.17012617575E+03 -0.57566283131E+03 -0.21541060604E+04  0.22361809281E+04  0.12699999809E+01 0.  1.
</event>
<event>
 5   0  0.9749500E-07  0.3041333E+04  0.7818609E-02  0.8232026E-01
        3   -1    0    0  501    0  0.00000000000E+00  0.00000000000E+00  0.15124786234E+04  0.15124786267E+04  0.10100000352E+00 0. -1.
       -3   -1    0    0    0  501  0.00000000000E+00  0.00000000000E+00 -0.15288982679E+04  0.15288982712E+04  0.10100000352E+00 0.  1.
    10030    2    1    2    0    0  0.00000000000E+00  0.00000000000E+00 -0.16419644509E+02  0.30413768979E+04  0.30413325748E+04 0.  0.
        3    1    3    3  502    0 -0.57477693279E+02 -0.11542193967E+04  0.98018702145E+03  0.15153523379E+04  0.10100000352E+00 0. -1.
       -3    1    3    3    0  502  0.57477693279E+02  0.11542193967E+04 -0.99660666595E+03  0.15260245600E+04  0.10100000352E+00 0.  1.
</event>
<event>
 5   0  0.1097402E-06  0.2807237E+04  0.7818609E-02  0.8301025E-01
       -1   -1    0    0    0  501  0.00000000000E+00  0.00000000000E+00  0.10860584406E+04  0.10860584406E+04  0.50400001928E-02 0. -1.
        1   -1    0    0  501    0  0.00000000000E+00  0.00000000000E+00 -0.18140318529E+04  0.18140318529E+04  0.50400001928E-02 0.  1.
    10030    2    1    2    0    0  0.00000000000E+00  0.00000000000E+00 -0.72797341229E+03  0.29000902934E+04  0.28072367946E+04 0.  0.
        4    1    3    3  502    0  0.86055641287E+03 -0.85043881827E+03  0.37112504138E+03  0.12655192344E+04  0.12699999809E+01 0. -1.
       -4    1    3    3    0  502 -0.86055641287E+03  0.85043881827E+03 -0.10990984537E+04  0.16345710591E+04  0.12699999809E+01 0.  1.
</event>
<event>
 5   0  0.1113245E-06  0.2990377E+04  0.7818609E-02  0.8246484E-01
        1   -1    0    0  501    0  0.00000000000E+00  0.00000000000E+00  0.29895950787E+04  0.29895950787E+04  0.50400001928E-02 0. -1.
       -1   -1    0    0    0  501  0.00000000000E+00  0.00000000000E+00 -0.74778975517E+03  0.74778975519E+03  0.50400001928E-02 0.  1.
    10030    2    1    2    0    0  0.00000000000E+00  0.00000000000E+00  0.22418053235E+04  0.37373848339E+04  0.29903769475E+04 0.  0.
        5    1    3    3  502    0 -0.39036196028E+03  0.43068199801E+03  0.28425941117E+04  0.29014191040E+04  0.46999998093E+01 0. -1.
       -5    1    3    3    0  502  0.39036196028E+03 -0.43068199801E+03 -0.60078878818E+03  0.83596572983E+03  0.46999998093E+01 0.  1.
</event>
<event>
 5   0  0.2862033E-06  0.3020588E+04  0.7818609E-02  0.8237876E-01
       -2   -1    0    0    0  501  0.00000000000E+00  0.00000000000E+00  0.18259888675E+04  0.18259888675E+04  0.25500000920E-02 0. -1.
        2   -1    0    0  501    0  0.00000000000E+00  0.00000000000E+00 -0.12491793347E+04  0.12491793347E+04  0.25500000920E-02 0.  1.
    10030    2    1    2    0    0  0.00000000000E+00  0.00000000000E+00  0.57680953273E+03  0.30751682022E+04  0.30205877300E+04 0.  0.
        2    1    3    3  502    0  0.63342867716E+03 -0.39973559504E+03  0.16235776214E+04  0.17880225747E+04  0.25500000920E-02 0. -1.
       -2    1    3    3    0  502 -0.63342867716E+03  0.39973559504E+03 -0.10467680886E+04  0.12871456275E+04  0.25500000920E-02 0.  1.
</event>
<event>
 5   0  0.2970915E-06  0.3008003E+04  0.7818609E-02  0.8241449E-01
        2   -1    0    0  501    0  0.00000000000E+00  0.00000000000E+00  0.15561744141E+04  0.15561744141E+04  0.25500000920E-02 0.  1.
       -2   -1    0    0    0  501  0.00000000000E+00  0.00000000000E+00 -0.14535778868E+04  0.14535778868E+04  0.25500000920E-02 0. -1.
    10030    2    1    2    0    0  0.00000000000E+00  0.00000000000E+00  0.10259652728E+03  0.30097523009E+04  0.30080031359E+04 0.  0.
        4    1    3    3  502    0 -0.10889399320E+03  0.70218053123E+03  0.13776269643E+04  0.15500880833E+04  0.12699999809E+01 0.  1.
       -4    1    3    3    0  502  0.10889399320E+03 -0.70218053123E+03 -0.12750304370E+04  0.14596642177E+04  0.12699999809E+01 0. -1.
</event>
<event>
 5   0  0.2948711E-06  0.2994423E+04  0.7818609E-02  0.8245325E-01
        2   -1    0    0  501    0  0.00000000000E+00  0.00000000000E+00  0.23626406850E+04  0.23626406850E+04  0.25500000920E-02 0.  1.
       -2   -1    0    0    0  501  0.00000000000E+00  0.00000000000E+00 -0.94878686638E+03  0.94878686639E+03  0.25500000920E-02 0. -1.
    10030    2    1    2    0    0  0.00000000000E+00  0.00000000000E+00  0.14138538186E+04  0.33114275514E+04  0.29944231177E+04 0.  0.
        5    1    3    3  502    0 -0.50362513732E+03  0.11644662668E+04  0.15860724270E+04  0.20310755277E+04  0.46999998093E+01 0.  1.
       -5    1    3    3    0  502  0.50362513732E+03 -0.11644662668E+04 -0.17221860838E+03  0.12803520237E+04  0.46999998093E+01 0. -1.
</event>
<event>
 5   0  0.2948711E-06  0.3009008E+04  0.7818609E-02  0.8241163E-01
       -2   -1    0    0    0  501  0.00000000000E+00  0.00000000000E+00  0.10065929216E+04  0.10065929216E+04  0.25500000920E-02 0.  1.
        2   -1    0    0  501    0  0.00000000000E+00  0.00000000000E+00 -0.22487071451E+04  0.22487071451E+04  0.25500000920E-02 0. -1.
    10030    2    1    2    0    0  0.00000000000E+00  0.00000000000E+00 -0.12421142235E+04  0.32553000666E+04  0.30090082718E+04 0.  0.
        5    1    3    3  502    0  0.16924722423E+03  0.12173498238E+04  0.31767919781E+03  0.12694594830E+04  0.46999998093E+01 0.  1.
       -5    1    3    3    0  502 -0.16924722423E+03 -0.12173498238E+04 -0.15597934213E+04  0.19858405836E+04  0.46999998093E+01 0. -1.
</event>
<event>
 5   0  0.1097402E-06  0.3018473E+04  0.7818609E-02  0.8238475E-01
        1   -1    0    0  501    0  0.00000000000E+00  0.00000000000E+00  0.16370431647E+04  0.16370431647E+04  0.50400001928E-02 0. -1.
       -1   -1    0    0    0  501  0.00000000000E+00  0.00000000000E+00 -0.13914080242E+04  0.13914080242E+04  0.50400001928E-02 0.  1.
    10030    2    1    2    0    0  0.00000000000E+00  0.00000000000E+00  0.24563514044E+03  0.30284511889E+04  0.30184731209E+04 0.  0.
        4    1    3    3  502    0  0.89460936673E+03  0.16107079704E+03  0.13315921695E+04  0.16122682902E+04  0.12699999809E+01 0. -1.
       -4    1    3    3    0  502 -0.89460936673E+03 -0.16107079704E+03 -0.10859570291E+04  0.14161828987E+04  0.12699999809E+01 0.  1.
</event>
<event>
 5   0  0.1091075E-06  0.2997954E+04  0.7818609E-02  0.8244315E-01
       -1   -1    0    0    0  501  0.00000000000E+00  0.00000000000E+00  0.11573317484E+04  0.11573317484E+04  0.50400001928E-02 0.  1.
        1   -1    0    0  501    0  0.00000000000E+00  0.00000000000E+00 -0.19414760639E+04  0.19414760639E+04  0.50400001928E-02 0. -1.
    10030    2    1    2    0    0  0.00000000000E+00  0.00000000000E+00 -0.78414431548E+03  0.30988078124E+04  0.29979538940E+04 0.  0.
        1    1    3    3  502    0  0.92029111316E+03 -0.55773423472E+03  0.68655018103E+03  0.12764616565E+04  0.50400001928E-02 0.  1.
       -1    1    3    3    0  502 -0.92029111316E+03  0.55773423472E+03 -0.14706944965E+04  0.18223461558E+04  0.50400001928E-02 0. -1.
</event>
<event>
 5   0  0.2985941E-06  0.2998178E+04  0.7818609E-02  0.8244251E-01
        2   -1    0    0  501    0  0.00000000000E+00  0.00000000000E+00  0.26475196318E+04  0.26475196318E+04  0.25500000920E-02 0.  1.
       -2   -1    0    0    0  501  0.00000000000E+00  0.00000000000E+00 -0.84882010909E+03  0.84882010910E+03  0.25500000920E-02 0. -1.
    10030    2    1    2    0    0  0.00000000000E+00  0.00000000000E+00  0.17986995227E+04  0.34963397409E+04  0.29981780486E+04 0.  0.
        3    1    3    3  502    0  0.11807837082E+04  0.67577146967E+03  0.16335186768E+04  0.21258646529E+04  0.10100000352E+00 0.  1.
       -3    1    3    3    0  502 -0.11807837082E+04 -0.67577146967E+03  0.16518084594E+03  0.13704750880E+04  0.10100000352E+00 0. -1.
</event>
<event>
 5   0  0.3113328E-06  0.2993967E+04  0.7818609E-02  0.8245456E-01
       -2   -1    0    0    0  501  0.00000000000E+00  0.00000000000E+00  0.11953525559E+04  0.11953525559E+04  0.25500000920E-02 0. -1.
        2   -1    0    0  501    0  0.00000000000E+00  0.00000000000E+00 -0.18747274661E+04  0.18747274661E+04  0.25500000920E-02 0.  1.
    10030    2    1    2    0    0  0.00000000000E+00  0.00000000000E+00 -0.67937491012E+03  0.30700800220E+04  0.29939674469E+04 0.  0.
        1    1    3    3  502    0 -0.54455257671E+03  0.15802070680E+03  0.10809762131E+04  0.12206627814E+04  0.50400001928E-02 0. -1.
       -1    1    3    3    0  502  0.54455257671E+03 -0.15802070680E+03 -0.17603511233E+04  0.18494172406E+04  0.50400001928E-02 0.  1.
</event>
<event>
 5   0  0.2948711E-06  0.2976616E+04  0.7818609E-02  0.8250440E-01
       -2   -1    0    0    0  501  0.00000000000E+00  0.00000000000E+00  0.65814300598E+03  0.65814300598E+03  0.25500000920E-02 0. -1.
        2   -1    0    0  501    0  0.00000000000E+00  0.00000000000E+00 -0.33656223448E+04  0.33656223448E+04  0.25500000920E-02 0.  1.
    10030    2    1    2    0    0  0.00000000000E+00  0.00000000000E+00 -0.27074793388E+04  0.40237653508E+04  0.29766160700E+04 0.  0.
        5    1    3    3  502    0  0.75219568714E+02 -0.77480169256E+03 -0.30684720863E+04  0.31656782339E+04  0.46999998093E+01 0.  1.
       -5    1    3    3    0  502 -0.75219568714E+02  0.77480169256E+03  0.36099274751E+03  0.85808711683E+03  0.46999998093E+01 0. -1.
</event>
<event>
 5   0  0.1091076E-06  0.2999101E+04  0.7818609E-02  0.8243988E-01
       -1   -1    0    0    0  501  0.00000000000E+00  0.00000000000E+00  0.16497650618E+04  0.16497650618E+04  0.50400001928E-02 0. -1.
        1   -1    0    0  501    0  0.00000000000E+00  0.00000000000E+00 -0.13630128984E+04  0.13630128984E+04  0.50400001928E-02 0.  1.
    10030    2    1    2    0    0  0.00000000000E+00  0.00000000000E+00  0.28675216343E+03  0.30127779602E+04  0.29991005708E+04 0.  0.
        3    1    3    3  502    0  0.59355189604E+01  0.72809987314E+03 -0.11735128423E+04  0.13810492594E+04  0.10100000352E+00 0.  1.
       -3    1    3    3    0  502 -0.59355189604E+01 -0.72809987314E+03  0.14602650057E+04  0.16317287008E+04  0.10100000352E+00 0. -1.
</event>
<event>
 5   0  0.2862033E-06  0.3038323E+04  0.7818609E-02  0.8232871E-01
       -2   -1    0    0    0  501  0.00000000000E+00  0.00000000000E+00  0.11641174345E+04  0.11641174345E+04  0.25500000920E-02 0. -1.
        2   -1    0    0  501    0  0.00000000000E+00  0.00000000000E+00 -0.19824904709E+04  0.19824904709E+04  0.25500000920E-02 0.  1.
    10030    2    1    2    0    0  0.00000000000E+00  0.00000000000E+00 -0.81837303642E+03  0.31466079054E+04  0.30383230381E+04 0.  0.
        2    1    3    3  502    0  0.79679119597E+03  0.16224133133E+03  0.91976691080E+03  0.12276683713E+04  0.25500000920E-02 0. -1.
       -2    1    3    3    0  502 -0.79679119597E+03 -0.16224133133E+03 -0.17381399472E+04  0.19189395341E+04  0.25500000920E-02 0.  1.
</event>
<event>
 5   0  0.1091075E-06  0.2979081E+04  0.7818609E-02  0.8249730E-01
       -1   -1    0    0    0  501  0.00000000000E+00  0.00000000000E+00  0.88522198310E+03  0.88522198311E+03  0.50400001928E-02 0.  1.
        1   -1    0    0  501    0  0.00000000000E+00  0.00000000000E+00 -0.25064125726E+04  0.25064125726E+04  0.50400001928E-02 0. -1.
    10030    2    1    2    0    0  0.00000000000E+00  0.00000000000E+00 -0.16211905895E+04  0.33916345557E+04  0.29790814074E+04 0.  0.
        1    1    3    3  502    0  0.13091955802E+04  0.17590130872E+03 -0.26943898450E+02  0.13212343892E+04  0.50400001928E-02 0. -1.
       -1    1    3    3    0  502 -0.13091955802E+04 -0.17590130872E+03 -0.15942466910E+04  0.20704001665E+04  0.50400001928E-02 0.  1.
</event>
<event>
 5   0  0.2985941E-06  0.2996714E+04  0.7818609E-02  0.8244670E-01
        2   -1    0    0  501    0  0.00000000000E+00  0.00000000000E+00  0.16950231386E+04  0.16950231386E+04  0.25500000920E-02 0.  1.
       -2   -1    0    0    0  501  0.00000000000E+00  0.00000000000E+00 -0.13245089764E+04  0.13245089764E+04  0.25500000920E-02 0. -1.
    10030    2    1    2    0    0  0.00000000000E+00  0.00000000000E+00  0.37051416227E+03  0.30195321150E+04  0.29967137750E+04 0.  0.
        3    1    3    3  502    0 -0.12628287606E+04  0.58962847327E+03 -0.36909127322E+03  0.14417442885E+04  0.10100000352E+00 0. -1.
       -3    1    3    3    0  502  0.12628287606E+04 -0.58962847327E+03  0.73960543548E+03  0.15777878265E+04  0.10100000352E+00 0.  1.
</event>
<event>
 5   0  0.2862033E-06  0.3003559E+04  0.7818609E-02  0.8242715E-01
       -2   -1    0    0    0  501  0.00000000000E+00  0.00000000000E+00  0.17068731337E+04  0.17068731337E+04  0.25500000920E-02 0. -1.
        2   -1    0    0  501    0  0.00000000000E+00  0.00000000000E+00 -0.13213294049E+04  0.13213294049E+04  0.25500000920E-02 0.  1.
    10030    2    1    2    0    0  0.00000000000E+00  0.00000000000E+00  0.38554372882E+03  0.30282025385E+04  0.30035589968E+04 0.  0.
        2    1    3    3  502    0 -0.34997623323E+03  0.92156773792E+03  0.13350154680E+04  0.16595290775E+04  0.25500000920E-02 0. -1.
       -2    1    3    3    0  502  0.34997623323E+03 -0.92156773792E+03 -0.94947173915E+03  0.13686734610E+04  0.25500000920E-02 0.  1.
</event>
<event>
 5   0  0.1091075E-06  0.2964412E+04  0.7818609E-02  0.8253967E-01
        1   -1    0    0  501    0  0.00000000000E+00  0.00000000000E+00  0.17890759307E+04  0.17890759307E+04  0.50400001928E-02 0. -1.
       -1   -1    0    0    0  501  0.00000000000E+00  0.00000000000E+00 -0.12279714673E+04  0.12279714673E+04  0.50400001928E-02 0.  1.
    10030    2    1    2    0    0  0.00000000000E+00  0.00000000000E+00  0.56110446341E+03  0.30170473980E+04  0.29644117094E+04 0.  0.
        1    1    3    3  502    0 -0.32744137607E+03  0.14266842156E+04  0.43416229827E+02  0.14644216179E+04  0.50400001928E-02 0. -1.
       -1    1    3    3    0  502  0.32744137607E+03 -0.14266842156E+04  0.51768823358E+03  0.15526257801E+04  0.50400001928E-02 0.  1.
</event>
<event>
 5   0  0.2948711E-06  0.3010847E+04  0.7818609E-02  0.8240640E-01
       -2   -1    0    0    0  501  0.00000000000E+00  0.00000000000E+00  0.95940550586E+03  0.95940550587E+03  0.25500000920E-02 0.  1.
        2   -1    0    0  501    0  0.00000000000E+00  0.00000000000E+00 -0.23621913296E+04  0.23621913296E+04  0.25500000920E-02 0. -1.
    10030    2    1    2    0    0  0.00000000000E+00  0.00000000000E+00 -0.14027858238E+04  0.33215968355E+04  0.30108466368E+04 0.  0.
        5    1    3    3  502    0 -0.10321888943E+04  0.10956438850E+04 -0.67857375409E+03  0.16511613689E+04  0.46999998093E+01 0. -1.
       -5    1    3    3    0  502  0.10321888943E+04 -0.10956438850E+04 -0.72421206966E+03  0.16704354666E+04  0.46999998093E+01 0.  1.
</event>
<event>
 5   0  0.2862033E-06  0.2962475E+04  0.7818609E-02  0.8254528E-01
        2   -1    0    0  501    0  0.00000000000E+00  0.00000000000E+00  0.15579253870E+04  0.15579253870E+04  0.25500000920E-02 0. -1.
       -2   -1    0    0    0  501  0.00000000000E+00  0.00000000000E+00 -0.14083247711E+04  0.14083247711E+04  0.25500000920E-02 0.  1.
    10030    2    1    2    0    0  0.00000000000E+00  0.00000000000E+00  0.14960061589E+03  0.29662501580E+04  0.29624752583E+04 0.  0.
        2    1    3    3  502    0  0.10882369725E+04  0.94500222757E+03 -0.26736016015E+03  0.14658684708E+04  0.25500000920E-02 0.  1.
       -2    1    3    3    0  502 -0.10882369725E+04 -0.94500222757E+03  0.41696077604E+03  0.15003816872E+04  0.25500000920E-02 0. -1.
</event>
<event>
 5   0  0.2948711E-06  0.2936083E+04  0.7818609E-02  0.8262222E-01
       -2   -1    0    0    0  501  0.00000000000E+00  0.00000000000E+00  0.13429832577E+04  0.13429832577E+04  0.25500000920E-02 0. -1.
        2   -1    0    0  501    0  0.00000000000E+00  0.00000000000E+00 -0.16047450551E+04  0.16047450551E+04  0.25500000920E-02 0.  1.
    10030    2    1    2    0    0  0.00000000000E+00  0.00000000000E+00 -0.26176179740E+03  0.29477283128E+04  0.29360829293E+04 0.  0.
        5    1    3    3  502    0 -0.45950877767E+03  0.45741988809E+03 -0.14532010892E+04  0.15912877698E+04  0.46999998093E+01 0.  1.
       -5    1    3    3    0  502  0.45950877767E+03 -0.45741988809E+03  0.11914392918E+04  0.13564405430E+04  0.46999998093E+01 0. -1.
</event>
<event>
 5   0  0.1091075E-06  0.2986674E+04  0.7818609E-02  0.8247547E-01
        1   -1    0    0  501    0  0.00000000000E+00  0.00000000000E+00  0.12960725183E+04  0.12960725183E+04  0.50400001928E-02 0. -1.
       -1   -1    0    0    0  501  0.00000000000E+00  0.00000000000E+00 -0.17206249891E+04  0.17206249891E+04  0.50400001928E-02 0.  1.
    10030    2    1    2    0    0  0.00000000000E+00  0.00000000000E+00 -0.42455247076E+03  0.30166975074E+04  0.29866735762E+04 0.  0.
        1    1    3    3  502    0  0.88034639692E+03 -0.12951898450E+03 -0.14236110185E+04  0.16788249694E+04  0.50400001928E-02 0.  1.
       -1    1    3    3    0  502 -0.88034639692E+03  0.12951898450E+03  0.99905854776E+03  0.13378725379E+04  0.50400001928E-02 0. -1.
</event>
<event>
 5   0  0.2970915E-06  0.2997807E+04  0.7818609E-02  0.8244358E-01
        2   -1    0    0  501    0  0.00000000000E+00  0.00000000000E+00  0.15819488880E+04  0.15819488880E+04  0.25500000920E-02 0.  1.
       -2   -1    0    0    0  501  0.00000000000E+00  0.00000000000E+00 -0.14202172038E+04  0.14202172038E+04  0.25500000920E-02 0. -1.
    10030    2    1    2    0    0  0.00000000000E+00  0.00000000000E+00  0.16173168421E+03  0.30021660918E+04  0.29978065490E+04 0.  0.
        4    1    3    3  502    0 -0.13776906734E+03  0.59376312327E+03  0.14522273334E+04  0.15749605720E+04  0.12699999809E+01 0.  1.
       -4    1    3    3    0  502  0.13776906734E+03 -0.59376312327E+03 -0.12904956492E+04  0.14272055199E+04  0.12699999809E+01 0. -1.
</event>
<event>
 5   0  0.2985941E-06  0.2990195E+04  0.7818609E-02  0.8246536E-01
        2   -1    0    0  501    0  0.00000000000E+00  0.00000000000E+00  0.10828044102E+04  0.10828044102E+04  0.25500000920E-02 0.  1.
       -2   -1    0    0    0  501  0.00000000000E+00  0.00000000000E+00 -0.20643768384E+04  0.20643768384E+04  0.25500000920E-02 0. -1.
    10030    2    1    2    0    0  0.00000000000E+00  0.00000000000E+00 -0.98157242818E+03  0.31471812486E+04  0.29901948732E+04 0.  0.
        3    1    3    3  502    0  0.14392256713E+04 -0.26501597269E+03 -0.81298258505E+03  0.16740802527E+04  0.10100000352E+00 0.  1.
       -3    1    3    3    0  502 -0.14392256713E+04  0.26501597269E+03 -0.16858984312E+03  0.14731009959E+04  0.10100000352E+00 0. -1.
</event>
<event>
 5   0  0.2948711E-06  0.2872953E+04  0.7818609E-02  0.8280971E-01
       -2   -1    0    0    0  501  0.00000000000E+00  0.00000000000E+00  0.93980655312E+03  0.93980655313E+03  0.25500000920E-02 0. -1.
        2   -1    0    0  501    0  0.00000000000E+00  0.00000000000E+00 -0.21956264978E+04  0.21956264978E+04  0.25500000920E-02 0.  1.
    10030    2    1    2    0    0  0.00000000000E+00  0.00000000000E+00 -0.12558199447E+04  0.31354330510E+04  0.28729526073E+04 0.  0.
        5    1    3    3  502    0 -0.12324019321E+04 -0.45051137211E+03 -0.12658364480E+04  0.18232221537E+04  0.46999998093E+01 0.  1.
       -5    1    3    3    0  502  0.12324019321E+04  0.45051137211E+03  0.10016503288E+02  0.13122108973E+04  0.46999998093E+01 0. -1.
</event>
<event>
 5   0  0.2985941E-06  0.3000378E+04  0.7818609E-02  0.8243623E-01
       -2   -1    0    0    0  501  0.00000000000E+00  0.00000000000E+00  0.13127562316E+04  0.13127562316E+04  0.25500000920E-02 0. -1.
        2   -1    0    0  501    0  0.00000000000E+00  0.00000000000E+00 -0.17143826589E+04  0.17143826589E+04  0.25500000920E-02 0.  1.
    10030    2    1    2    0    0  0.00000000000E+00  0.00000000000E+00 -0.40162642733E+03  0.30271388906E+04  0.30003776555E+04 0.  0.
        3    1    3    3  502    0  0.20379145368E+03 -0.44232510699E+03  0.12307803502E+04  0.13236324027E+04  0.10100000352E+00 0. -1.
       -3    1    3    3    0  502 -0.20379145368E+03  0.44232510699E+03 -0.16324067775E+04  0.17035064879E+04  0.10100000352E+00 0.  1.
</event>
<event>
 5   0  0.1091076E-06  0.3024614E+04  0.7818609E-02  0.8236737E-01
        1   -1    0    0  501    0  0.00000000000E+00  0.00000000000E+00  0.19663699355E+04  0.19663699356E+04  0.50400001928E-02 0. -1.
       -1   -1    0    0    0  501  0.00000000000E+00  0.00000000000E+00 -0.11630939587E+04  0.11630939587E+04  0.50400001928E-02 0.  1.
    10030    2    1    2    0    0  0.00000000000E+00  0.00000000000E+00  0.80327597688E+03  0.31294638942E+04  0.30246143507E+04 0.  0.
        3    1    3    3  502    0 -0.81175772935E+03 -0.54203132890E+03  0.15968106551E+04  0.18715108472E+04  0.10100000352E+00 0. -1.
       -3    1    3    3    0  502  0.81175772935E+03  0.54203132890E+03 -0.79353467826E+03  0.12579530470E+04  0.10100000352E+00 0.  1.
</event>
<event>
 5   0  0.1091076E-06  0.3012342E+04  0.7818609E-02  0.8240215E-01
        1   -1    0    0  501    0  0.00000000000E+00  0.00000000000E+00  0.15672995078E+04  0.15672995078E+04  0.50400001928E-02 0.  1.
       -1   -1    0    0    0  501  0.00000000000E+00  0.00000000000E+00 -0.14474270688E+04  0.14474270688E+04  0.50400001928E-02 0. -1.
    10030    2    1    2    0    0  0.00000000000E+00  0.00000000000E+00  0.11987243900E+03  0.30147265767E+04  0.30123424325E+04 0.  0.
        3    1    3    3  502    0 -0.40817747762E+03  0.12591653117E+04 -0.65927404262E+03  0.14787658398E+04  0.10100000352E+00 0. -1.
       -3    1    3    3    0  502  0.40817747762E+03 -0.12591653117E+04  0.77914648162E+03  0.15359607369E+04  0.10100000352E+00 0.  1.
</event>
<event>
 5   0  0.2970915E-06  0.2988418E+04  0.7818609E-02  0.8247046E-01
       -2   -1    0    0    0  501  0.00000000000E+00  0.00000000000E+00  0.13940541438E+04  0.13940541438E+04  0.25500000920E-02 0.  1.
        2   -1    0    0  501    0  0.00000000000E+00  0.00000000000E+00 -0.16015591655E+04  0.16015591655E+04  0.25500000920E-02 0. -1.
    10030    2    1    2    0    0  0.00000000000E+00  0.00000000000E+00 -0.20750502178E+03  0.29956133093E+04  0.29884177694E+04 0.  0.
        4    1    3    3  502    0 -0.27592855754E+03 -0.10842614992E+04  0.88903565030E+03  0.14290365873E+04  0.12699999809E+01 0.  1.
       -4    1    3    3    0  502  0.27592855754E+03  0.10842614992E+04 -0.10965406721E+04  0.15665767220E+04  0.12699999809E+01 0. -1.
</event>
<event>
 5   0  0.1113245E-06  0.3011860E+04  0.7818609E-02  0.8240352E-01
       -1   -1    0    0    0  501  0.00000000000E+00  0.00000000000E+00  0.11895171290E+04  0.11895171290E+04  0.50400001928E-02 0. -1.
        1   -1    0    0  501    0  0.00000000000E+00  0.00000000000E+00 -0.19065086126E+04  0.19065086126E+04  0.50400001928E-02 0.  1.
    10030    2    1    2    0    0  0.00000000000E+00  0.00000000000E+00 -0.71699148357E+03  0.30960257417E+04  0.30118596590E+04 0.  0.
        5    1    3    3  502    0  0.74243713973E+03  0.10745905589E+04 -0.11290052613E+04  0.17264509103E+04  0.46999998093E+01 0.  1.
       -5    1    3    3    0  502 -0.74243713973E+03 -0.10745905589E+04  0.41201377770E+03  0.13695748314E+04  0.46999998093E+01 0. -1.
</event>
<event>
 5   0  0.1113245E-06  0.3009781E+04  0.7818609E-02  0.8240943E-01
       -1   -1    0    0    0  501  0.00000000000E+00  0.00000000000E+00  0.12583930776E+04  0.12583930776E+04  0.50400001928E-02 0.  1.
        1   -1    0    0  501    0  0.00000000000E+00  0.00000000000E+00 -0.17996728447E+04  0.17996728447E+04  0.50400001928E-02 0. -1.
    10030    2    1    2    0    0  0.00000000000E+00  0.00000000000E+00 -0.54127976712E+03  0.30580659223E+04  0.30097812875E+04 0.  0.
        5    1    3    3  502    0 -0.79630883926E+03  0.80212080960E+03 -0.12801425807E+04  0.17077156314E+04  0.46999998093E+01 0. -1.
       -5    1    3    3    0  502  0.79630883926E+03 -0.80212080960E+03  0.73886281363E+03  0.13503502909E+04  0.46999998093E+01 0.  1.
</event>
<event>
 5   0  0.9749500E-07  0.2951611E+04  0.7818609E-02  0.8257685E-01
        3   -1    0    0  501    0  0.00000000000E+00  0.00000000000E+00  0.15125514677E+04  0.15125514711E+04  0.10100000352E+00 0.  1.
       -3   -1    0    0    0  501  0.00000000000E+00  0.00000000000E+00 -0.14399521377E+04  0.14399521412E+04  0.10100000352E+00 0. -1.
    10030    2    1    2    0    0  0.00000000000E+00  0.00000000000E+00  0.72599330076E+02  0.29525036123E+04  0.29516109022E+04 0.  0.
        5    1    3    3  502    0  0.10625977590E+04  0.77321217146E+03 -0.63547517440E+03  0.14597334849E+04  0.46999998093E+01 0. -1.
       -5    1    3    3    0  502 -0.10625977590E+04 -0.77321217146E+03  0.70807450447E+03  0.14927701274E+04  0.46999998093E+01 0.  1.
</event>
<event>
 5   0  0.1091076E-06  0.2996562E+04  0.7818609E-02  0.8244713E-01
        1   -1    0    0  501    0  0.00000000000E+00  0.00000000000E+00  0.10874554374E+04  0.10874554374E+04  0.50400001928E-02 0.  1.
       -1   -1    0    0    0  501  0.00000000000E+00  0.00000000000E+00 -0.20643107056E+04  0.20643107056E+04  0.50400001928E-02 0. -1.
    10030    2    1    2    0    0  0.00000000000E+00  0.00000000000E+00 -0.97685526814E+03  0.31517661430E+04  0.29965619642E+04 0.  0.
        3    1    3    3  502    0  0.36098320971E+03  0.74529111195E+03  0.82487455711E+03  0.11688394947E+04  0.10100000352E+00 0.  1.
       -3    1    3    3    0  502 -0.36098320971E+03 -0.74529111195E+03 -0.18017298252E+04  0.19829266483E+04  0.10100000352E+00 0. -1.
</event>
<event>
 5   0  0.3113328E-06  0.3062282E+04  0.7818609E-02  0.8226166E-01
       -2   -1    0    0    0  501  0.00000000000E+00  0.00000000000E+00  0.21705654213E+04  0.21705654213E+04  0.25500000920E-02 0.  1.
        2   -1    0    0  501    0  0.00000000000E+00  0.00000000000E+00 -0.10800837858E+04  0.10800837858E+04  0.25500000920E-02 0. -1.
    10030    2    1    2    0    0  0.00000000000E+00  0.00000000000E+00  0.10904816355E+04  0.32506492071E+04  0.30622818405E+04 0.  0.
        1    1    3    3  502    0 -0.31129354450E+03  0.14881976459E+04  0.73736164392E+03  0.16897745701E+04  0.50400001928E-02 0.  1.
       -1    1    3    3    0  502  0.31129354450E+03 -0.14881976459E+04  0.35311999156E+03  0.15608746370E+04  0.50400001928E-02 0. -1.
</event>
<event>
 5   0  0.1054384E-06  0.2997242E+04  0.7818609E-02  0.8244519E-01
        1   -1    0    0  501    0  0.00000000000E+00  0.00000000000E+00  0.15482187384E+04  0.15482187384E+04  0.50400001928E-02 0. -1.
       -1   -1    0    0    0  501  0.00000000000E+00  0.00000000000E+00 -0.14506121203E+04  0.14506121203E+04  0.50400001928E-02 0.  1.
    10030    2    1    2    0    0  0.00000000000E+00  0.00000000000E+00  0.97606618154E+02  0.29988308587E+04  0.29972419767E+04 0.  0.
        2    1    3    3  502    0  0.55445648505E+03  0.13357210849E+04 -0.34420519563E+03  0.14866237006E+04  0.25500000920E-02 0.  1.
       -2    1    3    3    0  502 -0.55445648505E+03 -0.13357210849E+04  0.44181181378E+03  0.15122071581E+04  0.25500000920E-02 0. -1.
</event>
<event>
 5   0  0.1091076E-06  0.2993007E+04  0.7818609E-02  0.8245730E-01
       -1   -1    0    0    0  501  0.00000000000E+00  0.00000000000E+00  0.16032618792E+04  0.16032618793E+04  0.50400001928E-02 0. -1.
        1   -1    0    0  501    0  0.00000000000E+00  0.00000000000E+00 -0.13968543164E+04  0.13968543164E+04  0.50400001928E-02 0.  1.
    10030    2    1    2    0    0  0.00000000000E+00  0.00000000000E+00  0.20640756285E+03  0.30001161957E+04  0.29930073681E+04 0.  0.
        3    1    3    3  502    0  0.61029590493E+03  0.84927676069E+03 -0.96975496113E+03  0.14262386906E+04  0.10100000352E+00 0.  1.
       -3    1    3    3    0  502 -0.61029590493E+03 -0.84927676069E+03  0.11761625240E+04  0.15738775050E+04  0.10100000352E+00 0. -1.
</event>
<event>
 5   0  0.1054384E-06  0.3003750E+04  0.7818609E-02  0.8242661E-01
       -1   -1    0    0    0  501  0.00000000000E+00  0.00000000000E+00  0.10403886341E+04  0.10403886341E+04  0.50400001928E-02 0. -1.
        1   -1    0    0  501    0  0.00000000000E+00  0.00000000000E+00 -0.21680634157E+04  0.21680634157E+04  0.50400001928E-02 0.  1.
    10030    2    1    2    0    0  0.00000000000E+00  0.00000000000E+00 -0.11276747816E+04  0.32084520499E+04  0.30037500134E+04 0.  0.
        2    1    3    3  502    0 -0.95082563109E+03  0.10108840154E+04 -0.11771377728E+04  0.18197827369E+04  0.25500000920E-02 0.  1.
       -2    1    3    3    0  502  0.95082563109E+03 -0.10108840154E+04  0.49462991135E+02  0.13886693130E+04  0.25500000920E-02 0. -1.
</event>
<event>
 5   0  0.1091076E-06  0.2974552E+04  0.7818609E-02  0.8251035E-01
       -1   -1    0    0    0  501  0.00000000000E+00  0.00000000000E+00  0.30422538556E+04  0.30422538556E+04  0.50400001928E-02 0. -1.
        1   -1    0    0  501    0  0.00000000000E+00  0.00000000000E+00 -0.72708930169E+03  0.72708930171E+03  0.50400001928E-02 0.  1.
    10030    2    1    2    0    0  0.00000000000E+00  0.00000000000E+00  0.23151645540E+04  0.37693431574E+04  0.29745522228E+04 0.  0.
        3    1    3    3  502    0  0.37151996088E+03 -0.11537164699E+04  0.22498011612E+04  0.25555222655E+04  0.10100000352E+00 0. -1.
       -3    1    3    3    0  502 -0.37151996088E+03  0.11537164699E+04  0.65363392771E+02  0.12138208919E+04  0.10100000352E+00 0.  1.
</event>
<event>
 5   0  0.2948711E-06  0.3005373E+04  0.7818609E-02  0.8242198E-01
       -2   -1    0    0    0  501  0.00000000000E+00  0.00000000000E+00  0.10351010043E+04  0.10351010043E+04  0.25500000920E-02 0.  1.
        2   -1    0    0  501    0  0.00000000000E+00  0.00000000000E+00 -0.21814937268E+04  0.21814937268E+04  0.25500000920E-02 0. -1.
    10030    2    1    2    0    0  0.00000000000E+00  0.00000000000E+00 -0.11463927224E+04  0.32165947311E+04  0.30053727539E+04 0.  0.
        5    1    3    3  502    0 -0.43238473176E+03 -0.12634729989E+04 -0.13106223686E+04  0.18711156186E+04  0.46999998093E+01 0.  1.
       -5    1    3    3    0  502  0.43238473176E+03  0.12634729989E+04  0.16422964616E+03  0.13454791124E+04  0.46999998093E+01 0. -1.
</event>
<event>
 5   0  0.3113328E-06  0.2988574E+04  0.7818609E-02  0.8247001E-01
       -2   -1    0    0    0  501  0.00000000000E+00  0.00000000000E+00  0.10254579914E+04  0.10254579914E+04  0.25500000920E-02 0. -1.
        2   -1    0    0  501    0  0.00000000000E+00  0.00000000000E+00 -0.21774597805E+04  0.21774597805E+04  0.25500000920E-02 0.  1.
    10030    2    1    2    0    0  0.00000000000E+00  0.00000000000E+00 -0.11520017891E+04  0.32029177719E+04  0.29885739294E+04 0.  0.
        1    1    3    3  502    0 -0.13350252155E+04 -0.14510129613E+03  0.12640320893E+03  0.13488233700E+04  0.50400001928E-02 0. -1.
       -1    1    3    3    0  502  0.13350252155E+04  0.14510129613E+03 -0.12784049981E+04  0.18540944019E+04  0.50400001928E-02 0.  1.
</event>
<event>
 5   0  0.1091075E-06  0.2991946E+04  0.7818609E-02  0.8246035E-01
        1   -1    0    0  501    0  0.00000000000E+00  0.00000000000E+00  0.17266812864E+04  0.17266812864E+04  0.50400001928E-02 0. -1.
       -1   -1    0    0    0  501  0.00000000000E+00  0.00000000000E+00 -0.12960903579E+04  0.12960903579E+04  0.50400001928E-02 0.  1.
    10030    2    1    2    0    0  0.00000000000E+00  0.00000000000E+00  0.43059092844E+03  0.30227716443E+04  0.29919458327E+04 0.  0.
        1    1    3    3  502    0  0.19263694829E+03 -0.66671658382E+03 -0.11236189419E+04  0.13206587461E+04  0.50400001928E-02 0.  1.
       -1    1    3    3    0  502 -0.19263694829E+03  0.66671658382E+03  0.15542098704E+04  0.17021128982E+04  0.50400001928E-02 0. -1.
</event>
<event>
 5   0  0.2862033E-06  0.3025042E+04  0.7818609E-02  0.8236616E-01
       -2   -1    0    0    0  501  0.00000000000E+00  0.00000000000E+00  0.14216429655E+04  0.14216429655E+04  0.25500000920E-02 0.  1.
        2   -1    0    0  501    0  0.00000000000E+00  0.00000000000E+00 -0.16092079065E+04  0.16092079065E+04  0.25500000920E-02 0. -1.
    10030    2    1    2    0    0  0.00000000000E+00  0.00000000000E+00 -0.18756494101E+03  0.30308508720E+04  0.30250415536E+04 0.  0.
        2    1    3    3  502    0  0.48637669926E+03 -0.13630126756E+04  0.34678148699E+03  0.14881610287E+04  0.25500000920E-02 0.  1.
       -2    1    3    3    0  502 -0.48637669926E+03  0.13630126756E+04 -0.53434642799E+03  0.15426898433E+04  0.25500000920E-02 0. -1.
</event>
<event>
 5   0  0.2948711E-06  0.3002366E+04  0.7818609E-02  0.8243056E-01
       -2   -1    0    0    0  501  0.00000000000E+00  0.00000000000E+00  0.29110974582E+04  0.29110974582E+04  0.25500000920E-02 0.  1.
        2   -1    0    0  501    0  0.00000000000E+00  0.00000000000E+00 -0.77412393834E+03  0.77412393835E+03  0.25500000920E-02 0. -1.
    10030    2    1    2    0    0  0.00000000000E+00  0.00000000000E+00  0.21369735199E+04  0.36852213965E+04  0.30023658866E+04 0.  0.
        5    1    3    3  502    0  0.14308543515E+04  0.27401347846E+03  0.15129156371E+04  0.21003245884E+04  0.46999998093E+01 0. -1.
       -5    1    3    3    0  502 -0.14308543515E+04 -0.27401347846E+03  0.62405788275E+03  0.15848968082E+04  0.46999998093E+01 0.  1.
</event>
<event>
 5   0  0.1054384E-06  0.2997299E+04  0.7818609E-02  0.8244502E-01
        1   -1    0    0  501    0  0.00000000000E+00  0.00000000000E+00  0.25103670431E+04  0.25103670431E+04  0.50400001928E-02 0. -1.
       -1   -1    0    0    0  501  0.00000000000E+00  0.00000000000E+00 -0.89467030076E+03  0.89467030077E+03  0.50400001928E-02 0.  1.
    10030    2    1    2    0    0  0.00000000000E+00  0.00000000000E+00  0.16156967423E+04  0.34050373439E+04  0.29972993427E+04 0.  0.
        2    1    3    3  502    0 -0.58206576753E+03 -0.42542220718E+03 -0.68471599257E+03  0.99429402220E+03  0.25500000920E-02 0.  1.
       -2    1    3    3    0  502  0.58206576753E+03  0.42542220718E+03  0.23004127349E+04  0.24107433217E+04  0.25500000920E-02 0. -1.
</event>
<event>
 5   0  0.2862033E-06  0.3009415E+04  0.7818609E-02  0.8241047E-01
       -2   -1    0    0    0  501  0.00000000000E+00  0.00000000000E+00  0.13027635619E+04  0.13027635619E+04  0.25500000920E-02 0.  1.
        2   -1    0    0  501    0  0.00000000000E+00  0.00000000000E+00 -0.17379552837E+04  0.17379552837E+04  0.25500000920E-02 0. -1.
    10030    2    1    2    0    0  0.00000000000E+00  0.00000000000E+00 -0.43519172178E+03  0.30407188457E+04  0.30094151033E+04 0.  0.
        2    1    3    3  502    0 -0.51640465793E+02  0.33277909507E+03  0.12641978159E+04  0.13082831428E+04  0.25500000920E-02 0.  1.
       -2    1    3    3    0  502  0.51640465793E+02 -0.33277909507E+03 -0.16993895377E+04  0.17324357029E+04  0.25500000920E-02 0. -1.
</event>
<event>
 5   0  0.2985941E-06  0.2997941E+04  0.7818609E-02  0.8244319E-01
        2   -1    0    0  501    0  0.00000000000E+00  0.00000000000E+00  0.16074805746E+04  0.16074805746E+04  0.25500000920E-02 0. -1.
       -2   -1    0    0    0  501  0.00000000000E+00  0.00000000000E+00 -0.13977848820E+04  0.13977848820E+04  0.25500000920E-02 0.  1.
    10030    2    1    2    0    0  0.00000000000E+00  0.00000000000E+00  0.20969569254E+03  0.30052654566E+04  0.29979406567E+04 0.  0.
        3    1    3    3  502    0  0.54516374571E+03  0.13225781309E+03 -0.12885902798E+04  0.14054040551E+04  0.10100000352E+00 0.  1.
       -3    1    3    3    0  502 -0.54516374571E+03 -0.13225781309E+03  0.14982859724E+04  0.15998614015E+04  0.10100000352E+00 0. -1.
</event>
<event>
 5   0  0.9749500E-07  0.2963450E+04  0.7818609E-02  0.8254246E-01
        3   -1    0    0  501    0  0.00000000000E+00  0.00000000000E+00  0.16548230814E+04  0.16548230844E+04  0.10100000352E+00 0.  1.
       -3   -1    0    0    0  501  0.00000000000E+00  0.00000000000E+00 -0.13267336020E+04  0.13267336058E+04  0.10100000352E+00 0. -1.
    10030    2    1    2    0    0  0.00000000000E+00  0.00000000000E+00  0.32808947935E+03  0.29815566903E+04  0.29634502849E+04 0.  0.
        1    1    3    3  502    0 -0.13888275431E+04  0.51536647821E+03  0.19687610198E+03  0.14943910970E+04  0.50400001928E-02 0.  1.
       -1    1    3    3    0  502  0.13888275431E+04 -0.51536647821E+03  0.13121337737E+03  0.14871655932E+04  0.50400001928E-02 0. -1.
</event>
<event>
 5   0  0.1113245E-06  0.3004679E+04  0.7818609E-02  0.8242396E-01
       -1   -1    0    0    0  501  0.00000000000E+00  0.00000000000E+00  0.12916294493E+04  0.12916294493E+04  0.50400001928E-02 0. -1.
        1   -1    0    0  501    0  0.00000000000E+00  0.00000000000E+00 -0.17474234721E+04  0.17474234721E+04  0.50400001928E-02 0.  1.
    10030    2    1    2    0    0  0.00000000000E+00  0.00000000000E+00 -0.45579402283E+03  0.30390529214E+04  0.30046787629E+04 0.  0.
        5    1    3    3  502    0  0.65508439775E+02 -0.14990751746E+04 -0.30279681949E+03  0.15307598567E+04  0.46999998093E+01 0.  1.
       -5    1    3    3    0  502 -0.65508439775E+02  0.14990751746E+04 -0.15299720334E+03  0.15082930647E+04  0.46999998093E+01 0. -1.
</event>
<event>
 5   0  0.3113328E-06  0.3004341E+04  0.7818609E-02  0.8242493E-01
       -2   -1    0    0    0  501  0.00000000000E+00  0.00000000000E+00  0.31447605685E+04  0.31447605685E+04  0.25500000920E-02 0. -1.
        2   -1    0    0  501    0  0.00000000000E+00  0.00000000000E+00 -0.71754763366E+03  0.71754763366E+03  0.25500000920E-02 0.  1.
    10030    2    1    2    0    0  0.00000000000E+00  0.00000000000E+00  0.24272129348E+04  0.38623082022E+04  0.30043405295E+04 0.  0.
        1    1    3    3  502    0 -0.86380219197E+03 -0.92951757999E+03  0.18004942560E+03  0.12816298038E+04  0.50400001928E-02 0.  1.
       -1    1    3    3    0  502  0.86380219197E+03  0.92951757999E+03  0.22471635092E+04  0.25806783983E+04  0.50400001928E-02 0. -1.
</event>
<event>
 5   0  0.1097402E-06  0.2996290E+04  0.7818609E-02  0.8244791E-01
        1   -1    0    0  501    0  0.00000000000E+00  0.00000000000E+00  0.15739473274E+04  0.15739473274E+04  0.50400001928E-02 0.  1.
       -1   -1    0    0    0  501  0.00000000000E+00  0.00000000000E+00 -0.14259933160E+04  0.14259933160E+04  0.50400001928E-02 0. -1.
    10030    2    1    2    0    0  0.00000000000E+00  0.00000000000E+00  0.14795401139E+03  0.29999406435E+04  0.29962899517E+04 0.  0.
        4    1    3    3  502    0  0.22865091076E+03 -0.56854601974E+03 -0.12947698270E+04  0.14324651246E+04  0.12699999809E+01 0. -1.
       -4    1    3    3    0  502 -0.22865091076E+03  0.56854601974E+03  0.14427238383E+04  0.15674755188E+04  0.12699999809E+01 0.  1.
</event>
<event>
 5   0  0.1054384E-06  0.2996248E+04  0.7818609E-02  0.8244803E-01
        1   -1    0    0  501    0  0.00000000000E+00  0.00000000000E+00  0.18258501619E+04  0.18258501619E+04  0.50400001928E-02 0. -1.
       -1   -1    0    0    0  501  0.00000000000E+00  0.00000000000E+00 -0.12292223373E+04  0.12292223373E+04  0.50400001928E-02 0.  1.
    10030    2    1    2    0    0  0.00000000000E+00  0.00000000000E+00  0.59662782458E+03  0.30550724992E+04  0.29962481897E+04 0.  0.
        2    1    3    3  502    0 -0.33550352300E+03 -0.39699110099E+02  0.17865016282E+04  0.18181657518E+04  0.25500000920E-02 0. -1.
       -2    1    3    3    0  502  0.33550352300E+03  0.39699110099E+02 -0.11898738036E+04  0.12369067475E+04  0.25500000920E-02 0.  1.
</event>
<event>
 5   0  0.2970915E-06  0.2982287E+04  0.7818609E-02  0.8248807E-01
       -2   -1    0    0    0  501  0.00000000000E+00  0.00000000000E+00  0.14215950284E+04  0.14215950285E+04  0.25500000920E-02 0. -1.
        2   -1    0    0  501    0  0.00000000000E+00  0.00000000000E+00 -0.15640940883E+04  0.15640940883E+04  0.25500000920E-02 0.  1.
    10030    2    1    2    0    0  0.00000000000E+00  0.00000000000E+00 -0.14249905981E+03  0.29856891167E+04  0.29822866260E+04 0.  0.
        4    1    3    3  502    0  0.11753454435E+04 -0.65975507410E+03 -0.70978053748E+03  0.15233199577E+04  0.12699999809E+01 0.  1.
       -4    1    3    3    0  502 -0.11753454435E+04  0.65975507410E+03  0.56728147766E+03  0.14623691590E+04  0.12699999809E+01 0. -1.
</event>
<event>
 5   0  0.2862033E-06  0.2989944E+04  0.7818609E-02  0.8246608E-01
       -2   -1    0    0    0  501  0.00000000000E+00  0.00000000000E+00  0.12402731590E+04  0.12402731590E+04  0.25500000920E-02 0. -1.
        2   -1    0    0  501    0  0.00000000000E+00  0.00000000000E+00 -0.18019747946E+04  0.18019747946E+04  0.25500000920E-02 0.  1.
    10030    2    1    2    0    0  0.00000000000E+00  0.00000000000E+00 -0.56170163555E+03  0.30422479536E+04  0.29899437928E+04 0.  0.
        2    1    3    3  502    0  0.11691881988E+04  0.58089851105E+03  0.46024265253E+03  0.13842931133E+04  0.25500000920E-02 0. -1.
       -2    1    3    3    0  502 -0.11691881988E+04 -0.58089851105E+03 -0.10219442881E+04  0.16579548403E+04  0.25500000920E-02 0.  1.
</event>
<event>
 5   0  0.2948711E-06  0.2982333E+04  0.7818609E-02  0.8248794E-01
       -2   -1    0    0    0  501  0.00000000000E+00  0.00000000000E+00  0.11967380830E+04  0.11967380830E+04  0.25500000920E-02 0. -1.
        2   -1    0    0  501    0  0.00000000000E+00  0.00000000000E+00 -0.18580313733E+04  0.18580313733E+04  0.25500000920E-02 0.  1.
    10030    2    1    2    0    0  0.00000000000E+00  0.00000000000E+00 -0.66129329025E+03  0.30547694563E+04  0.29823325796E+04 0.  0.
        5    1    3    3  502    0  0.70578916397E+03 -0.26227338129E+03  0.98771638309E+03  0.12419868815E+04  0.46999998093E+01 0. -1.
       -5    1    3    3    0  502 -0.70578916397E+03  0.26227338129E+03 -0.16490096733E+04  0.18127825747E+04  0.46999998093E+01 0.  1.
</event>
<event>
 5   0  0.1054384E-06  0.2981645E+04  0.7818609E-02  0.8248992E-01
       -1   -1    0    0    0  501  0.00000000000E+00  0.00000000000E+00  0.95031886909E+03  0.95031886910E+03  0.50400001928E-02 0.  1.
        1   -1    0    0  501    0  0.00000000000E+00  0.00000000000E+00 -0.23387429857E+04  0.23387429857E+04  0.50400001928E-02 0. -1.
    10030    2    1    2    0    0  0.00000000000E+00  0.00000000000E+00 -0.13884241167E+04  0.32890618549E+04  0.29816449080E+04 0.  0.
        2    1    3    3  502    0  0.65935125621E+03  0.28503366887E+03  0.74683221294E+03  0.10362174606E+04  0.25500000920E-02 0.  1.
       -2    1    3    3    0  502 -0.65935125621E+03 -0.28503366887E+03 -0.21352563296E+04  0.22528443942E+04  0.25500000920E-02 0. -1.
</event>
<event>
 5   0  0.2970915E-06  0.3023017E+04  0.7818609E-02  0.8237188E-01
       -2   -1    0    0    0  501  0.00000000000E+00  0.00000000000E+00  0.11122921021E+04  0.11122921021E+04  0.25500000920E-02 0. -1.
        2   -1    0    0  501    0  0.00000000000E+00  0.00000000000E+00 -0.20540096078E+04  0.20540096078E+04  0.25500000920E-02 0.  1.
    10030    2    1    2    0    0  0.00000000000E+00  0.00000000000E+00 -0.94171750577E+03  0.31663017099E+04  0.30230174756E+04 0.  0.
        4    1    3    3  502    0  0.16188140523E+03  0.97858050290E+03 -0.16654578636E+04  0.19384470326E+04  0.12699999809E+01 0.  1.
       -4    1    3    3    0  502 -0.16188140523E+03 -0.97858050290E+03  0.72374035784E+03  0.12278546773E+04  0.12699999809E+01 0. -1.
</event>
<event>
 5   0  0.2985941E-06  0.2993902E+04  0.7818609E-02  0.8245474E-01
       -2   -1    0    0    0  501  0.00000000000E+00  0.00000000000E+00  0.88914943864E+03  0.88914943865E+03  0.25500000920E-02 0. -1.
        2   -1    0    0  501    0  0.00000000000E+00  0.00000000000E+00 -0.25202319851E+04  0.25202319851E+04  0.25500000920E-02 0.  1.
    10030    2    1    2    0    0  0.00000000000E+00  0.00000000000E+00 -0.16310825464E+04  0.34093814237E+04  0.29939023730E+04 0.  0.
        3    1    3    3  502    0  0.72241615070E+03 -0.13067630418E+04 -0.93685210521E+03  0.17627270405E+04  0.10100000352E+00 0.  1.
       -3    1    3    3    0  502 -0.72241615070E+03  0.13067630418E+04 -0.69423044123E+03  0.16466543832E+04  0.10100000352E+00 0. -1.
</event>
<event>
 5   0  0.1091076E-06  0.3012720E+04  0.7818609E-02  0.8240108E-01
       -1   -1    0    0    0  501  0.00000000000E+00  0.00000000000E+00  0.10057035532E+04  0.10057035532E+04  0.50400001928E-02 0.  1.
        1   -1    0    0  501    0  0.00000000000E+00  0.00000000000E+00 -0.22562516031E+04  0.22562516031E+04  0.50400001928E-02 0. -1.
    10030    2    1    2    0    0  0.00000000000E+00  0.00000000000E+00 -0.12505480499E+04  0.32619551563E+04  0.30127198703E+04 0.  0.
        3    1    3    3  502    0  0.80038301064E+03 -0.12527542777E+04 -0.36202643271E+03  0.15300553560E+04  0.10100000352E+00 0.  1.
       -3    1    3    3    0  502 -0.80038301064E+03  0.12527542777E+04 -0.88852161718E+03  0.17318998004E+04  0.10100000352E+00 0. -1.
</event>
<event>
 5   0  0.2985941E-06  0.2989723E+04  0.7818609E-02  0.8246672E-01
       -2   -1    0    0    0  501  0.00000000000E+00  0.00000000000E+00  0.10126628288E+04  0.10126628288E+04  0.25500000920E-02 0. -1.
        2   -1    0    0  501    0  0.00000000000E+00  0.00000000000E+00 -0.22066682008E+04  0.22066682008E+04  0.25500000920E-02 0.  1.
    10030    2    1    2    0    0  0.00000000000E+00  0.00000000000E+00 -0.11940053720E+04  0.32193310295E+04  0.29897229720E+04 0.  0.
        3    1    3    3  502    0  0.76197597445E+02 -0.28101378892E+03 -0.21758399043E+04  0.21952344118E+04  0.10100000352E+00 0.  1.
       -3    1    3    3    0  502 -0.76197597445E+02  0.28101378892E+03  0.98183453230E+03  0.10240966177E+04  0.10100000352E+00 0. -1.
</event>
<event>
 5   0  0.1054384E-06  0.2992022E+04  0.7818609E-02  0.8246013E-01
       -1   -1    0    0    0  501  0.00000000000E+00  0.00000000000E+00  0.93087417511E+03  0.93087417512E+03  0.50400001928E-02 0. -1.
        1   -1    0    0  501    0  0.00000000000E+00  0.00000000000E+00 -0.24042441534E+04  0.24042441534E+04  0.50400001928E-02 0.  1.
    10030    2    1    2    0    0  0.00000000000E+00  0.00000000000E+00 -0.14733699783E+04  0.33351183286E+04  0.29920219204E+04 0.  0.
        2    1    3    3  502    0 -0.96112885281E+02 -0.24197534783E+03  0.90542507509E+03  0.94211693663E+03  0.25500000920E-02 0. -1.
       -2    1    3    3    0  502  0.96112885281E+02  0.24197534783E+03 -0.23787950534E+04  0.23930013919E+04  0.25500000920E-02 0.  1.
</event>
<event>
 5   0  0.1091075E-06  0.2929363E+04  0.7818609E-02  0.8264194E-01
       -1   -1    0    0    0  501  0.00000000000E+00  0.00000000000E+00  0.63206481786E+03  0.63206481788E+03  0.50400001928E-02 0. -1.
        1   -1    0    0  501    0  0.00000000000E+00  0.00000000000E+00 -0.33941021174E+04  0.33941021174E+04  0.50400001928E-02 0.  1.
    10030    2    1    2    0    0  0.00000000000E+00  0.00000000000E+00 -0.27620372996E+04  0.40261669353E+04  0.29293634371E+04 0.  0.
        1    1    3    3  502    0 -0.11041128600E+04  0.79397402868E+03 -0.21285708346E+04  0.25259203795E+04  0.50400001928E-02 0.  1.
       -1    1    3    3    0  502  0.11041128600E+04 -0.79397402868E+03 -0.63346646497E+03  0.15002465558E+04  0.50400001928E-02 0. -1.
</event>
<event>
 5   0  0.2970915E-06  0.2837356E+04  0.7818609E-02  0.8291764E-01
       -2   -1    0    0    0  501  0.00000000000E+00  0.00000000000E+00  0.13426266012E+04  0.13426266012E+04  0.25500000920E-02 0. -1.
        2   -1    0    0  501    0  0.00000000000E+00  0.00000000000E+00 -0.14990369843E+04  0.14990369843E+04  0.25500000920E-02 0.  1.
    10030    2    1    2    0    0  0.00000000000E+00  0.00000000000E+00 -0.15641038307E+03  0.28416635855E+04  0.28373557628E+04 0.  0.
        4    1    3    3  502    0 -0.54526011142E+03 -0.62793414790E+03 -0.12293132712E+04  0.14841908957E+04  0.12699999809E+01 0.  1.
       -4    1    3    3    0  502  0.54526011142E+03  0.62793414790E+03  0.10729028881E+04  0.13574726898E+04  0.12699999809E+01 0. -1.
</event>
<event>
 5   0  0.2970915E-06  0.3004115E+04  0.7818609E-02  0.8242557E-01
       -2   -1    0    0    0  501  0.00000000000E+00  0.00000000000E+00  0.70475489868E+03  0.70475489868E+03  0.25500000920E-02 0. -1.
        2   -1    0    0  501    0  0.00000000000E+00  0.00000000000E+00 -0.32013643636E+04  0.32013643636E+04  0.25500000920E-02 0.  1.
    10030    2    1    2    0    0  0.00000000000E+00  0.00000000000E+00 -0.24966094649E+04  0.39061192623E+04  0.30041153225E+04 0.  0.
        4    1    3    3  502    0 -0.14245581883E+03 -0.13297655277E+03  0.68824729380E+03  0.71530579071E+03  0.12699999809E+01 0. -1.
       -4    1    3    3    0  502  0.14245581883E+03  0.13297655277E+03 -0.31848567587E+04  0.31908134716E+04  0.12699999809E+01 0.  1.
</event>
<event>
 5   0  0.2970915E-06  0.2966325E+04  0.7818609E-02  0.8253413E-01
       -2   -1    0    0    0  501  0.00000000000E+00  0.00000000000E+00  0.13188301900E+04  0.13188301900E+04  0.25500000920E-02 0.  1.
        2   -1    0    0  501    0  0.00000000000E+00  0.00000000000E+00 -0.16679716084E+04  0.16679716084E+04  0.25500000920E-02 0. -1.
    10030    2    1    2    0    0  0.00000000000E+00  0.00000000000E+00 -0.34914141836E+03  0.29868017984E+04  0.29663252103E+04 0.  0.
        4    1    3    3  502    0 -0.37833723811E+03 -0.13493439293E+04 -0.66362050297E+03  0.15505682475E+04  0.12699999809E+01 0. -1.
       -4    1    3    3    0  502  0.37833723811E+03  0.13493439293E+04  0.31447908461E+03  0.14362335509E+04  0.12699999809E+01 0.  1.
</event>
<event>
 5   0  0.1091075E-06  0.2988292E+04  0.7818609E-02  0.8247082E-01
       -1   -1    0    0    0  501  0.00000000000E+00  0.00000000000E+00  0.14833710053E+04  0.14833710053E+04  0.50400001928E-02 0.  1.
        1   -1    0    0  501    0  0.00000000000E+00  0.00000000000E+00 -0.15049994721E+04  0.15049994721E+04  0.50400001928E-02 0. -1.
    10030    2    1    2    0    0  0.00000000000E+00  0.00000000000E+00 -0.21628466840E+02  0.29883704774E+04  0.29882922079E+04 0.  0.
        1    1    3    3  502    0 -0.93220639632E+03  0.74737135771E+03 -0.90799985123E+03  0.15006786603E+04  0.50400001928E-02 0. -1.
       -1    1    3    3    0  502  0.93220639632E+03 -0.74737135771E+03  0.88637138439E+03  0.14876918171E+04  0.50400001928E-02 0.  1.
</event>
<event>
 5   0  0.2985941E-06  0.2997830E+04  0.7818609E-02  0.8244351E-01
        2   -1    0    0  501    0  0.00000000000E+00  0.00000000000E+00  0.15658830493E+04  0.15658830493E+04  0.25500000920E-02 0.  1.
       -2   -1    0    0    0  501  0.00000000000E+00  0.00000000000E+00 -0.14348109890E+04  0.14348109890E+04  0.25500000920E-02 0. -1.
    10030    2    1    2    0    0  0.00000000000E+00  0.00000000000E+00  0.13107206028E+03  0.30006940383E+04  0.29978300197E+04 0.  0.
        3    1    3    3  502    0 -0.12138558281E+04 -0.87399755426E+03 -0.31657201047E+02  0.14961015623E+04  0.10100000352E+00 0.  1.
       -3    1    3    3    0  502  0.12138558281E+04  0.87399755426E+03  0.16272926133E+03  0.15045924760E+04  0.10100000352E+00 0. -1.
</event>
<event>
 5   0  0.3113328E-06  0.2925220E+04  0.7818609E-02  0.8265413E-01
        2   -1    0    0  501    0  0.00000000000E+00  0.00000000000E+00  0.10676837867E+04  0.10676837867E+04  0.25500000920E-02 0.  1.
       -2   -1    0    0    0  501  0.00000000000E+00  0.00000000000E+00 -0.20036151352E+04  0.20036151352E+04  0.25500000920E-02 0. -1.
    10030    2    1    2    0    0  0.00000000000E+00  0.00000000000E+00 -0.93593134850E+03  0.30712989219E+04  0.29252195778E+04 0.  0.
        1    1    3    3  502    0 -0.11735722664E+04  0.85400930268E+03 -0.27832572451E+03  0.14778595882E+04  0.50400001928E-02 0.  1.
       -1    1    3    3    0  502  0.11735722664E+04 -0.85400930268E+03 -0.65760562400E+03  0.15934393337E+04  0.50400001928E-02 0. -1.
</event>
<event>
 5   0  0.1054384E-06  0.2980398E+04  0.7818609E-02  0.8249351E-01
       -1   -1    0    0    0  501  0.00000000000E+00  0.00000000000E+00  0.12849356846E+04  0.12849356846E+04  0.50400001928E-02 0. -1.
        1   -1    0    0  501    0  0.00000000000E+00  0.00000000000E+00 -0.17282521110E+04  0.17282521110E+04  0.50400001928E-02 0.  1.
    10030    2    1    2    0    0  0.00000000000E+00  0.00000000000E+00 -0.44331642639E+03  0.30131877956E+04  0.29803978321E+04 0.  0.
        2    1    3    3  502    0  0.13886301479E+04 -0.38911188748E+03  0.15796061984E+03  0.14507423293E+04  0.25500000920E-02 0. -1.
       -2    1    3    3    0  502 -0.13886301479E+04  0.38911188748E+03 -0.60127704622E+03  0.15624454663E+04  0.25500000920E-02 0.  1.
</event>
<event>
 5   0  0.1091075E-06  0.2986549E+04  0.7818609E-02  0.8247582E-01
       -1   -1    0    0    0  501  0.00000000000E+00  0.00000000000E+00  0.15883669093E+04  0.15883669093E+04  0.50400001928E-02 0. -1.
        1   -1    0    0  501    0  0.00000000000E+00  0.00000000000E+00 -0.14038752868E+04  0.14038752868E+04  0.50400001928E-02 0.  1.
    10030    2    1    2    0    0  0.00000000000E+00  0.00000000000E+00  0.18449162248E+03  0.29922421962E+04  0.29865492130E+04 0.  0.
        1    1    3    3  502    0  0.14525882722E+04  0.11772786585E+03  0.41843747176E+03  0.15162329823E+04  0.50400001928E-02 0. -1.
       -1    1    3    3    0  502 -0.14525882722E+04 -0.11772786585E+03 -0.23394584928E+03  0.14760092138E+04  0.50400001928E-02 0.  1.
</event>
<event>
 5   0  0.1054384E-06  0.3001011E+04  0.7818609E-02  0.8243442E-01
       -1   -1    0    0    0  501  0.00000000000E+00  0.00000000000E+00  0.10323950444E+04  0.10323950445E+04  0.50400001928E-02 0.  1.
        1   -1    0    0  501    0  0.00000000000E+00  0.00000000000E+00 -0.21808675864E+04  0.21808675864E+04  0.50400001928E-02 0. -1.
    10030    2    1    2    0    0  0.00000000000E+00  0.00000000000E+00 -0.11484725419E+04  0.32132626308E+04  0.30010110888E+04 0.  0.
        2    1    3    3  502    0 -0.14731837644E+02  0.14931510927E+04 -0.73232599568E+03  0.16631351649E+04  0.25500000920E-02 0.  1.
       -2    1    3    3    0  502  0.14731837644E+02 -0.14931510927E+04 -0.41614654625E+03  0.15501274660E+04  0.25500000920E-02 0. -1.
</event>
<event>
 5   0  0.2985941E-06  0.2991958E+04  0.7818609E-02  0.8246031E-01
        2   -1    0    0  501    0  0.00000000000E+00  0.00000000000E+00  0.18195156077E+04  0.18195156077E+04  0.25500000920E-02 0.  1.
       -2   -1    0    0    0  501  0.00000000000E+00  0.00000000000E+00 -0.12299715562E+04  0.12299715562E+04  0.25500000920E-02 0. -1.
    10030    2    1    2    0    0  0.00000000000E+00  0.00000000000E+00  0.58954405158E+03  0.30494871639E+04  0.29919575154E+04 0.  0.
        3    1    3    3  502    0 -0.25993608770E+03 -0.24392296440E+03 -0.11860535467E+04  0.12384620334E+04  0.10100000352E+00 0. -1.
       -3    1    3    3    0  502  0.25993608770E+03  0.24392296440E+03  0.17755975983E+04  0.18110251305E+04  0.10100000352E+00 0.  1.
</event>
<event>
 5   0  0.1054384E-06  0.2895913E+04  0.7818609E-02  0.8274094E-01
       -1   -1    0    0    0  501  0.00000000000E+00  0.00000000000E+00  0.85071734646E+03  0.85071734648E+03  0.50400001928E-02 0.  1.
        1   -1    0    0  501    0  0.00000000000E+00  0.00000000000E+00 -0.24644830905E+04  0.24644830905E+04  0.50400001928E-02 0. -1.
    10030    2    1    2    0    0  0.00000000000E+00  0.00000000000E+00 -0.16137657440E+04  0.33152004370E+04  0.28959133379E+04 0.  0.
        2    1    3    3  502    0  0.40603148693E+03  0.25698121097E+01 -0.23979746531E+04  0.24321082643E+04  0.25500000920E-02 0. -1.
       -2    1    3    3    0  502 -0.40603148693E+03 -0.25698121097E+01  0.78420890909E+03  0.88309217266E+03  0.25500000920E-02 0.  1.
</event>
<event>
 5   0  0.2862033E-06  0.2997839E+04  0.7818609E-02  0.8244348E-01
        2   -1    0    0  501    0  0.00000000000E+00  0.00000000000E+00  0.12853159890E+04  0.12853159890E+04  0.25500000920E-02 0. -1.
       -2   -1    0    0    0  501  0.00000000000E+00  0.00000000000E+00 -0.17480210762E+04  0.17480210762E+04  0.25500000920E-02 0.  1.
    10030    2    1    2    0    0  0.00000000000E+00  0.00000000000E+00 -0.46270508717E+03  0.30333370653E+04  0.29978388472E+04 0.  0.
        2    1    3    3  502    0 -0.33237657201E+03 -0.13062848499E+04  0.43208296096E+03  0.14154681133E+04  0.25500000920E-02 0. -1.
       -2    1    3    3    0  502  0.33237657201E+03  0.13062848499E+04 -0.89478804813E+03  0.16178689520E+04  0.25500000920E-02 0.  1.
</event>
<event>
 5   0  0.1091076E-06  0.2970198E+04  0.7818609E-02  0.8252292E-01
       -1   -1    0    0    0  501  0.00000000000E+00  0.00000000000E+00  0.10828222600E+04  0.10828222600E+04  0.50400001928E-02 0.  1.
        1   -1    0    0  501    0  0.00000000000E+00  0.00000000000E+00 -0.20368252467E+04  0.20368252467E+04  0.50400001928E-02 0. -1.
    10030    2    1    2    0    0  0.00000000000E+00  0.00000000000E+00 -0.95400298675E+03  0.31196475067E+04  0.29701984559E+04 0.  0.
        3    1    3    3  502    0 -0.61497039478E+03 -0.34713948657E+03  0.89518958950E+03  0.11402012195E+04  0.10100000352E+00 0.  1.
       -3    1    3    3    0  502  0.61497039478E+03  0.34713948657E+03 -0.18491925762E+04  0.19794462872E+04  0.10100000352E+00 0. -1.
</event>
<event>
 5   0  0.1091075E-06  0.2990758E+04  0.7818609E-02  0.8246375E-01
        1   -1    0    0  501    0  0.00000000000E+00  0.00000000000E+00  0.97153417541E+03  0.97153417543E+03  0.50400001928E-02 0. -1.
       -1   -1    0    0    0  501  0.00000000000E+00  0.00000000000E+00 -0.23016778649E+04  0.23016778649E+04  0.50400001928E-02 0.  1.
    10030    2    1    2    0    0  0.00000000000E+00  0.00000000000E+00 -0.13301436895E+04  0.32732120403E+04  0.29907582360E+04 0.  0.
        1    1    3    3  502    0  0.54310836957E+03 -0.80122578737E+03  0.58241428681E+03  0.11296618365E+04  0.50400001928E-02 0. -1.
       -1    1    3    3    0  502 -0.54310836957E+03  0.80122578737E+03 -0.19125579763E+04  0.21435502038E+04  0.50400001928E-02 0.  1.
</event>
<event>
 5   0  0.2970915E-06  0.3021722E+04  0.7818609E-02  0.8237555E-01
        2   -1    0    0  501    0  0.00000000000E+00  0.00000000000E+00  0.30468342809E+04  0.30468342809E+04  0.25500000920E-02 0. -1.
       -2   -1    0    0    0  501  0.00000000000E+00  0.00000000000E+00 -0.74920420552E+03  0.74920420552E+03  0.25500000920E-02 0.  1.
    10030    2    1    2    0    0  0.00000000000E+00  0.00000000000E+00  0.22976300754E+04  0.37960384864E+04  0.30217220632E+04 0.  0.
        4    1    3    3  502    0 -0.60057028781E+03 -0.12930699315E+04  0.17769211241E+04  0.22781933220E+04  0.12699999809E+01 0. -1.
       -4    1    3    3    0  502  0.60057028781E+03  0.12930699315E+04  0.52070895129E+03  0.15178451644E+04  0.12699999809E+01 0.  1.
</event>
<event>
 5   0  0.2948711E-06  0.2814258E+04  0.7818609E-02  0.8298855E-01
       -2   -1    0    0    0  501  0.00000000000E+00  0.00000000000E+00  0.17310729364E+04  0.17310729364E+04  0.25500000920E-02 0.  1.
        2   -1    0    0  501    0  0.00000000000E+00  0.00000000000E+00 -0.11438061476E+04  0.11438061476E+04  0.25500000920E-02 0. -1.
    10030    2    1    2    0    0  0.00000000000E+00  0.00000000000E+00  0.58726678875E+03  0.28748790840E+04  0.28142578891E+04 0.  0.
        5    1    3    3  502    0  0.11946579659E+04  0.69642357731E+03  0.55958014568E+03  0.14917658945E+04  0.46999998093E+01 0.  1.
       -5    1    3    3    0  502 -0.11946579659E+04 -0.69642357731E+03  0.27686643075E+02  0.13831131894E+04  0.46999998093E+01 0. -1.
</event>
<event>
 5   0  0.1054384E-06  0.2888763E+04  0.7818609E-02  0.8276229E-01
       -1   -1    0    0    0  501  0.00000000000E+00  0.00000000000E+00  0.16686871542E+04  0.16686871542E+04  0.50400001928E-02 0. -1.
        1   -1    0    0  501    0  0.00000000000E+00  0.00000000000E+00 -0.12502272904E+04  0.12502272904E+04  0.50400001928E-02 0.  1.
    10030    2    1    2    0    0  0.00000000000E+00  0.00000000000E+00  0.41845986388E+03  0.29189144446E+04  0.28887632089E+04 0.  0.
        2    1    3    3  502    0  0.20546089423E+03  0.14065765749E+04  0.46796185847E+03  0.14965494115E+04  0.25500000920E-02 0.  1.
       -2    1    3    3    0  502 -0.20546089423E+03 -0.14065765749E+04 -0.49501994592E+02  0.14223650331E+04  0.25500000920E-02 0. -1.
</event>
<event>
 5   0  0.1054384E-06  0.2947444E+04  0.7818609E-02  0.8258900E-01
        1   -1    0    0  501    0  0.00000000000E+00  0.00000000000E+00  0.22706232722E+04  0.22706232722E+04  0.50400001928E-02 0. -1.
       -1   -1    0    0    0  501  0.00000000000E+00  0.00000000000E+00 -0.95650233795E+03  0.95650233797E+03  0.50400001928E-02 0.  1.
    10030    2    1    2    0    0  0.00000000000E+00  0.00000000000E+00  0.13141209343E+04  0.32271256102E+04  0.29474439561E+04 0.  0.
        2    1    3    3  502    0  0.69879762661E+03  0.30896209413E+03  0.20368301793E+04  0.21754201612E+04  0.25500000920E-02 0. -1.
       -2    1    3    3    0  502 -0.69879762661E+03 -0.30896209413E+03 -0.72270924502E+03  0.10517054490E+04  0.25500000920E-02 0.  1.
</event>
<event>
 5   0  0.1091075E-06  0.3009497E+04  0.7818609E-02  0.8241024E-01
        1   -1    0    0  501    0  0.00000000000E+00  0.00000000000E+00  0.17007706952E+04  0.17007706952E+04  0.50400001928E-02 0.  1.
       -1   -1    0    0    0  501  0.00000000000E+00  0.00000000000E+00 -0.13313187053E+04  0.13313187053E+04  0.50400001928E-02 0. -1.
    10030    2    1    2    0    0  0.00000000000E+00  0.00000000000E+00  0.36945198989E+03  0.30320894005E+04  0.30094968615E+04 0.  0.
        1    1    3    3  502    0 -0.37353960745E+03  0.64218668376E+03  0.15031106133E+04  0.16766863425E+04  0.50400001928E-02 0.  1.
       -1    1    3    3    0  502  0.37353960745E+03 -0.64218668376E+03 -0.11336586234E+04  0.13554030580E+04  0.50400001928E-02 0. -1.
</event>
<event>
 5   0  0.1113245E-06  0.2892522E+04  0.7818609E-02  0.8275106E-01
       -1   -1    0    0    0  501  0.00000000000E+00  0.00000000000E+00  0.11877217067E+04  0.11877217067E+04  0.50400001928E-02 0.  1.
        1   -1    0    0  501    0  0.00000000000E+00  0.00000000000E+00 -0.17610782349E+04  0.17610782349E+04  0.50400001928E-02 0. -1.
    10030    2    1    2    0    0  0.00000000000E+00  0.00000000000E+00 -0.57335652816E+03  0.29487999416E+04  0.28925219770E+04 0.  0.
        5    1    3    3  502    0 -0.78465149832E+02  0.90918056969E+03 -0.14305077013E+04  0.16968030120E+04  0.46999998093E+01 0. -1.
       -5    1    3    3    0  502  0.78465149832E+02 -0.90918056969E+03  0.85715117319E+03  0.12519969296E+04  0.46999998093E+01 0.  1.
</event>
<event>
 5   0  0.1091076E-06  0.2893097E+04  0.7818609E-02  0.8274934E-01
        1   -1    0    0  501    0  0.00000000000E+00  0.00000000000E+00  0.14261239947E+04  0.14261239947E+04  0.50400001928E-02 0.  1.
       -1   -1    0    0    0  501  0.00000000000E+00  0.00000000000E+00 -0.14672651027E+04  0.14672651027E+04  0.50400001928E-02 0. -1.
    10030    2    1    2    0    0  0.00000000000E+00  0.00000000000E+00 -0.41141108009E+02  0.28933890973E+04  0.28930965898E+04 0.  0.
        3    1    3    3  502    0  0.76365674556E+03 -0.79314195762E+02 -0.12466796595E+04  0.14641285976E+04  0.10100000352E+00 0. -1.
       -3    1    3    3    0  502 -0.76365674556E+03  0.79314195762E+02  0.12055385515E+04  0.14292604997E+04  0.10100000352E+00 0.  1.
</event>
<event>
 5   0  0.3113328E-06  0.3005920E+04  0.7818609E-02  0.8242042E-01
        2   -1    0    0  501    0  0.00000000000E+00  0.00000000000E+00  0.14546039534E+04  0.14546039534E+04  0.25500000920E-02 0. -1.
       -2   -1    0    0    0  501  0.00000000000E+00  0.00000000000E+00 -0.15529236821E+04  0.15529236821E+04  0.25500000920E-02 0.  1.
    10030    2    1    2    0    0  0.00000000000E+00  0.00000000000E+00 -0.98319728656E+02  0.30075276355E+04  0.30059201103E+04 0.  0.
        1    1    3    3  502    0 -0.69464237509E+03 -0.41399647836E+03  0.12183908853E+04  0.14623260453E+04  0.50400001928E-02 0. -1.
       -1    1    3    3    0  502  0.69464237509E+03  0.41399647836E+03 -0.13167106140E+04  0.15452015902E+04  0.50400001928E-02 0.  1.
</event>
<event>
 5   0  0.1113245E-06  0.2992588E+04  0.7818609E-02  0.8245851E-01
       -1   -1    0    0    0  501  0.00000000000E+00  0.00000000000E+00  0.21926570179E+04  0.21926570179E+04  0.50400001928E-02 0. -1.
        1   -1    0    0  501    0  0.00000000000E+00  0.00000000000E+00 -0.10210877655E+04  0.10210877655E+04  0.50400001928E-02 0.  1.
    10030    2    1    2    0    0  0.00000000000E+00  0.00000000000E+00  0.11715692524E+04  0.32137447834E+04  0.29925876795E+04 0.  0.
        5    1    3    3  502    0  0.63904400924E+02 -0.12730236767E+04 -0.25584196077E+03  0.13000577882E+04  0.46999998093E+01 0.  1.
       -5    1    3    3    0  502 -0.63904400924E+02  0.12730236767E+04  0.14274112132E+04  0.19136869951E+04  0.46999998093E+01 0. -1.
</event>
<event>
 5   0  0.1091075E-06  0.3000924E+04  0.7818609E-02  0.8243467E-01
       -1   -1    0    0    0  501  0.00000000000E+00  0.00000000000E+00  0.14621174415E+04  0.14621174415E+04  0.50400001928E-02 0. -1.
        1   -1    0    0  501    0  0.00000000000E+00  0.00000000000E+00 -0.15398121992E+04  0.15398121992E+04  0.50400001928E-02 0.  1.
    10030    2    1    2    0    0  0.00000000000E+00  0.00000000000E+00 -0.77694757683E+02  0.30019296406E+04  0.30009240397E+04 0.  0.
        1    1    3    3  502    0 -0.70311866618E+03  0.13221395727E+04  0.55827691001E+02  0.14985144775E+04  0.50400001928E-02 0.  1.
       -1    1    3    3    0  502  0.70311866618E+03 -0.13221395727E+04 -0.13352244868E+03  0.15034151631E+04  0.50400001928E-02 0. -1.
</event>
<event>
 5   0  0.1091076E-06  0.2962605E+04  0.7818609E-02  0.8254491E-01
        1   -1    0    0  501    0  0.00000000000E+00  0.00000000000E+00  0.19748445172E+04  0.19748445172E+04  0.50400001928E-02 0.  1.
       -1   -1    0    0    0  501  0.00000000000E+00  0.00000000000E+00 -0.11111036110E+04  0.11111036110E+04  0.50400001928E-02 0. -1.
    10030    2    1    2    0    0  0.00000000000E+00  0.00000000000E+00  0.86374090616E+03  0.30859481282E+04  0.29626048500E+04 0.  0.
        3    1    3    3  502    0 -0.89410513662E+03 -0.70544679763E+03 -0.55475910833E+03  0.12668215573E+04  0.10100000352E+00 0. -1.
       -3    1    3    3    0  502  0.89410513662E+03  0.70544679763E+03  0.14185000145E+04  0.18191265709E+04  0.10100000352E+00 0.  1.
</event>
<event>
 5   0  0.1097402E-06  0.2982518E+04  0.7818609E-02  0.8248741E-01
        1   -1    0    0  501    0  0.00000000000E+00  0.00000000000E+00  0.25518693939E+04  0.25518693939E+04  0.50400001928E-02 0. -1.
       -1   -1    0    0    0  501  0.00000000000E+00  0.00000000000E+00 -0.87146034374E+03  0.87146034376E+03  0.50400001928E-02 0.  1.
    10030    2    1    2    0    0  0.00000000000E+00  0.00000000000E+00  0.16804090502E+04  0.34233297377E+04  0.29825177145E+04 0.  0.
        4    1    3    3  502    0  0.18186104468E+03 -0.50095629736E+03  0.24388291456E+04  0.24963813543E+04  0.12699999809E+01 0. -1.
       -4    1    3    3    0  502 -0.18186104468E+03  0.50095629736E+03 -0.75842009545E+03  0.92694838342E+03  0.12699999809E+01 0.  1.
</event>
<event>
 5   0  0.1091076E-06  0.2979629E+04  0.7818609E-02  0.8249572E-01
        1   -1    0    0  501    0  0.00000000000E+00  0.00000000000E+00  0.12537801600E+04  0.12537801600E+04  0.50400001928E-02 0.  1.
       -1   -1    0    0    0  501  0.00000000000E+00  0.00000000000E+00 -0.17702846866E+04  0.17702846866E+04  0.50400001928E-02 0. -1.
    10030    2    1    2    0    0  0.00000000000E+00  0.00000000000E+00 -0.51650452653E+03  0.30240648466E+04  0.29796293848E+04 0.  0.
        3    1    3    3  502    0  0.91869684179E+02 -0.14837915390E+04 -0.35701971925E+03  0.15289017170E+04  0.10100000352E+00 0. -1.
       -3    1    3    3    0  502 -0.91869684179E+02  0.14837915390E+04 -0.15948480728E+03  0.14951631296E+04  0.10100000352E+00 0.  1.
</event>
<event>
 5   0  0.3113328E-06  0.3045667E+04  0.7818609E-02  0.8230809E-01
       -2   -1    0    0    0  501  0.00000000000E+00  0.00000000000E+00  0.20526867093E+04  0.20526867093E+04  0.25500000920E-02 0. -1.
        2   -1    0    0  501    0  0.00000000000E+00  0.00000000000E+00 -0.11297491743E+04  0.11297491743E+04  0.25500000920E-02 0.  1.
    10030    2    1    2    0    0  0.00000000000E+00  0.00000000000E+00  0.92293753503E+03  0.31824358836E+04  0.30456665050E+04 0.  0.
        1    1    3    3  502    0 -0.50201091357E+03  0.96488785878E+03  0.15751631221E+04  0.19142001981E+04  0.50400001928E-02 0.  1.
       -1    1    3    3    0  502  0.50201091357E+03 -0.96488785878E+03 -0.65222558706E+03  0.12682356854E+04  0.50400001928E-02 0. -1.
</event>
<event>
 5   0  0.2985941E-06  0.3020170E+04  0.7818609E-02  0.8237994E-01
       -2   -1    0    0    0  501  0.00000000000E+00  0.00000000000E+00  0.10277007415E+04  0.10277007415E+04  0.25500000920E-02 0. -1.
        2   -1    0    0  501    0  0.00000000000E+00  0.00000000000E+00 -0.22188923596E+04  0.22188923596E+04  0.25500000920E-02 0.  1.
    10030    2    1    2    0    0  0.00000000000E+00  0.00000000000E+00 -0.11911916182E+04  0.32465931011E+04  0.30201704079E+04 0.  0.
        3    1    3    3  502    0  0.12238394793E+04  0.88397988074E+03 -0.55908142370E+03  0.16098992357E+04  0.10100000352E+00 0.  1.
       -3    1    3    3    0  502 -0.12238394793E+04 -0.88397988074E+03 -0.63211019448E+03  0.16366938654E+04  0.10100000352E+00 0. -1.
</event>
<event>
 5   0  0.1091076E-06  0.3005850E+04  0.7818609E-02  0.8242062E-01
        1   -1    0    0  501    0  0.00000000000E+00  0.00000000000E+00  0.12007653548E+04  0.12007653548E+04  0.50400001928E-02 0.  1.
       -1   -1    0    0    0  501  0.00000000000E+00  0.00000000000E+00 -0.18811203681E+04  0.18811203681E+04  0.50400001928E-02 0. -1.
    10030    2    1    2    0    0  0.00000000000E+00  0.00000000000E+00 -0.68035501335E+03  0.30818857229E+04  0.30058504062E+04 0.  0.
        3    1    3    3  502    0  0.92694117465E+03 -0.10364059999E+04 -0.92506971750E+03  0.16700632714E+04  0.10100000352E+00 0. -1.
       -3    1    3    3    0  502 -0.92694117465E+03  0.10364059999E+04  0.24471470416E+03  0.14118224515E+04  0.10100000352E+00 0.  1.
</event>
<event>
 5   0  0.9749500E-07  0.2994727E+04  0.7818609E-02  0.8245238E-01
        4   -1    0    0  501    0  0.00000000000E+00  0.00000000000E+00  0.14360418247E+04  0.14360423863E+04  0.12699999809E+01 0. -1.
       -4   -1    0    0    0  501  0.00000000000E+00  0.00000000000E+00 -0.15613024127E+04  0.15613029292E+04  0.12699999809E+01 0.  1.
    10030    2    1    2    0    0  0.00000000000E+00  0.00000000000E+00 -0.12526058796E+03  0.29973453155E+04  0.29947268198E+04 0.  0.
        1    1    3    3  502    0  0.17589271210E+03  0.94580335673E+03 -0.12110720061E+04  0.15466666220E+04  0.50400001928E-02 0.  1.
       -1    1    3    3    0  502 -0.17589271210E+03 -0.94580335673E+03  0.10858114181E+04  0.14506786934E+04  0.50400001928E-02 0. -1.
</event>
<event>
 5   0  0.1097402E-06  0.3042888E+04  0.7818609E-02  0.8231589E-01
       -1   -1    0    0    0  501  0.00000000000E+00  0.00000000000E+00  0.13732748894E+04  0.13732748894E+04  0.50400001928E-02 0.  1.
        1   -1    0    0  501    0  0.00000000000E+00  0.00000000000E+00 -0.16855998751E+04  0.16855998752E+04  0.50400001928E-02 0. -1.
    10030    2    1    2    0    0  0.00000000000E+00  0.00000000000E+00 -0.31232498572E+03  0.30588747646E+04  0.30428880901E+04 0.  0.
        4    1    3    3  502    0  0.25921400956E+03 -0.11677100174E+04  0.78901760454E+03  0.14329302079E+04  0.12699999809E+01 0.  1.
       -4    1    3    3    0  502 -0.25921400956E+03  0.11677100174E+04 -0.11013425903E+04  0.16259445567E+04  0.12699999809E+01 0. -1.
</event>
<event>
 5   0  0.1054384E-06  0.2875046E+04  0.7818609E-02  0.8280341E-01
        1   -1    0    0  501    0  0.00000000000E+00  0.00000000000E+00  0.24838896183E+04  0.24838896183E+04  0.50400001928E-02 0. -1.
       -1   -1    0    0    0  501  0.00000000000E+00  0.00000000000E+00 -0.83195023841E+03  0.83195023842E+03  0.50400001928E-02 0.  1.
    10030    2    1    2    0    0  0.00000000000E+00  0.00000000000E+00  0.16519393798E+04  0.33158398567E+04  0.28750461284E+04 0.  0.
        2    1    3    3  502    0 -0.67109943076E+03 -0.11894666346E+04  0.30855914543E+03  0.14001478733E+04  0.25500000920E-02 0.  1.
       -2    1    3    3    0  502  0.67109943076E+03  0.11894666346E+04  0.13433802344E+04  0.19156919834E+04  0.25500000920E-02 0. -1.
</event>
<event>
 5   0  0.1091075E-06  0.3007618E+04  0.7818609E-02  0.8241559E-01
        1   -1    0    0  501    0  0.00000000000E+00  0.00000000000E+00  0.15585168451E+04  0.15585168451E+04  0.50400001928E-02 0.  1.
       -1   -1    0    0    0  501  0.00000000000E+00  0.00000000000E+00 -0.14510219673E+04  0.14510219673E+04  0.50400001928E-02 0. -1.
    10030    2    1    2    0    0  0.00000000000E+00  0.00000000000E+00  0.10749487781E+03  0.30095388123E+04  0.30076184456E+04 0.  0.
        1    1    3    3  502    0 -0.14881545771E+03  0.48058398368E+03 -0.13643148442E+04  0.14541189772E+04  0.50400001928E-02 0. -1.
       -1    1    3    3    0  502  0.14881545771E+03 -0.48058398368E+03  0.14718097220E+04  0.15554198351E+04  0.50400001928E-02 0.  1.
</event>
<event>
 5   0  0.1113245E-06  0.3002738E+04  0.7818609E-02  0.8242949E-01
        1   -1    0    0  501    0  0.00000000000E+00  0.00000000000E+00  0.78725546661E+03  0.78725546663E+03  0.50400001928E-02 0. -1.
       -1   -1    0    0    0  501  0.00000000000E+00  0.00000000000E+00 -0.28632504151E+04  0.28632504152E+04  0.50400001928E-02 0.  1.
    10030    2    1    2    0    0  0.00000000000E+00  0.00000000000E+00 -0.20759949485E+04  0.36505058818E+04  0.30027384446E+04 0.  0.
        5    1    3    3  502    0 -0.69815858128E+03 -0.56184168162E+03  0.42643264170E+03  0.99245068781E+03  0.46999998093E+01 0. -1.
       -5    1    3    3    0  502  0.69815858128E+03  0.56184168162E+03 -0.25024275902E+04  0.26580551940E+04  0.46999998093E+01 0.  1.
</event>
<event>
 5   0  0.2948711E-06  0.3002508E+04  0.7818609E-02  0.8243015E-01
       -2   -1    0    0    0  501  0.00000000000E+00  0.00000000000E+00  0.15552867520E+04  0.15552867520E+04  0.25500000920E-02 0. -1.
        2   -1    0    0  501    0  0.00000000000E+00  0.00000000000E+00 -0.14490979976E+04  0.14490979976E+04  0.25500000920E-02 0.  1.
    10030    2    1    2    0    0  0.00000000000E+00  0.00000000000E+00  0.10618875443E+03  0.30043847496E+04  0.30025075640E+04 0.  0.
        5    1    3    3  502    0  0.14158721367E+04 -0.39423200191E+03  0.35927269022E+03  0.15130141225E+04  0.46999998093E+01 0. -1.
       -5    1    3    3    0  502 -0.14158721367E+04  0.39423200191E+03 -0.25308393580E+03  0.14913706271E+04  0.46999998093E+01 0.  1.
</event>
<event>
 5   0  0.2970915E-06  0.3341647E+04  0.7818609E-02  0.8152378E-01
        2   -1    0    0  501    0  0.00000000000E+00  0.00000000000E+00  0.22365077014E+04  0.22365077014E+04  0.25500000920E-02 0. -1.
       -2   -1    0    0    0  501  0.00000000000E+00  0.00000000000E+00 -0.12482187995E+04  0.12482187995E+04  0.25500000920E-02 0.  1.
    10030    2    1    2    0    0  0.00000000000E+00  0.00000000000E+00  0.98828890183E+03  0.34847265009E+04  0.33416468743E+04 0.  0.
        4    1    3    3  502    0 -0.10236426056E+04  0.29700622125E+03 -0.84764651817E+03  0.13618234511E+04  0.12699999809E+01 0.  1.
       -4    1    3    3    0  502  0.10236426056E+04 -0.29700622125E+03  0.18359354200E+04  0.21229030498E+04  0.12699999809E+01 0. -1.
</event>
<event>
 5   0  0.1113245E-06  0.3006222E+04  0.7818609E-02  0.8241956E-01
       -1   -1    0    0    0  501  0.00000000000E+00  0.00000000000E+00  0.11714967661E+04  0.11714967661E+04  0.50400001928E-02 0.  1.
        1   -1    0    0  501    0  0.00000000000E+00  0.00000000000E+00 -0.19285953780E+04  0.19285953781E+04  0.50400001928E-02 0. -1.
    10030    2    1    2    0    0  0.00000000000E+00  0.00000000000E+00 -0.75709861196E+03  0.31000921442E+04  0.30062223793E+04 0.  0.
        5    1    3    3  502    0 -0.22974781013E+03  0.13596572352E+04 -0.99545066078E+03  0.17007045486E+04  0.46999998093E+01 0. -1.
       -5    1    3    3    0  502  0.22974781013E+03 -0.13596572352E+04  0.23835204882E+03  0.13993875956E+04  0.46999998093E+01 0.  1.
</event>
<event>
 5   0  0.9749500E-07  0.3018637E+04  0.7818609E-02  0.8238429E-01
       -3   -1    0    0    0  501  0.00000000000E+00  0.00000000000E+00  0.10802482158E+04  0.10802482205E+04  0.10100000352E+00 0.  1.
        3   -1    0    0  501    0  0.00000000000E+00  0.00000000000E+00 -0.21088138641E+04  0.21088138665E+04  0.10100000352E+00 0. -1.
    10030    2    1    2    0    0  0.00000000000E+00  0.00000000000E+00 -0.10285656483E+04  0.31890620870E+04  0.30186370603E+04 0.  0.
        5    1    3    3  502    0 -0.13951146932E+04  0.27278302690E+03 -0.10501315664E+04  0.17673579104E+04  0.46999998093E+01 0. -1.
       -5    1    3    3    0  502  0.13951146932E+04 -0.27278302690E+03  0.21565918088E+02  0.14217041766E+04  0.46999998093E+01 0.  1.
</event>
<event>
 5   0  0.3113328E-06  0.3017384E+04  0.7818609E-02  0.8238784E-01
        2   -1    0    0  501    0  0.00000000000E+00  0.00000000000E+00  0.13670199683E+04  0.13670199683E+04  0.25500000920E-02 0.  1.
       -2   -1    0    0    0  501  0.00000000000E+00  0.00000000000E+00 -0.16650461023E+04  0.16650461023E+04  0.25500000920E-02 0. -1.
    10030    2    1    2    0    0  0.00000000000E+00  0.00000000000E+00 -0.29802613400E+03  0.30320660705E+04  0.30173838138E+04 0.  0.
        1    1    3    3  502    0  0.28532452079E+03 -0.18502067343E+02 -0.16375715050E+04  0.16623455846E+04  0.50400001928E-02 0. -1.
       -1    1    3    3    0  502 -0.28532452079E+03  0.18502067343E+02  0.13395453710E+04  0.13697204859E+04  0.50400001928E-02 0.  1.
</event>
<event>
 5   0  0.2970915E-06  0.2740274E+04  0.7818609E-02  0.8322055E-01
        2   -1    0    0  501    0  0.00000000000E+00  0.00000000000E+00  0.18102044058E+04  0.18102044058E+04  0.25500000920E-02 0.  1.
       -2   -1    0    0    0  501  0.00000000000E+00  0.00000000000E+00 -0.10370516685E+04  0.10370516685E+04  0.25500000920E-02 0. -1.
    10030    2    1    2    0    0  0.00000000000E+00  0.00000000000E+00  0.77315273730E+03  0.28472560742E+04  0.27402740733E+04 0.  0.
        4    1    3    3  502    0 -0.12807275991E+04  0.23897034993E+03 -0.54133509908E+02  0.13039563110E+04  0.12699999809E+01 0. -1.
       -4    1    3    3    0  502  0.12807275991E+04 -0.23897034993E+03  0.82728624721E+03  0.15432997632E+04  0.12699999809E+01 0.  1.
</event>
<event>
 5   0  0.2970915E-06  0.3009119E+04  0.7818609E-02  0.8241132E-01
       -2   -1    0    0    0  501  0.00000000000E+00  0.00000000000E+00  0.10747265118E+04  0.10747265118E+04  0.25500000920E-02 0. -1.
        2   -1    0    0  501    0  0.00000000000E+00  0.00000000000E+00 -0.21063019688E+04  0.21063019688E+04  0.25500000920E-02 0.  1.
    10030    2    1    2    0    0  0.00000000000E+00  0.00000000000E+00 -0.10315754570E+04  0.31810284806E+04  0.30091185206E+04 0.  0.
        4    1    3    3  502    0  0.14824865989E+04  0.11779217188E+03 -0.27459659532E+03  0.15122983881E+04  0.12699999809E+01 0.  1.
       -4    1    3    3    0  502 -0.14824865989E+04 -0.11779217188E+03 -0.75697886165E+03  0.16687300925E+04  0.12699999809E+01 0. -1.
</event>
<event>
 5   0  0.1091075E-06  0.2886605E+04  0.7818609E-02  0.8276874E-01
       -1   -1    0    0    0  501  0.00000000000E+00  0.00000000000E+00  0.11428656615E+04  0.11428656615E+04  0.50400001928E-02 0.  1.
        1   -1    0    0  501    0  0.00000000000E+00  0.00000000000E+00 -0.18227188062E+04  0.18227188062E+04  0.50400001928E-02 0. -1.
    10030    2    1    2    0    0  0.00000000000E+00  0.00000000000E+00 -0.67985314474E+03  0.29655844677E+04  0.28866054349E+04 0.  0.
        1    1    3    3  502    0  0.13480041069E+04 -0.20282161686E+03  0.14725365185E+03  0.13711073329E+04  0.50400001928E-02 0. -1.
       -1    1    3    3    0  502 -0.13480041069E+04  0.20282161686E+03 -0.82710679660E+03  0.15944771348E+04  0.50400001928E-02 0.  1.
</event>
<event>
 5   0  0.1091076E-06  0.2984159E+04  0.7818609E-02  0.8248269E-01
        1   -1    0    0  501    0  0.00000000000E+00  0.00000000000E+00  0.26724188046E+04  0.26724188046E+04  0.50400001928E-02 0. -1.
       -1   -1    0    0    0  501  0.00000000000E+00  0.00000000000E+00 -0.83306624185E+03  0.83306624186E+03  0.50400001928E-02 0.  1.
    10030    2    1    2    0    0  0.00000000000E+00  0.00000000000E+00  0.18393525628E+04  0.35054850465E+04  0.29841594396E+04 0.  0.
        3    1    3    3  502    0 -0.57854821596E+03  0.12940894959E+04  0.37256948712E+03  0.14656717554E+04  0.10100000352E+00 0.  1.
       -3    1    3    3    0  502  0.57854821596E+03 -0.12940894959E+04  0.14667830757E+04  0.20398132911E+04  0.10100000352E+00 0. -1.
</event>
<event>
 5   0  0.1091076E-06  0.3001911E+04  0.7818609E-02  0.8243185E-01
       -1   -1    0    0    0  501  0.00000000000E+00  0.00000000000E+00  0.11449663028E+04  0.11449663028E+04  0.50400001928E-02 0. -1.
        1   -1    0    0  501    0  0.00000000000E+00  0.00000000000E+00 -0.19676280720E+04  0.19676280720E+04  0.50400001928E-02 0.  1.
    10030    2    1    2    0    0  0.00000000000E+00  0.00000000000E+00 -0.82266176922E+03  0.31125943749E+04  0.30019112838E+04 0.  0.
        3    1    3    3  502    0  0.30613091396E+03  0.18631404566E+03 -0.19226173191E+04  0.19557316855E+04  0.10100000352E+00 0.  1.
       -3    1    3    3    0  502 -0.30613091396E+03 -0.18631404566E+03  0.10999555498E+04  0.11568626893E+04  0.10100000352E+00 0. -1.
</event>
<event>
 5   0  0.2970915E-06  0.2998973E+04  0.7818609E-02  0.8244024E-01
       -2   -1    0    0    0  501  0.00000000000E+00  0.00000000000E+00  0.14472701594E+04  0.14472701594E+04  0.25500000920E-02 0. -1.
        2   -1    0    0  501    0  0.00000000000E+00  0.00000000000E+00 -0.15535865342E+04  0.15535865342E+04  0.25500000920E-02 0.  1.
    10030    2    1    2    0    0  0.00000000000E+00  0.00000000000E+00 -0.10631637480E+03  0.30008566937E+04  0.29989727782E+04 0.  0.
        4    1    3    3  502    0  0.11013007888E+04 -0.83989461061E+03 -0.62812460643E+03  0.15207986449E+04  0.12699999809E+01 0.  1.
       -4    1    3    3    0  502 -0.11013007888E+04  0.83989461061E+03  0.52180823163E+03  0.14800580488E+04  0.12699999809E+01 0. -1.
</event>
<event>
 5   0  0.1097402E-06  0.2996235E+04  0.7818609E-02  0.8244807E-01
        1   -1    0    0  501    0  0.00000000000E+00  0.00000000000E+00  0.23158275358E+04  0.23158275358E+04  0.50400001928E-02 0. -1.
       -1   -1    0    0    0  501  0.00000000000E+00  0.00000000000E+00 -0.96913770977E+03  0.96913770978E+03  0.50400001928E-02 0.  1.
    10030    2    1    2    0    0  0.00000000000E+00  0.00000000000E+00  0.13466898260E+04  0.32849652456E+04  0.29962348334E+04 0.  0.
        4    1    3    3  502    0 -0.11036293074E+04  0.77817785784E+02  0.17807820184E+04  0.20964826414E+04  0.12699999809E+01 0. -1.
       -4    1    3    3    0  502  0.11036293074E+04 -0.77817785784E+02 -0.43409219237E+03  0.11884826041E+04  0.12699999809E+01 0.  1.
</event>
<event>
 5   0  0.3113328E-06  0.2996676E+04  0.7818609E-02  0.8244681E-01
       -2   -1    0    0    0  501  0.00000000000E+00  0.00000000000E+00  0.13828630643E+04  0.13828630643E+04  0.25500000920E-02 0.  1.
        2   -1    0    0  501    0  0.00000000000E+00  0.00000000000E+00 -0.16234550853E+04  0.16234550853E+04  0.25500000920E-02 0. -1.
    10030    2    1    2    0    0  0.00000000000E+00  0.00000000000E+00 -0.24059202092E+03  0.30063181496E+04  0.29966755407E+04 0.  0.
        1    1    3    3  502    0 -0.31002418092E+03 -0.12239701029E+04 -0.92961253911E+03  0.15679277019E+04  0.50400001928E-02 0. -1.
       -1    1    3    3    0  502  0.31002418092E+03  0.12239701029E+04  0.68902051819E+03  0.14383904477E+04  0.50400001928E-02 0.  1.
</event>
<event>
 5   0  0.1113245E-06  0.3003033E+04  0.7818609E-02  0.8242865E-01
        1   -1    0    0  501    0  0.00000000000E+00  0.00000000000E+00  0.15404745777E+04  0.15404745777E+04  0.50400001928E-02 0.  1.
       -1   -1    0    0    0  501  0.00000000000E+00  0.00000000000E+00 -0.14635436166E+04  0.14635436166E+04  0.50400001928E-02 0. -1.
    10030    2    1    2    0    0  0.00000000000E+00  0.00000000000E+00  0.76930961107E+02  0.30040181943E+04  0.30030329567E+04 0.  0.
        5    1    3    3  502    0  0.84309446316E+03 -0.11423364322E+04  0.52728605755E+03  0.15145274757E+04  0.46999998093E+01 0.  1.
       -5    1    3    3    0  502 -0.84309446316E+03  0.11423364322E+04 -0.45035509644E+03  0.14894907186E+04  0.46999998093E+01 0. -1.
</event>
<event>
 5   0  0.2985941E-06  0.3037132E+04  0.7818609E-02  0.8233206E-01
        2   -1    0    0  501    0  0.00000000000E+00  0.00000000000E+00  0.11850528529E+04  0.11850528529E+04  0.25500000920E-02 0. -1.
       -2   -1    0    0    0  501  0.00000000000E+00  0.00000000000E+00 -0.19459413227E+04  0.19459413227E+04  0.25500000920E-02 0.  1.
    10030    2    1    2    0    0  0.00000000000E+00  0.00000000000E+00 -0.76088846986E+03  0.31309941756E+04  0.30371324081E+04 0.  0.
        3    1    3    3  502    0  0.22522083588E+03 -0.12467474389E+03  0.11623952280E+04  0.11905590674E+04  0.10100000352E+00 0. -1.
       -3    1    3    3    0  502 -0.22522083588E+03  0.12467474389E+03 -0.19232836978E+04  0.19404351082E+04  0.10100000352E+00 0.  1.
</event>
<event>
 5   0  0.3113328E-06  0.2992809E+04  0.7818609E-02  0.8245787E-01
       -2   -1    0    0    0  501  0.00000000000E+00  0.00000000000E+00  0.34098990680E+04  0.34098990680E+04  0.25500000920E-02 0. -1.
        2   -1    0    0  501    0  0.00000000000E+00  0.00000000000E+00 -0.65668410954E+03  0.65668410955E+03  0.25500000920E-02 0.  1.
    10030    2    1    2    0    0  0.00000000000E+00  0.00000000000E+00  0.27532149585E+04  0.40665831776E+04  0.29928090705E+04 0.  0.
        1    1    3    3  502    0  0.14135515818E+03 -0.89031213273E+03  0.29995389013E+04  0.31320712947E+04  0.50400001928E-02 0. -1.
       -1    1    3    3    0  502 -0.14135515818E+03  0.89031213273E+03 -0.24632394283E+03  0.93451188290E+03  0.50400001928E-02 0.  1.
</event>
<event>
 5   0  0.1113245E-06  0.2674270E+04  0.7818609E-02  0.8343402E-01
       -1   -1    0    0    0  501  0.00000000000E+00  0.00000000000E+00  0.12667941931E+04  0.12667941931E+04  0.50400001928E-02 0. -1.
        1   -1    0    0  501    0  0.00000000000E+00  0.00000000000E+00 -0.14113817813E+04  0.14113817813E+04  0.50400001928E-02 0.  1.
    10030    2    1    2    0    0  0.00000000000E+00  0.00000000000E+00 -0.14458758819E+03  0.26781759744E+04  0.26742701769E+04 0.  0.
        5    1    3    3  502    0  0.52315657097E+03 -0.10364968722E+04 -0.73650419397E+03  0.13749469377E+04  0.46999998093E+01 0.  1.
       -5    1    3    3    0  502 -0.52315657097E+03  0.10364968722E+04  0.59191660579E+03  0.13032290367E+04  0.46999998093E+01 0. -1.
</event>
<event>
 5   0  0.1054384E-06  0.3009286E+04  0.7818609E-02  0.8241084E-01
       -1   -1    0    0    0  501  0.00000000000E+00  0.00000000000E+00  0.26069441428E+04  0.26069441428E+04  0.50400001928E-02 0.  1.
        1   -1    0    0  501    0  0.00000000000E+00  0.00000000000E+00 -0.86843105524E+03  0.86843105525E+03  0.50400001928E-02 0. -1.
    10030    2    1    2    0    0  0.00000000000E+00  0.00000000000E+00  0.17385130876E+04  0.34753751981E+04  0.30092864622E+04 0.  0.
        2    1    3    3  502    0 -0.12064927339E+04 -0.88280846946E+03  0.10658438407E+04  0.18360279419E+04  0.25500000920E-02 0.  1.
       -2    1    3    3    0  502  0.12064927339E+04  0.88280846946E+03  0.67266924685E+03  0.16393472562E+04  0.25500000920E-02 0. -1.
</event>
<event>
 5   0  0.2862033E-06  0.2992301E+04  0.7818609E-02  0.8245933E-01
       -2   -1    0    0    0  501  0.00000000000E+00  0.00000000000E+00  0.17514435633E+04  0.17514435633E+04  0.25500000920E-02 0.  1.
        2   -1    0    0  501    0  0.00000000000E+00  0.00000000000E+00 -0.12780690213E+04  0.12780690213E+04  0.25500000920E-02 0. -1.
    10030    2    1    2    0    0  0.00000000000E+00  0.00000000000E+00  0.47337454194E+03  0.30295125846E+04  0.29923006272E+04 0.  0.
        2    1    3    3  502    0 -0.79556498258E+03 -0.82486233045E+03 -0.73711832403E+03  0.13625949249E+04  0.25500000920E-02 0. -1.
       -2    1    3    3    0  502  0.79556498258E+03  0.82486233045E+03  0.12104928660E+04  0.16669176597E+04  0.25500000920E-02 0.  1.
</event>
<event>
 5   0  0.2862033E-06  0.3005678E+04  0.7818609E-02  0.8242111E-01
        2   -1    0    0  501    0  0.00000000000E+00  0.00000000000E+00  0.25104672786E+04  0.25104672786E+04  0.25500000920E-02 0. -1.
       -2   -1    0    0    0  501  0.00000000000E+00  0.00000000000E+00 -0.89964359331E+03  0.89964359331E+03  0.25500000920E-02 0.  1.
    10030    2    1    2    0    0  0.00000000000E+00  0.00000000000E+00  0.16108236853E+04  0.34101108719E+04  0.30056784947E+04 0.  0.
        2    1    3    3  502    0  0.10014953449E+04  0.54866769538E+03 -0.30303067653E+03  0.11814638195E+04  0.25500000920E-02 0.  1.
       -2    1    3    3    0  502 -0.10014953449E+04 -0.54866769538E+03  0.19138543618E+04  0.22286470524E+04  0.25500000920E-02 0. -1.
</event>
<event>
 5   0  0.1091076E-06  0.2990479E+04  0.7818609E-02  0.8246455E-01
        1   -1    0    0  501    0  0.00000000000E+00  0.00000000000E+00  0.23156597582E+04  0.23156597582E+04  0.50400001928E-02 0. -1.
       -1   -1    0    0    0  501  0.00000000000E+00  0.00000000000E+00 -0.96548756656E+03  0.96548756657E+03  0.50400001928E-02 0.  1.
    10030    2    1    2    0    0  0.00000000000E+00  0.00000000000E+00  0.13501721917E+04  0.32811473248E+04  0.29904786941E+04 0.  0.
        3    1    3    3  502    0 -0.98858224265E+02  0.54967724281E+03  0.21969209900E+04  0.22667994764E+04  0.10100000352E+00 0. -1.
       -3    1    3    3    0  502  0.98858224265E+02 -0.54967724281E+03 -0.84674879836E+03  0.10143478484E+04  0.10100000352E+00 0.  1.
</event>
<event>
 5   0  0.1054384E-06  0.2988183E+04  0.7818609E-02  0.8247113E-01
        1   -1    0    0  501    0  0.00000000000E+00  0.00000000000E+00  0.12154079112E+04  0.12154079112E+04  0.50400001928E-02 0.  1.
       -1   -1    0    0    0  501  0.00000000000E+00  0.00000000000E+00 -0.18366750581E+04  0.18366750581E+04  0.50400001928E-02 0. -1.
    10030    2    1    2    0    0  0.00000000000E+00  0.00000000000E+00 -0.62126714692E+03  0.30520829693E+04  0.29881829903E+04 0.  0.
        2    1    3    3  502    0  0.89100532380E+03 -0.48811514913E+02 -0.15346066422E+04  0.17751874823E+04  0.25500000920E-02 0. -1.
       -2    1    3    3    0  502 -0.89100532380E+03  0.48811514913E+02  0.91333949526E+03  0.12768954870E+04  0.25500000920E-02 0.  1.
</event>
<event>
 5   0  0.3113328E-06  0.3076265E+04  0.7818609E-02  0.8222282E-01
       -2   -1    0    0    0  501  0.00000000000E+00  0.00000000000E+00  0.25588997751E+04  0.25588997751E+04  0.25500000920E-02 0. -1.
        2   -1    0    0  501    0  0.00000000000E+00  0.00000000000E+00 -0.92455796831E+03  0.92455796831E+03  0.25500000920E-02 0.  1.
    10030    2    1    2    0    0  0.00000000000E+00  0.00000000000E+00  0.16343418068E+04  0.34834577435E+04  0.30762647332E+04 0.  0.
        1    1    3    3  502    0 -0.13272700788E+04  0.77025148173E+03  0.69885100538E+03  0.16862164556E+04  0.50400001928E-02 0.  1.
       -1    1    3    3    0  502  0.13272700788E+04 -0.77025148173E+03  0.93549080145E+03  0.17972412879E+04  0.50400001928E-02 0. -1.
</event>
<event>
 5   0  0.1097402E-06  0.2912703E+04  0.7818609E-02  0.8269108E-01
       -1   -1    0    0    0  501  0.00000000000E+00  0.00000000000E+00  0.18415940352E+04  0.18415940352E+04  0.50400001928E-02 0. -1.
        1   -1    0    0  501    0  0.00000000000E+00  0.00000000000E+00 -0.11516980536E+04  0.11516980536E+04  0.50400001928E-02 0.  1.
    10030    2    1    2    0    0  0.00000000000E+00  0.00000000000E+00  0.68989598160E+03  0.29932920889E+04  0.29127033944E+04 0.  0.
        4    1    3    3  502    0  0.10467392951E+04 -0.15781227483E+03  0.13728167767E+04  0.17335499362E+04  0.12699999809E+01 0. -1.
       -4    1    3    3    0  502 -0.10467392951E+04  0.15781227483E+03 -0.68292079510E+03  0.12597421527E+04  0.12699999809E+01 0.  1.
</event>
<event>
 5   0  0.3113328E-06  0.2991300E+04  0.7818609E-02  0.8246220E-01
       -2   -1    0    0    0  501  0.00000000000E+00  0.00000000000E+00  0.11459826403E+04  0.11459826403E+04  0.25500000920E-02 0.  1.
        2   -1    0    0  501    0  0.00000000000E+00  0.00000000000E+00 -0.19520089544E+04  0.19520089544E+04  0.25500000920E-02 0. -1.
    10030    2    1    2    0    0  0.00000000000E+00  0.00000000000E+00 -0.80602631411E+03  0.30979915948E+04  0.29912996343E+04 0.  0.
        1    1    3    3  502    0 -0.12402787994E+04 -0.51531842612E+03 -0.10846080678E+04  0.17263311506E+04  0.50400001928E-02 0. -1.
       -1    1    3    3    0  502  0.12402787994E+04  0.51531842612E+03  0.27858175371E+03  0.13716604442E+04  0.50400001928E-02 0.  1.
</event>
<event>
 5   0  0.1091075E-06  0.3015907E+04  0.7818609E-02  0.8239203E-01
        1   -1    0    0  501    0  0.00000000000E+00  0.00000000000E+00  0.14344312163E+04  0.14344312163E+04  0.50400001928E-02 0. -1.
       -1   -1    0    0    0  501  0.00000000000E+00  0.00000000000E+00 -0.15852437127E+04  0.15852437127E+04  0.50400001928E-02 0.  1.
    10030    2    1    2    0    0  0.00000000000E+00  0.00000000000E+00 -0.15081249645E+03  0.30196749290E+04  0.30159065416E+04 0.  0.
        1    1    3    3  502    0 -0.62402696991E+03  0.10836285452E+04 -0.91923007150E+03  0.15519808012E+04  0.50400001928E-02 0.  1.
       -1    1    3    3    0  502  0.62402696991E+03 -0.10836285452E+04  0.76841757505E+03  0.14676941278E+04  0.50400001928E-02 0. -1.
</event>
<event>
 5   0  0.2970915E-06  0.3025677E+04  0.7818609E-02  0.8236437E-01
        2   -1    0    0  501    0  0.00000000000E+00  0.00000000000E+00  0.16214542675E+04  0.16214542675E+04  0.25500000920E-02 0. -1.
       -2   -1    0    0    0  501  0.00000000000E+00  0.00000000000E+00 -0.14114982129E+04  0.14114982129E+04  0.25500000920E-02 0.  1.
    10030    2    1    2    0    0  0.00000000000E+00  0.00000000000E+00  0.20995605463E+03  0.30329524804E+04  0.30256766521E+04 0.  0.
        4    1    3    3  502    0 -0.23581242497E+03  0.37184861528E+03 -0.13458445372E+04  0.14160430868E+04  0.12699999809E+01 0.  1.
       -4    1    3    3    0  502  0.23581242497E+03 -0.37184861528E+03  0.15558005919E+04  0.16169093936E+04  0.12699999809E+01 0. -1.
</event>
<event>
 5   0  0.9749500E-07  0.3023293E+04  0.7818609E-02  0.8237111E-01
       -3   -1    0    0    0  501  0.00000000000E+00  0.00000000000E+00  0.21769788241E+04  0.21769788265E+04  0.10100000352E+00 0.  1.
        3   -1    0    0  501    0  0.00000000000E+00  0.00000000000E+00 -0.10496539988E+04  0.10496540037E+04  0.10100000352E+00 0. -1.
    10030    2    1    2    0    0  0.00000000000E+00  0.00000000000E+00  0.11273248253E+04  0.32266328301E+04  0.30232926022E+04 0.  0.
        5    1    3    3  502    0  0.14617942774E+04  0.16363993456E+03  0.93557063797E+03  0.17432541543E+04  0.46999998093E+01 0. -1.
       -5    1    3    3    0  502 -0.14617942774E+04 -0.16363993456E+03  0.19175418737E+03  0.14833786759E+04  0.46999998093E+01 0.  1.
</event>
<event>
 5   0  0.2985941E-06  0.2998480E+04  0.7818609E-02  0.8244165E-01
        2   -1    0    0  501    0  0.00000000000E+00  0.00000000000E+00  0.13480366304E+04  0.13480366304E+04  0.25500000920E-02 0.  1.
       -2   -1    0    0    0  501  0.00000000000E+00  0.00000000000E+00 -0.16674034259E+04  0.16674034259E+04  0.25500000920E-02 0. -1.
    10030    2    1    2    0    0  0.00000000000E+00  0.00000000000E+00 -0.31936679551E+03  0.30154400563E+04  0.29984802122E+04 0.  0.
        3    1    3    3  502    0 -0.11333520986E+04  0.17294730289E+03 -0.11312342305E+04  0.16106174728E+04  0.10100000352E+00 0.  1.
       -3    1    3    3    0  502  0.11333520986E+04 -0.17294730289E+03  0.81186743502E+03  0.14048225835E+04  0.10100000352E+00 0. -1.
</event>
<event>
 5   0  0.2862033E-06  0.3007548E+04  0.7818609E-02  0.8241579E-01
        2   -1    0    0  501    0  0.00000000000E+00  0.00000000000E+00  0.31903905472E+04  0.31903905472E+04  0.25500000920E-02 0. -1.
       -2   -1    0    0    0  501  0.00000000000E+00  0.00000000000E+00 -0.70879609099E+03  0.70879609099E+03  0.25500000920E-02 0.  1.
    10030    2    1    2    0    0  0.00000000000E+00  0.00000000000E+00  0.24815944562E+04  0.38991866382E+04  0.30075480702E+04 0.  0.
        2    1    3    3  502    0  0.13232299345E+04 -0.71413603066E+03  0.12145900281E+04  0.19329140349E+04  0.25500000920E-02 0.  1.
       -2    1    3    3    0  502 -0.13232299345E+04  0.71413603066E+03  0.12670044281E+04  0.19662726033E+04  0.25500000920E-02 0. -1.
</event>
<event>
 5   0  0.3113328E-06  0.2997567E+04  0.7818609E-02  0.8244426E-01
       -2   -1    0    0    0  501  0.00000000000E+00  0.00000000000E+00  0.18810831898E+04  0.18810831898E+04  0.25500000920E-02 0. -1.
        2   -1    0    0  501    0  0.00000000000E+00  0.00000000000E+00 -0.11941801970E+04  0.11941801971E+04  0.25500000920E-02 0.  1.
    10030    2    1    2    0    0  0.00000000000E+00  0.00000000000E+00  0.68690299271E+03  0.30752633868E+04  0.29975672097E+04 0.  0.
        1    1    3    3  502    0  0.30069114194E+03 -0.14428625456E+04  0.62269171025E+03  0.16000038920E+04  0.50400001928E-02 0.  1.
       -1    1    3    3    0  502 -0.30069114194E+03  0.14428625456E+04  0.64211282464E+02  0.14752594948E+04  0.50400001928E-02 0. -1.
</event>
<event>
 5   0  0.1097402E-06  0.3005395E+04  0.7818609E-02  0.8242192E-01
       -1   -1    0    0    0  501  0.00000000000E+00  0.00000000000E+00  0.28338416976E+04  0.28338416976E+04  0.50400001928E-02 0. -1.
        1   -1    0    0  501    0  0.00000000000E+00  0.00000000000E+00 -0.79683358202E+03  0.79683358204E+03  0.50400001928E-02 0.  1.
    10030    2    1    2    0    0  0.00000000000E+00  0.00000000000E+00  0.20370081156E+04  0.36306752797E+04  0.30053953023E+04 0.  0.
        4    1    3    3  502    0 -0.66063968991E+03 -0.67869788908E+03 -0.39084489184E+03  0.10246155215E+04  0.12699999809E+01 0.  1.
       -4    1    3    3    0  502  0.66063968991E+03  0.67869788908E+03  0.24278530074E+04  0.26060597582E+04  0.12699999809E+01 0. -1.
</event>
<event>
 5   0  0.2862033E-06  0.2822327E+04  0.7818609E-02  0.8296370E-01
       -2   -1    0    0    0  501  0.00000000000E+00  0.00000000000E+00  0.16446284652E+04  0.16446284652E+04  0.25500000920E-02 0.  1.
        2   -1    0    0  501    0  0.00000000000E+00  0.00000000000E+00 -0.12108403155E+04  0.12108403155E+04  0.25500000920E-02 0. -1.
    10030    2    1    2    0    0  0.00000000000E+00  0.00000000000E+00  0.43378814972E+03  0.28554687807E+04  0.28223270184E+04 0.  0.
        2    1    3    3  502    0 -0.53223312268E+03 -0.25526717191E+03 -0.10799331741E+04  0.12307270560E+04  0.25500000920E-02 0. -1.
       -2    1    3    3    0  502  0.53223312268E+03  0.25526717191E+03  0.15137213238E+04  0.16247417247E+04  0.25500000920E-02 0.  1.
</event>
<event>
 5   0  0.1113245E-06  0.2976805E+04  0.7818609E-02  0.8250385E-01
       -1   -1    0    0    0  501  0.00000000000E+00  0.00000000000E+00  0.14902354501E+04  0.14902354502E+04  0.50400001928E-02 0. -1.
        1   -1    0    0  501    0  0.00000000000E+00  0.00000000000E+00 -0.14865719556E+04  0.14865719556E+04  0.50400001928E-02 0.  1.
    10030    2    1    2    0    0  0.00000000000E+00  0.00000000000E+00  0.36634945375E+01  0.29768074058E+04  0.29768051515E+04 0.  0.
        5    1    3    3  502    0 -0.11193226068E+04 -0.80676846531E+03 -0.55634578237E+03  0.14877167655E+04  0.46999998093E+01 0.  1.
       -5    1    3    3    0  502  0.11193226068E+04  0.80676846531E+03  0.56000927691E+03  0.14890906403E+04  0.46999998093E+01 0. -1.
</event>
<event>
 5   0  0.1097402E-06  0.2964631E+04  0.7818609E-02  0.8253903E-01
       -1   -1    0    0    0  501  0.00000000000E+00  0.00000000000E+00  0.72358336515E+03  0.72358336517E+03  0.50400001928E-02 0. -1.
        1   -1    0    0  501    0  0.00000000000E+00  0.00000000000E+00 -0.30366358131E+04  0.30366358131E+04  0.50400001928E-02 0.  1.
    10030    2    1    2    0    0  0.00000000000E+00  0.00000000000E+00 -0.23130524480E+04  0.37602191783E+04  0.29646309453E+04 0.  0.
        4    1    3    3  502    0 -0.12023957001E+04  0.81982215597E+03 -0.15139107209E+04  0.20999502544E+04  0.12699999809E+01 0.  1.
       -4    1    3    3    0  502  0.12023957001E+04 -0.81982215597E+03 -0.79914172708E+03  0.16602689240E+04  0.12699999809E+01 0. -1.
</event>
<event>
 5   0  0.1054384E-06  0.2665800E+04  0.7818609E-02  0.8346188E-01
        1   -1    0    0  501    0  0.00000000000E+00  0.00000000000E+00  0.19522329974E+04  0.19522329974E+04  0.50400001928E-02 0.  1.
       -1   -1    0    0    0  501  0.00000000000E+00  0.00000000000E+00 -0.91004651934E+03  0.91004651935E+03  0.50400001928E-02 0. -1.
    10030    2    1    2    0    0  0.00000000000E+00  0.00000000000E+00  0.10421864780E+04  0.28622795167E+04  0.26658003258E+04 0.  0.
        2    1    3    3  502    0 -0.10061206591E+04 -0.33869173253E+03 -0.34430921421E+03  0.11160375017E+04  0.25500000920E-02 0. -1.
       -2    1    3    3    0  502  0.10061206591E+04  0.33869173253E+03  0.13864956922E+04  0.17462420150E+04  0.25500000920E-02 0.  1.
</event>
<event>
 5   0  0.1113245E-06  0.3001544E+04  0.7818609E-02  0.8243290E-01
       -1   -1    0    0    0  501  0.00000000000E+00  0.00000000000E+00  0.16229496310E+04  0.16229496310E+04  0.50400001928E-02 0.  1.
        1   -1    0    0  501    0  0.00000000000E+00  0.00000000000E+00 -0.13877921365E+04  0.13877921365E+04  0.50400001928E-02 0. -1.
    10030    2    1    2    0    0  0.00000000000E+00  0.00000000000E+00  0.23515749453E+03  0.30107417676E+04  0.30015440932E+04 0.  0.
        5    1    3    3  502    0  0.93372277329E+03  0.10185824280E+04  0.70498940129E+03  0.15512512775E+04  0.46999998093E+01 0.  1.
       -5    1    3    3    0  502 -0.93372277329E+03 -0.10185824280E+04 -0.46983190676E+03  0.14594904901E+04  0.46999998093E+01 0. -1.
</event>
<event>
 5   0  0.2985941E-06  0.2989228E+04  0.7818609E-02  0.8246813E-01
        2   -1    0    0  501    0  0.00000000000E+00  0.00000000000E+00  0.17003637260E+04  0.17003637260E+04  0.25500000920E-02 0.  1.
       -2   -1    0    0    0  501  0.00000000000E+00  0.00000000000E+00 -0.13137610883E+04  0.13137610883E+04  0.25500000920E-02 0. -1.
    10030    2    1    2    0    0  0.00000000000E+00  0.00000000000E+00  0.38660263762E+03  0.30141248143E+04  0.29892284618E+04 0.  0.
        3    1    3    3  502    0 -0.95117953874E+02  0.13607799227E+02 -0.13106435140E+04  0.13141609598E+04  0.10100000352E+00 0. -1.
       -3    1    3    3    0  502  0.95117953874E+02 -0.13607799227E+02  0.16972461516E+04  0.16999638545E+04  0.10100000352E+00 0.  1.
</event>
<event>
 5   0  0.2970915E-06  0.2998164E+04  0.7818609E-02  0.8244255E-01
       -2   -1    0    0    0  501  0.00000000000E+00  0.00000000000E+00  0.11935277415E+04  0.11935277415E+04  0.25500000920E-02 0.  1.
        2   -1    0    0  501    0  0.00000000000E+00  0.00000000000E+00 -0.18828612123E+04  0.18828612123E+04  0.25500000920E-02 0. -1.
    10030    2    1    2    0    0  0.00000000000E+00  0.00000000000E+00 -0.68933347080E+03  0.30763889537E+04  0.29981641651E+04 0.  0.
        4    1    3    3  502    0 -0.36378255841E+03 -0.13645738179E+04 -0.86062419728E+03  0.16538062390E+04  0.12699999809E+01 0. -1.
       -4    1    3    3    0  502  0.36378255841E+03  0.13645738179E+04  0.17129072648E+03  0.14225827147E+04  0.12699999809E+01 0.  1.
</event>
<event>
 5   0  0.2948711E-06  0.3010641E+04  0.7818609E-02  0.8240699E-01
       -2   -1    0    0    0  501  0.00000000000E+00  0.00000000000E+00  0.11110764793E+04  0.11110764793E+04  0.25500000920E-02 0. -1.
        2   -1    0    0  501    0  0.00000000000E+00  0.00000000000E+00 -0.20394543660E+04  0.20394543660E+04  0.25500000920E-02 0.  1.
    10030    2    1    2    0    0  0.00000000000E+00  0.00000000000E+00 -0.92837788666E+03  0.31505308453E+04  0.30106409793E+04 0.  0.
        5    1    3    3  502    0  0.98017027994E+03 -0.62918774161E+03  0.53372226699E+03  0.12812074540E+04  0.46999998093E+01 0. -1.
       -5    1    3    3    0  502 -0.98017027994E+03  0.62918774161E+03 -0.14621001536E+04  0.18693233913E+04  0.46999998093E+01 0.  1.
</event>
<event>
 5   0  0.1054384E-06  0.2999762E+04  0.7818609E-02  0.8243799E-01
        1   -1    0    0  501    0  0.00000000000E+00  0.00000000000E+00  0.18645274080E+04  0.18645274080E+04  0.50400001928E-02 0.  1.
       -1   -1    0    0    0  501  0.00000000000E+00  0.00000000000E+00 -0.12065483807E+04  0.12065483807E+04  0.50400001928E-02 0. -1.
    10030    2    1    2    0    0  0.00000000000E+00  0.00000000000E+00  0.65797902729E+03  0.30710757888E+04  0.29997616739E+04 0.  0.
        2    1    3    3  502    0 -0.14868766057E+04 -0.19592927750E+03  0.35076010708E+03  0.15402022514E+04  0.25500000920E-02 0. -1.
       -2    1    3    3    0  502  0.14868766057E+04  0.19592927750E+03  0.30721892021E+03  0.15308735374E+04  0.25500000920E-02 0.  1.
</event>
<event>
 5   0  0.1054384E-06  0.3012593E+04  0.7818609E-02  0.8240144E-01
       -1   -1    0    0    0  501  0.00000000000E+00  0.00000000000E+00  0.11611602703E+04  0.11611602703E+04  0.50400001928E-02 0. -1.
        1   -1    0    0  501    0  0.00000000000E+00  0.00000000000E+00 -0.19540189305E+04  0.19540189305E+04  0.50400001928E-02 0.  1.
    10030    2    1    2    0    0  0.00000000000E+00  0.00000000000E+00 -0.79285866029E+03  0.31151792008E+04  0.30125930024E+04 0.  0.
        2    1    3    3  502    0  0.13115110095E+04  0.72983365305E+03 -0.26477183053E+03  0.15240808415E+04  0.25500000920E-02 0. -1.
       -2    1    3    3    0  502 -0.13115110095E+04 -0.72983365305E+03 -0.52808682976E+03  0.15910983593E+04  0.25500000920E-02 0.  1.
</event>
<event>
 5   0  0.9749500E-07  0.2993285E+04  0.7818609E-02  0.8245651E-01
       -3   -1    0    0    0  501  0.00000000000E+00  0.00000000000E+00  0.13918999896E+04  0.13918999933E+04  0.10100000352E+00 0. -1.
        3   -1    0    0  501    0  0.00000000000E+00  0.00000000000E+00 -0.16092673701E+04  0.16092673733E+04  0.10100000352E+00 0.  1.
    10030    2    1    2    0    0  0.00000000000E+00  0.00000000000E+00 -0.21736738047E+03  0.30011673665E+04  0.29932853161E+04 0.  0.
        5    1    3    3  502    0 -0.54330012783E+03 -0.21233439419E+03  0.12732258295E+04  0.14004952791E+04  0.46999998093E+01 0. -1.
       -5    1    3    3    0  502  0.54330012783E+03  0.21233439419E+03 -0.14905932100E+04  0.16006720874E+04  0.46999998093E+01 0.  1.
</event>
<event>
 5   0  0.1097402E-06  0.2983299E+04  0.7818609E-02  0.8248516E-01
        1   -1    0    0  501    0  0.00000000000E+00  0.00000000000E+00  0.18567377203E+04  0.18567377203E+04  0.50400001928E-02 0. -1.
       -1   -1    0    0    0  501  0.00000000000E+00  0.00000000000E+00 -0.11983481620E+04  0.11983481620E+04  0.50400001928E-02 0.  1.
    10030    2    1    2    0    0  0.00000000000E+00  0.00000000000E+00  0.65838955834E+03  0.30550858823E+04  0.29832990024E+04 0.  0.
        4    1    3    3  502    0  0.20105507346E+03  0.14752234093E+04  0.23584555190E+03  0.15074256158E+04  0.12699999809E+01 0.  1.
       -4    1    3    3    0  502 -0.20105507346E+03 -0.14752234093E+04  0.42254400644E+03  0.15476602664E+04  0.12699999809E+01 0. -1.
</event>
<event>
 5   0  0.1091076E-06  0.2974277E+04  0.7818609E-02  0.8251115E-01
        1   -1    0    0  501    0  0.00000000000E+00  0.00000000000E+00  0.11878869816E+04  0.11878869816E+04  0.50400001928E-02 0. -1.
       -1   -1    0    0    0  501  0.00000000000E+00  0.00000000000E+00 -0.18617771874E+04  0.18617771874E+04  0.50400001928E-02 0.  1.
    10030    2    1    2    0    0  0.00000000000E+00  0.00000000000E+00 -0.67389020580E+03  0.30496641691E+04  0.29742769768E+04 0.  0.
        3    1    3    3  502    0  0.84249783998E+03  0.12150224389E+04 -0.17321447217E+03  0.14886522095E+04  0.10100000352E+00 0. -1.
       -3    1    3    3    0  502 -0.84249783998E+03 -0.12150224389E+04 -0.50067573362E+03  0.15610119595E+04  0.10100000352E+00 0.  1.
</event>
<event>
 5   0  0.2970915E-06  0.3003714E+04  0.7818609E-02  0.8242671E-01
       -2   -1    0    0    0  501  0.00000000000E+00  0.00000000000E+00  0.13099172641E+04  0.13099172641E+04  0.25500000920E-02 0.  1.
        2   -1    0    0  501    0  0.00000000000E+00  0.00000000000E+00 -0.17219208323E+04  0.17219208323E+04  0.25500000920E-02 0. -1.
    10030    2    1    2    0    0  0.00000000000E+00  0.00000000000E+00 -0.41200356820E+03  0.30318380964E+04  0.30037135853E+04 0.  0.
        4    1    3    3  502    0 -0.13261341265E+04 -0.46150623449E+03 -0.74386311864E+03  0.15890102826E+04  0.12699999809E+01 0. -1.
       -4    1    3    3    0  502  0.13261341265E+04  0.46150623449E+03  0.33185955044E+03  0.14428278138E+04  0.12699999809E+01 0.  1.
</event>
<event>
 5   0  0.2948711E-06  0.2982398E+04  0.7818609E-02  0.8248775E-01
        2   -1    0    0  501    0  0.00000000000E+00  0.00000000000E+00  0.11136614440E+04  0.11136614440E+04  0.25500000920E-02 0. -1.
       -2   -1    0    0    0  501  0.00000000000E+00  0.00000000000E+00 -0.19967242786E+04  0.19967242786E+04  0.25500000920E-02 0.  1.
    10030    2    1    2    0    0  0.00000000000E+00  0.00000000000E+00 -0.88306283461E+03  0.31103857226E+04  0.29823982587E+04 0.  0.
        5    1    3    3  502    0 -0.73330469223E+03 -0.12534649380E+04 -0.79480487931E+03  0.16554899603E+04  0.46999998093E+01 0.  1.
       -5    1    3    3    0  502  0.73330469223E+03  0.12534649380E+04 -0.88257955306E+02  0.14548957623E+04  0.46999998093E+01 0. -1.
</event>
<event>
 5   0  0.1113245E-06  0.2996986E+04  0.7818609E-02  0.8244592E-01
       -1   -1    0    0    0  501  0.00000000000E+00  0.00000000000E+00  0.12418757651E+04  0.12418757651E+04  0.50400001928E-02 0. -1.
        1   -1    0    0  501    0  0.00000000000E+00  0.00000000000E+00 -0.18081365461E+04  0.18081365461E+04  0.50400001928E-02 0.  1.
    10030    2    1    2    0    0  0.00000000000E+00  0.00000000000E+00 -0.56626078100E+03  0.30500123113E+04  0.29969857902E+04 0.  0.
        5    1    3    3  502    0 -0.13531462223E+03  0.14031963058E+04 -0.80024371907E+03  0.16210126525E+04  0.46999998093E+01 0.  1.
       -5    1    3    3    0  502  0.13531462223E+03 -0.14031963058E+04  0.23398293808E+03  0.14289996588E+04  0.46999998093E+01 0. -1.
</event>
<event>
 5   0  0.3113328E-06  0.2979567E+04  0.7818609E-02  0.8249590E-01
       -2   -1    0    0    0  501  0.00000000000E+00  0.00000000000E+00  0.12007364866E+04  0.12007364866E+04  0.25500000920E-02 0. -1.
        2   -1    0    0  501    0  0.00000000000E+00  0.00000000000E+00 -0.18484118303E+04  0.18484118303E+04  0.25500000920E-02 0.  1.
    10030    2    1    2    0    0  0.00000000000E+00  0.00000000000E+00 -0.64767534375E+03  0.30491483169E+04  0.29795674363E+04 0.  0.
        1    1    3    3  502    0 -0.11554483611E+04 -0.38378705106E+03 -0.12024335434E+04  0.17111983643E+04  0.50400001928E-02 0.  1.
       -1    1    3    3    0  502  0.11554483611E+04  0.38378705106E+03  0.55475819966E+03  0.13379499526E+04  0.50400001928E-02 0. -1.
</event>
<event>
 5   0  0.2862033E-06  0.3001161E+04  0.7818609E-02  0.8243400E-01
        2   -1    0    0  501    0  0.00000000000E+00  0.00000000000E+00  0.12123803000E+04  0.12123803000E+04  0.25500000920E-02 0.  1.
       -2   -1    0    0    0  501  0.00000000000E+00  0.00000000000E+00 -0.18572896217E+04  0.18572896217E+04  0.25500000920E-02 0. -1.
    10030    2    1    2    0    0  0.00000000000E+00  0.00000000000E+00 -0.64490932167E+03  0.30696699217E+04  0.30011606747E+04 0.  0.
        2    1    3    3  502    0  0.94584327321E+03  0.70592202982E+03 -0.12703217027E+04  0.17339730788E+04  0.25500000920E-02 0. -1.
       -2    1    3    3    0  502 -0.94584327321E+03 -0.70592202982E+03  0.62541238107E+03  0.13356968429E+04  0.25500000920E-02 0.  1.
</event>
<event>
 5   0  0.2862033E-06  0.3011885E+04  0.7818609E-02  0.8240345E-01
       -2   -1    0    0    0  501  0.00000000000E+00  0.00000000000E+00  0.91253584325E+03  0.91253584325E+03  0.25500000920E-02 0. -1.
        2   -1    0    0  501    0  0.00000000000E+00  0.00000000000E+00 -0.24852322319E+04  0.24852322319E+04  0.25500000920E-02 0.  1.
    10030    2    1    2    0    0  0.00000000000E+00  0.00000000000E+00 -0.15726963887E+04  0.33977680752E+04  0.30118854496E+04 0.  0.
        2    1    3    3  502    0  0.21541807883E+03  0.81690111865E+03  0.62002023055E+03  0.10479300896E+04  0.25500000920E-02 0. -1.
       -2    1    3    3    0  502 -0.21541807883E+03 -0.81690111865E+03 -0.21927166193E+04  0.23498379856E+04  0.25500000920E-02 0.  1.
</event>
<event>
 5   0  0.1097402E-06  0.2997669E+04  0.7818609E-02  0.8244397E-01
       -1   -1    0    0    0  501  0.00000000000E+00  0.00000000000E+00  0.19394657680E+04  0.19394657680E+04  0.50400001928E-02 0. -1.
        1   -1    0    0  501    0  0.00000000000E+00  0.00000000000E+00 -0.11583111588E+04  0.11583111588E+04  0.50400001928E-02 0.  1.
    10030    2    1    2    0    0  0.00000000000E+00  0.00000000000E+00  0.78115460918E+03  0.30977769268E+04  0.29976689886E+04 0.  0.
        4    1    3    3  502    0 -0.45341701275E+03  0.10010286852E+04 -0.66270435164E+03  0.12832864398E+04  0.12699999809E+01 0.  1.
       -4    1    3    3    0  502  0.45341701275E+03 -0.10010286852E+04  0.14438589608E+04  0.18144904871E+04  0.12699999809E+01 0. -1.
</event>
<event>
 5   0  0.1091075E-06  0.2957328E+04  0.7818609E-02  0.8256022E-01
        1   -1    0    0  501    0  0.00000000000E+00  0.00000000000E+00  0.28294347584E+04  0.28294347584E+04  0.50400001928E-02 0. -1.
       -1   -1    0    0    0  501  0.00000000000E+00  0.00000000000E+00 -0.77275063996E+03  0.77275063998E+03  0.50400001928E-02 0.  1.
    10030    2    1    2    0    0  0.00000000000E+00  0.00000000000E+00  0.20566841184E+04  0.36021853983E+04  0.29573281998E+04 0.  0.
        1    1    3    3  502    0 -0.14067134492E+04  0.19551686573E+03  0.15296389021E+04  0.20873104091E+04  0.50400001928E-02 0. -1.
       -1    1    3    3    0  502  0.14067134492E+04 -0.19551686573E+03  0.52704521627E+03  0.15148749892E+04  0.50400001928E-02 0.  1.
</event>
<event>
 5   0  0.2948711E-06  0.3004935E+04  0.7818609E-02  0.8242323E-01
        2   -1    0    0  501    0  0.00000000000E+00  0.00000000000E+00  0.24325510971E+04  0.24325510971E+04  0.25500000920E-02 0. -1.
       -2   -1    0    0    0  501  0.00000000000E+00  0.00000000000E+00 -0.92800018924E+03  0.92800018924E+03  0.25500000920E-02 0.  1.
    10030    2    1    2    0    0  0.00000000000E+00  0.00000000000E+00  0.15045509078E+04  0.33605512863E+04  0.30049345274E+04 0.  0.
        5    1    3    3  502    0 -0.12928283839E+04 -0.43962632585E+01  0.16083467889E+04  0.20635469563E+04  0.46999998093E+01 0.  1.
       -5    1    3    3    0  502  0.12928283839E+04  0.43962632585E+01 -0.10379588108E+03  0.12970043301E+04  0.46999998093E+01 0. -1.
</event>
<event>
 5   0  0.1113245E-06  0.2857562E+04  0.7818609E-02  0.8285617E-01
       -1   -1    0    0    0  501  0.00000000000E+00  0.00000000000E+00  0.10003668559E+04  0.10003668559E+04  0.50400001928E-02 0.  1.
        1   -1    0    0  501    0  0.00000000000E+00  0.00000000000E+00 -0.20406659056E+04  0.20406659056E+04  0.50400001928E-02 0. -1.
    10030    2    1    2    0    0  0.00000000000E+00  0.00000000000E+00 -0.10402990497E+04  0.30410327615E+04  0.28575615730E+04 0.  0.
        5    1    3    3  502    0 -0.11812552303E+04 -0.60530350915E+03  0.42609137638E+02  0.13280037221E+04  0.46999998093E+01 0.  1.
       -5    1    3    3    0  502  0.11812552303E+04  0.60530350915E+03 -0.10829081873E+04  0.17130290393E+04  0.46999998093E+01 0. -1.
</event>
<event>
 5   0  0.2862033E-06  0.2971491E+04  0.7818609E-02  0.8251919E-01
       -2   -1    0    0    0  501  0.00000000000E+00  0.00000000000E+00  0.12477769902E+04  0.12477769902E+04  0.25500000920E-02 0.  1.
        2   -1    0    0  501    0  0.00000000000E+00  0.00000000000E+00 -0.17690979435E+04  0.17690979435E+04  0.25500000920E-02 0. -1.
    10030    2    1    2    0    0  0.00000000000E+00  0.00000000000E+00 -0.52132095334E+03  0.30168749337E+04  0.29714910111E+04 0.  0.
        2    1    3    3  502    0 -0.75807958874E+01 -0.13666853614E+04  0.33095142621E+03  0.14062059564E+04  0.25500000920E-02 0. -1.
       -2    1    3    3    0  502  0.75807958874E+01  0.13666853614E+04 -0.85227237955E+03  0.16106689773E+04  0.25500000920E-02 0.  1.
</event>
<event>
 5   0  0.2970915E-06  0.3041636E+04  0.7818609E-02  0.8231941E-01
        2   -1    0    0  501    0  0.00000000000E+00  0.00000000000E+00  0.22917311624E+04  0.22917311624E+04  0.25500000920E-02 0.  1.
       -2   -1    0    0    0  501  0.00000000000E+00  0.00000000000E+00 -0.10092313282E+04  0.10092313282E+04  0.25500000920E-02 0. -1.
    10030    2    1    2    0    0  0.00000000000E+00  0.00000000000E+00  0.12824998342E+04  0.33009624906E+04  0.30416356685E+04 0.  0.
        4    1    3    3  502    0 -0.70048351254E+02 -0.13123414205E+04  0.14718372071E+04  0.19731835071E+04  0.12699999809E+01 0.  1.
       -4    1    3    3    0  502  0.70048351254E+02  0.13123414205E+04 -0.18933737294E+03  0.13277789835E+04  0.12699999809E+01 0. -1.
</event>
<event>
 5   0  0.1097402E-06  0.3001423E+04  0.7818609E-02  0.8243325E-01
        1   -1    0    0  501    0  0.00000000000E+00  0.00000000000E+00  0.15005394706E+04  0.15005394706E+04  0.50400001928E-02 0.  1.
       -1   -1    0    0    0  501  0.00000000000E+00  0.00000000000E+00 -0.15008832324E+04  0.15008832324E+04  0.50400001928E-02 0. -1.
    10030    2    1    2    0    0  0.00000000000E+00  0.00000000000E+00 -0.34376185977E+00  0.30014227030E+04  0.30014226833E+04 0.  0.
        4    1    3    3  502    0 -0.14658348338E+04  0.15236877708E+03 -0.28344721488E+03  0.15007437959E+04  0.12699999809E+01 0. -1.
       -4    1    3    3    0  502  0.14658348338E+04 -0.15236877708E+03  0.28310345302E+03  0.15006789071E+04  0.12699999809E+01 0.  1.
</event>
<event>
 5   0  0.2948711E-06  0.3033319E+04  0.7818609E-02  0.8234280E-01
        2   -1    0    0  501    0  0.00000000000E+00  0.00000000000E+00  0.21236863759E+04  0.21236863759E+04  0.25500000920E-02 0.  1.
       -2   -1    0    0    0  501  0.00000000000E+00  0.00000000000E+00 -0.10831433412E+04  0.10831433412E+04  0.25500000920E-02 0. -1.
    10030    2    1    2    0    0  0.00000000000E+00  0.00000000000E+00  0.10405430347E+04  0.32068297171E+04  0.30333194733E+04 0.  0.
        5    1    3    3  502    0  0.99795252812E+03 -0.76166894805E+03  0.14199405216E+04  0.18953369119E+04  0.46999998093E+01 0.  1.
       -5    1    3    3    0  502 -0.99795252812E+03  0.76166894805E+03 -0.37939748690E+03  0.13114928051E+04  0.46999998093E+01 0. -1.
</event>
<event>
 5   0  0.2985941E-06  0.3006151E+04  0.7818609E-02  0.8241977E-01
        2   -1    0    0  501    0  0.00000000000E+00  0.00000000000E+00  0.20204986075E+04  0.20204986075E+04  0.25500000920E-02 0. -1.
       -2   -1    0    0    0  501  0.00000000000E+00  0.00000000000E+00 -0.11181579268E+04  0.11181579268E+04  0.25500000920E-02 0.  1.
    10030    2    1    2    0    0  0.00000000000E+00  0.00000000000E+00  0.90234068066E+03  0.31386565343E+04  0.30061513828E+04 0.  0.
        3    1    3    3  502    0  0.68354629151E+03 -0.62385466990E+03 -0.78543696155E+03  0.12138127584E+04  0.10100000352E+00 0.  1.
       -3    1    3    3    0  502 -0.68354629151E+03  0.62385466990E+03  0.16877776422E+04  0.19248437759E+04  0.10100000352E+00 0. -1.
</event>
<event>
 5   0  0.2970915E-06  0.2987433E+04  0.7818609E-02  0.8247329E-01
       -2   -1    0    0    0  501  0.00000000000E+00  0.00000000000E+00  0.93779480622E+03  0.93779480622E+03  0.25500000920E-02 0.  1.
        2   -1    0    0  501    0  0.00000000000E+00  0.00000000000E+00 -0.23791868876E+04  0.23791868876E+04  0.25500000920E-02 0. -1.
    10030    2    1    2    0    0  0.00000000000E+00  0.00000000000E+00 -0.14413920814E+04  0.33169816938E+04  0.29874330829E+04 0.  0.
        4    1    3    3  502    0  0.86670971026E+02 -0.27645281974E+03 -0.23476907518E+04  0.23655002637E+04  0.12699999809E+01 0. -1.
       -4    1    3    3    0  502 -0.86670971026E+02  0.27645281974E+03  0.90629867046E+03  0.95148143005E+03  0.12699999809E+01 0.  1.
</event>
<event>
 5   0  0.1054384E-06  0.2984231E+04  0.7818609E-02  0.8248248E-01
       -1   -1    0    0    0  501  0.00000000000E+00  0.00000000000E+00  0.10685396628E+04  0.10685396628E+04  0.50400001928E-02 0. -1.
        1   -1    0    0  501    0  0.00000000000E+00  0.00000000000E+00 -0.20836000444E+04  0.20836000444E+04  0.50400001928E-02 0.  1.
    10030    2    1    2    0    0  0.00000000000E+00  0.00000000000E+00 -0.10150603816E+04  0.31521397072E+04  0.29842314179E+04 0.  0.
        2    1    3    3  502    0  0.96543749040E+03 -0.73543264309E+03  0.40934117859E+03  0.12808165056E+04  0.25500000920E-02 0. -1.
       -2    1    3    3    0  502 -0.96543749040E+03  0.73543264309E+03 -0.14244015602E+04  0.18713232017E+04  0.25500000920E-02 0.  1.
</event>
<event>
 5   0  0.2948711E-06  0.2991537E+04  0.7818609E-02  0.8246152E-01
       -2   -1    0    0    0  501  0.00000000000E+00  0.00000000000E+00  0.13440516660E+04  0.13440516660E+04  0.25500000920E-02 0. -1.
        2   -1    0    0  501    0  0.00000000000E+00  0.00000000000E+00 -0.16646110181E+04  0.16646110181E+04  0.25500000920E-02 0.  1.
    10030    2    1    2    0    0  0.00000000000E+00  0.00000000000E+00 -0.32055935202E+03  0.30086626841E+04  0.29915368706E+04 0.  0.
        5    1    3    3  502    0 -0.13193317955E+02  0.98196301400E+03  0.97439702441E+03  0.13834366902E+04  0.46999998093E+01 0. -1.
       -5    1    3    3    0  502  0.13193317955E+02 -0.98196301400E+03 -0.12949563764E+04  0.16252259939E+04  0.46999998093E+01 0.  1.
</event>
<event>
 5   0  0.1113245E-06  0.2924670E+04  0.7818609E-02  0.8265575E-01
       -1   -1    0    0    0  501  0.00000000000E+00  0.00000000000E+00  0.27219265356E+04  0.27219265356E+04  0.50400001928E-02 0. -1.
        1   -1    0    0  501    0  0.00000000000E+00  0.00000000000E+00 -0.78562851294E+03  0.78562851296E+03  0.50400001928E-02 0.  1.
    10030    2    1    2    0    0  0.00000000000E+00  0.00000000000E+00  0.19362980226E+04  0.35075550485E+04  0.29246696200E+04 0.  0.
        5    1    3    3  502    0 -0.86194989882E+03  0.47559533029E+03 -0.32867734376E+03  0.10378821863E+04  0.46999998093E+01 0.  1.
       -5    1    3    3    0  502  0.86194989882E+03 -0.47559533029E+03  0.22649753664E+04  0.24696728623E+04  0.46999998093E+01 0. -1.
</event>
<event>
 5   0  0.2970915E-06  0.2992483E+04  0.7818609E-02  0.8245881E-01
        2   -1    0    0  501    0  0.00000000000E+00  0.00000000000E+00  0.26990705418E+04  0.26990705418E+04  0.25500000920E-02 0. -1.
       -2   -1    0    0    0  501  0.00000000000E+00  0.00000000000E+00 -0.82944803607E+03  0.82944803608E+03  0.25500000920E-02 0.  1.
    10030    2    1    2    0    0  0.00000000000E+00  0.00000000000E+00  0.18696225057E+04  0.35285185779E+04  0.29924830894E+04 0.  0.
        4    1    3    3  502    0  0.58576243548E+03  0.88935827734E+03 -0.30448542975E+03  0.11076049684E+04  0.12699999809E+01 0.  1.
       -4    1    3    3    0  502 -0.58576243548E+03 -0.88935827734E+03  0.21741079355E+04  0.24209136094E+04  0.12699999809E+01 0. -1.
</event>
<event>
 5   0  0.1091075E-06  0.2954745E+04  0.7818609E-02  0.8256773E-01
       -1   -1    0    0    0  501  0.00000000000E+00  0.00000000000E+00  0.14419667786E+04  0.14419667786E+04  0.50400001928E-02 0. -1.
        1   -1    0    0  501    0  0.00000000000E+00  0.00000000000E+00 -0.15136475471E+04  0.15136475471E+04  0.50400001928E-02 0.  1.
    10030    2    1    2    0    0  0.00000000000E+00  0.00000000000E+00 -0.71680768483E+02  0.29556143257E+04  0.29547449822E+04 0.  0.
        1    1    3    3  502    0 -0.44775751106E+01 -0.84173000747E+03  0.11786420441E+04  0.14483530379E+04  0.50400001928E-02 0. -1.
       -1    1    3    3    0  502  0.44775751106E+01  0.84173000747E+03 -0.12503228126E+04  0.15072612879E+04  0.50400001928E-02 0.  1.
</event>
<event>
 5   0  0.2948711E-06  0.3004383E+04  0.7818609E-02  0.8242480E-01
       -2   -1    0    0    0  501  0.00000000000E+00  0.00000000000E+00  0.11435322993E+04  0.11435322993E+04  0.25500000920E-02 0.  1.
        2   -1    0    0  501    0  0.00000000000E+00  0.00000000000E+00 -0.19733407950E+04  0.19733407950E+04  0.25500000920E-02 0. -1.
    10030    2    1    2    0    0  0.00000000000E+00  0.00000000000E+00 -0.82980849570E+03  0.31168730944E+04  0.30043827564E+04 0.  0.
        5    1    3    3  502    0  0.89242088496E+03 -0.96664298200E+03 -0.11671342888E+04  0.17587035647E+04  0.46999998093E+01 0. -1.
       -5    1    3    3    0  502 -0.89242088496E+03  0.96664298200E+03  0.33732579307E+03  0.13581695296E+04  0.46999998093E+01 0.  1.
</event>
<event>
 5   0  0.1113245E-06  0.2928492E+04  0.7818609E-02  0.8264450E-01
       -1   -1    0    0    0  501  0.00000000000E+00  0.00000000000E+00  0.14593323076E+04  0.14593323076E+04  0.50400001928E-02 0.  1.
        1   -1    0    0  501    0  0.00000000000E+00  0.00000000000E+00 -0.14691762487E+04  0.14691762487E+04  0.50400001928E-02 0. -1.
    10030    2    1    2    0    0  0.00000000000E+00  0.00000000000E+00 -0.98439411122E+01  0.29285085563E+04  0.29284920114E+04 0.  0.
        5    1    3    3  502    0  0.54850961876E+03 -0.12394615300E+04 -0.55888050374E+03  0.14661163643E+04  0.46999998093E+01 0. -1.
       -5    1    3    3    0  502 -0.54850961876E+03  0.12394615300E+04  0.54903656262E+03  0.14623921920E+04  0.46999998093E+01 0.  1.
</event>
<event>
 5   0  0.1113245E-06  0.2998141E+04  0.7818609E-02  0.8244262E-01
        1   -1    0    0  501    0  0.00000000000E+00  0.00000000000E+00  0.14455325894E+04  0.14455325894E+04  0.50400001928E-02 0.  1.
       -1   -1    0    0    0  501  0.00000000000E+00  0.00000000000E+00 -0.15545911794E+04  0.15545911794E+04  0.50400001928E-02 0. -1.
    10030    2    1    2    0    0  0.00000000000E+00  0.00000000000E+00 -0.10905858998E+03  0.30001237689E+04  0.29981408994E+04 0.  0.
        5    1    3    3  502    0  0.78064954820E+03  0.75368169242E+02 -0.13329093581E+04  0.15465327429E+04  0.46999998093E+01 0. -1.
       -5    1    3    3    0  502 -0.78064954820E+03 -0.75368169242E+02  0.12238507681E+04  0.14535910259E+04  0.46999998093E+01 0.  1.
</event>
<event>
 5   0  0.2948711E-06  0.2995587E+04  0.7818609E-02  0.8244992E-01
        2   -1    0    0  501    0  0.00000000000E+00  0.00000000000E+00  0.22724026143E+04  0.22724026143E+04  0.25500000920E-02 0. -1.
       -2   -1    0    0    0  501  0.00000000000E+00  0.00000000000E+00 -0.98723049088E+03  0.98723049088E+03  0.25500000920E-02 0.  1.
    10030    2    1    2    0    0  0.00000000000E+00  0.00000000000E+00  0.12851721234E+04  0.32596331052E+04  0.29955868530E+04 0.  0.
        5    1    3    3  502    0  0.41697474418E+03 -0.31764886204E+03  0.21693254780E+04  0.22317624999E+04  0.46999998093E+01 0. -1.
       -5    1    3    3    0  502 -0.41697474418E+03  0.31764886204E+03 -0.88415335452E+03  0.10278706053E+04  0.46999998093E+01 0.  1.
</event>
<event>
 5   0  0.1097402E-06  0.3024537E+04  0.7818609E-02  0.8236759E-01
       -1   -1    0    0    0  501  0.00000000000E+00  0.00000000000E+00  0.12973702693E+04  0.12973702693E+04  0.50400001928E-02 0. -1.
        1   -1    0    0  501    0  0.00000000000E+00  0.00000000000E+00 -0.17627630863E+04  0.17627630863E+04  0.50400001928E-02 0.  1.
    10030    2    1    2    0    0  0.00000000000E+00  0.00000000000E+00 -0.46539281694E+03  0.30601333556E+04  0.30245372671E+04 0.  0.
        4    1    3    3  502    0 -0.31809018988E+00  0.49485204726E+03  0.12131340848E+04  0.13101811212E+04  0.12699999809E+01 0. -1.
       -4    1    3    3    0  502  0.31809018988E+00 -0.49485204726E+03 -0.16785269017E+04  0.17499522344E+04  0.12699999809E+01 0.  1.
</event>
<event>
 5   0  0.1097402E-06  0.2997363E+04  0.7818609E-02  0.8244484E-01
       -1   -1    0    0    0  501  0.00000000000E+00  0.00000000000E+00  0.11401440508E+04  0.11401440508E+04  0.50400001928E-02 0. -1.
        1   -1    0    0  501    0  0.00000000000E+00  0.00000000000E+00 -0.19699669241E+04  0.19699669241E+04  0.50400001928E-02 0.  1.
    10030    2    1    2    0    0  0.00000000000E+00  0.00000000000E+00 -0.82982287327E+03  0.31101109749E+04  0.29973628868E+04 0.  0.
        4    1    3    3  502    0  0.12378664379E+04  0.36858136980E+03  0.37386691607E+03  0.13445979429E+04  0.12699999809E+01 0. -1.
       -4    1    3    3    0  502 -0.12378664379E+04 -0.36858136980E+03 -0.12036897893E+04  0.17655130320E+04  0.12699999809E+01 0.  1.
</event>
<event>
 5   0  0.1113245E-06  0.3055598E+04  0.7818609E-02  0.8228030E-01
        1   -1    0    0  501    0  0.00000000000E+00  0.00000000000E+00  0.18728524210E+04  0.18728524210E+04  0.50400001928E-02 0.  1.
       -1   -1    0    0    0  501  0.00000000000E+00  0.00000000000E+00 -0.12463180915E+04  0.12463180915E+04  0.50400001928E-02 0. -1.
    10030    2    1    2    0    0  0.00000000000E+00  0.00000000000E+00  0.62653432943E+03  0.31191705125E+04  0.30555980462E+04 0.  0.
        5    1    3    3  502    0 -0.55113947531E+03 -0.13746106507E+04  0.69635975020E+03  0.16365354118E+04  0.46999998093E+01 0.  1.
       -5    1    3    3    0  502  0.55113947531E+03  0.13746106507E+04 -0.69825420764E+02  0.14826351007E+04  0.46999998093E+01 0. -1.
</event>
<event>
 5   0  0.1097402E-06  0.2920099E+04  0.7818609E-02  0.8266922E-01
        1   -1    0    0  501    0  0.00000000000E+00  0.00000000000E+00  0.17554087620E+04  0.17554087620E+04  0.50400001928E-02 0. -1.
       -1   -1    0    0    0  501  0.00000000000E+00  0.00000000000E+00 -0.12143865334E+04  0.12143865335E+04  0.50400001928E-02 0.  1.
    10030    2    1    2    0    0  0.00000000000E+00  0.00000000000E+00  0.54102222856E+03  0.29697952955E+04  0.29200991499E+04 0.  0.
        4    1    3    3  502    0  0.12658762821E+04 -0.68159623883E+03  0.11766390682E+02  0.14377608477E+04  0.12699999809E+01 0. -1.
       -4    1    3    3    0  502 -0.12658762821E+04  0.68159623883E+03  0.52925583788E+03  0.15320344478E+04  0.12699999809E+01 0.  1.
</event>
<event>
 5   0  0.1097402E-06  0.2993980E+04  0.7818609E-02  0.8245452E-01
        1   -1    0    0  501    0  0.00000000000E+00  0.00000000000E+00  0.23396009851E+04  0.23396009851E+04  0.50400001928E-02 0. -1.
       -1   -1    0    0    0  501  0.00000000000E+00  0.00000000000E+00 -0.95784641535E+03  0.95784641537E+03  0.50400001928E-02 0.  1.
    10030    2    1    2    0    0  0.00000000000E+00  0.00000000000E+00  0.13817545698E+04  0.32974474005E+04  0.29939795704E+04 0.  0.
        4    1    3    3  502    0 -0.98773313957E+03 -0.56081775164E+03 -0.38307148442E+03  0.11986987447E+04  0.12699999809E+01 0.  1.
       -4    1    3    3    0  502  0.98773313957E+03  0.56081775164E+03  0.17648260542E+04  0.20987486557E+04  0.12699999809E+01 0. -1.
</event>
<event>
 5   0  0.1097402E-06  0.3009958E+04  0.7818609E-02  0.8240893E-01
        1   -1    0    0  501    0  0.00000000000E+00  0.00000000000E+00  0.12509473662E+04  0.12509473662E+04  0.50400001928E-02 0.  1.
       -1   -1    0    0    0  501  0.00000000000E+00  0.00000000000E+00 -0.18105975642E+04  0.18105975643E+04  0.50400001928E-02 0. -1.
    10030    2    1    2    0    0  0.00000000000E+00  0.00000000000E+00 -0.55965019809E+03  0.30615449304E+04  0.30099583081E+04 0.  0.
        4    1    3    3  502    0 -0.71512163864E+03  0.13782695902E+03  0.10597760101E+04  0.12858934766E+04  0.12699999809E+01 0.  1.
       -4    1    3    3    0  502  0.71512163864E+03 -0.13782695902E+03 -0.16194262082E+04  0.17756514538E+04  0.12699999809E+01 0. -1.
</event>
<event>
 5   0  0.1091075E-06  0.2992889E+04  0.7818609E-02  0.8245764E-01
       -1   -1    0    0    0  501  0.00000000000E+00  0.00000000000E+00  0.10747903412E+04  0.10747903412E+04  0.50400001928E-02 0. -1.
        1   -1    0    0  501    0  0.00000000000E+00  0.00000000000E+00 -0.20835188911E+04  0.20835188911E+04  0.50400001928E-02 0.  1.
    10030    2    1    2    0    0  0.00000000000E+00  0.00000000000E+00 -0.10087285499E+04  0.31583092323E+04  0.29928888919E+04 0.  0.
        1    1    3    3  502    0  0.98564075256E+03  0.55794264278E+03 -0.15364595178E+04  0.19087942623E+04  0.50400001928E-02 0.  1.
       -1    1    3    3    0  502 -0.98564075256E+03 -0.55794264278E+03  0.52773096793E+03  0.12495149700E+04  0.50400001928E-02 0. -1.
</event>
<event>
 5   0  0.2862033E-06  0.3048454E+04  0.7818609E-02  0.8230028E-01
       -2   -1    0    0    0  501  0.00000000000E+00  0.00000000000E+00  0.14747432630E+04  0.14747432630E+04  0.25500000920E-02 0.  1.
        2   -1    0    0  501    0  0.00000000000E+00  0.00000000000E+00 -0.15753715982E+04  0.15753715982E+04  0.25500000920E-02 0. -1.
    10030    2    1    2    0    0  0.00000000000E+00  0.00000000000E+00 -0.10062833521E+03  0.30501148612E+04  0.30484544617E+04 0.  0.
        2    1    3    3  502    0  0.40052250606E+03  0.42510374795E+03  0.13583365994E+04  0.14785837114E+04  0.25500000920E-02 0.  1.
       -2    1    3    3    0  502 -0.40052250606E+03 -0.42510374795E+03 -0.14589649346E+04  0.15715311498E+04  0.25500000920E-02 0. -1.
</event>
<event>
 5   0  0.1091075E-06  0.2936203E+04  0.7818609E-02  0.8262187E-01
        1   -1    0    0  501    0  0.00000000000E+00  0.00000000000E+00  0.12361163221E+04  0.12361163221E+04  0.50400001928E-02 0.  1.
       -1   -1    0    0    0  501  0.00000000000E+00  0.00000000000E+00 -0.17436244261E+04  0.17436244262E+04  0.50400001928E-02 0. -1.
    10030    2    1    2    0    0  0.00000000000E+00  0.00000000000E+00 -0.50750810405E+03  0.29797407483E+04  0.29362034077E+04 0.  0.
        1    1    3    3  502    0  0.69438097278E+03  0.13270523368E+03 -0.15595132650E+04  0.17122666960E+04  0.50400001928E-02 0. -1.
       -1    1    3    3    0  502 -0.69438097278E+03 -0.13270523368E+03  0.10520051610E+04  0.12674740523E+04  0.50400001928E-02 0.  1.
</event>
<event>
 5   0  0.1091075E-06  0.3003556E+04  0.7818609E-02  0.8242716E-01
        1   -1    0    0  501    0  0.00000000000E+00  0.00000000000E+00  0.10051098646E+04  0.10051098647E+04  0.50400001928E-02 0. -1.
       -1   -1    0    0    0  501  0.00000000000E+00  0.00000000000E+00 -0.22438705487E+04  0.22438705487E+04  0.50400001928E-02 0.  1.
    10030    2    1    2    0    0  0.00000000000E+00  0.00000000000E+00 -0.12387606841E+04  0.32489804134E+04  0.30035555087E+04 0.  0.
        1    1    3    3  502    0  0.68167790686E+03 -0.94451232415E+03  0.40599318717E+03  0.12335391227E+04  0.50400001928E-02 0. -1.
       -1    1    3    3    0  502 -0.68167790686E+03  0.94451232415E+03 -0.16447538712E+04  0.20154412907E+04  0.50400001928E-02 0.  1.
</event>
<event>
 5   0  0.2948711E-06  0.3001844E+04  0.7818609E-02  0.8243204E-01
        2   -1    0    0  501    0  0.00000000000E+00  0.00000000000E+00  0.15012095054E+04  0.15012095054E+04  0.25500000920E-02 0.  1.
       -2   -1    0    0    0  501  0.00000000000E+00  0.00000000000E+00 -0.15006348793E+04  0.15006348793E+04  0.25500000920E-02 0. -1.
    10030    2    1    2    0    0  0.00000000000E+00  0.00000000000E+00  0.57462611754E+00  0.30018443847E+04  0.30018443297E+04 0.  0.
        5    1    3    3  502    0  0.65093816510E+03 -0.17725834488E+03 -0.13404603534E+04  0.15006655406E+04  0.46999998093E+01 0. -1.
       -5    1    3    3    0  502 -0.65093816510E+03  0.17725834488E+03  0.13410349795E+04  0.15011788441E+04  0.46999998093E+01 0.  1.
</event>
<event>
 5   0  0.9749500E-07  0.3006960E+04  0.7818609E-02  0.8241746E-01
       -4   -1    0    0    0  501  0.00000000000E+00  0.00000000000E+00  0.12340030360E+04  0.12340036895E+04  0.12699999809E+01 0.  1.
        4   -1    0    0  501    0  0.00000000000E+00  0.00000000000E+00 -0.18318030403E+04  0.18318034806E+04  0.12699999809E+01 0. -1.
    10030    2    1    2    0    0  0.00000000000E+00  0.00000000000E+00 -0.59780000435E+03  0.30658071701E+04  0.30069600528E+04 0.  0.
        5    1    3    3  502    0 -0.40868545283E+02  0.53324230229E+03 -0.17315368723E+04  0.18122526373E+04  0.46999998093E+01 0. -1.
       -5    1    3    3    0  502  0.40868545283E+02 -0.53324230229E+03  0.11337368680E+04  0.12535545328E+04  0.46999998093E+01 0.  1.
</event>
<event>
 5   0  0.1091076E-06  0.2997521E+04  0.7818609E-02  0.8244439E-01
        1   -1    0    0  501    0  0.00000000000E+00  0.00000000000E+00  0.18000956952E+04  0.18000956952E+04  0.50400001928E-02 0.  1.
       -1   -1    0    0    0  501  0.00000000000E+00  0.00000000000E+00 -0.12478684724E+04  0.12478684724E+04  0.50400001928E-02 0. -1.
    10030    2    1    2    0    0  0.00000000000E+00  0.00000000000E+00  0.55222722283E+03  0.30479641676E+04  0.29975207524E+04 0.  0.
        3    1    3    3  502    0 -0.11948756699E+04 -0.74591241584E+03 -0.24452779607E+03  0.14296527732E+04  0.10100000352E+00 0. -1.
       -3    1    3    3    0  502  0.11948756699E+04  0.74591241584E+03  0.79675501890E+03  0.16183113943E+04  0.10100000352E+00 0.  1.
</event>
<event>
 5   0  0.1097402E-06  0.2992629E+04  0.7818609E-02  0.8245839E-01
        1   -1    0    0  501    0  0.00000000000E+00  0.00000000000E+00  0.18701467631E+04  0.18701467631E+04  0.50400001928E-02 0. -1.
       -1   -1    0    0    0  501  0.00000000000E+00  0.00000000000E+00 -0.11972095997E+04  0.11972095997E+04  0.50400001928E-02 0.  1.
    10030    2    1    2    0    0  0.00000000000E+00  0.00000000000E+00  0.67293716346E+03  0.30673563628E+04  0.29926293841E+04 0.  0.
        4    1    3    3  502    0 -0.24102626712E+03 -0.51201448906E+02 -0.11762712511E+04  0.12018031947E+04  0.12699999809E+01 0.  1.
       -4    1    3    3    0  502  0.24102626712E+03  0.51201448906E+02  0.18492084145E+04  0.18655531681E+04  0.12699999809E+01 0. -1.
</event>
<event>
 5   0  0.1097402E-06  0.2990616E+04  0.7818609E-02  0.8246416E-01
        1   -1    0    0  501    0  0.00000000000E+00  0.00000000000E+00  0.69536875038E+03  0.69536875040E+03  0.50400001928E-02 0.  1.
       -1   -1    0    0    0  501  0.00000000000E+00  0.00000000000E+00 -0.32154821923E+04  0.32154821923E+04  0.50400001928E-02 0. -1.
    10030    2    1    2    0    0  0.00000000000E+00  0.00000000000E+00 -0.25201134419E+04  0.39108509427E+04  0.29906158790E+04 0.  0.
        4    1    3    3  502    0  0.76726615297E+03  0.10942696908E+04 -0.38299460042E+03  0.13902553660E+04  0.12699999809E+01 0.  1.
       -4    1    3    3    0  502 -0.76726615297E+03 -0.10942696908E+04 -0.21371188415E+04  0.25205955767E+04  0.12699999809E+01 0. -1.
</event>
<event>
 5   0  0.2970915E-06  0.2996012E+04  0.7818609E-02  0.8244871E-01
       -2   -1    0    0    0  501  0.00000000000E+00  0.00000000000E+00  0.12142378933E+04  0.12142378933E+04  0.25500000920E-02 0. -1.
        2   -1    0    0  501    0  0.00000000000E+00  0.00000000000E+00 -0.18480905365E+04  0.18480905365E+04  0.25500000920E-02 0.  1.
    10030    2    1    2    0    0  0.00000000000E+00  0.00000000000E+00 -0.63385264321E+03  0.30623284299E+04  0.29960117221E+04 0.  0.
        4    1    3    3  502    0 -0.50209790288E+03  0.90345068124E+02  0.11227084255E+04  0.12331830184E+04  0.12699999809E+01 0. -1.
       -4    1    3    3    0  502  0.50209790288E+03 -0.90345068124E+02 -0.17565610687E+04  0.18291454115E+04  0.12699999809E+01 0.  1.
</event>
<event>
 5   0  0.1091076E-06  0.3000960E+04  0.7818609E-02  0.8243457E-01
        1   -1    0    0  501    0  0.00000000000E+00  0.00000000000E+00  0.14853250946E+04  0.14853250946E+04  0.50400001928E-02 0. -1.
       -1   -1    0    0    0  501  0.00000000000E+00  0.00000000000E+00 -0.15157890650E+04  0.15157890650E+04  0.50400001928E-02 0.  1.
    10030    2    1    2    0    0  0.00000000000E+00  0.00000000000E+00 -0.30463970407E+02  0.30011141596E+04  0.30009595374E+04 0.  0.
        3    1    3    3  502    0  0.54721109986E+03 -0.11157062001E+04 -0.85622668849E+03  0.15090939219E+04  0.10100000352E+00 0.  1.
       -3    1    3    3    0  502 -0.54721109986E+03  0.11157062001E+04  0.82576271809E+03  0.14920202377E+04  0.10100000352E+00 0. -1.
</event>
<event>
 5   0  0.2862033E-06  0.2927592E+04  0.7818609E-02  0.8264715E-01
        2   -1    0    0  501    0  0.00000000000E+00  0.00000000000E+00  0.16385922046E+04  0.16385922046E+04  0.25500000920E-02 0. -1.
       -2   -1    0    0    0  501  0.00000000000E+00  0.00000000000E+00 -0.13076464714E+04  0.13076464714E+04  0.25500000920E-02 0.  1.
    10030    2    1    2    0    0  0.00000000000E+00  0.00000000000E+00  0.33094573327E+03  0.29462386760E+04  0.29275923995E+04 0.  0.
        2    1    3    3  502    0  0.72975774778E+03 -0.12508193083E+04 -0.49438206317E+02  0.14489787606E+04  0.25500000920E-02 0.  1.
       -2    1    3    3    0  502 -0.72975774778E+03  0.12508193083E+04  0.38038393958E+03  0.14972599153E+04  0.25500000920E-02 0. -1.
</event>
<event>
 5   0  0.2948711E-06  0.3024465E+04  0.7818609E-02  0.8236779E-01
        2   -1    0    0  501    0  0.00000000000E+00  0.00000000000E+00  0.31056307111E+04  0.31056307111E+04  0.25500000920E-02 0.  1.
       -2   -1    0    0    0  501  0.00000000000E+00  0.00000000000E+00 -0.73635499825E+03  0.73635499825E+03  0.25500000920E-02 0. -1.
    10030    2    1    2    0    0  0.00000000000E+00  0.00000000000E+00  0.23692757128E+04  0.38419857093E+04  0.30244647109E+04 0.  0.
        5    1    3    3  502    0  0.18595700575E+03  0.12892539142E+04  0.21604328875E+04  0.25227461257E+04  0.46999998093E+01 0.  1.
       -5    1    3    3    0  502 -0.18595700575E+03 -0.12892539142E+04  0.20884282531E+03  0.13192395836E+04  0.46999998093E+01 0. -1.
</event>
<event>
 5   0  0.2985941E-06  0.2977288E+04  0.7818609E-02  0.8250246E-01
        2   -1    0    0  501    0  0.00000000000E+00  0.00000000000E+00  0.17835438651E+04  0.17835438651E+04  0.25500000920E-02 0. -1.
       -2   -1    0    0    0  501  0.00000000000E+00  0.00000000000E+00 -0.12425041072E+04  0.12425041072E+04  0.25500000920E-02 0.  1.
    10030    2    1    2    0    0  0.00000000000E+00  0.00000000000E+00  0.54103975789E+03  0.30260479724E+04  0.29772877442E+04 0.  0.
        3    1    3    3  502    0 -0.55129337232E+03 -0.10080346070E+04 -0.69155658312E+03  0.13410103166E+04  0.10100000352E+00 0.  1.
       -3    1    3    3    0  502  0.55129337232E+03  0.10080346070E+04  0.12325963410E+04  0.16850376558E+04  0.10100000352E+00 0. -1.
</event>
<event>
 5   0  0.1054384E-06  0.2979354E+04  0.7818609E-02  0.8249651E-01
       -1   -1    0    0    0  501  0.00000000000E+00  0.00000000000E+00  0.28764584489E+04  0.28764584490E+04  0.50400001928E-02 0.  1.
        1   -1    0    0  501    0  0.00000000000E+00  0.00000000000E+00 -0.77148235311E+03  0.77148235313E+03  0.50400001928E-02 0. -1.
    10030    2    1    2    0    0  0.00000000000E+00  0.00000000000E+00  0.21049760958E+04  0.36479408021E+04  0.29793535761E+04 0.  0.
        2    1    3    3  502    0  0.13264605188E+04 -0.61496832651E+03  0.14019342278E+04  0.20256117915E+04  0.25500000920E-02 0.  1.
       -2    1    3    3    0  502 -0.13264605188E+04  0.61496832651E+03  0.70304186799E+03  0.16223290106E+04  0.25500000920E-02 0. -1.
</event>
<event>
 5   0  0.2985941E-06  0.3116883E+04  0.7818609E-02  0.8211120E-01
        2   -1    0    0  501    0  0.00000000000E+00  0.00000000000E+00  0.21510682421E+04  0.21510682421E+04  0.25500000920E-02 0.  1.
       -2   -1    0    0    0  501  0.00000000000E+00  0.00000000000E+00 -0.11290856484E+04  0.11290856484E+04  0.25500000920E-02 0. -1.
    10030    2    1    2    0    0  0.00000000000E+00  0.00000000000E+00  0.10219825937E+04  0.32801538905E+04  0.31168832386E+04 0.  0.
        3    1    3    3  502    0 -0.71673342493E+03  0.13833032498E+04  0.55182574129E+03  0.16527995469E+04  0.10100000352E+00 0. -1.
       -3    1    3    3    0  502  0.71673342493E+03 -0.13833032498E+04  0.47015685239E+03  0.16273543435E+04  0.10100000352E+00 0.  1.
</event>
<event>
 5   0  0.1113245E-06  0.2979882E+04  0.7818609E-02  0.8249499E-01
       -1   -1    0    0    0  501  0.00000000000E+00  0.00000000000E+00  0.10335930822E+04  0.10335930822E+04  0.50400001928E-02 0. -1.
        1   -1    0    0  501    0  0.00000000000E+00  0.00000000000E+00 -0.21477731770E+04  0.21477731770E+04  0.50400001928E-02 0.  1.
    10030    2    1    2    0    0  0.00000000000E+00  0.00000000000E+00 -0.11141800948E+04  0.31813662593E+04  0.29798815399E+04 0.  0.
        5    1    3    3  502    0 -0.13617736095E+03 -0.14244423863E+04 -0.11390632352E+03  0.14354710468E+04  0.46999998093E+01 0. -1.
       -5    1    3    3    0  502  0.13617736095E+03  0.14244423863E+04 -0.10002737713E+04  0.17458952125E+04  0.46999998093E+01 0.  1.
</event>
<event>
 5   0  0.1091076E-06  0.2780193E+04  0.7818609E-02  0.8309444E-01
        1   -1    0    0  501    0  0.00000000000E+00  0.00000000000E+00  0.90962518721E+03  0.90962518722E+03  0.50400001928E-02 0. -1.
       -1   -1    0    0    0  501  0.00000000000E+00  0.00000000000E+00 -0.21243567323E+04  0.21243567324E+04  0.50400001928E-02 0.  1.
    10030    2    1    2    0    0  0.00000000000E+00  0.00000000000E+00 -0.12147315451E+04  0.30339819196E+04  0.27801930799E+04 0.  0.
        3    1    3    3  502    0  0.55621724473E+03  0.54219166694E+03 -0.18654323292E+04  0.20206897862E+04  0.10100000352E+00 0.  1.
       -3    1    3    3    0  502 -0.55621724473E+03 -0.54219166694E+03  0.65070078404E+03  0.10132921334E+04  0.10100000352E+00 0. -1.
</event>
<event>
 5   0  0.1097402E-06  0.2994735E+04  0.7818609E-02  0.8245236E-01
       -1   -1    0    0    0  501  0.00000000000E+00  0.00000000000E+00  0.84780652404E+03  0.84780652406E+03  0.50400001928E-02 0.  1.
        1   -1    0    0  501    0  0.00000000000E+00  0.00000000000E+00 -0.26445995573E+04  0.26445995573E+04  0.50400001928E-02 0. -1.
    10030    2    1    2    0    0  0.00000000000E+00  0.00000000000E+00 -0.17967930333E+04  0.34924060814E+04  0.29947345513E+04 0.  0.
        4    1    3    3  502    0  0.10453659255E+04  0.10654259644E+04 -0.10372884795E+04  0.18176609713E+04  0.12699999809E+01 0. -1.
       -4    1    3    3    0  502 -0.10453659255E+04 -0.10654259644E+04 -0.75950455374E+03  0.16747451101E+04  0.12699999809E+01 0.  1.
</event>
<event>
 5   0  0.2970915E-06  0.3005252E+04  0.7818609E-02  0.8242233E-01
       -2   -1    0    0    0  501  0.00000000000E+00  0.00000000000E+00  0.79591240326E+03  0.79591240327E+03  0.25500000920E-02 0. -1.
        2   -1    0    0  501    0  0.00000000000E+00  0.00000000000E+00 -0.28368504315E+04  0.28368504315E+04  0.25500000920E-02 0.  1.
    10030    2    1    2    0    0  0.00000000000E+00  0.00000000000E+00 -0.20409380283E+04  0.36327628348E+04  0.30052516997E+04 0.  0.
        4    1    3    3  502    0  0.14720785955E+04 -0.28911868360E+03 -0.11235923759E+04  0.18743175944E+04  0.12699999809E+01 0.  1.
       -4    1    3    3    0  502 -0.14720785955E+04  0.28911868360E+03 -0.91734565240E+03  0.17584452404E+04  0.12699999809E+01 0. -1.
</event>
<event>
 5   0  0.1097402E-06  0.2996308E+04  0.7818609E-02  0.8244786E-01
        1   -1    0    0  501    0  0.00000000000E+00  0.00000000000E+00  0.13209988635E+04  0.13209988635E+04  0.50400001928E-02 0.  1.
       -1   -1    0    0    0  501  0.00000000000E+00  0.00000000000E+00 -0.16990665981E+04  0.16990665981E+04  0.50400001928E-02 0. -1.
    10030    2    1    2    0    0  0.00000000000E+00  0.00000000000E+00 -0.37806773460E+03  0.30200654616E+04  0.29963077579E+04 0.  0.
        4    1    3    3  502    0 -0.13384225234E+04 -0.23032841481E+03 -0.82653393778E+03  0.15898383544E+04  0.12699999809E+01 0. -1.
       -4    1    3    3    0  502  0.13384225234E+04  0.23032841481E+03  0.44846620318E+03  0.14302271072E+04  0.12699999809E+01 0.  1.
</event>
<event>
 5   0  0.2948711E-06  0.2968495E+04  0.7818609E-02  0.8252785E-01
       -2   -1    0    0    0  501  0.00000000000E+00  0.00000000000E+00  0.17649889911E+04  0.17649889911E+04  0.25500000920E-02 0. -1.
        2   -1    0    0  501    0  0.00000000000E+00  0.00000000000E+00 -0.12481610357E+04  0.12481610357E+04  0.25500000920E-02 0.  1.
    10030    2    1    2    0    0  0.00000000000E+00  0.00000000000E+00  0.51682795539E+03  0.30131500267E+04  0.29684948961E+04 0.  0.
        5    1    3    3  502    0  0.38016399001E+03 -0.14341240400E+04  0.30065703561E+03  0.15138207174E+04  0.46999998093E+01 0. -1.
       -5    1    3    3    0  502 -0.38016399001E+03  0.14341240400E+04  0.21617091978E+03  0.14993293094E+04  0.46999998093E+01 0.  1.
</event>
<event>
 5   0  0.1091076E-06  0.3003526E+04  0.7818609E-02  0.8242725E-01
        1   -1    0    0  501    0  0.00000000000E+00  0.00000000000E+00  0.11236078415E+04  0.11236078415E+04  0.50400001928E-02 0. -1.
       -1   -1    0    0    0  501  0.00000000000E+00  0.00000000000E+00 -0.20071876630E+04  0.20071876630E+04  0.50400001928E-02 0.  1.
    10030    2    1    2    0    0  0.00000000000E+00  0.00000000000E+00 -0.88357982147E+03  0.31307955045E+04  0.30035257931E+04 0.  0.
        3    1    3    3  502    0  0.11280105302E+04  0.65902792532E+03 -0.12138264725E+04  0.17832835664E+04  0.10100000352E+00 0.  1.
       -3    1    3    3    0  502 -0.11280105302E+04 -0.65902792532E+03  0.33024665102E+03  0.13475119381E+04  0.10100000352E+00 0. -1.
</event>
<event>
 5   0  0.2862033E-06  0.2846226E+04  0.7818609E-02  0.8289059E-01
        2   -1    0    0  501    0  0.00000000000E+00  0.00000000000E+00  0.16679533370E+04  0.16679533370E+04  0.25500000920E-02 0.  1.
       -2   -1    0    0    0  501  0.00000000000E+00  0.00000000000E+00 -0.12142128827E+04  0.12142128827E+04  0.25500000920E-02 0. -1.
    10030    2    1    2    0    0  0.00000000000E+00  0.00000000000E+00  0.45374045432E+03  0.28821662198E+04  0.28462258727E+04 0.  0.
        2    1    3    3  502    0  0.23002886191E+03 -0.12850553521E+04  0.80056621316E+03  0.15314002732E+04  0.25500000920E-02 0.  1.
       -2    1    3    3    0  502 -0.23002886191E+03  0.12850553521E+04 -0.34682575884E+03  0.13507659465E+04  0.25500000920E-02 0. -1.
</event>
<event>
 5   0  0.2970915E-06  0.2990197E+04  0.7818609E-02  0.8246536E-01
        2   -1    0    0  501    0  0.00000000000E+00  0.00000000000E+00  0.15404077550E+04  0.15404077550E+04  0.25500000920E-02 0. -1.
       -2   -1    0    0    0  501  0.00000000000E+00  0.00000000000E+00 -0.14511221949E+04  0.14511221949E+04  0.25500000920E-02 0.  1.
    10030    2    1    2    0    0  0.00000000000E+00  0.00000000000E+00  0.89285560105E+02  0.29915299500E+04  0.29901972394E+04 0.  0.
        4    1    3    3  502    0  0.20094407470E+03  0.11953350224E+04 -0.83102667161E+03  0.14696296400E+04  0.12699999809E+01 0.  1.
       -4    1    3    3    0  502 -0.20094407470E+03 -0.11953350224E+04  0.92031223171E+03  0.15219003100E+04  0.12699999809E+01 0. -1.
</event>
<event>
 5   0  0.2862033E-06  0.3017329E+04  0.7818609E-02  0.8238800E-01
        2   -1    0    0  501    0  0.00000000000E+00  0.00000000000E+00  0.25047353386E+04  0.25047353386E+04  0.25500000920E-02 0. -1.
       -2   -1    0    0    0  501  0.00000000000E+00  0.00000000000E+00 -0.90870595915E+03  0.90870595916E+03  0.25500000920E-02 0.  1.
    10030    2    1    2    0    0  0.00000000000E+00  0.00000000000E+00  0.15960293794E+04  0.34134412977E+04  0.30173285723E+04 0.  0.
        2    1    3    3  502    0  0.55747990858E+03 -0.10302525209E+04 -0.27751235472E+03  0.12038343791E+04  0.25500000920E-02 0.  1.
       -2    1    3    3    0  502 -0.55747990858E+03  0.10302525209E+04  0.18735417341E+04  0.22096069186E+04  0.25500000920E-02 0. -1.
</event>
<event>
 5   0  0.1097402E-06  0.2970848E+04  0.7818609E-02  0.8252105E-01
        1   -1    0    0  501    0  0.00000000000E+00  0.00000000000E+00  0.19744617102E+04  0.19744617102E+04  0.50400001928E-02 0.  1.
       -1   -1    0    0    0  501  0.00000000000E+00  0.00000000000E+00 -0.11175117096E+04  0.11175117096E+04  0.50400001928E-02 0. -1.
    10030    2    1    2    0    0  0.00000000000E+00  0.00000000000E+00  0.85695000060E+03  0.30919734198E+04  0.29708477453E+04 0.  0.
        4    1    3    3  502    0 -0.75745299708E+03  0.17084307387E+03 -0.88947208378E+03  0.11807135975E+04  0.12699999809E+01 0. -1.
       -4    1    3    3    0  502  0.75745299708E+03 -0.17084307387E+03  0.17464220844E+04  0.19112598223E+04  0.12699999809E+01 0.  1.
</event>
<event>
 5   0  0.2948711E-06  0.3004341E+04  0.7818609E-02  0.8242492E-01
       -2   -1    0    0    0  501  0.00000000000E+00  0.00000000000E+00  0.93600468241E+03  0.93600468241E+03  0.25500000920E-02 0.  1.
        2   -1    0    0  501    0  0.00000000000E+00  0.00000000000E+00 -0.24107952126E+04  0.24107952126E+04  0.25500000920E-02 0. -1.
    10030    2    1    2    0    0  0.00000000000E+00  0.00000000000E+00 -0.14747905302E+04  0.33467998950E+04  0.30043405981E+04 0.  0.
        5    1    3    3  502    0 -0.47456872579E+03  0.64134575936E+03 -0.21552504501E+04  0.22981876449E+04  0.46999998093E+01 0. -1.
       -5    1    3    3    0  502  0.47456872579E+03 -0.64134575936E+03  0.68045991988E+03  0.10486122501E+04  0.46999998093E+01 0.  1.
</event>
<event>
 5   0  0.1054384E-06  0.3039705E+04  0.7818609E-02  0.8232483E-01
       -1   -1    0    0    0  501  0.00000000000E+00  0.00000000000E+00  0.15650012249E+04  0.15650012249E+04  0.50400001928E-02 0. -1.
        1   -1    0    0  501    0  0.00000000000E+00  0.00000000000E+00 -0.14760066597E+04  0.14760066597E+04  0.50400001928E-02 0.  1.
    10030    2    1    2    0    0  0.00000000000E+00  0.00000000000E+00  0.88994565253E+02  0.30410078846E+04  0.30397054004E+04 0.  0.
        2    1    3    3  502    0 -0.18595111219E+03  0.31119745033E+03  0.15211143350E+04  0.15637168827E+04  0.25500000920E-02 0. -1.
       -2    1    3    3    0  502  0.18595111219E+03 -0.31119745033E+03 -0.14321197698E+04  0.14772910018E+04  0.25500000920E-02 0.  1.
</event>
<event>
 5   0  0.1091075E-06  0.3000992E+04  0.7818609E-02  0.8243448E-01
        1   -1    0    0  501    0  0.00000000000E+00  0.00000000000E+00  0.87511923826E+03  0.87511923828E+03  0.50400001928E-02 0.  1.
       -1   -1    0    0    0  501  0.00000000000E+00  0.00000000000E+00 -0.25727793796E+04  0.25727793796E+04  0.50400001928E-02 0. -1.
    10030    2    1    2    0    0  0.00000000000E+00  0.00000000000E+00 -0.16976601414E+04  0.34478986179E+04  0.30009923232E+04 0.  0.
        1    1    3    3  502    0 -0.11105502497E+04  0.33003182172E+03  0.24671505650E+03  0.11845299404E+04  0.50400001928E-02 0. -1.
       -1    1    3    3    0  502  0.11105502497E+04 -0.33003182172E+03 -0.19443751979E+04  0.22633686776E+04  0.50400001928E-02 0.  1.
</event>
<event>
 5   0  0.1113245E-06  0.3003846E+04  0.7818609E-02  0.8242633E-01
        1   -1    0    0  501    0  0.00000000000E+00  0.00000000000E+00  0.14475471954E+04  0.14475471955E+04  0.50400001928E-02 0.  1.
       -1   -1    0    0    0  501  0.00000000000E+00  0.00000000000E+00 -0.15583415878E+04  0.15583415878E+04  0.50400001928E-02 0. -1.
    10030    2    1    2    0    0  0.00000000000E+00  0.00000000000E+00 -0.11079439238E+03  0.30058887833E+04  0.30038461978E+04 0.  0.
        5    1    3    3  502    0 -0.84152094107E+03  0.31525332233E+03 -0.12596309601E+04  0.15473313792E+04  0.46999998093E+01 0. -1.
       -5    1    3    3    0  502  0.84152094107E+03 -0.31525332233E+03  0.11488365677E+04  0.14585574040E+04  0.46999998093E+01 0.  1.
</event>
<event>
 5   0  0.1097402E-06  0.2970379E+04  0.7818609E-02  0.8252240E-01
        1   -1    0    0  501    0  0.00000000000E+00  0.00000000000E+00  0.18770758275E+04  0.18770758276E+04  0.50400001928E-02 0. -1.
       -1   -1    0    0    0  501  0.00000000000E+00  0.00000000000E+00 -0.11751191762E+04  0.11751191762E+04  0.50400001928E-02 0.  1.
    10030    2    1    2    0    0  0.00000000000E+00  0.00000000000E+00  0.70195665138E+03  0.30521950037E+04  0.29703789658E+04 0.  0.
        4    1    3    3  502    0 -0.70559014872E+03  0.87348115714E+03  0.13498437732E+04  0.17558207810E+04  0.12699999809E+01 0. -1.
       -4    1    3    3    0  502  0.70559014872E+03 -0.87348115714E+03 -0.64788712185E+03  0.12963742228E+04  0.12699999809E+01 0.  1.
</event>
<event>
 5   0  0.3113328E-06  0.3031484E+04  0.7818609E-02  0.8234797E-01
       -2   -1    0    0    0  501  0.00000000000E+00  0.00000000000E+00  0.14271325532E+04  0.14271325532E+04  0.25500000920E-02 0.  1.
        2   -1    0    0  501    0  0.00000000000E+00  0.00000000000E+00 -0.16098532138E+04  0.16098532138E+04  0.25500000920E-02 0. -1.
    10030    2    1    2    0    0  0.00000000000E+00  0.00000000000E+00 -0.18272066063E+03  0.30369857670E+04  0.30314840770E+04 0.  0.
        1    1    3    3  502    0  0.63083931086E+03 -0.71357024504E+02 -0.14702389680E+04  0.16014533038E+04  0.50400001928E-02 0. -1.
       -1    1    3    3    0  502 -0.63083931086E+03  0.71357024504E+02  0.12875183074E+04  0.14355324632E+04  0.50400001928E-02 0.  1.
</event>
<event>
 5   0  0.1091075E-06  0.3006700E+04  0.7818609E-02  0.8241820E-01
        1   -1    0    0  501    0  0.00000000000E+00  0.00000000000E+00  0.18440298492E+04  0.18440298492E+04  0.50400001928E-02 0. -1.
       -1   -1    0    0    0  501  0.00000000000E+00  0.00000000000E+00 -0.12256102109E+04  0.12256102110E+04  0.50400001928E-02 0.  1.
    10030    2    1    2    0    0  0.00000000000E+00  0.00000000000E+00  0.61841963824E+03  0.30696400602E+04  0.30067003924E+04 0.  0.
        1    1    3    3  502    0 -0.76549219629E+03 -0.10724865813E+04 -0.42972014634E+03  0.13859528036E+04  0.50400001928E-02 0.  1.
       -1    1    3    3    0  502  0.76549219629E+03  0.10724865813E+04  0.10481397846E+04  0.16836872565E+04  0.50400001928E-02 0. -1.
</event>
<event>
 5   0  0.2985941E-06  0.3026099E+04  0.7818609E-02  0.8236317E-01
        2   -1    0    0  501    0  0.00000000000E+00  0.00000000000E+00  0.11870349653E+04  0.11870349653E+04  0.25500000920E-02 0. -1.
       -2   -1    0    0    0  501  0.00000000000E+00  0.00000000000E+00 -0.19286029079E+04  0.19286029079E+04  0.25500000920E-02 0.  1.
    10030    2    1    2    0    0  0.00000000000E+00  0.00000000000E+00 -0.74156794261E+03  0.31156378731E+04  0.30260991958E+04 0.  0.
        3    1    3    3  502    0 -0.11597883047E+04  0.42038279293E+03 -0.12727698627E+04  0.17725049331E+04  0.10100000352E+00 0.  1.
       -3    1    3    3    0  502  0.11597883047E+04 -0.42038279293E+03  0.53120192010E+03  0.13431329400E+04  0.10100000352E+00 0. -1.
</event>
<event>
 5   0  0.3113328E-06  0.3002899E+04  0.7818609E-02  0.8242904E-01
       -2   -1    0    0    0  501  0.00000000000E+00  0.00000000000E+00  0.19062200575E+04  0.19062200575E+04  0.25500000920E-02 0. -1.
        2   -1    0    0  501    0  0.00000000000E+00  0.00000000000E+00 -0.11826284640E+04  0.11826284640E+04  0.25500000920E-02 0.  1.
    10030    2    1    2    0    0  0.00000000000E+00  0.00000000000E+00  0.72359159349E+03  0.30888485216E+04  0.30028986655E+04 0.  0.
        1    1    3    3  502    0  0.23518044361E+03  0.14775351531E+04  0.49162296420E+03  0.15748374864E+04  0.50400001928E-02 0. -1.
       -1    1    3    3    0  502 -0.23518044361E+03 -0.14775351531E+04  0.23196862930E+03  0.15140110352E+04  0.50400001928E-02 0.  1.
</event>
<event>
 5   0  0.3113328E-06  0.2959782E+04  0.7818609E-02  0.8255310E-01
       -2   -1    0    0    0  501  0.00000000000E+00  0.00000000000E+00  0.15026166686E+04  0.15026166686E+04  0.25500000920E-02 0. -1.
        2   -1    0    0  501    0  0.00000000000E+00  0.00000000000E+00 -0.14575088267E+04  0.14575088267E+04  0.25500000920E-02 0.  1.
    10030    2    1    2    0    0  0.00000000000E+00  0.00000000000E+00  0.45107841908E+02  0.29601254953E+04  0.29597817876E+04 0.  0.
        1    1    3    3  502    0  0.14545364337E+04 -0.67036286578E+02  0.28698386206E+03  0.14840922606E+04  0.50400001928E-02 0. -1.
       -1    1    3    3    0  502 -0.14545364337E+04  0.67036286578E+02 -0.24187602015E+03  0.14760332347E+04  0.50400001928E-02 0.  1.
</event>
<event>
 5   0  0.2948711E-06  0.3006086E+04  0.7818609E-02  0.8241995E-01
       -2   -1    0    0    0  501  0.00000000000E+00  0.00000000000E+00  0.21393375266E+04  0.21393375266E+04  0.25500000920E-02 0.  1.
        2   -1    0    0  501    0  0.00000000000E+00  0.00000000000E+00 -0.10559991101E+04  0.10559991101E+04  0.25500000920E-02 0. -1.
    10030    2    1    2    0    0  0.00000000000E+00  0.00000000000E+00  0.10833384166E+04  0.31953366367E+04  0.30060861759E+04 0.  0.
        5    1    3    3  502    0 -0.14686474873E+04 -0.51548042817E+02  0.87702087297E+03  0.17113650529E+04  0.46999998093E+01 0. -1.
       -5    1    3    3    0  502  0.14686474873E+04  0.51548042817E+02  0.20631754358E+03  0.14839715838E+04  0.46999998093E+01 0.  1.
</event>
<event>
 5   0  0.1113245E-06  0.2978752E+04  0.7818609E-02  0.8249825E-01
       -1   -1    0    0    0  501  0.00000000000E+00  0.00000000000E+00  0.11838043253E+04  0.11838043253E+04  0.50400001928E-02 0. -1.
        1   -1    0    0  501    0  0.00000000000E+00  0.00000000000E+00 -0.18738235808E+04  0.18738235808E+04  0.50400001928E-02 0.  1.
    10030    2    1    2    0    0  0.00000000000E+00  0.00000000000E+00 -0.69001925544E+03  0.30576279061E+04  0.29787517250E+04 0.  0.
        5    1    3    3  502    0  0.19577722666E+03 -0.42700148012E+03 -0.17957850047E+04  0.18562125039E+04  0.46999998093E+01 0.  1.
       -5    1    3    3    0  502 -0.19577722666E+03  0.42700148012E+03  0.11057657492E+04  0.12014154022E+04  0.46999998093E+01 0. -1.
</event>
<event>
 5   0  0.2985941E-06  0.2940000E+04  0.7818609E-02  0.8261075E-01
       -2   -1    0    0    0  501  0.00000000000E+00  0.00000000000E+00  0.10369139880E+04  0.10369139880E+04  0.25500000920E-02 0.  1.
        2   -1    0    0  501    0  0.00000000000E+00  0.00000000000E+00 -0.20839728109E+04  0.20839728109E+04  0.25500000920E-02 0. -1.
    10030    2    1    2    0    0  0.00000000000E+00  0.00000000000E+00 -0.10470588229E+04  0.31208867989E+04  0.29400003798E+04 0.  0.
        3    1    3    3  502    0  0.50551416506E+03 -0.68035715989E+03  0.75139383905E+03  0.11327061171E+04  0.10100000352E+00 0.  1.
       -3    1    3    3    0  502 -0.50551416506E+03  0.68035715989E+03 -0.17984526620E+04  0.19881806818E+04  0.10100000352E+00 0. -1.
</event>
<event>
 5   0  0.1054384E-06  0.3017603E+04  0.7818609E-02  0.8238722E-01
       -1   -1    0    0    0  501  0.00000000000E+00  0.00000000000E+00  0.14900746798E+04  0.14900746799E+04  0.50400001928E-02 0. -1.
        1   -1    0    0  501    0  0.00000000000E+00  0.00000000000E+00 -0.15277632664E+04  0.15277632664E+04  0.50400001928E-02 0.  1.
    10030    2    1    2    0    0  0.00000000000E+00  0.00000000000E+00 -0.37688586588E+02  0.30178379463E+04  0.30176025982E+04 0.  0.
        2    1    3    3  502    0  0.81839940193E+03 -0.39531388180E+03  0.11855879240E+04  0.14938772947E+04  0.25500000920E-02 0. -1.
       -2    1    3    3    0  502 -0.81839940193E+03  0.39531388180E+03 -0.12232765106E+04  0.15239606516E+04  0.25500000920E-02 0.  1.
</event>
<event>
 5   0  0.1091075E-06  0.2987665E+04  0.7818609E-02  0.8247262E-01
        1   -1    0    0  501    0  0.00000000000E+00  0.00000000000E+00  0.27552186481E+04  0.27552186481E+04  0.50400001928E-02 0. -1.
       -1   -1    0    0    0  501  0.00000000000E+00  0.00000000000E+00 -0.80993061160E+03  0.80993061162E+03  0.50400001928E-02 0.  1.
    10030    2    1    2    0    0  0.00000000000E+00  0.00000000000E+00  0.19452880365E+04  0.35651492597E+04  0.29876652589E+04 0.  0.
        1    1    3    3  502    0 -0.12699673133E+03  0.54315962982E+03  0.26262802313E+04  0.26848646906E+04  0.50400001928E-02 0. -1.
       -1    1    3    3    0  502  0.12699673133E+03 -0.54315962982E+03 -0.68099219483E+03  0.88028456915E+03  0.50400001928E-02 0.  1.
</event>
<event>
 5   0  0.1091076E-06  0.3127697E+04  0.7818609E-02  0.8208178E-01
       -1   -1    0    0    0  501  0.00000000000E+00  0.00000000000E+00  0.11950753562E+04  0.11950753562E+04  0.50400001928E-02 0.  1.
        1   -1    0    0  501    0  0.00000000000E+00  0.00000000000E+00 -0.20464160263E+04  0.20464160263E+04  0.50400001928E-02 0. -1.
    10030    2    1    2    0    0  0.00000000000E+00  0.00000000000E+00 -0.85134067008E+03  0.32414913825E+04  0.31276965080E+04 0.  0.
        3    1    3    3  502    0 -0.11342341977E+04  0.45431685957E+03 -0.14372620437E+04  0.18864286937E+04  0.10100000352E+00 0. -1.
       -3    1    3    3    0  502  0.11342341977E+04 -0.45431685957E+03  0.58592137361E+03  0.13550626887E+04  0.10100000352E+00 0.  1.
</event>
<event>
 5   0  0.1091076E-06  0.3007185E+04  0.7818609E-02  0.8241682E-01
        1   -1    0    0  501    0  0.00000000000E+00  0.00000000000E+00  0.24293988673E+04  0.24293988673E+04  0.50400001928E-02 0. -1.
       -1   -1    0    0    0  501  0.00000000000E+00  0.00000000000E+00 -0.93059674392E+03  0.93059674393E+03  0.50400001928E-02 0.  1.
    10030    2    1    2    0    0  0.00000000000E+00  0.00000000000E+00  0.14988021234E+04  0.33599956112E+04  0.30071851793E+04 0.  0.
        3    1    3    3  502    0  0.82246921209E+03  0.81310087961E+02  0.21528415991E+04  0.23060342357E+04  0.10100000352E+00 0. -1.
       -3    1    3    3    0  502 -0.82246921209E+03 -0.81310087961E+02 -0.65403947568E+03  0.10539613756E+04  0.10100000352E+00 0.  1.
</event>
<event>
 5   0  0.2862033E-06  0.3012071E+04  0.7818609E-02  0.8240292E-01
        2   -1    0    0  501    0  0.00000000000E+00  0.00000000000E+00  0.18880954109E+04  0.18880954109E+04  0.25500000920E-02 0.  1.
       -2   -1    0    0    0  501  0.00000000000E+00  0.00000000000E+00 -0.12012864036E+04  0.12012864036E+04  0.25500000920E-02 0. -1.
    10030    2    1    2    0    0  0.00000000000E+00  0.00000000000E+00  0.68680900729E+03  0.30893818145E+04  0.30120712780E+04 0.  0.
        2    1    3    3  502    0 -0.77188575631E+03 -0.91901217167E+03  0.12765654460E+04  0.17521444947E+04  0.25500000920E-02 0.  1.
       -2    1    3    3    0  502  0.77188575631E+03  0.91901217167E+03 -0.58975643873E+03  0.13372373198E+04  0.25500000920E-02 0. -1.
</event>
<event>
 5   0  0.1113245E-06  0.3006688E+04  0.7818609E-02  0.8241824E-01
        1   -1    0    0  501    0  0.00000000000E+00  0.00000000000E+00  0.24148731696E+04  0.24148731696E+04  0.50400001928E-02 0. -1.
       -1   -1    0    0    0  501  0.00000000000E+00  0.00000000000E+00 -0.93588461473E+03  0.93588461474E+03  0.50400001928E-02 0.  1.
    10030    2    1    2    0    0  0.00000000000E+00  0.00000000000E+00  0.14789885548E+04  0.33507577843E+04  0.30066876432E+04 0.  0.
        5    1    3    3  502    0  0.38216551971E+03  0.62828858761E+03  0.22007320655E+04  0.23203535825E+04  0.46999998093E+01 0. -1.
       -5    1    3    3    0  502 -0.38216551971E+03 -0.62828858761E+03 -0.72174351070E+03  0.10304042018E+04  0.46999998093E+01 0.  1.
</event>
<event>
 5   0  0.2948711E-06  0.3023351E+04  0.7818609E-02  0.8237094E-01
        2   -1    0    0  501    0  0.00000000000E+00  0.00000000000E+00  0.21600461708E+04  0.21600461708E+04  0.25500000920E-02 0.  1.
       -2   -1    0    0    0  501  0.00000000000E+00  0.00000000000E+00 -0.10579233093E+04  0.10579233093E+04  0.25500000920E-02 0. -1.
    10030    2    1    2    0    0  0.00000000000E+00  0.00000000000E+00  0.11021228616E+04  0.32179694801E+04  0.30233512487E+04 0.  0.
        5    1    3    3  502    0  0.10119052871E+04  0.11216741151E+04  0.60970795073E+03  0.16290705957E+04  0.46999998093E+01 0. -1.
       -5    1    3    3    0  502 -0.10119052871E+04 -0.11216741151E+04  0.49241491083E+03  0.15888988844E+04  0.46999998093E+01 0.  1.
</event>
<event>
 5   0  0.1054384E-06  0.3061865E+04  0.7818609E-02  0.8226282E-01
        1   -1    0    0  501    0  0.00000000000E+00  0.00000000000E+00  0.15317334230E+04  0.15317334230E+04  0.50400001928E-02 0.  1.
       -1   -1    0    0    0  501  0.00000000000E+00  0.00000000000E+00 -0.15301317360E+04  0.15301317360E+04  0.50400001928E-02 0. -1.
    10030    2    1    2    0    0  0.00000000000E+00  0.00000000000E+00  0.16016870079E+01  0.30618651590E+04  0.30618647401E+04 0.  0.
        2    1    3    3  502    0 -0.81255864896E+03  0.12957111706E+04  0.68881143425E+02  0.15309681929E+04  0.25500000920E-02 0.  1.
       -2    1    3    3    0  502  0.81255864896E+03 -0.12957111706E+04 -0.67279456417E+02  0.15308969661E+04  0.25500000920E-02 0. -1.
</event>
<event>
 5   0  0.1054384E-06  0.2996610E+04  0.7818609E-02  0.8244700E-01
       -1   -1    0    0    0  501  0.00000000000E+00  0.00000000000E+00  0.13620648675E+04  0.13620648675E+04  0.50400001928E-02 0. -1.
        1   -1    0    0  501    0  0.00000000000E+00  0.00000000000E+00 -0.16481723161E+04  0.16481723161E+04  0.50400001928E-02 0.  1.
    10030    2    1    2    0    0  0.00000000000E+00  0.00000000000E+00 -0.28610744855E+03  0.30102371836E+04  0.29966098227E+04 0.  0.
        2    1    3    3  502    0 -0.59820053878E+03 -0.13722612159E+04 -0.20637113389E+03  0.15111365835E+04  0.25500000920E-02 0. -1.
       -2    1    3    3    0  502  0.59820053878E+03  0.13722612159E+04 -0.79736314662E+02  0.14991006001E+04  0.25500000920E-02 0.  1.
</event>
<event>
 5   0  0.1091075E-06  0.3051126E+04  0.7818609E-02  0.8229280E-01
        1   -1    0    0  501    0  0.00000000000E+00  0.00000000000E+00  0.78317817187E+03  0.78317817189E+03  0.50400001928E-02 0.  1.
       -1   -1    0    0    0  501  0.00000000000E+00  0.00000000000E+00 -0.29716636917E+04  0.29716636917E+04  0.50400001928E-02 0. -1.
    10030    2    1    2    0    0  0.00000000000E+00  0.00000000000E+00 -0.21884855199E+04  0.37548418636E+04  0.30511257841E+04 0.  0.
        1    1    3    3  502    0  0.18421829954E+03 -0.20248460913E+03 -0.29411915408E+04  0.29539031938E+04  0.50400001928E-02 0. -1.
       -1    1    3    3    0  502 -0.18421829954E+03  0.20248460913E+03  0.75270602093E+03  0.80093866981E+03  0.50400001928E-02 0.  1.
</event>
<event>
 5   0  0.1054384E-06  0.2990350E+04  0.7818609E-02  0.8246492E-01
       -1   -1    0    0    0  501  0.00000000000E+00  0.00000000000E+00  0.11387339275E+04  0.11387339276E+04  0.50400001928E-02 0. -1.
        1   -1    0    0  501    0  0.00000000000E+00  0.00000000000E+00 -0.19631879385E+04  0.19631879385E+04  0.50400001928E-02 0.  1.
    10030    2    1    2    0    0  0.00000000000E+00  0.00000000000E+00 -0.82445401098E+03  0.31019218661E+04  0.29903502883E+04 0.  0.
        2    1    3    3  502    0 -0.72797296186E+02 -0.14931402221E+04 -0.38322786419E+03  0.15432533055E+04  0.25500000920E-02 0.  1.
       -2    1    3    3    0  502  0.72797296186E+02  0.14931402221E+04 -0.44122614679E+03  0.15586685606E+04  0.25500000920E-02 0. -1.
</event>
<event>
 5   0  0.3113328E-06  0.2989940E+04  0.7818609E-02  0.8246610E-01
       -2   -1    0    0    0  501  0.00000000000E+00  0.00000000000E+00  0.93362268637E+03  0.93362268637E+03  0.25500000920E-02 0.  1.
        2   -1    0    0  501    0  0.00000000000E+00  0.00000000000E+00 -0.23938308171E+04  0.23938308171E+04  0.25500000920E-02 0. -1.
    10030    2    1    2    0    0  0.00000000000E+00  0.00000000000E+00 -0.14602081307E+04  0.33274535035E+04  0.29899396370E+04 0.  0.
        1    1    3    3  502    0 -0.10105654386E+04 -0.70160522255E+03 -0.16753621392E+04  0.20785405196E+04  0.50400001928E-02 0. -1.
       -1    1    3    3    0  502  0.10105654386E+04  0.70160522255E+03  0.21515400850E+03  0.12489129839E+04  0.50400001928E-02 0.  1.
</event>
<event>
 5   0  0.3113328E-06  0.2977583E+04  0.7818609E-02  0.8250161E-01
        2   -1    0    0  501    0  0.00000000000E+00  0.00000000000E+00  0.15958118281E+04  0.15958118281E+04  0.25500000920E-02 0. -1.
       -2   -1    0    0    0  501  0.00000000000E+00  0.00000000000E+00 -0.13889481620E+04  0.13889481620E+04  0.25500000920E-02 0.  1.
    10030    2    1    2    0    0  0.00000000000E+00  0.00000000000E+00  0.20686366610E+03  0.29847599900E+04  0.29775828488E+04 0.  0.
        1    1    3    3  502    0 -0.85997064687E+03  0.49543389592E+03 -0.10089707809E+04  0.14152831150E+04  0.50400001928E-02 0.  1.
       -1    1    3    3    0  502  0.85997064687E+03 -0.49543389592E+03  0.12158344470E+04  0.15694768750E+04  0.50400001928E-02 0. -1.
</event>
<event>
 5   0  0.1097402E-06  0.2994633E+04  0.7818609E-02  0.8245265E-01
        1   -1    0    0  501    0  0.00000000000E+00  0.00000000000E+00  0.17172954248E+04  0.17172954248E+04  0.50400001928E-02 0.  1.
       -1   -1    0    0    0  501  0.00000000000E+00  0.00000000000E+00 -0.13055159294E+04  0.13055159294E+04  0.50400001928E-02 0. -1.
    10030    2    1    2    0    0  0.00000000000E+00  0.00000000000E+00  0.41177949545E+03  0.30228113542E+04  0.29946328874E+04 0.  0.
        4    1    3    3  502    0  0.29486535306E+03 -0.10635890944E+04  0.12272345515E+04  0.16505373657E+04  0.12699999809E+01 0.  1.
       -4    1    3    3    0  502 -0.29486535306E+03  0.10635890944E+04 -0.81545505601E+03  0.13722739885E+04  0.12699999809E+01 0. -1.
</event>
<event>
 5   0  0.2948711E-06  0.2980141E+04  0.7818609E-02  0.8249425E-01
        2   -1    0    0  501    0  0.00000000000E+00  0.00000000000E+00  0.10757208231E+04  0.10757208231E+04  0.25500000920E-02 0. -1.
       -2   -1    0    0    0  501  0.00000000000E+00  0.00000000000E+00 -0.20640206834E+04  0.20640206834E+04  0.25500000920E-02 0.  1.
    10030    2    1    2    0    0  0.00000000000E+00  0.00000000000E+00 -0.98829986023E+03  0.31397415065E+04  0.29801409554E+04 0.  0.
        5    1    3    3  502    0 -0.13489518684E+04  0.17455233546E+03 -0.11351306325E+04  0.17716329484E+04  0.46999998093E+01 0.  1.
       -5    1    3    3    0  502  0.13489518684E+04 -0.17455233546E+03  0.14683077227E+03  0.13681085581E+04  0.46999998093E+01 0. -1.
</event>
<event>
 5   0  0.1113245E-06  0.3009544E+04  0.7818609E-02  0.8241011E-01
        1   -1    0    0  501    0  0.00000000000E+00  0.00000000000E+00  0.29246443661E+04  0.29246443661E+04  0.50400001928E-02 0. -1.
       -1   -1    0    0    0  501  0.00000000000E+00  0.00000000000E+00 -0.77422708302E+03  0.77422708304E+03  0.50400001928E-02 0.  1.
    10030    2    1    2    0    0  0.00000000000E+00  0.00000000000E+00  0.21504172831E+04  0.36988714492E+04  0.30095440695E+04 0.  0.
        5    1    3    3  502    0 -0.13246015088E+04  0.50090912775E+03  0.17004997832E+04  0.22129619775E+04  0.46999998093E+01 0.  1.
       -5    1    3    3    0  502  0.13246015088E+04 -0.50090912775E+03  0.44991749995E+03  0.14859094717E+04  0.46999998093E+01 0. -1.
</event>
<event>
 5   0  0.1054384E-06  0.3007949E+04  0.7818609E-02  0.8241465E-01
        1   -1    0    0  501    0  0.00000000000E+00  0.00000000000E+00  0.18254537281E+04  0.18254537281E+04  0.50400001928E-02 0. -1.
       -1   -1    0    0    0  501  0.00000000000E+00  0.00000000000E+00 -0.12391106783E+04  0.12391106783E+04  0.50400001928E-02 0.  1.
    10030    2    1    2    0    0  0.00000000000E+00  0.00000000000E+00  0.58634304981E+03  0.30645644064E+04  0.30079489406E+04 0.  0.
        2    1    3    3  502    0  0.93306969969E+03 -0.81246189379E+03 -0.57804087990E+03  0.13655931503E+04  0.25500000920E-02 0.  1.
       -2    1    3    3    0  502 -0.93306969969E+03  0.81246189379E+03  0.11643839297E+04  0.16989712561E+04  0.25500000920E-02 0. -1.
</event>
<event>
 5   0  0.2948711E-06  0.2962394E+04  0.7818609E-02  0.8254552E-01
        2   -1    0    0  501    0  0.00000000000E+00  0.00000000000E+00  0.16785260618E+04  0.16785260618E+04  0.25500000920E-02 0. -1.
       -2   -1    0    0    0  501  0.00000000000E+00  0.00000000000E+00 -0.13070663672E+04  0.13070663672E+04  0.25500000920E-02 0.  1.
    10030    2    1    2    0    0  0.00000000000E+00  0.00000000000E+00  0.37145969460E+03  0.29855924291E+04  0.29623942762E+04 0.  0.
        5    1    3    3  502    0  0.50003347695E+03 -0.72553726223E+03 -0.10141752776E+04  0.13435071197E+04  0.46999998093E+01 0.  1.
       -5    1    3    3    0  502 -0.50003347695E+03  0.72553726223E+03  0.13856349722E+04  0.16420853094E+04  0.46999998093E+01 0. -1.
</event>
<event>
 5   0  0.3113328E-06  0.2989793E+04  0.7818609E-02  0.8246652E-01
       -2   -1    0    0    0  501  0.00000000000E+00  0.00000000000E+00  0.14231947752E+04  0.14231947752E+04  0.25500000920E-02 0.  1.
        2   -1    0    0  501    0  0.00000000000E+00  0.00000000000E+00 -0.15702101386E+04  0.15702101386E+04  0.25500000920E-02 0. -1.
    10030    2    1    2    0    0  0.00000000000E+00  0.00000000000E+00 -0.14701536341E+03  0.29934049138E+04  0.29897925448E+04 0.  0.
        1    1    3    3  502    0  0.72549269530E+02 -0.24702174508E+03  0.14008310981E+04  0.14242931245E+04  0.50400001928E-02 0.  1.
       -1    1    3    3    0  502 -0.72549269530E+02  0.24702174508E+03 -0.15478464615E+04  0.15691117893E+04  0.50400001928E-02 0. -1.
</event>
<event>
 5   0  0.1054384E-06  0.2996827E+04  0.7818609E-02  0.8244637E-01
       -1   -1    0    0    0  501  0.00000000000E+00  0.00000000000E+00  0.14772732372E+04  0.14772732372E+04  0.50400001928E-02 0. -1.
        1   -1    0    0  501    0  0.00000000000E+00  0.00000000000E+00 -0.15198566118E+04  0.15198566118E+04  0.50400001928E-02 0.  1.
    10030    2    1    2    0    0  0.00000000000E+00  0.00000000000E+00 -0.42583374636E+02  0.29971298491E+04  0.29968273204E+04 0.  0.
        2    1    3    3  502    0 -0.15244083236E+03  0.31107321274E+03  0.14366753397E+04  0.14778500542E+04  0.25500000920E-02 0. -1.
       -2    1    3    3    0  502  0.15244083236E+03 -0.31107321274E+03 -0.14792587143E+04  0.15192797948E+04  0.25500000920E-02 0.  1.
</event>
<event>
 5   0  0.9749500E-07  0.2985533E+04  0.7818609E-02  0.8247874E-01
        3   -1    0    0  501    0  0.00000000000E+00  0.00000000000E+00  0.19065739857E+04  0.19065739884E+04  0.10100000352E+00 0.  1.
       -3   -1    0    0    0  501  0.00000000000E+00  0.00000000000E+00 -0.11687730735E+04  0.11687730779E+04  0.10100000352E+00 0. -1.
    10030    2    1    2    0    0  0.00000000000E+00  0.00000000000E+00  0.73780091221E+03  0.30753470663E+04  0.29855333513E+04 0.  0.
        2    1    3    3  502    0 -0.13292521697E+04 -0.61961545126E+03  0.82104730094E+02  0.14688688930E+04  0.25500000920E-02 0.  1.
       -2    1    3    3    0  502  0.13292521697E+04  0.61961545126E+03  0.65569618212E+03  0.16064781733E+04  0.25500000920E-02 0. -1.
</event>
<event>
 5   0  0.1091076E-06  0.2996762E+04  0.7818609E-02  0.8244656E-01
       -1   -1    0    0    0  501  0.00000000000E+00  0.00000000000E+00  0.14228716827E+04  0.14228716827E+04  0.50400001928E-02 0.  1.
        1   -1    0    0  501    0  0.00000000000E+00  0.00000000000E+00 -0.15778975989E+04  0.15778975989E+04  0.50400001928E-02 0. -1.
    10030    2    1    2    0    0  0.00000000000E+00  0.00000000000E+00 -0.15502591626E+03  0.30007692816E+04  0.29967621272E+04 0.  0.
        3    1    3    3  502    0 -0.59508679019E+03 -0.70387025167E+03 -0.12604410710E+04  0.15614971414E+04  0.10100000352E+00 0. -1.
       -3    1    3    3    0  502  0.59508679019E+03  0.70387025167E+03  0.11054151547E+04  0.14392721402E+04  0.10100000352E+00 0.  1.
</event>
<event>
 5   0  0.1091076E-06  0.3007326E+04  0.7818609E-02  0.8241642E-01
        1   -1    0    0  501    0  0.00000000000E+00  0.00000000000E+00  0.18288309999E+04  0.18288309999E+04  0.50400001928E-02 0. -1.
       -1   -1    0    0    0  501  0.00000000000E+00  0.00000000000E+00 -0.12363103557E+04  0.12363103557E+04  0.50400001928E-02 0.  1.
    10030    2    1    2    0    0  0.00000000000E+00  0.00000000000E+00  0.59252064416E+03  0.30651413556E+04  0.30073261905E+04 0.  0.
        3    1    3    3  502    0 -0.29280266717E+03 -0.12105527550E+04 -0.56245171341E+03  0.13665735672E+04  0.10100000352E+00 0.  1.
       -3    1    3    3    0  502  0.29280266717E+03  0.12105527550E+04  0.11549723576E+04  0.16985677883E+04  0.10100000352E+00 0. -1.
</event>
<event>
 5   0  0.1113245E-06  0.2959600E+04  0.7818609E-02  0.8255362E-01
        1   -1    0    0  501    0  0.00000000000E+00  0.00000000000E+00  0.13634674997E+04  0.13634674997E+04  0.50400001928E-02 0. -1.
       -1   -1    0    0    0  501  0.00000000000E+00  0.00000000000E+00 -0.16060582812E+04  0.16060582812E+04  0.50400001928E-02 0.  1.
    10030    2    1    2    0    0  0.00000000000E+00  0.00000000000E+00 -0.24259078152E+03  0.29695257809E+04  0.29596001548E+04 0.  0.
        5    1    3    3  502    0 -0.14421735585E+04 -0.21753040762E+03 -0.37233867443E+03  0.15052714803E+04  0.46999998093E+01 0.  1.
       -5    1    3    3    0  502  0.14421735585E+04  0.21753040762E+03  0.12974789291E+03  0.14642543006E+04  0.46999998093E+01 0. -1.
</event>
<event>
 5   0  0.1097402E-06  0.2974267E+04  0.7818609E-02  0.8251117E-01
       -1   -1    0    0    0  501  0.00000000000E+00  0.00000000000E+00  0.11786907442E+04  0.11786907442E+04  0.50400001928E-02 0.  1.
        1   -1    0    0  501    0  0.00000000000E+00  0.00000000000E+00 -0.18762904111E+04  0.18762904111E+04  0.50400001928E-02 0. -1.
    10030    2    1    2    0    0  0.00000000000E+00  0.00000000000E+00 -0.69759966690E+03  0.30549811553E+04  0.29742670633E+04 0.  0.
        4    1    3    3  502    0  0.36200487444E+02 -0.10481807354E+04 -0.14317219329E+04  0.17747739675E+04  0.12699999809E+01 0. -1.
       -4    1    3    3    0  502 -0.36200487444E+02  0.10481807354E+04  0.73412226603E+03  0.12802071879E+04  0.12699999809E+01 0.  1.
</event>
<event>
 5   0  0.1113245E-06  0.2979590E+04  0.7818609E-02  0.8249583E-01
       -1   -1    0    0    0  501  0.00000000000E+00  0.00000000000E+00  0.12467938222E+04  0.12467938222E+04  0.50400001928E-02 0. -1.
        1   -1    0    0  501    0  0.00000000000E+00  0.00000000000E+00 -0.17801577140E+04  0.17801577140E+04  0.50400001928E-02 0.  1.
    10030    2    1    2    0    0  0.00000000000E+00  0.00000000000E+00 -0.53336389180E+03  0.30269515363E+04  0.29795903346E+04 0.  0.
        5    1    3    3  502    0 -0.39718633588E+03  0.12864439369E+04 -0.91460694443E+03  0.16276433703E+04  0.46999998093E+01 0.  1.
       -5    1    3    3    0  502  0.39718633588E+03 -0.12864439369E+04  0.38124305263E+03  0.13993081660E+04  0.46999998093E+01 0. -1.
</event>
<event>
 5   0  0.2970915E-06  0.2950654E+04  0.7818609E-02  0.8257964E-01
        2   -1    0    0  501    0  0.00000000000E+00  0.00000000000E+00  0.21183019156E+04  0.21183019156E+04  0.25500000920E-02 0.  1.
       -2   -1    0    0    0  501  0.00000000000E+00  0.00000000000E+00 -0.10275161499E+04  0.10275161499E+04  0.25500000920E-02 0. -1.
    10030    2    1    2    0    0  0.00000000000E+00  0.00000000000E+00  0.10907857656E+04  0.31458180655E+04  0.29506537775E+04 0.  0.
        4    1    3    3  502    0  0.13330726489E+04 -0.59194059252E+03  0.78166190657E+03  0.16548333153E+04  0.12699999809E+01 0. -1.
       -4    1    3    3    0  502 -0.13330726489E+04  0.59194059252E+03  0.30912385908E+03  0.14909847502E+04  0.12699999809E+01 0.  1.
</event>
<event>
 5   0  0.1113245E-06  0.3003354E+04  0.7818609E-02  0.8242774E-01
       -1   -1    0    0    0  501  0.00000000000E+00  0.00000000000E+00  0.89723896511E+03  0.89723896512E+03  0.50400001928E-02 0. -1.
        1   -1    0    0  501    0  0.00000000000E+00  0.00000000000E+00 -0.25133039764E+04  0.25133039765E+04  0.50400001928E-02 0.  1.
    10030    2    1    2    0    0  0.00000000000E+00  0.00000000000E+00 -0.16160650113E+04  0.34105429416E+04  0.30033542974E+04 0.  0.
        5    1    3    3  502    0  0.50600540379E+03  0.68714492770E+03 -0.22111963720E+04  0.23701521271E+04  0.46999998093E+01 0.  1.
       -5    1    3    3    0  502 -0.50600540379E+03 -0.68714492770E+03  0.59513136064E+03  0.10403908144E+04  0.46999998093E+01 0. -1.
</event>
<event>
 5   0  0.2985941E-06  0.3010219E+04  0.7818609E-02  0.8240819E-01
       -2   -1    0    0    0  501  0.00000000000E+00  0.00000000000E+00  0.12506784577E+04  0.12506784577E+04  0.25500000920E-02 0. -1.
        2   -1    0    0  501    0  0.00000000000E+00  0.00000000000E+00 -0.18113011301E+04  0.18113011301E+04  0.25500000920E-02 0.  1.
    10030    2    1    2    0    0  0.00000000000E+00  0.00000000000E+00 -0.56062267243E+03  0.30619795878E+04  0.30102194629E+04 0.  0.
        3    1    3    3  502    0  0.21263140867E+03 -0.34048215233E+03  0.11952225793E+04  0.12608319619E+04  0.10100000352E+00 0. -1.
       -3    1    3    3    0  502 -0.21263140867E+03  0.34048215233E+03 -0.17558452517E+04  0.18011476259E+04  0.10100000352E+00 0.  1.
</event>
<event>
 5   0  0.2985941E-06  0.2987129E+04  0.7818609E-02  0.8247416E-01
       -2   -1    0    0    0  501  0.00000000000E+00  0.00000000000E+00  0.97773205156E+03  0.97773205156E+03  0.25500000920E-02 0.  1.
        2   -1    0    0  501    0  0.00000000000E+00  0.00000000000E+00 -0.22815397892E+04  0.22815397892E+04  0.25500000920E-02 0. -1.
    10030    2    1    2    0    0  0.00000000000E+00  0.00000000000E+00 -0.13038077377E+04  0.32592718408E+04  0.29871287745E+04 0.  0.
        3    1    3    3  502    0  0.30726576840E+03  0.10534481513E+04  0.45360129912E+03  0.11874002732E+04  0.10100000352E+00 0.  1.
       -3    1    3    3    0  502 -0.30726576840E+03 -0.10534481513E+04 -0.17574090368E+04  0.20718715676E+04  0.10100000352E+00 0. -1.
</event>
<event>
 5   0  0.1054384E-06  0.3108418E+04  0.7818609E-02  0.8213432E-01
       -1   -1    0    0    0  501  0.00000000000E+00  0.00000000000E+00  0.17253894812E+04  0.17253894812E+04  0.50400001928E-02 0. -1.
        1   -1    0    0  501    0  0.00000000000E+00  0.00000000000E+00 -0.14000115152E+04  0.14000115152E+04  0.50400001928E-02 0.  1.
    10030    2    1    2    0    0  0.00000000000E+00  0.00000000000E+00  0.32537796604E+03  0.31254009964E+04  0.31084176952E+04 0.  0.
        2    1    3    3  502    0  0.13131952772E+04  0.75789719040E+03  0.50613269252E+03  0.15984555952E+04  0.25500000920E-02 0. -1.
       -2    1    3    3    0  502 -0.13131952772E+04 -0.75789719040E+03 -0.18075472648E+03  0.15269454013E+04  0.25500000920E-02 0.  1.
</event>
<event>
 5   0  0.2948711E-06  0.3008009E+04  0.7818609E-02  0.8241448E-01
        2   -1    0    0  501    0  0.00000000000E+00  0.00000000000E+00  0.11860169771E+04  0.11860169771E+04  0.25500000920E-02 0. -1.
       -2   -1    0    0    0  501  0.00000000000E+00  0.00000000000E+00 -0.19072485304E+04  0.19072485304E+04  0.25500000920E-02 0.  1.
    10030    2    1    2    0    0  0.00000000000E+00  0.00000000000E+00 -0.72123155327E+03  0.30932655075E+04  0.30080087344E+04 0.  0.
        5    1    3    3  502    0 -0.21358738436E+03  0.77695422683E+03 -0.16665427288E+04  0.18511251169E+04  0.46999998093E+01 0.  1.
       -5    1    3    3    0  502  0.21358738436E+03 -0.77695422683E+03  0.94531117554E+03  0.12421403906E+04  0.46999998093E+01 0. -1.
</event>
<event>
 5   0  0.1113245E-06  0.3034775E+04  0.7818609E-02  0.8233870E-01
       -1   -1    0    0    0  501  0.00000000000E+00  0.00000000000E+00  0.10225620267E+04  0.10225620267E+04  0.50400001928E-02 0. -1.
        1   -1    0    0  501    0  0.00000000000E+00  0.00000000000E+00 -0.22516624988E+04  0.22516624988E+04  0.50400001928E-02 0.  1.
    10030    2    1    2    0    0  0.00000000000E+00  0.00000000000E+00 -0.12291004720E+04  0.32742245255E+04  0.30347748307E+04 0.  0.
        5    1    3    3  502    0 -0.14021614978E+04 -0.57795108141E+03 -0.66694267425E+03  0.16567796894E+04  0.46999998093E+01 0. -1.
       -5    1    3    3    0  502  0.14021614978E+04  0.57795108141E+03 -0.56215779779E+03  0.16174448361E+04  0.46999998093E+01 0.  1.
</event>
<event>
 5   0  0.1054384E-06  0.3004123E+04  0.7818609E-02  0.8242554E-01
        1   -1    0    0  501    0  0.00000000000E+00  0.00000000000E+00  0.18937369191E+04  0.18937369191E+04  0.50400001928E-02 0. -1.
       -1   -1    0    0    0  501  0.00000000000E+00  0.00000000000E+00 -0.11913952776E+04  0.11913952776E+04  0.50400001928E-02 0.  1.
    10030    2    1    2    0    0  0.00000000000E+00  0.00000000000E+00  0.70234164147E+03  0.30851321967E+04  0.30041233147E+04 0.  0.
        2    1    3    3  502    0 -0.60407953751E+03 -0.12385315982E+04  0.96504961000E+03  0.16823178526E+04  0.25500000920E-02 0. -1.
       -2    1    3    3    0  502  0.60407953751E+03  0.12385315982E+04 -0.26270796853E+03  0.14028143441E+04  0.25500000920E-02 0.  1.
</event>
<event>
 5   0  0.2948711E-06  0.2757050E+04  0.7818609E-02  0.8316728E-01
       -2   -1    0    0    0  501  0.00000000000E+00  0.00000000000E+00  0.21653317672E+04  0.21653317672E+04  0.25500000920E-02 0. -1.
        2   -1    0    0  501    0  0.00000000000E+00  0.00000000000E+00 -0.87761659182E+03  0.87761659182E+03  0.25500000920E-02 0.  1.
    10030    2    1    2    0    0  0.00000000000E+00  0.00000000000E+00  0.12877151754E+04  0.30429483590E+04  0.27570499348E+04 0.  0.
        5    1    3    3  502    0 -0.78928461434E+03 -0.60777544657E+03 -0.40781460397E+03  0.10764274416E+04  0.46999998093E+01 0.  1.
       -5    1    3    3    0  502  0.78928461434E+03  0.60777544657E+03  0.16955297794E+04  0.19665209174E+04  0.46999998093E+01 0. -1.
</event>
<event>
 5   0  0.3113328E-06  0.2988443E+04  0.7818609E-02  0.8247039E-01
        2   -1    0    0  501    0  0.00000000000E+00  0.00000000000E+00  0.16634142749E+04  0.16634142749E+04  0.25500000920E-02 0. -1.
       -2   -1    0    0    0  501  0.00000000000E+00  0.00000000000E+00 -0.13422382461E+04  0.13422382461E+04  0.25500000920E-02 0.  1.
    10030    2    1    2    0    0  0.00000000000E+00  0.00000000000E+00  0.32117602882E+03  0.30056525210E+04  0.29884432461E+04 0.  0.
        1    1    3    3  502    0  0.25755790675E+03  0.64340174248E+03  0.14919922442E+04  0.16450965729E+04  0.50400001928E-02 0. -1.
       -1    1    3    3    0  502 -0.25755790675E+03 -0.64340174248E+03 -0.11708162154E+04  0.13605559480E+04  0.50400001928E-02 0.  1.
</event>
<event>
 5   0  0.1054384E-06  0.2984456E+04  0.7818609E-02  0.8248184E-01
       -1   -1    0    0    0  501  0.00000000000E+00  0.00000000000E+00  0.15029970696E+04  0.15029970696E+04  0.50400001928E-02 0. -1.
        1   -1    0    0  501    0  0.00000000000E+00  0.00000000000E+00 -0.14815356539E+04  0.14815356539E+04  0.50400001928E-02 0.  1.
    10030    2    1    2    0    0  0.00000000000E+00  0.00000000000E+00  0.21461415624E+02  0.29845327235E+04  0.29844555593E+04 0.  0.
        2    1    3    3  502    0  0.10095257633E+04 -0.24167449690E+03 -0.10613021012E+04  0.14845575028E+04  0.25500000920E-02 0.  1.
       -2    1    3    3    0  502 -0.10095257633E+04  0.24167449690E+03  0.10827635168E+04  0.14999752207E+04  0.25500000920E-02 0. -1.
</event>
<event>
 5   0  0.3113328E-06  0.2997372E+04  0.7818609E-02  0.8244482E-01
        2   -1    0    0  501    0  0.00000000000E+00  0.00000000000E+00  0.11424568061E+04  0.11424568061E+04  0.25500000920E-02 0.  1.
       -2   -1    0    0    0  501  0.00000000000E+00  0.00000000000E+00 -0.19659909966E+04  0.19659909966E+04  0.25500000920E-02 0. -1.
    10030    2    1    2    0    0  0.00000000000E+00  0.00000000000E+00 -0.82353419052E+03  0.31084478027E+04  0.29973720455E+04 0.  0.
        1    1    3    3  502    0 -0.12271484950E+04  0.33499766113E+03 -0.12335611877E+04  0.17719452773E+04  0.50400001928E-02 0.  1.
       -1    1    3    3    0  502  0.12271484950E+04 -0.33499766113E+03  0.41002699720E+03  0.13365025254E+04  0.50400001928E-02 0. -1.
</event>
<event>
 5   0  0.1097402E-06  0.2989278E+04  0.7818609E-02  0.8246799E-01
       -1   -1    0    0    0  501  0.00000000000E+00  0.00000000000E+00  0.11902366839E+04  0.11902366839E+04  0.50400001928E-02 0.  1.
        1   -1    0    0  501    0  0.00000000000E+00  0.00000000000E+00 -0.18768917721E+04  0.18768917721E+04  0.50400001928E-02 0. -1.
    10030    2    1    2    0    0  0.00000000000E+00  0.00000000000E+00 -0.68665508824E+03  0.30671284561E+04  0.29892777984E+04 0.  0.
        4    1    3    3  502    0 -0.60658618253E+03  0.67588679731E+03 -0.15613295674E+04  0.18062451081E+04  0.12699999809E+01 0. -1.
       -4    1    3    3    0  502  0.60658618253E+03 -0.67588679731E+03  0.87467447920E+03  0.12608833479E+04  0.12699999809E+01 0.  1.
</event>
<event>
 5   0  0.2985941E-06  0.2953633E+04  0.7818609E-02  0.8257097E-01
        2   -1    0    0  501    0  0.00000000000E+00  0.00000000000E+00  0.23562459006E+04  0.23562459006E+04  0.25500000920E-02 0. -1.
       -2   -1    0    0    0  501  0.00000000000E+00  0.00000000000E+00 -0.92561954777E+03  0.92561954778E+03  0.25500000920E-02 0.  1.
    10030    2    1    2    0    0  0.00000000000E+00  0.00000000000E+00  0.14306263528E+04  0.32818654483E+04  0.29536331965E+04 0.  0.
        3    1    3    3  502    0 -0.28188443480E+03  0.28292064324E+03  0.22951033228E+04  0.23295927107E+04  0.10100000352E+00 0. -1.
       -3    1    3    3    0  502  0.28188443480E+03 -0.28292064324E+03 -0.86447697005E+03  0.95227273766E+03  0.10100000352E+00 0.  1.
</event>
<event>
 5   0  0.1097402E-06  0.3003280E+04  0.7818609E-02  0.8242795E-01
        1   -1    0    0  501    0  0.00000000000E+00  0.00000000000E+00  0.17973800379E+04  0.17973800379E+04  0.50400001928E-02 0. -1.
       -1   -1    0    0    0  501  0.00000000000E+00  0.00000000000E+00 -0.12545609887E+04  0.12545609887E+04  0.50400001928E-02 0.  1.
    10030    2    1    2    0    0  0.00000000000E+00  0.00000000000E+00  0.54281904921E+03  0.30519410266E+04  0.30032801251E+04 0.  0.
        4    1    3    3  502    0 -0.22207718666E+03  0.14099823332E+04  0.74539238960E+03  0.16102732328E+04  0.12699999809E+01 0. -1.
       -4    1    3    3    0  502  0.22207718666E+03 -0.14099823332E+04 -0.20257334039E+03  0.14416677939E+04  0.12699999809E+01 0.  1.
</event>
<event>
 5   0  0.2985941E-06  0.2909251E+04  0.7818609E-02  0.8270130E-01
        2   -1    0    0  501    0  0.00000000000E+00  0.00000000000E+00  0.14716298737E+04  0.14716298738E+04  0.25500000920E-02 0. -1.
       -2   -1    0    0    0  501  0.00000000000E+00  0.00000000000E+00 -0.14378174198E+04  0.14378174198E+04  0.25500000920E-02 0.  1.
    10030    2    1    2    0    0  0.00000000000E+00  0.00000000000E+00  0.33812453919E+02  0.29094472936E+04  0.29092508094E+04 0.  0.
        3    1    3    3  502    0 -0.37243339035E+03  0.92748523428E+03  0.10738596091E+04  0.14670071439E+04  0.10100000352E+00 0. -1.
       -3    1    3    3    0  502  0.37243339035E+03 -0.92748523428E+03 -0.10400471552E+04  0.14424401496E+04  0.10100000352E+00 0.  1.
</event>
<event>
 5   0  0.2970915E-06  0.2996204E+04  0.7818609E-02  0.8244816E-01
       -2   -1    0    0    0  501  0.00000000000E+00  0.00000000000E+00  0.10698411987E+04  0.10698411987E+04  0.25500000920E-02 0.  1.
        2   -1    0    0  501    0  0.00000000000E+00  0.00000000000E+00 -0.20977963403E+04  0.20977963403E+04  0.25500000920E-02 0. -1.
    10030    2    1    2    0    0  0.00000000000E+00  0.00000000000E+00 -0.10279551416E+04  0.31676375390E+04  0.29962035654E+04 0.  0.
        4    1    3    3  502    0 -0.46992114056E+02  0.13445591878E+04 -0.12106665068E+04  0.18099068131E+04  0.12699999809E+01 0. -1.
       -4    1    3    3    0  502  0.46992114056E+02 -0.13445591878E+04  0.18271136521E+03  0.13577307260E+04  0.12699999809E+01 0.  1.
</event>
<event>
 5   0  0.2862033E-06  0.2988307E+04  0.7818609E-02  0.8247078E-01
       -2   -1    0    0    0  501  0.00000000000E+00  0.00000000000E+00  0.14280611733E+04  0.14280611733E+04  0.25500000920E-02 0. -1.
        2   -1    0    0  501    0  0.00000000000E+00  0.00000000000E+00 -0.15633046006E+04  0.15633046006E+04  0.25500000920E-02 0.  1.
    10030    2    1    2    0    0  0.00000000000E+00  0.00000000000E+00 -0.13524342728E+03  0.29913657739E+04  0.29883069469E+04 0.  0.
        2    1    3    3  502    0 -0.54731184164E+03  0.11323749663E+04 -0.87508937260E+03  0.15321895204E+04  0.25500000920E-02 0.  1.
       -2    1    3    3    0  502  0.54731184164E+03 -0.11323749663E+04  0.73984594532E+03  0.14591762536E+04  0.25500000920E-02 0. -1.
</event>
<event>
 5   0  0.2862033E-06  0.3011953E+04  0.7818609E-02  0.8240326E-01
       -2   -1    0    0    0  501  0.00000000000E+00  0.00000000000E+00  0.11106903486E+04  0.11106903486E+04  0.25500000920E-02 0.  1.
        2   -1    0    0  501    0  0.00000000000E+00  0.00000000000E+00 -0.20419426297E+04  0.20419426297E+04  0.25500000920E-02 0. -1.
    10030    2    1    2    0    0  0.00000000000E+00  0.00000000000E+00 -0.93125228109E+03  0.31526329784E+04  0.30119534999E+04 0.  0.
        2    1    3    3  502    0  0.86607421506E+03 -0.31678386896E+03 -0.17118360202E+04  0.19444328545E+04  0.25500000920E-02 0. -1.
       -2    1    3    3    0  502 -0.86607421506E+03  0.31678386896E+03  0.78058373909E+03  0.12082001239E+04  0.25500000920E-02 0.  1.
</event>
<event>
 5   0  0.1097402E-06  0.2818549E+04  0.7818609E-02  0.8297533E-01
       -1   -1    0    0    0  501  0.00000000000E+00  0.00000000000E+00  0.78040445268E+03  0.78040445270E+03  0.50400001928E-02 0. -1.
        1   -1    0    0  501    0  0.00000000000E+00  0.00000000000E+00 -0.25449047925E+04  0.25449047925E+04  0.50400001928E-02 0.  1.
    10030    2    1    2    0    0  0.00000000000E+00  0.00000000000E+00 -0.17645003398E+04  0.33253092452E+04  0.28185492948E+04 0.  0.
        4    1    3    3  502    0  0.75829849699E+03  0.73972177721E+02 -0.22809736346E+04  0.24048556772E+04  0.12699999809E+01 0.  1.
       -4    1    3    3    0  502 -0.75829849699E+03 -0.73972177721E+02  0.51647329481E+03  0.92045356795E+03  0.12699999809E+01 0. -1.
</event>
<event>
 5   0  0.2862033E-06  0.2993003E+04  0.7818609E-02  0.8245732E-01
        2   -1    0    0  501    0  0.00000000000E+00  0.00000000000E+00  0.33217202252E+04  0.33217202252E+04  0.25500000920E-02 0. -1.
       -2   -1    0    0    0  501  0.00000000000E+00  0.00000000000E+00 -0.67420399932E+03  0.67420399932E+03  0.25500000920E-02 0.  1.
    10030    2    1    2    0    0  0.00000000000E+00  0.00000000000E+00  0.26475162259E+04  0.39959242246E+04  0.29930032145E+04 0.  0.
        2    1    3    3  502    0  0.87015018346E+02 -0.14753693855E+04  0.16375198884E+04  0.22058462824E+04  0.25500000920E-02 0.  1.
       -2    1    3    3    0  502 -0.87015018346E+02  0.14753693855E+04  0.10099963376E+04  0.17900779421E+04  0.25500000920E-02 0. -1.
</event>
<event>
 5   0  0.2948711E-06  0.2990014E+04  0.7818609E-02  0.8246588E-01
       -2   -1    0    0    0  501  0.00000000000E+00  0.00000000000E+00  0.18176544342E+04  0.18176544342E+04  0.25500000920E-02 0.  1.
        2   -1    0    0  501    0  0.00000000000E+00  0.00000000000E+00 -0.12296320593E+04  0.12296320593E+04  0.25500000920E-02 0. -1.
    10030    2    1    2    0    0  0.00000000000E+00  0.00000000000E+00  0.58802237488E+03  0.30472864935E+04  0.29900141571E+04 0.  0.
        5    1    3    3  502    0  0.63936708453E+03  0.16673708904E+03  0.16607550086E+04  0.17873781956E+04  0.46999998093E+01 0.  1.
       -5    1    3    3    0  502 -0.63936708453E+03 -0.16673708904E+03 -0.10727326337E+04  0.12599082979E+04  0.46999998093E+01 0. -1.
</event>
<event>
 5   0  0.2948711E-06  0.2974734E+04  0.7818609E-02  0.8250983E-01
       -2   -1    0    0    0  501  0.00000000000E+00  0.00000000000E+00  0.96653789545E+03  0.96653789545E+03  0.25500000920E-02 0.  1.
        2   -1    0    0  501    0  0.00000000000E+00  0.00000000000E+00 -0.22888499249E+04  0.22888499249E+04  0.25500000920E-02 0. -1.
    10030    2    1    2    0    0  0.00000000000E+00  0.00000000000E+00 -0.13223120294E+04  0.32553878203E+04  0.29747337289E+04 0.  0.
        5    1    3    3  502    0  0.54785598663E+03  0.92357882281E+02  0.84870907217E+03  0.10143990042E+04  0.46999998093E+01 0.  1.
       -5    1    3    3    0  502 -0.54785598663E+03 -0.92357882281E+02 -0.21710211016E+04  0.22409888161E+04  0.46999998093E+01 0. -1.
</event>
<event>
 5   0  0.2985941E-06  0.2988795E+04  0.7818609E-02  0.8246938E-01
       -2   -1    0    0    0  501  0.00000000000E+00  0.00000000000E+00  0.86435664459E+03  0.86435664460E+03  0.25500000920E-02 0. -1.
        2   -1    0    0  501    0  0.00000000000E+00  0.00000000000E+00 -0.25836841470E+04  0.25836841470E+04  0.25500000920E-02 0.  1.
    10030    2    1    2    0    0  0.00000000000E+00  0.00000000000E+00 -0.17193275024E+04  0.34480407916E+04  0.29887954497E+04 0.  0.
        3    1    3    3  502    0  0.53463886789E+03 -0.11014789695E+04 -0.18481318576E+04  0.22169091124E+04  0.10100000352E+00 0.  1.
       -3    1    3    3    0  502 -0.53463886789E+03  0.11014789695E+04  0.12880435523E+03  0.12311316792E+04  0.10100000352E+00 0. -1.
</event>
<event>
 5   0  0.1113245E-06  0.2996783E+04  0.7818609E-02  0.8244650E-01
       -1   -1    0    0    0  501  0.00000000000E+00  0.00000000000E+00  0.12555328122E+04  0.12555328122E+04  0.50400001928E-02 0. -1.
        1   -1    0    0  501    0  0.00000000000E+00  0.00000000000E+00 -0.17882265525E+04  0.17882265525E+04  0.50400001928E-02 0.  1.
    10030    2    1    2    0    0  0.00000000000E+00  0.00000000000E+00 -0.53269374031E+03  0.30437593648E+04  0.29967830168E+04 0.  0.
        5    1    3    3  502    0 -0.10674968218E+04 -0.81603408838E+03  0.40714172899E+03  0.14040112447E+04  0.46999998093E+01 0. -1.
       -5    1    3    3    0  502  0.10674968218E+04  0.81603408838E+03 -0.93983546930E+03  0.16397481200E+04  0.46999998093E+01 0.  1.
</event>
<event>
 5   0  0.1091075E-06  0.3035561E+04  0.7818609E-02  0.8233649E-01
       -1   -1    0    0    0  501  0.00000000000E+00  0.00000000000E+00  0.11425393182E+04  0.11425393182E+04  0.50400001928E-02 0. -1.
        1   -1    0    0  501    0  0.00000000000E+00  0.00000000000E+00 -0.20162610895E+04  0.20162610895E+04  0.50400001928E-02 0.  1.
    10030    2    1    2    0    0  0.00000000000E+00  0.00000000000E+00 -0.87372177129E+03  0.31588004078E+04  0.30355609502E+04 0.  0.
        1    1    3    3  502    0  0.30196536839E+03 -0.40337261177E+03  0.10529641466E+04  0.11673157420E+04  0.50400001928E-02 0. -1.
       -1    1    3    3    0  502 -0.30196536839E+03  0.40337261177E+03 -0.19266859179E+04  0.19914846657E+04  0.50400001928E-02 0.  1.
</event>
<event>
 5   0  0.2985941E-06  0.3001876E+04  0.7818609E-02  0.8243195E-01
       -2   -1    0    0    0  501  0.00000000000E+00  0.00000000000E+00  0.91809571380E+03  0.91809571380E+03  0.25500000920E-02 0.  1.
        2   -1    0    0  501    0  0.00000000000E+00  0.00000000000E+00 -0.24537911124E+04  0.24537911124E+04  0.25500000920E-02 0. -1.
    10030    2    1    2    0    0  0.00000000000E+00  0.00000000000E+00 -0.15356953986E+04  0.33718868262E+04  0.30018761486E+04 0.  0.
        3    1    3    3  502    0 -0.40733596064E+03 -0.14028285958E+04 -0.11552737319E+04  0.18623931002E+04  0.10100000352E+00 0.  1.
       -3    1    3    3    0  502  0.40733596064E+03  0.14028285958E+04 -0.38042166666E+03  0.15094937259E+04  0.10100000352E+00 0. -1.
</event>
<event>
 5   0  0.1054384E-06  0.2988425E+04  0.7818609E-02  0.8247044E-01
       -1   -1    0    0    0  501  0.00000000000E+00  0.00000000000E+00  0.12908351435E+04  0.12908351435E+04  0.50400001928E-02 0. -1.
        1   -1    0    0  501    0  0.00000000000E+00  0.00000000000E+00 -0.17296334579E+04  0.17296334579E+04  0.50400001928E-02 0.  1.
    10030    2    1    2    0    0  0.00000000000E+00  0.00000000000E+00 -0.43879831440E+03  0.30204686014E+04  0.29884254402E+04 0.  0.
        2    1    3    3  502    0 -0.23826141251E+03 -0.16845643361E+03  0.12617577686E+04  0.12950593566E+04  0.25500000920E-02 0. -1.
       -2    1    3    3    0  502  0.23826141251E+03  0.16845643361E+03 -0.17005560830E+04  0.17254092448E+04  0.25500000920E-02 0.  1.
</event>
<event>
 5   0  0.2970915E-06  0.2995282E+04  0.7818609E-02  0.8245080E-01
        2   -1    0    0  501    0  0.00000000000E+00  0.00000000000E+00  0.19047802585E+04  0.19047802585E+04  0.25500000920E-02 0. -1.
       -2   -1    0    0    0  501  0.00000000000E+00  0.00000000000E+00 -0.11775258151E+04  0.11775258151E+04  0.25500000920E-02 0.  1.
    10030    2    1    2    0    0  0.00000000000E+00  0.00000000000E+00  0.72725444342E+03  0.30823060736E+04  0.29952815737E+04 0.  0.
        4    1    3    3  502    0 -0.90766805387E+03 -0.33263712267E+02 -0.86175020009E+03  0.12520314656E+04  0.12699999809E+01 0.  1.
       -4    1    3    3    0  502  0.90766805387E+03  0.33263712267E+02  0.15890046435E+04  0.18302746080E+04  0.12699999809E+01 0. -1.
</event>
<event>
 5   0  0.1097402E-06  0.2997446E+04  0.7818609E-02  0.8244461E-01
        1   -1    0    0  501    0  0.00000000000E+00  0.00000000000E+00  0.18843290826E+04  0.18843290826E+04  0.50400001928E-02 0. -1.
       -1   -1    0    0    0  501  0.00000000000E+00  0.00000000000E+00 -0.11920266824E+04  0.11920266824E+04  0.50400001928E-02 0.  1.
    10030    2    1    2    0    0  0.00000000000E+00  0.00000000000E+00  0.69230240023E+03  0.30763557650E+04  0.29974459427E+04 0.  0.
        4    1    3    3  502    0 -0.79825711600E+03  0.95735570991E+03 -0.50787545992E+03  0.13459879176E+04  0.12699999809E+01 0.  1.
       -4    1    3    3    0  502  0.79825711600E+03 -0.95735570991E+03  0.12001778602E+04  0.17303678474E+04  0.12699999809E+01 0. -1.
</event>
<event>
 5   0  0.2970915E-06  0.2981280E+04  0.7818609E-02  0.8249097E-01
        2   -1    0    0  501    0  0.00000000000E+00  0.00000000000E+00  0.24785910415E+04  0.24785910415E+04  0.25500000920E-02 0. -1.
       -2   -1    0    0    0  501  0.00000000000E+00  0.00000000000E+00 -0.89647998158E+03  0.89647998159E+03  0.25500000920E-02 0.  1.
    10030    2    1    2    0    0  0.00000000000E+00  0.00000000000E+00  0.15821110599E+04  0.33750710231E+04  0.29812797596E+04 0.  0.
        4    1    3    3  502    0 -0.16678066462E+03 -0.22485591448E+03  0.24485613577E+04  0.24645142133E+04  0.12699999809E+01 0. -1.
       -4    1    3    3    0  502  0.16678066462E+03  0.22485591448E+03 -0.86645029779E+03  0.91055680976E+03  0.12699999809E+01 0.  1.
</event>
<event>
 5   0  0.3113328E-06  0.2716224E+04  0.7818609E-02  0.8329760E-01
       -2   -1    0    0    0  501  0.00000000000E+00  0.00000000000E+00  0.87828468618E+03  0.87828468618E+03  0.25500000920E-02 0. -1.
        2   -1    0    0  501    0  0.00000000000E+00  0.00000000000E+00 -0.21000803306E+04  0.21000803306E+04  0.25500000920E-02 0.  1.
    10030    2    1    2    0    0  0.00000000000E+00  0.00000000000E+00 -0.12217956445E+04  0.29783650168E+04  0.27162241396E+04 0.  0.
        1    1    3    3  502    0  0.10731888721E+04 -0.73784372931E+03 -0.18860552773E+03  0.13159482395E+04  0.50400001928E-02 0.  1.
       -1    1    3    3    0  502 -0.10731888721E+04  0.73784372931E+03 -0.10331901167E+04  0.16624167773E+04  0.50400001928E-02 0. -1.
</event>
<event>
 5   0  0.2862033E-06  0.2926259E+04  0.7818609E-02  0.8265107E-01
        2   -1    0    0  501    0  0.00000000000E+00  0.00000000000E+00  0.18005407807E+04  0.18005407807E+04  0.25500000920E-02 0.  1.
       -2   -1    0    0    0  501  0.00000000000E+00  0.00000000000E+00 -0.11889472563E+04  0.11889472563E+04  0.25500000920E-02 0. -1.
    10030    2    1    2    0    0  0.00000000000E+00  0.00000000000E+00  0.61159352437E+03  0.29894880370E+04  0.29262590597E+04 0.  0.
        2    1    3    3  502    0  0.95117843375E+03 -0.35508610401E+02  0.14409983604E+04  0.17269851038E+04  0.25500000920E-02 0.  1.
       -2    1    3    3    0  502 -0.95117843375E+03  0.35508610401E+02 -0.82940483601E+03  0.12625029332E+04  0.25500000920E-02 0. -1.
</event>
<event>
 5   0  0.1091076E-06  0.2995889E+04  0.7818609E-02  0.8244906E-01
       -1   -1    0    0    0  501  0.00000000000E+00  0.00000000000E+00  0.13086818082E+04  0.13086818082E+04  0.50400001928E-02 0. -1.
        1   -1    0    0  501    0  0.00000000000E+00  0.00000000000E+00 -0.17145788281E+04  0.17145788282E+04  0.50400001928E-02 0.  1.
    10030    2    1    2    0    0  0.00000000000E+00  0.00000000000E+00 -0.40589701999E+03  0.30232606363E+04  0.29958892644E+04 0.  0.
        3    1    3    3  502    0 -0.14349177271E+04  0.84609592495E+02 -0.62833321368E+03  0.15687416309E+04  0.10100000352E+00 0.  1.
       -3    1    3    3    0  502  0.14349177271E+04 -0.84609592495E+02  0.22243619369E+03  0.14545190055E+04  0.10100000352E+00 0. -1.
</event>
<event>
 5   0  0.1091075E-06  0.2994753E+04  0.7818609E-02  0.8245231E-01
       -1   -1    0    0    0  501  0.00000000000E+00  0.00000000000E+00  0.15605558237E+04  0.15605558237E+04  0.50400001928E-02 0. -1.
        1   -1    0    0  501    0  0.00000000000E+00  0.00000000000E+00 -0.14367551926E+04  0.14367551926E+04  0.50400001928E-02 0.  1.
    10030    2    1    2    0    0  0.00000000000E+00  0.00000000000E+00  0.12380063113E+03  0.29973110163E+04  0.29947532005E+04 0.  0.
        1    1    3    3  502    0  0.88480230762E+03  0.10744928332E+04 -0.49059173569E+03  0.14758354323E+04  0.50400001928E-02 0.  1.
       -1    1    3    3    0  502 -0.88480230762E+03 -0.10744928332E+04  0.61439236683E+03  0.15214755840E+04  0.50400001928E-02 0. -1.
</event>
<event>
 5   0  0.1054384E-06  0.2996962E+04  0.7818609E-02  0.8244599E-01
       -1   -1    0    0    0  501  0.00000000000E+00  0.00000000000E+00  0.16002834275E+04  0.16002834275E+04  0.50400001928E-02 0. -1.
        1   -1    0    0  501    0  0.00000000000E+00  0.00000000000E+00 -0.14031546523E+04  0.14031546523E+04  0.50400001928E-02 0.  1.
    10030    2    1    2    0    0  0.00000000000E+00  0.00000000000E+00  0.19712877513E+03  0.30034380798E+04  0.29969618859E+04 0.  0.
        2    1    3    3  502    0  0.82361135829E+02  0.43779433044E+03 -0.13352606571E+04  0.14076108322E+04  0.25500000920E-02 0.  1.
       -2    1    3    3    0  502 -0.82361135829E+02 -0.43779433044E+03  0.15323894322E+04  0.15958272477E+04  0.25500000920E-02 0. -1.
</event>
<event>
 5   0  0.2862033E-06  0.2962540E+04  0.7818609E-02  0.8254509E-01
        2   -1    0    0  501    0  0.00000000000E+00  0.00000000000E+00  0.18513501531E+04  0.18513501531E+04  0.25500000920E-02 0. -1.
       -2   -1    0    0    0  501  0.00000000000E+00  0.00000000000E+00 -0.11851681935E+04  0.11851681935E+04  0.25500000920E-02 0.  1.
    10030    2    1    2    0    0  0.00000000000E+00  0.00000000000E+00  0.66618195959E+03  0.30365183465E+04  0.29625403399E+04 0.  0.
        2    1    3    3  502    0 -0.91682972273E+03 -0.97075724517E+03 -0.32418245975E+03  0.13740599102E+04  0.25500000920E-02 0.  1.
       -2    1    3    3    0  502  0.91682972273E+03  0.97075724517E+03  0.99036441934E+03  0.16624584364E+04  0.25500000920E-02 0. -1.
</event>
<event>
 5   0  0.2948711E-06  0.3044763E+04  0.7818609E-02  0.8231063E-01
        2   -1    0    0  501    0  0.00000000000E+00  0.00000000000E+00  0.19166161744E+04  0.19166161744E+04  0.25500000920E-02 0.  1.
       -2   -1    0    0    0  501  0.00000000000E+00  0.00000000000E+00 -0.12092378271E+04  0.12092378271E+04  0.25500000920E-02 0. -1.
    10030    2    1    2    0    0  0.00000000000E+00  0.00000000000E+00  0.70737834730E+03  0.31258540015E+04  0.30447625708E+04 0.  0.
        5    1    3    3  502    0 -0.11220438155E+04  0.19233497095E+03 -0.68399650256E+03  0.13280995333E+04  0.46999998093E+01 0. -1.
       -5    1    3    3    0  502  0.11220438155E+04 -0.19233497095E+03  0.13913748499E+04  0.17977544681E+04  0.46999998093E+01 0.  1.
</event>
<event>
 5   0  0.1091075E-06  0.2971021E+04  0.7818609E-02  0.8252055E-01
        1   -1    0    0  501    0  0.00000000000E+00  0.00000000000E+00  0.11930352432E+04  0.11930352433E+04  0.50400001928E-02 0. -1.
       -1   -1    0    0    0  501  0.00000000000E+00  0.00000000000E+00 -0.18496862990E+04  0.18496862990E+04  0.50400001928E-02 0.  1.
    10030    2    1    2    0    0  0.00000000000E+00  0.00000000000E+00 -0.65665105573E+03  0.30427215422E+04  0.29710206621E+04 0.  0.
        1    1    3    3  502    0 -0.89386960109E+03 -0.11053642298E+04 -0.76990164443E+03  0.16166575044E+04  0.50400001928E-02 0.  1.
       -1    1    3    3    0  502  0.89386960109E+03  0.11053642298E+04  0.11325058870E+03  0.14260640379E+04  0.50400001928E-02 0. -1.
</event>
<event>
 5   0  0.3113328E-06  0.3000433E+04  0.7818609E-02  0.8243607E-01
       -2   -1    0    0    0  501  0.00000000000E+00  0.00000000000E+00  0.11824623459E+04  0.11824623459E+04  0.25500000920E-02 0.  1.
        2   -1    0    0  501    0  0.00000000000E+00  0.00000000000E+00 -0.19033582059E+04  0.19033582059E+04  0.25500000920E-02 0. -1.
    10030    2    1    2    0    0  0.00000000000E+00  0.00000000000E+00 -0.72089585996E+03  0.30858205518E+04  0.30004329083E+04 0.  0.
        1    1    3    3  502    0 -0.10062313374E+04  0.24780089849E+03 -0.14760966940E+04  0.18035432459E+04  0.50400001928E-02 0. -1.
       -1    1    3    3    0  502  0.10062313374E+04 -0.24780089849E+03  0.75520083405E+03  0.12822773059E+04  0.50400001928E-02 0.  1.
</event>
<event>
 5   0  0.1091075E-06  0.3012423E+04  0.7818609E-02  0.8240192E-01
       -1   -1    0    0    0  501  0.00000000000E+00  0.00000000000E+00  0.91746559667E+03  0.91746559669E+03  0.50400001928E-02 0. -1.
        1   -1    0    0  501    0  0.00000000000E+00  0.00000000000E+00 -0.24727602969E+04  0.24727602970E+04  0.50400001928E-02 0.  1.
    10030    2    1    2    0    0  0.00000000000E+00  0.00000000000E+00 -0.15552947003E+04  0.33902258936E+04  0.30124226140E+04 0.  0.
        1    1    3    3  502    0  0.49979345050E+03 -0.14178786842E+04 -0.88139966573E+03  0.17427101960E+04  0.50400001928E-02 0.  1.
       -1    1    3    3    0  502 -0.49979345050E+03  0.14178786842E+04 -0.67389503455E+03  0.16475156977E+04  0.50400001928E-02 0. -1.
</event>
<event>
 5   0  0.2948711E-06  0.2997863E+04  0.7818609E-02  0.8244342E-01
       -2   -1    0    0    0  501  0.00000000000E+00  0.00000000000E+00  0.21151123828E+04  0.21151123828E+04  0.25500000920E-02 0.  1.
        2   -1    0    0  501    0  0.00000000000E+00  0.00000000000E+00 -0.10622579465E+04  0.10622579465E+04  0.25500000920E-02 0. -1.
    10030    2    1    2    0    0  0.00000000000E+00  0.00000000000E+00  0.10528544362E+04  0.31773703293E+04  0.29978625295E+04 0.  0.
        5    1    3    3  502    0  0.11248405888E+04  0.12904361530E+03 -0.51465967047E+03  0.12437102843E+04  0.46999998093E+01 0. -1.
       -5    1    3    3    0  502 -0.11248405888E+04 -0.12904361530E+03  0.15675141067E+04  0.19336600450E+04  0.46999998093E+01 0.  1.
</event>
<event>
 5   0  0.2970915E-06  0.3005248E+04  0.7818609E-02  0.8242234E-01
       -2   -1    0    0    0  501  0.00000000000E+00  0.00000000000E+00  0.10097553752E+04  0.10097553752E+04  0.25500000920E-02 0.  1.
        2   -1    0    0  501    0  0.00000000000E+00  0.00000000000E+00 -0.22360653908E+04  0.22360653908E+04  0.25500000920E-02 0. -1.
    10030    2    1    2    0    0  0.00000000000E+00  0.00000000000E+00 -0.12263100156E+04  0.32458207659E+04  0.30052481080E+04 0.  0.
        4    1    3    3  502    0 -0.60006546201E+03 -0.67820240054E+03 -0.19082437853E+04  0.21122104564E+04  0.12699999809E+01 0. -1.
       -4    1    3    3    0  502  0.60006546201E+03  0.67820240054E+03  0.68193376975E+03  0.11336103096E+04  0.12699999809E+01 0.  1.
</event>
<event>
 5   0  0.2948711E-06  0.2992221E+04  0.7818609E-02  0.8245956E-01
        2   -1    0    0  501    0  0.00000000000E+00  0.00000000000E+00  0.16030458246E+04  0.16030458246E+04  0.25500000920E-02 0.  1.
       -2   -1    0    0    0  501  0.00000000000E+00  0.00000000000E+00 -0.13963090235E+04  0.13963090235E+04  0.25500000920E-02 0. -1.
    10030    2    1    2    0    0  0.00000000000E+00  0.00000000000E+00  0.20673680111E+03  0.29993548480E+04  0.29922214824E+04 0.  0.
        5    1    3    3  502    0  0.21955093160E+03  0.13057485921E+04  0.80155115134E+03  0.15478011292E+04  0.46999998093E+01 0.  1.
       -5    1    3    3    0  502 -0.21955093160E+03 -0.13057485921E+04 -0.59481435023E+03  0.14515537188E+04  0.46999998093E+01 0. -1.
</event>
<event>
 5   0  0.2948711E-06  0.3030628E+04  0.7818609E-02  0.8235039E-01
       -2   -1    0    0    0  501  0.00000000000E+00  0.00000000000E+00  0.95837619918E+03  0.95837619918E+03  0.25500000920E-02 0. -1.
        2   -1    0    0  501    0  0.00000000000E+00  0.00000000000E+00 -0.23959027913E+04  0.23959027913E+04  0.25500000920E-02 0.  1.
    10030    2    1    2    0    0  0.00000000000E+00  0.00000000000E+00 -0.14375265921E+04  0.33542789905E+04  0.30306277968E+04 0.  0.
        5    1    3    3  502    0  0.33200919972E+03 -0.12006694497E+04 -0.16736360802E+04  0.20863645547E+04  0.46999998093E+01 0.  1.
       -5    1    3    3    0  502 -0.33200919972E+03  0.12006694497E+04  0.23610948803E+03  0.12679144358E+04  0.46999998093E+01 0. -1.
</event>
<event>
 5   0  0.1054384E-06  0.2993865E+04  0.7818609E-02  0.8245485E-01
        1   -1    0    0  501    0  0.00000000000E+00  0.00000000000E+00  0.18229437223E+04  0.18229437223E+04  0.50400001928E-02 0.  1.
       -1   -1    0    0    0  501  0.00000000000E+00  0.00000000000E+00 -0.12292247588E+04  0.12292247588E+04  0.50400001928E-02 0. -1.
    10030    2    1    2    0    0  0.00000000000E+00  0.00000000000E+00  0.59371896347E+03  0.30521684811E+04  0.29938654327E+04 0.  0.
        2    1    3    3  502    0  0.14261280428E+04 -0.41741465405E+03  0.11241812224E+03  0.14902060335E+04  0.25500000920E-02 0. -1.
       -2    1    3    3    0  502 -0.14261280428E+04  0.41741465405E+03  0.48130084123E+03  0.15619624476E+04  0.25500000920E-02 0.  1.
</event>
<event>
 5   0  0.3113328E-06  0.3071417E+04  0.7818609E-02  0.8223626E-01
        2   -1    0    0  501    0  0.00000000000E+00  0.00000000000E+00  0.24847555431E+04  0.24847555431E+04  0.25500000920E-02 0. -1.
       -2   -1    0    0    0  501  0.00000000000E+00  0.00000000000E+00 -0.94914797264E+03  0.94914797264E+03  0.25500000920E-02 0.  1.
    10030    2    1    2    0    0  0.00000000000E+00  0.00000000000E+00  0.15356075705E+04  0.34339035157E+04  0.30714170581E+04 0.  0.
        1    1    3    3  502    0  0.10566786349E+04 -0.78957447523E+03  0.16469986127E+04  0.21101189586E+04  0.50400001928E-02 0. -1.
       -1    1    3    3    0  502 -0.10566786349E+04  0.78957447523E+03 -0.11139104224E+03  0.13237845571E+04  0.50400001928E-02 0.  1.
</event>
<event>
 5   0  0.1054384E-06  0.3016798E+04  0.7818609E-02  0.8238950E-01
        1   -1    0    0  501    0  0.00000000000E+00  0.00000000000E+00  0.12669566769E+04  0.12669566769E+04  0.50400001928E-02 0.  1.
       -1   -1    0    0    0  501  0.00000000000E+00  0.00000000000E+00 -0.17958527731E+04  0.17958527731E+04  0.50400001928E-02 0. -1.
    10030    2    1    2    0    0  0.00000000000E+00  0.00000000000E+00 -0.52889609620E+03  0.30628094500E+04  0.30167980785E+04 0.  0.
        2    1    3    3  502    0  0.27807734251E+02 -0.16698444605E+03  0.12572820695E+04  0.12686273202E+04  0.25500000920E-02 0.  1.
       -2    1    3    3    0  502 -0.27807734251E+02  0.16698444605E+03 -0.17861781657E+04  0.17941821298E+04  0.25500000920E-02 0. -1.
</event>
<event>
 5   0  0.2970915E-06  0.3025612E+04  0.7818609E-02  0.8236455E-01
       -2   -1    0    0    0  501  0.00000000000E+00  0.00000000000E+00  0.18354407370E+04  0.18354407370E+04  0.25500000920E-02 0.  1.
        2   -1    0    0  501    0  0.00000000000E+00  0.00000000000E+00 -0.12468843900E+04  0.12468843900E+04  0.25500000920E-02 0. -1.
    10030    2    1    2    0    0  0.00000000000E+00  0.00000000000E+00  0.58855634708E+03  0.30823251270E+04  0.30256122711E+04 0.  0.
        4    1    3    3  502    0 -0.63789518182E+03 -0.13259666610E+04  0.65226632892E+03  0.16095188181E+04  0.12699999809E+01 0. -1.
       -4    1    3    3    0  502  0.63789518182E+03  0.13259666610E+04 -0.63709981838E+02  0.14728063089E+04  0.12699999809E+01 0.  1.
</event>
<event>
 5   0  0.1091076E-06  0.2696042E+04  0.7818609E-02  0.8336290E-01
       -1   -1    0    0    0  501  0.00000000000E+00  0.00000000000E+00  0.68963836805E+03  0.68963836807E+03  0.50400001928E-02 0. -1.
        1   -1    0    0  501    0  0.00000000000E+00  0.00000000000E+00 -0.26349470769E+04  0.26349470769E+04  0.50400001928E-02 0.  1.
    10030    2    1    2    0    0  0.00000000000E+00  0.00000000000E+00 -0.19453087089E+04  0.33245854450E+04  0.26960419893E+04 0.  0.
        3    1    3    3  502    0  0.20528017978E+02 -0.48767630450E+03  0.57683884526E+03  0.75564055019E+03  0.10100000352E+00 0. -1.
       -3    1    3    3    0  502 -0.20528017978E+02  0.48767630450E+03 -0.25221475541E+04  0.25689448948E+04  0.10100000352E+00 0.  1.
</event>
<event>
 5   0  0.2985941E-06  0.3007786E+04  0.7818609E-02  0.8241511E-01
        2   -1    0    0  501    0  0.00000000000E+00  0.00000000000E+00  0.17482804840E+04  0.17482804840E+04  0.25500000920E-02 0.  1.
       -2   -1    0    0    0  501  0.00000000000E+00  0.00000000000E+00 -0.12936680493E+04  0.12936680493E+04  0.25500000920E-02 0. -1.
    10030    2    1    2    0    0  0.00000000000E+00  0.00000000000E+00  0.45461243476E+03  0.30419485333E+04  0.30077862979E+04 0.  0.
        3    1    3    3  502    0 -0.71459075885E+03 -0.21708850637E+03  0.15474778785E+04  0.17182709818E+04  0.10100000352E+00 0.  1.
       -3    1    3    3    0  502  0.71459075885E+03  0.21708850637E+03 -0.10928654437E+04  0.13236775516E+04  0.10100000352E+00 0. -1.
</event>
<event>
 5   0  0.1097402E-06  0.2984313E+04  0.7818609E-02  0.8248225E-01
       -1   -1    0    0    0  501  0.00000000000E+00  0.00000000000E+00  0.11222148065E+04  0.11222148065E+04  0.50400001928E-02 0. -1.
        1   -1    0    0  501    0  0.00000000000E+00  0.00000000000E+00 -0.19840509912E+04  0.19840509912E+04  0.50400001928E-02 0.  1.
    10030    2    1    2    0    0  0.00000000000E+00  0.00000000000E+00 -0.86183618471E+03  0.31062657976E+04  0.29843132537E+04 0.  0.
        4    1    3    3  502    0  0.13380826460E+04  0.52925472379E+03 -0.84196609674E+03  0.16671785301E+04  0.12699999809E+01 0.  1.
       -4    1    3    3    0  502 -0.13380826460E+04 -0.52925472379E+03 -0.19870087971E+02  0.14390872675E+04  0.12699999809E+01 0. -1.
</event>
<event>
 5   0  0.3113328E-06  0.3004714E+04  0.7818609E-02  0.8242386E-01
        2   -1    0    0  501    0  0.00000000000E+00  0.00000000000E+00  0.19239914628E+04  0.19239914628E+04  0.25500000920E-02 0.  1.
       -2   -1    0    0    0  501  0.00000000000E+00  0.00000000000E+00 -0.11731222185E+04  0.11731222185E+04  0.25500000920E-02 0. -1.
    10030    2    1    2    0    0  0.00000000000E+00  0.00000000000E+00  0.75086924426E+03  0.30971136814E+04  0.30047143846E+04 0.  0.
        1    1    3    3  502    0 -0.74698834840E+01 -0.14694079540E+04  0.52986312855E+02  0.14703819517E+04  0.50400001928E-02 0. -1.
       -1    1    3    3    0  502  0.74698834840E+01  0.14694079540E+04  0.69788293141E+03  0.16267317297E+04  0.50400001928E-02 0.  1.
</event>
<event>
 5   0  0.1113245E-06  0.2995067E+04  0.7818609E-02  0.8245141E-01
       -1   -1    0    0    0  501  0.00000000000E+00  0.00000000000E+00  0.91934610219E+03  0.91934610221E+03  0.50400001928E-02 0. -1.
        1   -1    0    0  501    0  0.00000000000E+00  0.00000000000E+00 -0.24393496058E+04  0.24393496058E+04  0.50400001928E-02 0.  1.
    10030    2    1    2    0    0  0.00000000000E+00  0.00000000000E+00 -0.15200035036E+04  0.33586957080E+04  0.29950669789E+04 0.  0.
        5    1    3    3  502    0  0.53436748917E+03  0.23298106677E+03  0.78687471637E+03  0.97929704391E+03  0.46999998093E+01 0. -1.
       -5    1    3    3    0  502 -0.53436748917E+03 -0.23298106677E+03 -0.23068782200E+04  0.23793986641E+04  0.46999998093E+01 0.  1.
</event>
<event>
 5   0  0.1097402E-06  0.3005099E+04  0.7818609E-02  0.8242276E-01
        1   -1    0    0  501    0  0.00000000000E+00  0.00000000000E+00  0.11363652687E+04  0.11363652687E+04  0.50400001928E-02 0.  1.
       -1   -1    0    0    0  501  0.00000000000E+00  0.00000000000E+00 -0.19867329230E+04  0.19867329230E+04  0.50400001928E-02 0. -1.
    10030    2    1    2    0    0  0.00000000000E+00  0.00000000000E+00 -0.85036765423E+03  0.31230981917E+04  0.30050985288E+04 0.  0.
        4    1    3    3  502    0  0.22573368217E+03 -0.14829797762E+04 -0.51499453489E+03  0.15860030567E+04  0.12699999809E+01 0.  1.
       -4    1    3    3    0  502 -0.22573368217E+03  0.14829797762E+04 -0.33537311934E+03  0.15370951350E+04  0.12699999809E+01 0. -1.
</event>
<event>
 5   0  0.2985941E-06  0.2993855E+04  0.7818609E-02  0.8245488E-01
        2   -1    0    0  501    0  0.00000000000E+00  0.00000000000E+00  0.21170027986E+04  0.21170027986E+04  0.25500000920E-02 0.  1.
       -2   -1    0    0    0  501  0.00000000000E+00  0.00000000000E+00 -0.10584735812E+04  0.10584735812E+04  0.25500000920E-02 0. -1.
    10030    2    1    2    0    0  0.00000000000E+00  0.00000000000E+00  0.10585292174E+04  0.31754763797E+04  0.29938547283E+04 0.  0.
        3    1    3    3  502    0 -0.11991959091E+03  0.75890135701E+03  0.18919112081E+04  0.20419696393E+04  0.10100000352E+00 0.  1.
       -3    1    3    3    0  502  0.11991959091E+03 -0.75890135701E+03 -0.83338199075E+03  0.11335067405E+04  0.10100000352E+00 0. -1.
</event>
<event>
 5   0  0.1113245E-06  0.2967256E+04  0.7818609E-02  0.8253143E-01
        1   -1    0    0  501    0  0.00000000000E+00  0.00000000000E+00  0.18123751688E+04  0.18123751688E+04  0.50400001928E-02 0.  1.
       -1   -1    0    0    0  501  0.00000000000E+00  0.00000000000E+00 -0.12145126737E+04  0.12145126737E+04  0.50400001928E-02 0. -1.
    10030    2    1    2    0    0  0.00000000000E+00  0.00000000000E+00  0.59786249518E+03  0.30268878425E+04  0.29672563839E+04 0.  0.
        5    1    3    3  502    0  0.18922958234E+03  0.21126887161E+03  0.17844552081E+04  0.18068604956E+04  0.46999998093E+01 0.  1.
       -5    1    3    3    0  502 -0.18922958234E+03 -0.21126887161E+03 -0.11865927129E+04  0.12200273469E+04  0.46999998093E+01 0. -1.
</event>
<event>
 5   0  0.1091076E-06  0.2994725E+04  0.7818609E-02  0.8245239E-01
       -1   -1    0    0    0  501  0.00000000000E+00  0.00000000000E+00  0.84614429679E+03  0.84614429680E+03  0.50400001928E-02 0.  1.
        1   -1    0    0  501    0  0.00000000000E+00  0.00000000000E+00 -0.26497770661E+04  0.26497770661E+04  0.50400001928E-02 0. -1.
    10030    2    1    2    0    0  0.00000000000E+00  0.00000000000E+00 -0.18036327693E+04  0.34959213629E+04  0.29947245297E+04 0.  0.
        3    1    3    3  502    0 -0.11687044741E+04 -0.87587358359E+03 -0.51628870894E+03  0.15490573661E+04  0.10100000352E+00 0. -1.
       -3    1    3    3    0  502  0.11687044741E+04  0.87587358359E+03 -0.12873440603E+04  0.19468639968E+04  0.10100000352E+00 0.  1.
</event>
<event>
 5   0  0.1054384E-06  0.2906103E+04  0.7818609E-02  0.8271064E-01
        1   -1    0    0  501    0  0.00000000000E+00  0.00000000000E+00  0.11352063893E+04  0.11352063893E+04  0.50400001928E-02 0.  1.
       -1   -1    0    0    0  501  0.00000000000E+00  0.00000000000E+00 -0.18598898545E+04  0.18598898545E+04  0.50400001928E-02 0. -1.
    10030    2    1    2    0    0  0.00000000000E+00  0.00000000000E+00 -0.72468346519E+03  0.29950962438E+04  0.29061031270E+04 0.  0.
        2    1    3    3  502    0 -0.19608305251E+03  0.50178553620E+03  0.10284728273E+04  0.11610312848E+04  0.25500000920E-02 0.  1.
       -2    1    3    3    0  502  0.19608305251E+03 -0.50178553620E+03 -0.17531562925E+04  0.18340649590E+04  0.25500000920E-02 0. -1.
</event>
<event>
 5   0  0.2862033E-06  0.3012352E+04  0.7818609E-02  0.8240213E-01
        2   -1    0    0  501    0  0.00000000000E+00  0.00000000000E+00  0.10756006587E+04  0.10756006587E+04  0.25500000920E-02 0. -1.
       -2   -1    0    0    0  501  0.00000000000E+00  0.00000000000E+00 -0.21091151724E+04  0.21091151724E+04  0.25500000920E-02 0.  1.
    10030    2    1    2    0    0  0.00000000000E+00  0.00000000000E+00 -0.10335145137E+04  0.31847158311E+04  0.30123516851E+04 0.  0.
        2    1    3    3  502    0 -0.11198277274E+04 -0.89479219067E+03 -0.27802306289E+02  0.14336806380E+04  0.25500000920E-02 0. -1.
       -2    1    3    3    0  502  0.11198277274E+04  0.89479219067E+03 -0.10057122074E+04  0.17510351932E+04  0.25500000920E-02 0.  1.
</event>
<event>
 5   0  0.1054384E-06  0.3030892E+04  0.7818609E-02  0.8234964E-01
       -1   -1    0    0    0  501  0.00000000000E+00  0.00000000000E+00  0.15267070643E+04  0.15267070643E+04  0.50400001928E-02 0. -1.
        1   -1    0    0  501    0  0.00000000000E+00  0.00000000000E+00 -0.15042675135E+04  0.15042675135E+04  0.50400001928E-02 0.  1.
    10030    2    1    2    0    0  0.00000000000E+00  0.00000000000E+00  0.22439550781E+02  0.30309745778E+04  0.30308915121E+04 0.  0.
        2    1    3    3  502    0  0.11149787725E+03 -0.58609767086E+03 -0.13818846557E+04  0.15051735641E+04  0.25500000920E-02 0.  1.
       -2    1    3    3    0  502 -0.11149787725E+03  0.58609767086E+03  0.14043242065E+04  0.15258010137E+04  0.25500000920E-02 0. -1.
</event>
<event>
 5   0  0.1054384E-06  0.3004682E+04  0.7818609E-02  0.8242395E-01
       -1   -1    0    0    0  501  0.00000000000E+00  0.00000000000E+00  0.14044057709E+04  0.14044057709E+04  0.50400001928E-02 0.  1.
        1   -1    0    0  501    0  0.00000000000E+00  0.00000000000E+00 -0.16071053478E+04  0.16071053478E+04  0.50400001928E-02 0. -1.
    10030    2    1    2    0    0  0.00000000000E+00  0.00000000000E+00 -0.20269957691E+03  0.30115111187E+04  0.30046816969E+04 0.  0.
        2    1    3    3  502    0  0.10014498289E+04  0.11120076535E+04  0.31485385141E+02  0.14968146548E+04  0.25500000920E-02 0. -1.
       -2    1    3    3    0  502 -0.10014498289E+04 -0.11120076535E+04 -0.23418496205E+03  0.15146964639E+04  0.25500000920E-02 0.  1.
</event>
<event>
 5   0  0.1091076E-06  0.3000387E+04  0.7818609E-02  0.8243620E-01
        1   -1    0    0  501    0  0.00000000000E+00  0.00000000000E+00  0.15044830135E+04  0.15044830135E+04  0.50400001928E-02 0. -1.
       -1   -1    0    0    0  501  0.00000000000E+00  0.00000000000E+00 -0.14959159153E+04  0.14959159153E+04  0.50400001928E-02 0.  1.
    10030    2    1    2    0    0  0.00000000000E+00  0.00000000000E+00  0.85670981771E+01  0.30003989288E+04  0.30003866979E+04 0.  0.
        3    1    3    3  502    0  0.10237842096E+04 -0.94039756251E+03 -0.55972086932E+03  0.14985890515E+04  0.10100000352E+00 0.  1.
       -3    1    3    3    0  502 -0.10237842096E+04  0.94039756251E+03  0.56828796749E+03  0.15018098773E+04  0.10100000352E+00 0. -1.
</event>
<event>
 5   0  0.3113328E-06  0.3008618E+04  0.7818609E-02  0.8241274E-01
        2   -1    0    0  501    0  0.00000000000E+00  0.00000000000E+00  0.13012544542E+04  0.13012544542E+04  0.25500000920E-02 0.  1.
       -2   -1    0    0    0  501  0.00000000000E+00  0.00000000000E+00 -0.17390493253E+04  0.17390493253E+04  0.25500000920E-02 0. -1.
    10030    2    1    2    0    0  0.00000000000E+00  0.00000000000E+00 -0.43779487113E+03  0.30403037796E+04  0.30086180753E+04 0.  0.
        1    1    3    3  502    0  0.13210878004E+04 -0.45558096686E+03 -0.78164534119E+03  0.16011859458E+04  0.50400001928E-02 0. -1.
       -1    1    3    3    0  502 -0.13210878004E+04  0.45558096686E+03  0.34385047006E+03  0.14391178337E+04  0.50400001928E-02 0.  1.
</event>
<event>
 5   0  0.2970915E-06  0.2998200E+04  0.7818609E-02  0.8244245E-01
       -2   -1    0    0    0  501  0.00000000000E+00  0.00000000000E+00  0.88561201021E+03  0.88561201021E+03  0.25500000920E-02 0. -1.
        2   -1    0    0  501    0  0.00000000000E+00  0.00000000000E+00 -0.25375689459E+04  0.25375689459E+04  0.25500000920E-02 0.  1.
    10030    2    1    2    0    0  0.00000000000E+00  0.00000000000E+00 -0.16519569357E+04  0.34231809562E+04  0.29982004838E+04 0.  0.
        4    1    3    3  502    0  0.57830714075E+03  0.85528205571E+03  0.41498529900E+03  0.11127268107E+04  0.12699999809E+01 0. -1.
       -4    1    3    3    0  502 -0.57830714075E+03 -0.85528205571E+03 -0.20669422347E+04  0.23104541455E+04  0.12699999809E+01 0.  1.
</event>
<event>
 5   0  0.1091075E-06  0.2975966E+04  0.7818609E-02  0.8250627E-01
        1   -1    0    0  501    0  0.00000000000E+00  0.00000000000E+00  0.27043191918E+04  0.27043191918E+04  0.50400001928E-02 0.  1.
       -1   -1    0    0    0  501  0.00000000000E+00  0.00000000000E+00 -0.81872511632E+03  0.81872511634E+03  0.50400001928E-02 0. -1.
    10030    2    1    2    0    0  0.00000000000E+00  0.00000000000E+00  0.18855940754E+04  0.35230443081E+04  0.29759664278E+04 0.  0.
        1    1    3    3  502    0 -0.92487377386E+03 -0.72134320300E+03 -0.14114745624E+03  0.11813763662E+04  0.50400001928E-02 0. -1.
       -1    1    3    3    0  502  0.92487377386E+03  0.72134320300E+03  0.20267415317E+04  0.23416679420E+04  0.50400001928E-02 0.  1.
</event>
<event>
 5   0  0.3113328E-06  0.3012636E+04  0.7818609E-02  0.8240132E-01
        2   -1    0    0  501    0  0.00000000000E+00  0.00000000000E+00  0.11670999195E+04  0.11670999195E+04  0.25500000920E-02 0.  1.
       -2   -1    0    0    0  501  0.00000000000E+00  0.00000000000E+00 -0.19441301508E+04  0.19441301508E+04  0.25500000920E-02 0. -1.
    10030    2    1    2    0    0  0.00000000000E+00  0.00000000000E+00 -0.77703023127E+03  0.31112300703E+04  0.30126361496E+04 0.  0.
        1    1    3    3  502    0  0.64260267423E+03 -0.42954800665E+03 -0.17237092331E+04  0.18890799897E+04  0.50400001928E-02 0. -1.
       -1    1    3    3    0  502 -0.64260267423E+03  0.42954800665E+03  0.94667900186E+03  0.12221500806E+04  0.50400001928E-02 0.  1.
</event>
<event>
 5   0  0.2970915E-06  0.3143284E+04  0.7818609E-02  0.8203958E-01
       -2   -1    0    0    0  501  0.00000000000E+00  0.00000000000E+00  0.11456597117E+04  0.11456597117E+04  0.25500000920E-02 0. -1.
        2   -1    0    0  501    0  0.00000000000E+00  0.00000000000E+00 -0.21560146304E+04  0.21560146304E+04  0.25500000920E-02 0.  1.
    10030    2    1    2    0    0  0.00000000000E+00  0.00000000000E+00 -0.10103549188E+04  0.33016743421E+04  0.31432843332E+04 0.  0.
        4    1    3    3  502    0  0.81319432160E+02 -0.15143845194E+04 -0.93837153362E+03  0.17834001431E+04  0.12699999809E+01 0. -1.
       -4    1    3    3    0  502 -0.81319432160E+02  0.15143845194E+04 -0.71983385134E+02  0.15182741989E+04  0.12699999809E+01 0.  1.
</event>
<event>
 5   0  0.2948711E-06  0.2988117E+04  0.7818609E-02  0.8247132E-01
       -2   -1    0    0    0  501  0.00000000000E+00  0.00000000000E+00  0.12027474759E+04  0.12027474759E+04  0.25500000920E-02 0. -1.
        2   -1    0    0  501    0  0.00000000000E+00  0.00000000000E+00 -0.18559267362E+04  0.18559267362E+04  0.25500000920E-02 0.  1.
    10030    2    1    2    0    0  0.00000000000E+00  0.00000000000E+00 -0.65317926027E+03  0.30586742121E+04  0.29881172651E+04 0.  0.
        5    1    3    3  502    0 -0.23645209092E+03 -0.11701055134E+04  0.59302957007E+03  0.13329526116E+04  0.46999998093E+01 0.  1.
       -5    1    3    3    0  502  0.23645209092E+03  0.11701055134E+04 -0.12462088303E+04  0.17257216005E+04  0.46999998093E+01 0. -1.
</event>
<event>
 5   0  0.3113328E-06  0.2986343E+04  0.7818609E-02  0.8247641E-01
       -2   -1    0    0    0  501  0.00000000000E+00  0.00000000000E+00  0.96144836606E+03  0.96144836606E+03  0.25500000920E-02 0. -1.
        2   -1    0    0  501    0  0.00000000000E+00  0.00000000000E+00 -0.23189611613E+04  0.23189611613E+04  0.25500000920E-02 0.  1.
    10030    2    1    2    0    0  0.00000000000E+00  0.00000000000E+00 -0.13575127952E+04  0.32804095273E+04  0.29863431949E+04 0.  0.
        1    1    3    3  502    0 -0.45542634693E+03  0.13759380459E+04 -0.10732017310E+04  0.18034357818E+04  0.50400001928E-02 0.  1.
       -1    1    3    3    0  502  0.45542634693E+03 -0.13759380459E+04 -0.28431106419E+03  0.14769737455E+04  0.50400001928E-02 0. -1.
</event>
<event>
 5   0  0.2948711E-06  0.2878332E+04  0.7818609E-02  0.8279354E-01
        2   -1    0    0  501    0  0.00000000000E+00  0.00000000000E+00  0.15956423860E+04  0.15956423860E+04  0.25500000920E-02 0.  1.
       -2   -1    0    0    0  501  0.00000000000E+00  0.00000000000E+00 -0.12980344807E+04  0.12980344807E+04  0.25500000920E-02 0. -1.
    10030    2    1    2    0    0  0.00000000000E+00  0.00000000000E+00  0.29760790522E+03  0.28936768667E+04  0.28783320419E+04 0.  0.
        5    1    3    3  502    0 -0.55667534348E+03  0.71812121454E+03 -0.97320652053E+03  0.13314422775E+04  0.46999998093E+01 0. -1.
       -5    1    3    3    0  502  0.55667534348E+03 -0.71812121454E+03  0.12708144258E+04  0.15622345891E+04  0.46999998093E+01 0.  1.
</event>
<event>
 5   0  0.3113328E-06  0.3006373E+04  0.7818609E-02  0.8241913E-01
       -2   -1    0    0    0  501  0.00000000000E+00  0.00000000000E+00  0.13324108902E+04  0.13324108902E+04  0.25500000920E-02 0.  1.
        2   -1    0    0  501    0  0.00000000000E+00  0.00000000000E+00 -0.16958507809E+04  0.16958507809E+04  0.25500000920E-02 0. -1.
    10030    2    1    2    0    0  0.00000000000E+00  0.00000000000E+00 -0.36343989066E+03  0.30282616711E+04  0.30063732626E+04 0.  0.
        1    1    3    3  502    0 -0.11754081661E+04 -0.31252618138E+03  0.70806477183E+03  0.14073424218E+04  0.50400001928E-02 0.  1.
       -1    1    3    3    0  502  0.11754081661E+04  0.31252618138E+03 -0.10715046625E+04  0.16209192493E+04  0.50400001928E-02 0. -1.
</event>
<event>
 5   0  0.1097402E-06  0.3032336E+04  0.7818609E-02  0.8234557E-01
        1   -1    0    0  501    0  0.00000000000E+00  0.00000000000E+00  0.12629524647E+04  0.12629524648E+04  0.50400001928E-02 0. -1.
       -1   -1    0    0    0  501  0.00000000000E+00  0.00000000000E+00 -0.18201521853E+04  0.18201521853E+04  0.50400001928E-02 0.  1.
    10030    2    1    2    0    0  0.00000000000E+00  0.00000000000E+00 -0.55719972056E+03  0.30831046501E+04  0.30323361876E+04 0.  0.
        4    1    3    3  502    0  0.10802969152E+04 -0.41872231926E+02  0.80219744332E+03  0.13462232578E+04  0.12699999809E+01 0. -1.
       -4    1    3    3    0  502 -0.10802969152E+04  0.41872231926E+02 -0.13593971639E+04  0.17368813923E+04  0.12699999809E+01 0.  1.
</event>
<event>
 5   0  0.1091076E-06  0.2856328E+04  0.7818609E-02  0.8285991E-01
       -1   -1    0    0    0  501  0.00000000000E+00  0.00000000000E+00  0.10651951310E+04  0.10651951310E+04  0.50400001928E-02 0. -1.
        1   -1    0    0  501    0  0.00000000000E+00  0.00000000000E+00 -0.19148160220E+04  0.19148160220E+04  0.50400001928E-02 0.  1.
    10030    2    1    2    0    0  0.00000000000E+00  0.00000000000E+00 -0.84962089106E+03  0.29800111530E+04  0.28563282048E+04 0.  0.
        3    1    3    3  502    0 -0.43638902659E+03  0.10419498074E+04  0.48684508572E+03  0.12300865544E+04  0.10100000352E+00 0. -1.
       -3    1    3    3    0  502  0.43638902659E+03 -0.10419498074E+04 -0.13364659768E+04  0.17499245986E+04  0.10100000352E+00 0.  1.
</event>
<event>
 5   0  0.3113328E-06  0.3000679E+04  0.7818609E-02  0.8243537E-01
        2   -1    0    0  501    0  0.00000000000E+00  0.00000000000E+00  0.25010906262E+04  0.25010906262E+04  0.25500000920E-02 0.  1.
       -2   -1    0    0    0  501  0.00000000000E+00  0.00000000000E+00 -0.90001472669E+03  0.90001472669E+03  0.25500000920E-02 0. -1.
    10030    2    1    2    0    0  0.00000000000E+00  0.00000000000E+00  0.16010758995E+04  0.34011053529E+04  0.30006788541E+04 0.  0.
        1    1    3    3  502    0  0.32052556166E+03 -0.10437795396E+04 -0.36575800892E+03  0.11515169491E+04  0.50400001928E-02 0. -1.
       -1    1    3    3    0  502 -0.32052556166E+03  0.10437795396E+04  0.19668339085E+04  0.22495884038E+04  0.50400001928E-02 0.  1.
</event>
<event>
 5   0  0.1054384E-06  0.3001121E+04  0.7818609E-02  0.8243411E-01
        1   -1    0    0  501    0  0.00000000000E+00  0.00000000000E+00  0.16550774853E+04  0.16550774853E+04  0.50400001928E-02 0.  1.
       -1   -1    0    0    0  501  0.00000000000E+00  0.00000000000E+00 -0.13604694022E+04  0.13604694022E+04  0.50400001928E-02 0. -1.
    10030    2    1    2    0    0  0.00000000000E+00  0.00000000000E+00  0.29460808307E+03  0.30155468875E+04  0.30011213084E+04 0.  0.
        2    1    3    3  502    0  0.70453376885E+03  0.13187909210E+04  0.27481932919E+03  0.15202312286E+04  0.25500000920E-02 0.  1.
       -2    1    3    3    0  502 -0.70453376885E+03 -0.13187909210E+04  0.19788753876E+02  0.14953156588E+04  0.25500000920E-02 0. -1.
</event>
<event>
 5   0  0.2862033E-06  0.2956376E+04  0.7818609E-02  0.8256299E-01
       -2   -1    0    0    0  501  0.00000000000E+00  0.00000000000E+00  0.18221235820E+04  0.18221235820E+04  0.25500000920E-02 0. -1.
        2   -1    0    0  501    0  0.00000000000E+00  0.00000000000E+00 -0.11991717077E+04  0.11991717077E+04  0.25500000920E-02 0.  1.
    10030    2    1    2    0    0  0.00000000000E+00  0.00000000000E+00  0.62295187426E+03  0.30212952897E+04  0.29563755157E+04 0.  0.
        2    1    3    3  502    0  0.47060246335E+03  0.18092727755E+03 -0.11085832979E+04  0.12178498621E+04  0.25500000920E-02 0.  1.
       -2    1    3    3    0  502 -0.47060246335E+03 -0.18092727755E+03  0.17315351721E+04  0.18034454277E+04  0.25500000920E-02 0. -1.
</event>
<event>
 5   0  0.1097402E-06  0.3016871E+04  0.7818609E-02  0.8238930E-01
        1   -1    0    0  501    0  0.00000000000E+00  0.00000000000E+00  0.16351045986E+04  0.16351045986E+04  0.50400001928E-02 0.  1.
       -1   -1    0    0    0  501  0.00000000000E+00  0.00000000000E+00 -0.13915793110E+04  0.13915793110E+04  0.50400001928E-02 0. -1.
    10030    2    1    2    0    0  0.00000000000E+00  0.00000000000E+00  0.24352528754E+03  0.30266839096E+04  0.30168710484E+04 0.  0.
        4    1    3    3  502    0 -0.86902179322E+02 -0.14105340780E+04  0.65094180424E+03  0.15559194129E+04  0.12699999809E+01 0.  1.
       -4    1    3    3    0  502  0.86902179322E+02  0.14105340780E+04 -0.40741651670E+03  0.14707644967E+04  0.12699999809E+01 0. -1.
</event>
<event>
 5   0  0.2948711E-06  0.3002283E+04  0.7818609E-02  0.8243079E-01
        2   -1    0    0  501    0  0.00000000000E+00  0.00000000000E+00  0.32900669398E+04  0.32900669398E+04  0.25500000920E-02 0.  1.
       -2   -1    0    0    0  501  0.00000000000E+00  0.00000000000E+00 -0.68491805658E+03  0.68491805659E+03  0.25500000920E-02 0. -1.
    10030    2    1    2    0    0  0.00000000000E+00  0.00000000000E+00  0.26051488832E+04  0.39749849964E+04  0.30022833007E+04 0.  0.
        5    1    3    3  502    0  0.50023718829E+03  0.14029857114E+04  0.15495540228E+04  0.21493594187E+04  0.46999998093E+01 0.  1.
       -5    1    3    3    0  502 -0.50023718829E+03 -0.14029857114E+04  0.10555948604E+04  0.18256255777E+04  0.46999998093E+01 0. -1.
</event>
<event>
 5   0  0.1091075E-06  0.2993067E+04  0.7818609E-02  0.8245713E-01
       -1   -1    0    0    0  501  0.00000000000E+00  0.00000000000E+00  0.11833093363E+04  0.11833093363E+04  0.50400001928E-02 0.  1.
        1   -1    0    0  501    0  0.00000000000E+00  0.00000000000E+00 -0.18926688716E+04  0.18926688716E+04  0.50400001928E-02 0. -1.
    10030    2    1    2    0    0  0.00000000000E+00  0.00000000000E+00 -0.70935953529E+03  0.30759782080E+04  0.29930671535E+04 0.  0.
        1    1    3    3  502    0  0.73740594087E+03 -0.30811229232E+03  0.94564108993E+03  0.12381186443E+04  0.50400001928E-02 0.  1.
       -1    1    3    3    0  502 -0.73740594087E+03  0.30811229232E+03 -0.16550006252E+04  0.18378595637E+04  0.50400001928E-02 0. -1.
</event>
<event>
 5   0  0.3113328E-06  0.2976542E+04  0.7818609E-02  0.8250461E-01
        2   -1    0    0  501    0  0.00000000000E+00  0.00000000000E+00  0.14011771386E+04  0.14011771386E+04  0.25500000920E-02 0. -1.
       -2   -1    0    0    0  501  0.00000000000E+00  0.00000000000E+00 -0.15807786327E+04  0.15807786327E+04  0.25500000920E-02 0.  1.
    10030    2    1    2    0    0  0.00000000000E+00  0.00000000000E+00 -0.17960149407E+03  0.29819557713E+04  0.29765422096E+04 0.  0.
        1    1    3    3  502    0  0.76544260633E+03  0.14376586070E+03  0.11807249909E+04  0.14144548456E+04  0.50400001928E-02 0. -1.
       -1    1    3    3    0  502 -0.76544260633E+03 -0.14376586070E+03 -0.13603264849E+04  0.15675009256E+04  0.50400001928E-02 0.  1.
</event>
<event>
 5   0  0.1054384E-06  0.3005741E+04  0.7818609E-02  0.8242093E-01
       -1   -1    0    0    0  501  0.00000000000E+00  0.00000000000E+00  0.21155327005E+04  0.21155327005E+04  0.50400001928E-02 0.  1.
        1   -1    0    0  501    0  0.00000000000E+00  0.00000000000E+00 -0.10676367111E+04  0.10676367112E+04  0.50400001928E-02 0. -1.
    10030    2    1    2    0    0  0.00000000000E+00  0.00000000000E+00  0.10478959893E+04  0.31831694116E+04  0.30057414225E+04 0.  0.
        2    1    3    3  502    0 -0.45664107490E+03  0.28090400421E+03  0.20108167220E+04  0.20810603116E+04  0.25500000920E-02 0.  1.
       -2    1    3    3    0  502  0.45664107490E+03 -0.28090400421E+03 -0.96292073271E+03  0.11021091000E+04  0.25500000920E-02 0. -1.
</event>
<event>
 5   0  0.1054384E-06  0.3005252E+04  0.7818609E-02  0.8242233E-01
       -1   -1    0    0    0  501  0.00000000000E+00  0.00000000000E+00  0.14361921924E+04  0.14361921924E+04  0.50400001928E-02 0.  1.
        1   -1    0    0  501    0  0.00000000000E+00  0.00000000000E+00 -0.15721332079E+04  0.15721332079E+04  0.50400001928E-02 0. -1.
    10030    2    1    2    0    0  0.00000000000E+00  0.00000000000E+00 -0.13594101550E+03  0.30083254003E+04  0.30052523611E+04 0.  0.
        2    1    3    3  502    0  0.15234384295E+03 -0.14779154743E+03 -0.15570515193E+04  0.15714516925E+04  0.25500000920E-02 0. -1.
       -2    1    3    3    0  502 -0.15234384295E+03  0.14779154743E+03  0.14211105038E+04  0.14368737078E+04  0.25500000920E-02 0.  1.
</event>
<event>
 5   0  0.1113245E-06  0.3054225E+04  0.7818609E-02  0.8228414E-01
        1   -1    0    0  501    0  0.00000000000E+00  0.00000000000E+00  0.19784850901E+04  0.19784850901E+04  0.50400001928E-02 0.  1.
       -1   -1    0    0    0  501  0.00000000000E+00  0.00000000000E+00 -0.11787162793E+04  0.11787162793E+04  0.50400001928E-02 0. -1.
    10030    2    1    2    0    0  0.00000000000E+00  0.00000000000E+00  0.79976881081E+03  0.31572013694E+04  0.30542249976E+04 0.  0.
        5    1    3    3  502    0 -0.77338156713E+03  0.62520004715E+03 -0.79809229606E+03  0.12751343264E+04  0.46999998093E+01 0. -1.
       -5    1    3    3    0  502  0.77338156713E+03 -0.62520004715E+03  0.15978611069E+04  0.18820670430E+04  0.46999998093E+01 0.  1.
</event>
<event>
 5   0  0.1113245E-06  0.2995958E+04  0.7818609E-02  0.8244886E-01
       -1   -1    0    0    0  501  0.00000000000E+00  0.00000000000E+00  0.85866665588E+03  0.85866665589E+03  0.50400001928E-02 0.  1.
        1   -1    0    0  501    0  0.00000000000E+00  0.00000000000E+00 -0.26132857920E+04  0.26132857920E+04  0.50400001928E-02 0. -1.
    10030    2    1    2    0    0  0.00000000000E+00  0.00000000000E+00 -0.17546191361E+04  0.34719524479E+04  0.29959581919E+04 0.  0.
        5    1    3    3  502    0  0.45186157471E+03  0.33331584459E+03  0.73208937348E+03  0.92263496341E+03  0.46999998093E+01 0.  1.
       -5    1    3    3    0  502 -0.45186157471E+03 -0.33331584459E+03 -0.24867085096E+04  0.25493174845E+04  0.46999998093E+01 0. -1.
</event>
<event>
 5   0  0.1097402E-06  0.3001661E+04  0.7818609E-02  0.8243257E-01
       -1   -1    0    0    0  501  0.00000000000E+00  0.00000000000E+00  0.13645587611E+04  0.13645587611E+04  0.50400001928E-02 0. -1.
        1   -1    0    0  501    0  0.00000000000E+00  0.00000000000E+00 -0.16507114296E+04  0.16507114296E+04  0.50400001928E-02 0.  1.
    10030    2    1    2    0    0  0.00000000000E+00  0.00000000000E+00 -0.28615266851E+03  0.30152701906E+04  0.30016613688E+04 0.  0.
        4    1    3    3  502    0  0.64939416357E+03  0.11728316977E+04  0.53470051364E+03  0.14433132796E+04  0.12699999809E+01 0. -1.
       -4    1    3    3    0  502 -0.64939416357E+03 -0.11728316977E+04 -0.82085318215E+03  0.15719569111E+04  0.12699999809E+01 0.  1.
</event>
<event>
 5   0  0.2970915E-06  0.2999135E+04  0.7818609E-02  0.8243978E-01
        2   -1    0    0  501    0  0.00000000000E+00  0.00000000000E+00  0.20812113064E+04  0.20812113064E+04  0.25500000920E-02 0. -1.
       -2   -1    0    0    0  501  0.00000000000E+00  0.00000000000E+00 -0.10804781209E+04  0.10804781209E+04  0.25500000920E-02 0.  1.
    10030    2    1    2    0    0  0.00000000000E+00  0.00000000000E+00  0.10007331855E+04  0.31616894273E+04  0.29991353965E+04 0.  0.
        4    1    3    3  502    0 -0.42937811725E+03  0.55431028467E+03 -0.89702598996E+03  0.11385441137E+04  0.12699999809E+01 0.  1.
       -4    1    3    3    0  502  0.42937811725E+03 -0.55431028467E+03  0.18977591754E+04  0.20231453136E+04  0.12699999809E+01 0. -1.
</event>
<event>
 5   0  0.3113328E-06  0.2941741E+04  0.7818609E-02  0.8260565E-01
        2   -1    0    0  501    0  0.00000000000E+00  0.00000000000E+00  0.15000447291E+04  0.15000447291E+04  0.25500000920E-02 0. -1.
       -2   -1    0    0    0  501  0.00000000000E+00  0.00000000000E+00 -0.14422640789E+04  0.14422640789E+04  0.25500000920E-02 0.  1.
    10030    2    1    2    0    0  0.00000000000E+00  0.00000000000E+00  0.57780650250E+02  0.29423088080E+04  0.29417414092E+04 0.  0.
        1    1    3    3  502    0  0.50250997600E+03 -0.86086298109E+03  0.11106992761E+04  0.14923988174E+04  0.50400001928E-02 0. -1.
       -1    1    3    3    0  502 -0.50250997600E+03  0.86086298109E+03 -0.10529186259E+04  0.14499099906E+04  0.50400001928E-02 0.  1.
</event>
<event>
 5   0  0.2948711E-06  0.3005824E+04  0.7818609E-02  0.8242070E-01
       -2   -1    0    0    0  501  0.00000000000E+00  0.00000000000E+00  0.12264696579E+04  0.12264696579E+04  0.25500000920E-02 0. -1.
        2   -1    0    0  501    0  0.00000000000E+00  0.00000000000E+00 -0.18416638386E+04  0.18416638386E+04  0.25500000920E-02 0.  1.
    10030    2    1    2    0    0  0.00000000000E+00  0.00000000000E+00 -0.61519418072E+03  0.30681334966E+04  0.30058242252E+04 0.  0.
        5    1    3    3  502    0  0.43174632175E+03  0.10718335505E+04  0.67330786989E+03  0.13373846208E+04  0.46999998093E+01 0. -1.
       -5    1    3    3    0  502 -0.43174632175E+03 -0.10718335505E+04 -0.12885020506E+04  0.17307488757E+04  0.46999998093E+01 0.  1.
</event>
<event>
 5   0  0.2862033E-06  0.3003523E+04  0.7818609E-02  0.8242726E-01
       -2   -1    0    0    0  501  0.00000000000E+00  0.00000000000E+00  0.13591811633E+04  0.13591811633E+04  0.25500000920E-02 0.  1.
        2   -1    0    0  501    0  0.00000000000E+00  0.00000000000E+00 -0.16592989731E+04  0.16592989731E+04  0.25500000920E-02 0. -1.
    10030    2    1    2    0    0  0.00000000000E+00  0.00000000000E+00 -0.30011780978E+03  0.30184801365E+04  0.30035232036E+04 0.  0.
        2    1    3    3  502    0 -0.10311111439E+04  0.10381999035E+04 -0.48973416373E+03  0.15430128910E+04  0.25500000920E-02 0. -1.
       -2    1    3    3    0  502  0.10311111439E+04 -0.10381999035E+04  0.18961635395E+03  0.14754672455E+04  0.25500000920E-02 0.  1.
</event>
<event>
 5   0  0.1054384E-06  0.2973597E+04  0.7818609E-02  0.8251311E-01
        1   -1    0    0  501    0  0.00000000000E+00  0.00000000000E+00  0.20463401386E+04  0.20463401386E+04  0.50400001928E-02 0. -1.
       -1   -1    0    0    0  501  0.00000000000E+00  0.00000000000E+00 -0.10802555267E+04  0.10802555267E+04  0.50400001928E-02 0.  1.
    10030    2    1    2    0    0  0.00000000000E+00  0.00000000000E+00  0.96608461189E+03  0.31265956652E+04  0.29735973124E+04 0.  0.
        2    1    3    3  502    0 -0.11667282381E+04  0.65669179298E+02 -0.48349516777E+03  0.12646480934E+04  0.25500000920E-02 0.  1.
       -2    1    3    3    0  502  0.11667282381E+04 -0.65669179298E+02  0.14495797797E+04  0.18619475719E+04  0.25500000920E-02 0. -1.
</event>
<event>
 5   0  0.1091075E-06  0.3001733E+04  0.7818609E-02  0.8243236E-01
       -1   -1    0    0    0  501  0.00000000000E+00  0.00000000000E+00  0.92991861443E+03  0.92991861444E+03  0.50400001928E-02 0. -1.
        1   -1    0    0  501    0  0.00000000000E+00  0.00000000000E+00 -0.24223631213E+04  0.24223631213E+04  0.50400001928E-02 0.  1.
    10030    2    1    2    0    0  0.00000000000E+00  0.00000000000E+00 -0.14924445069E+04  0.33522817357E+04  0.30017332043E+04 0.  0.
        1    1    3    3  502    0 -0.49537021543E+03  0.48542967599E+03 -0.22326616412E+04  0.23379075313E+04  0.50400001928E-02 0.  1.
       -1    1    3    3    0  502  0.49537021543E+03 -0.48542967599E+03  0.74021713434E+03  0.10143742045E+04  0.50400001928E-02 0. -1.
</event>
<event>
 5   0  0.2948711E-06  0.2955257E+04  0.7818609E-02  0.8256624E-01
        2   -1    0    0  501    0  0.00000000000E+00  0.00000000000E+00  0.18404826319E+04  0.18404826319E+04  0.25500000920E-02 0.  1.
       -2   -1    0    0    0  501  0.00000000000E+00  0.00000000000E+00 -0.11863116805E+04  0.11863116805E+04  0.25500000920E-02 0. -1.
    10030    2    1    2    0    0  0.00000000000E+00  0.00000000000E+00  0.65417095144E+03  0.30267943124E+04  0.29552570406E+04 0.  0.
        5    1    3    3  502    0  0.13816044905E+04  0.51355105764E+03  0.43351577527E+03  0.15363995816E+04  0.46999998093E+01 0. -1.
       -5    1    3    3    0  502 -0.13816044905E+04 -0.51355105764E+03  0.22065517617E+03  0.14903947308E+04  0.46999998093E+01 0.  1.
</event>
<event>
 5   0  0.3113328E-06  0.2991500E+04  0.7818609E-02  0.8246162E-01
       -2   -1    0    0    0  501  0.00000000000E+00  0.00000000000E+00  0.13342837528E+04  0.13342837528E+04  0.25500000920E-02 0. -1.
        2   -1    0    0  501    0  0.00000000000E+00  0.00000000000E+00 -0.16767556015E+04  0.16767556015E+04  0.25500000920E-02 0.  1.
    10030    2    1    2    0    0  0.00000000000E+00  0.00000000000E+00 -0.34247184874E+03  0.30110393542E+04  0.29914997954E+04 0.  0.
        1    1    3    3  502    0  0.37992144653E+03  0.39635302052E+03 -0.15716654443E+04  0.16648027785E+04  0.50400001928E-02 0.  1.
       -1    1    3    3    0  502 -0.37992144653E+03 -0.39635302052E+03  0.12291935956E+04  0.13462365757E+04  0.50400001928E-02 0. -1.
</event>
<event>
 5   0  0.1113245E-06  0.3002845E+04  0.7818609E-02  0.8242919E-01
       -1   -1    0    0    0  501  0.00000000000E+00  0.00000000000E+00  0.14932309491E+04  0.14932309491E+04  0.50400001928E-02 0.  1.
        1   -1    0    0  501    0  0.00000000000E+00  0.00000000000E+00 -0.15096594615E+04  0.15096594615E+04  0.50400001928E-02 0. -1.
    10030    2    1    2    0    0  0.00000000000E+00  0.00000000000E+00 -0.16428512385E+02  0.30028904105E+04  0.30028454708E+04 0.  0.
        5    1    3    3  502    0  0.58275314074E+03 -0.67593517295E+03  0.11991805394E+04  0.14948396694E+04  0.46999998093E+01 0.  1.
       -5    1    3    3    0  502 -0.58275314074E+03  0.67593517295E+03 -0.12156090518E+04  0.15080507412E+04  0.46999998093E+01 0. -1.
</event>
<event>
 5   0  0.1091076E-06  0.3038252E+04  0.7818609E-02  0.8232891E-01
       -1   -1    0    0    0  501  0.00000000000E+00  0.00000000000E+00  0.16947937531E+04  0.16947937531E+04  0.50400001928E-02 0. -1.
        1   -1    0    0  501    0  0.00000000000E+00  0.00000000000E+00 -0.13616666956E+04  0.13616666956E+04  0.50400001928E-02 0.  1.
    10030    2    1    2    0    0  0.00000000000E+00  0.00000000000E+00  0.33312705752E+03  0.30564604488E+04  0.30382522671E+04 0.  0.
        3    1    3    3  502    0  0.72751553965E+03  0.12364405029E+04  0.66923822061E+03  0.15830173037E+04  0.10100000352E+00 0. -1.
       -3    1    3    3    0  502 -0.72751553965E+03 -0.12364405029E+04 -0.33611116309E+03  0.14734431451E+04  0.10100000352E+00 0.  1.
</event>
<event>
 5   0  0.2948711E-06  0.2977177E+04  0.7818609E-02  0.8250278E-01
        2   -1    0    0  501    0  0.00000000000E+00  0.00000000000E+00  0.17224930890E+04  0.17224930890E+04  0.25500000920E-02 0. -1.
       -2   -1    0    0    0  501  0.00000000000E+00  0.00000000000E+00 -0.12864466161E+04  0.12864466161E+04  0.25500000920E-02 0.  1.
    10030    2    1    2    0    0  0.00000000000E+00  0.00000000000E+00  0.43604647288E+03  0.30089397051E+04  0.29771767873E+04 0.  0.
        5    1    3    3  502    0 -0.90498307359E+03  0.91358636155E+03  0.97584890405E+03  0.16142916642E+04  0.46999998093E+01 0. -1.
       -5    1    3    3    0  502  0.90498307359E+03 -0.91358636155E+03 -0.53980243117E+03  0.13946480410E+04  0.46999998093E+01 0.  1.
</event>
<event>
 5   0  0.1091076E-06  0.2981301E+04  0.7818609E-02  0.8249091E-01
        1   -1    0    0  501    0  0.00000000000E+00  0.00000000000E+00  0.17867324409E+04  0.17867324409E+04  0.50400001928E-02 0. -1.
       -1   -1    0    0    0  501  0.00000000000E+00  0.00000000000E+00 -0.12436324987E+04  0.12436324987E+04  0.50400001928E-02 0.  1.
    10030    2    1    2    0    0  0.00000000000E+00  0.00000000000E+00  0.54309994214E+03  0.30303649396E+04  0.29813007430E+04 0.  0.
        3    1    3    3  502    0  0.15840551912E+03 -0.11120216971E+04 -0.72455431625E+03  0.13366613373E+04  0.10100000352E+00 0.  1.
       -3    1    3    3    0  502 -0.15840551912E+03  0.11120216971E+04  0.12676542584E+04  0.16937036023E+04  0.10100000352E+00 0. -1.
</event>
<event>
 5   0  0.2948711E-06  0.3007644E+04  0.7818609E-02  0.8241552E-01
        2   -1    0    0  501    0  0.00000000000E+00  0.00000000000E+00  0.16659757666E+04  0.16659757666E+04  0.25500000920E-02 0. -1.
       -2   -1    0    0    0  501  0.00000000000E+00  0.00000000000E+00 -0.13574509110E+04  0.13574509110E+04  0.25500000920E-02 0.  1.
    10030    2    1    2    0    0  0.00000000000E+00  0.00000000000E+00  0.30852485553E+03  0.30234266776E+04  0.30076438101E+04 0.  0.
        5    1    3    3  502    0 -0.52450149474E+03  0.13529782346E+04  0.55105685194E+03  0.15522041314E+04  0.46999998093E+01 0. -1.
       -5    1    3    3    0  502  0.52450149474E+03 -0.13529782346E+04 -0.24253199641E+03  0.14712225463E+04  0.46999998093E+01 0.  1.
</event>
<event>
 5   0  0.1054384E-06  0.3027111E+04  0.7818609E-02  0.8236031E-01
        1   -1    0    0  501    0  0.00000000000E+00  0.00000000000E+00  0.21874883479E+04  0.21874883479E+04  0.50400001928E-02 0.  1.
       -1   -1    0    0    0  501  0.00000000000E+00  0.00000000000E+00 -0.10472514470E+04  0.10472514470E+04  0.50400001928E-02 0. -1.
    10030    2    1    2    0    0  0.00000000000E+00  0.00000000000E+00  0.11402369008E+04  0.32347397949E+04  0.30271110569E+04 0.  0.
        2    1    3    3  502    0  0.68447880974E+02  0.59362438435E+03 -0.91586510421E+03  0.10935647723E+04  0.25500000920E-02 0. -1.
       -2    1    3    3    0  502 -0.68447880974E+02 -0.59362438435E+03  0.20561020051E+04  0.21411750226E+04  0.25500000920E-02 0.  1.
</event>
<event>
 5   0  0.3113328E-06  0.2989280E+04  0.7818609E-02  0.8246799E-01
        2   -1    0    0  501    0  0.00000000000E+00  0.00000000000E+00  0.16894091074E+04  0.16894091074E+04  0.25500000920E-02 0.  1.
       -2   -1    0    0    0  501  0.00000000000E+00  0.00000000000E+00 -0.13223252724E+04  0.13223252724E+04  0.25500000920E-02 0. -1.
    10030    2    1    2    0    0  0.00000000000E+00  0.00000000000E+00  0.36708383497E+03  0.30117343798E+04  0.29892797515E+04 0.  0.
        1    1    3    3  502    0  0.99559570889E+02  0.10518743338E+04  0.12486474710E+04  0.16356870817E+04  0.50400001928E-02 0.  1.
       -1    1    3    3    0  502 -0.99559570889E+02 -0.10518743338E+04 -0.88156363602E+03  0.13760472982E+04  0.50400001928E-02 0. -1.
</event>
<event>
 5   0  0.1054384E-06  0.3005221E+04  0.7818609E-02  0.8242242E-01
       -1   -1    0    0    0  501  0.00000000000E+00  0.00000000000E+00  0.92308757117E+03  0.92308757118E+03  0.50400001928E-02 0.  1.
        1   -1    0    0  501    0  0.00000000000E+00  0.00000000000E+00 -0.24459627280E+04  0.24459627280E+04  0.50400001928E-02 0. -1.
    10030    2    1    2    0    0  0.00000000000E+00  0.00000000000E+00 -0.15228751568E+04  0.33690502991E+04  0.30052206533E+04 0.  0.
        2    1    3    3  502    0  0.81382337706E+03 -0.34610407471E+03  0.60043426850E+03  0.10689330336E+04  0.25500000920E-02 0.  1.
       -2    1    3    3    0  502 -0.81382337706E+03  0.34610407471E+03 -0.21233094253E+04  0.23001172655E+04  0.25500000920E-02 0. -1.
</event>
<event>
 5   0  0.2970915E-06  0.3006997E+04  0.7818609E-02  0.8241736E-01
       -2   -1    0    0    0  501  0.00000000000E+00  0.00000000000E+00  0.16585655133E+04  0.16585655133E+04  0.25500000920E-02 0. -1.
        2   -1    0    0  501    0  0.00000000000E+00  0.00000000000E+00 -0.13629294331E+04  0.13629294331E+04  0.25500000920E-02 0.  1.
    10030    2    1    2    0    0  0.00000000000E+00  0.00000000000E+00  0.29563608016E+03  0.30214949464E+04  0.30069970102E+04 0.  0.
        4    1    3    3  502    0 -0.32705300921E+03 -0.58194430234E+03 -0.12058532813E+04  0.13782984404E+04  0.12699999809E+01 0.  1.
       -4    1    3    3    0  502  0.32705300921E+03  0.58194430234E+03  0.15014893615E+04  0.16431965060E+04  0.12699999809E+01 0. -1.
</event>
<event>
 5   0  0.1097402E-06  0.2999760E+04  0.7818609E-02  0.8243800E-01
       -1   -1    0    0    0  501  0.00000000000E+00  0.00000000000E+00  0.87990387735E+03  0.87990387737E+03  0.50400001928E-02 0.  1.
        1   -1    0    0  501    0  0.00000000000E+00  0.00000000000E+00 -0.25566877283E+04  0.25566877284E+04  0.50400001928E-02 0. -1.
    10030    2    1    2    0    0  0.00000000000E+00  0.00000000000E+00 -0.16767838510E+04  0.34365916057E+04  0.29997596206E+04 0.  0.
        4    1    3    3  502    0 -0.20711832198E+03 -0.49798693878E+03  0.76496734230E+03  0.93598378094E+03  0.12699999809E+01 0.  1.
       -4    1    3    3    0  502  0.20711832198E+03  0.49798693878E+03 -0.24417511933E+04  0.25006078248E+04  0.12699999809E+01 0. -1.
</event>
<event>
 5   0  0.1054384E-06  0.3000940E+04  0.7818609E-02  0.8243463E-01
        1   -1    0    0  501    0  0.00000000000E+00  0.00000000000E+00  0.18359648133E+04  0.18359648133E+04  0.50400001928E-02 0.  1.
       -1   -1    0    0    0  501  0.00000000000E+00  0.00000000000E+00 -0.12262817824E+04  0.12262817824E+04  0.50400001928E-02 0. -1.
    10030    2    1    2    0    0  0.00000000000E+00  0.00000000000E+00  0.60968303086E+03  0.30622465957E+04  0.30009399885E+04 0.  0.
        2    1    3    3  502    0 -0.28835213626E+03  0.13125453798E+04  0.98592569743E+03  0.16667248751E+04  0.25500000920E-02 0.  1.
       -2    1    3    3    0  502  0.28835213626E+03 -0.13125453798E+04 -0.37624266656E+03  0.13955217206E+04  0.25500000920E-02 0. -1.
</event>
<event>
 5   0  0.1113245E-06  0.2978039E+04  0.7818609E-02  0.8250030E-01
       -1   -1    0    0    0  501  0.00000000000E+00  0.00000000000E+00  0.84061547416E+03  0.84061547418E+03  0.50400001928E-02 0. -1.
        1   -1    0    0  501    0  0.00000000000E+00  0.00000000000E+00 -0.26375665720E+04  0.26375665720E+04  0.50400001928E-02 0.  1.
    10030    2    1    2    0    0  0.00000000000E+00  0.00000000000E+00 -0.17969510978E+04  0.34781820462E+04  0.29780391365E+04 0.  0.
        5    1    3    3  502    0 -0.26855109987E+03 -0.27413531743E+02 -0.26087399742E+04  0.26226737383E+04  0.46999998093E+01 0.  1.
       -5    1    3    3    0  502  0.26855109987E+03  0.27413531743E+02  0.81178887636E+03  0.85550830782E+03  0.46999998093E+01 0. -1.
</event>
<event>
 5   0  0.1054384E-06  0.2994760E+04  0.7818609E-02  0.8245229E-01
       -1   -1    0    0    0  501  0.00000000000E+00  0.00000000000E+00  0.11465642622E+04  0.11465642622E+04  0.50400001928E-02 0. -1.
        1   -1    0    0  501    0  0.00000000000E+00  0.00000000000E+00 -0.19555354981E+04  0.19555354981E+04  0.50400001928E-02 0.  1.
    10030    2    1    2    0    0  0.00000000000E+00  0.00000000000E+00 -0.80897123591E+03  0.31020997603E+04  0.29947601678E+04 0.  0.
        2    1    3    3  502    0  0.77138183274E+03  0.37176545701E+03  0.86791842152E+03  0.12192300330E+04  0.25500000920E-02 0. -1.
       -2    1    3    3    0  502 -0.77138183274E+03 -0.37176545701E+03 -0.16768896574E+04  0.18828697273E+04  0.25500000920E-02 0.  1.
</event>
<event>
 5   0  0.1091076E-06  0.3003848E+04  0.7818609E-02  0.8242633E-01
       -1   -1    0    0    0  501  0.00000000000E+00  0.00000000000E+00  0.11829779931E+04  0.11829779931E+04  0.50400001928E-02 0.  1.
        1   -1    0    0  501    0  0.00000000000E+00  0.00000000000E+00 -0.19068614849E+04  0.19068614849E+04  0.50400001928E-02 0. -1.
    10030    2    1    2    0    0  0.00000000000E+00  0.00000000000E+00 -0.72388349185E+03  0.30898394780E+04  0.30038476476E+04 0.  0.
        3    1    3    3  502    0 -0.41192170206E+03 -0.84646503972E+03  0.84185653248E+03  0.12628954761E+04  0.10100000352E+00 0.  1.
       -3    1    3    3    0  502  0.41192170206E+03  0.84646503972E+03 -0.15657400243E+04  0.18269440019E+04  0.10100000352E+00 0. -1.
</event>
<event>
 5   0  0.1113245E-06  0.3003845E+04  0.7818609E-02  0.8242634E-01
        1   -1    0    0  501    0  0.00000000000E+00  0.00000000000E+00  0.19831143084E+04  0.19831143085E+04  0.50400001928E-02 0. -1.
       -1   -1    0    0    0  501  0.00000000000E+00  0.00000000000E+00 -0.11374892343E+04  0.11374892343E+04  0.50400001928E-02 0.  1.
    10030    2    1    2    0    0  0.00000000000E+00  0.00000000000E+00  0.84562507414E+03  0.31206035428E+04  0.30038449869E+04 0.  0.
        5    1    3    3  502    0  0.23979149936E+03  0.14362015236E+04  0.40296387019E+02  0.14566470638E+04  0.46999998093E+01 0.  1.
       -5    1    3    3    0  502 -0.23979149936E+03 -0.14362015236E+04  0.80532868712E+03  0.16639564790E+04  0.46999998093E+01 0. -1.
</event>
<event>
 5   0  0.1113245E-06  0.2985399E+04  0.7818609E-02  0.8247913E-01
       -1   -1    0    0    0  501  0.00000000000E+00  0.00000000000E+00  0.83929030906E+03  0.83929030907E+03  0.50400001928E-02 0. -1.
        1   -1    0    0  501    0  0.00000000000E+00  0.00000000000E+00 -0.26548047562E+04  0.26548047562E+04  0.50400001928E-02 0.  1.
    10030    2    1    2    0    0  0.00000000000E+00  0.00000000000E+00 -0.18155144472E+04  0.34940950653E+04  0.29853990717E+04 0.  0.
        5    1    3    3  502    0  0.51290933780E+03  0.12868646080E+04 -0.15583885466E+04  0.20851123376E+04  0.46999998093E+01 0.  1.
       -5    1    3    3    0  502 -0.51290933780E+03 -0.12868646080E+04 -0.25712590058E+03  0.14089827277E+04  0.46999998093E+01 0. -1.
</event>
<event>
 5   0  0.1113245E-06  0.3002976E+04  0.7818609E-02  0.8242882E-01
       -1   -1    0    0    0  501  0.00000000000E+00  0.00000000000E+00  0.16463741732E+04  0.16463741732E+04  0.50400001928E-02 0. -1.
        1   -1    0    0  501    0  0.00000000000E+00  0.00000000000E+00 -0.13693520659E+04  0.13693520660E+04  0.50400001928E-02 0.  1.
    10030    2    1    2    0    0  0.00000000000E+00  0.00000000000E+00  0.27702210721E+03  0.30157262391E+04  0.30029757744E+04 0.  0.
        5    1    3    3  502    0 -0.13478360742E+03  0.56808192026E+03 -0.12506773171E+04  0.13802534298E+04  0.46999998093E+01 0.  1.
       -5    1    3    3    0  502  0.13478360742E+03 -0.56808192026E+03  0.15276994243E+04  0.16354728093E+04  0.46999998093E+01 0. -1.
</event>
<event>
 5   0  0.2970915E-06  0.2999534E+04  0.7818609E-02  0.8243864E-01
       -2   -1    0    0    0  501  0.00000000000E+00  0.00000000000E+00  0.20654518776E+04  0.20654518776E+04  0.25500000920E-02 0. -1.
        2   -1    0    0  501    0  0.00000000000E+00  0.00000000000E+00 -0.10890119341E+04  0.10890119341E+04  0.25500000920E-02 0.  1.
    10030    2    1    2    0    0  0.00000000000E+00  0.00000000000E+00  0.97643994358E+03  0.31544638117E+04  0.29995344599E+04 0.  0.
        4    1    3    3  502    0 -0.13877979675E+03  0.14407343578E+04  0.75087274430E+02  0.14493498657E+04  0.12699999809E+01 0.  1.
       -4    1    3    3    0  502  0.13877979675E+03 -0.14407343578E+04  0.90135266915E+03  0.17051139460E+04  0.12699999809E+01 0. -1.
</event>
<event>
 5   0  0.1097402E-06  0.3015912E+04  0.7818609E-02  0.8239202E-01
        1   -1    0    0  501    0  0.00000000000E+00  0.00000000000E+00  0.10366855564E+04  0.10366855564E+04  0.50400001928E-02 0.  1.
       -1   -1    0    0    0  501  0.00000000000E+00  0.00000000000E+00 -0.21934634521E+04  0.21934634521E+04  0.50400001928E-02 0. -1.
    10030    2    1    2    0    0  0.00000000000E+00  0.00000000000E+00 -0.11567778957E+04  0.32301490085E+04  0.30159123855E+04 0.  0.
        4    1    3    3  502    0  0.14665912549E+04 -0.22824421450E+03 -0.29311340718E+03  0.15129118985E+04  0.12699999809E+01 0.  1.
       -4    1    3    3    0  502 -0.14665912549E+04  0.22824421450E+03 -0.86366448853E+03  0.17172371100E+04  0.12699999809E+01 0. -1.
</event>
<event>
 5   0  0.2985941E-06  0.3008388E+04  0.7818609E-02  0.8241340E-01
       -2   -1    0    0    0  501  0.00000000000E+00  0.00000000000E+00  0.90216998506E+03  0.90216998506E+03  0.25500000920E-02 0. -1.
        2   -1    0    0  501    0  0.00000000000E+00  0.00000000000E+00 -0.25079524474E+04  0.25079524474E+04  0.25500000920E-02 0.  1.
    10030    2    1    2    0    0  0.00000000000E+00  0.00000000000E+00 -0.16057824624E+04  0.34101224325E+04  0.30083878886E+04 0.  0.
        3    1    3    3  502    0  0.73045899206E+03 -0.12959308427E+04 -0.55045983501E+03  0.15861945430E+04  0.10100000352E+00 0.  1.
       -3    1    3    3    0  502 -0.73045899206E+03  0.12959308427E+04 -0.10553226274E+04  0.18239278895E+04  0.10100000352E+00 0. -1.
</event>
<event>
 5   0  0.3113328E-06  0.3004937E+04  0.7818609E-02  0.8242323E-01
       -2   -1    0    0    0  501  0.00000000000E+00  0.00000000000E+00  0.26706554138E+04  0.26706554138E+04  0.25500000920E-02 0.  1.
        2   -1    0    0  501    0  0.00000000000E+00  0.00000000000E+00 -0.84526488871E+03  0.84526488871E+03  0.25500000920E-02 0. -1.
    10030    2    1    2    0    0  0.00000000000E+00  0.00000000000E+00  0.18253905251E+04  0.35159203025E+04  0.30049367721E+04 0.  0.
        1    1    3    3  502    0 -0.62471266641E+03 -0.77232278638E+02  0.25089343155E+04  0.25866932830E+04  0.50400001928E-02 0.  1.
       -1    1    3    3    0  502  0.62471266641E+03  0.77232278638E+02 -0.68354379043E+03  0.92922701957E+03  0.50400001928E-02 0. -1.
</event>
<event>
 5   0  0.1097402E-06  0.3015594E+04  0.7818609E-02  0.8239292E-01
       -1   -1    0    0    0  501  0.00000000000E+00  0.00000000000E+00  0.93569520862E+03  0.93569520863E+03  0.50400001928E-02 0. -1.
        1   -1    0    0  501    0  0.00000000000E+00  0.00000000000E+00 -0.24296922609E+04  0.24296922609E+04  0.50400001928E-02 0.  1.
    10030    2    1    2    0    0  0.00000000000E+00  0.00000000000E+00 -0.14939970523E+04  0.33653874696E+04  0.30155937439E+04 0.  0.
        4    1    3    3  502    0  0.73010168332E+03 -0.10325467054E+04  0.16937445382E+03  0.12758881163E+04  0.12699999809E+01 0. -1.
       -4    1    3    3    0  502 -0.73010168332E+03  0.10325467054E+04 -0.16633715061E+04  0.20894993532E+04  0.12699999809E+01 0.  1.
</event>
<event>
 5   0  0.3113328E-06  0.2946355E+04  0.7818609E-02  0.8259218E-01
       -2   -1    0    0    0  501  0.00000000000E+00  0.00000000000E+00  0.15031734542E+04  0.15031734542E+04  0.25500000920E-02 0. -1.
        2   -1    0    0  501    0  0.00000000000E+00  0.00000000000E+00 -0.14437803361E+04  0.14437803361E+04  0.25500000920E-02 0.  1.
    10030    2    1    2    0    0  0.00000000000E+00  0.00000000000E+00  0.59393118064E+02  0.29469537903E+04  0.29463552229E+04 0.  0.
        1    1    3    3  502    0 -0.10525642467E+04 -0.61696089600E+03  0.85552768724E+03  0.14901207549E+04  0.50400001928E-02 0.  1.
       -1    1    3    3    0  502  0.10525642467E+04  0.61696089600E+03 -0.79613456918E+03  0.14568330353E+04  0.50400001928E-02 0. -1.
</event>
<event>
 5   0  0.2985941E-06  0.3148754E+04  0.7818609E-02  0.8202484E-01
        2   -1    0    0  501    0  0.00000000000E+00  0.00000000000E+00  0.15498610527E+04  0.15498610527E+04  0.25500000920E-02 0. -1.
       -2   -1    0    0    0  501  0.00000000000E+00  0.00000000000E+00 -0.15992805024E+04  0.15992805024E+04  0.25500000920E-02 0.  1.
    10030    2    1    2    0    0  0.00000000000E+00  0.00000000000E+00 -0.49419449725E+02  0.31491415551E+04  0.31487537617E+04 0.  0.
        3    1    3    3  502    0 -0.72560506808E+03 -0.15349028614E+03  0.13642019510E+04  0.15527745993E+04  0.10100000352E+00 0. -1.
       -3    1    3    3    0  502  0.72560506808E+03  0.15349028614E+03 -0.14136214008E+04  0.15963669558E+04  0.10100000352E+00 0.  1.
</event>
<event>
 5   0  0.1054384E-06  0.2983732E+04  0.7818609E-02  0.8248392E-01
        1   -1    0    0  501    0  0.00000000000E+00  0.00000000000E+00  0.26579625757E+04  0.26579625757E+04  0.50400001928E-02 0. -1.
       -1   -1    0    0    0  501  0.00000000000E+00  0.00000000000E+00 -0.83735727847E+03  0.83735727849E+03  0.50400001928E-02 0.  1.
    10030    2    1    2    0    0  0.00000000000E+00  0.00000000000E+00  0.18206052973E+04  0.34953198542E+04  0.29837320984E+04 0.  0.
        2    1    3    3  502    0  0.51963939082E+03 -0.12326446165E+04  0.13658393560E+03  0.13446534939E+04  0.25500000920E-02 0. -1.
       -2    1    3    3    0  502 -0.51963939082E+03  0.12326446165E+04  0.16840213617E+04  0.21506663604E+04  0.25500000920E-02 0.  1.
</event>
<event>
 5   0  0.2985941E-06  0.2987723E+04  0.7818609E-02  0.8247245E-01
       -2   -1    0    0    0  501  0.00000000000E+00  0.00000000000E+00  0.14916768827E+04  0.14916768827E+04  0.25500000920E-02 0. -1.
        2   -1    0    0  501    0  0.00000000000E+00  0.00000000000E+00 -0.14960493231E+04  0.14960493231E+04  0.25500000920E-02 0.  1.
    10030    2    1    2    0    0  0.00000000000E+00  0.00000000000E+00 -0.43724403895E+01  0.29877262059E+04  0.29877230064E+04 0.  0.
        3    1    3    3  502    0 -0.59557885822E+03  0.12543024667E+04 -0.55321614369E+03  0.14946695173E+04  0.10100000352E+00 0.  1.
       -3    1    3    3    0  502  0.59557885822E+03 -0.12543024667E+04  0.54884370330E+03  0.14930566885E+04  0.10100000352E+00 0. -1.
</event>
<event>
 5   0  0.1091075E-06  0.2849335E+04  0.7818609E-02  0.8288113E-01
        1   -1    0    0  501    0  0.00000000000E+00  0.00000000000E+00  0.10711825312E+04  0.10711825312E+04  0.50400001928E-02 0.  1.
       -1   -1    0    0    0  501  0.00000000000E+00  0.00000000000E+00 -0.18948005527E+04  0.18948005527E+04  0.50400001928E-02 0. -1.
    10030    2    1    2    0    0  0.00000000000E+00  0.00000000000E+00 -0.82361802146E+03  0.29659830839E+04  0.28493348362E+04 0.  0.
        1    1    3    3  502    0 -0.68244045891E+03  0.12410189373E+04 -0.25113894210E+03  0.14383753859E+04  0.50400001928E-02 0. -1.
       -1    1    3    3    0  502  0.68244045891E+03 -0.12410189373E+04 -0.57247907936E+03  0.15276076980E+04  0.50400001928E-02 0.  1.
</event>
<event>
 5   0  0.1054384E-06  0.3008825E+04  0.7818609E-02  0.8241215E-01
        1   -1    0    0  501    0  0.00000000000E+00  0.00000000000E+00  0.18875418256E+04  0.18875418257E+04  0.50400001928E-02 0.  1.
       -1   -1    0    0    0  501  0.00000000000E+00  0.00000000000E+00 -0.11990501350E+04  0.11990501350E+04  0.50400001928E-02 0. -1.
    10030    2    1    2    0    0  0.00000000000E+00  0.00000000000E+00  0.68849169067E+03  0.30865919606E+04  0.30088252065E+04 0.  0.
        2    1    3    3  502    0 -0.81337102782E+03 -0.78097470257E+03  0.13658585685E+04  0.17711757519E+04  0.25500000920E-02 0.  1.
       -2    1    3    3    0  502  0.81337102782E+03  0.78097470257E+03 -0.67736687785E+03  0.13154162087E+04  0.25500000920E-02 0. -1.
</event>
<event>
 5   0  0.1091075E-06  0.2985045E+04  0.7818609E-02  0.8248014E-01
        1   -1    0    0  501    0  0.00000000000E+00  0.00000000000E+00  0.18463554328E+04  0.18463554328E+04  0.50400001928E-02 0. -1.
       -1   -1    0    0    0  501  0.00000000000E+00  0.00000000000E+00 -0.12064975006E+04  0.12064975006E+04  0.50400001928E-02 0.  1.
    10030    2    1    2    0    0  0.00000000000E+00  0.00000000000E+00  0.63985793215E+03  0.30528529334E+04  0.29850448673E+04 0.  0.
        1    1    3    3  502    0 -0.14675031068E+04  0.15926827137E+03  0.94255012397E+02  0.14791266876E+04  0.50400001928E-02 0.  1.
       -1    1    3    3    0  502  0.14675031068E+04 -0.15926827137E+03  0.54560291976E+03  0.15737262458E+04  0.50400001928E-02 0. -1.
</event>
<event>
 5   0  0.3113328E-06  0.3012946E+04  0.7818609E-02  0.8240044E-01
        2   -1    0    0  501    0  0.00000000000E+00  0.00000000000E+00  0.20580629311E+04  0.20580629311E+04  0.25500000920E-02 0. -1.
       -2   -1    0    0    0  501  0.00000000000E+00  0.00000000000E+00 -0.11027166344E+04  0.11027166344E+04  0.25500000920E-02 0.  1.
    10030    2    1    2    0    0  0.00000000000E+00  0.00000000000E+00  0.95534629672E+03  0.31607795656E+04  0.30129455547E+04 0.  0.
        1    1    3    3  502    0  0.34977922690E+03  0.10148507455E+04  0.15865082533E+04  0.19155354294E+04  0.50400001928E-02 0. -1.
       -1    1    3    3    0  502 -0.34977922690E+03 -0.10148507455E+04 -0.63116195662E+03  0.12452441362E+04  0.50400001928E-02 0.  1.
</event>
<event>
 5   0  0.1091075E-06  0.3037563E+04  0.7818609E-02  0.8233085E-01
        1   -1    0    0  501    0  0.00000000000E+00  0.00000000000E+00  0.21111556543E+04  0.21111556543E+04  0.50400001928E-02 0. -1.
       -1   -1    0    0    0  501  0.00000000000E+00  0.00000000000E+00 -0.10926231941E+04  0.10926231942E+04  0.50400001928E-02 0.  1.
    10030    2    1    2    0    0  0.00000000000E+00  0.00000000000E+00  0.10185324602E+04  0.32037788485E+04  0.30375632566E+04 0.  0.
        1    1    3    3  502    0 -0.10590399882E+04  0.16083055801E+03  0.16448747678E+04  0.19629175140E+04  0.50400001928E-02 0. -1.
       -1    1    3    3    0  502  0.10590399882E+04 -0.16083055801E+03 -0.62634230764E+03  0.12408613345E+04  0.50400001928E-02 0.  1.
</event>
<event>
 5   0  0.1097402E-06  0.3006015E+04  0.7818609E-02  0.8242015E-01
       -1   -1    0    0    0  501  0.00000000000E+00  0.00000000000E+00  0.10524578293E+04  0.10524578293E+04  0.50400001928E-02 0.  1.
        1   -1    0    0  501    0  0.00000000000E+00  0.00000000000E+00 -0.21464347700E+04  0.21464347700E+04  0.50400001928E-02 0. -1.
    10030    2    1    2    0    0  0.00000000000E+00  0.00000000000E+00 -0.10939769407E+04  0.31988925993E+04  0.30060153551E+04 0.  0.
        4    1    3    3  502    0  0.13308004243E+04 -0.52953907320E+03 -0.62134783434E+02  0.14336330575E+04  0.12699999809E+01 0.  1.
       -4    1    3    3    0  502 -0.13308004243E+04  0.52953907320E+03 -0.10318421572E+04  0.17652595418E+04  0.12699999809E+01 0. -1.
</event>
<event>
 5   0  0.2862033E-06  0.3000401E+04  0.7818609E-02  0.8243616E-01
       -2   -1    0    0    0  501  0.00000000000E+00  0.00000000000E+00  0.19224557801E+04  0.19224557801E+04  0.25500000920E-02 0.  1.
        2   -1    0    0  501    0  0.00000000000E+00  0.00000000000E+00 -0.11706906392E+04  0.11706906393E+04  0.25500000920E-02 0. -1.
    10030    2    1    2    0    0  0.00000000000E+00  0.00000000000E+00  0.75176514088E+03  0.30931464194E+04  0.30004006307E+04 0.  0.
        2    1    3    3  502    0  0.99256962332E+03  0.55947956585E+03  0.13819531491E+04  0.17910908263E+04  0.25500000920E-02 0.  1.
       -2    1    3    3    0  502 -0.99256962332E+03 -0.55947956585E+03 -0.63018800822E+03  0.13020555931E+04  0.25500000920E-02 0. -1.
</event>
<event>
 5   0  0.2862033E-06  0.3011165E+04  0.7818609E-02  0.8240550E-01
        2   -1    0    0  501    0  0.00000000000E+00  0.00000000000E+00  0.17241383353E+04  0.17241383353E+04  0.25500000920E-02 0.  1.
       -2   -1    0    0    0  501  0.00000000000E+00  0.00000000000E+00 -0.13147314317E+04  0.13147314317E+04  0.25500000920E-02 0. -1.
    10030    2    1    2    0    0  0.00000000000E+00  0.00000000000E+00  0.40940690363E+03  0.30388697670E+04  0.30111651314E+04 0.  0.
        2    1    3    3  502    0 -0.59217868132E+03 -0.75797607398E+03  0.13736242392E+04  0.16769158803E+04  0.25500000920E-02 0.  1.
       -2    1    3    3    0  502  0.59217868132E+03  0.75797607398E+03 -0.96421733553E+03  0.13619538867E+04  0.25500000920E-02 0. -1.
</event>
<event>
 5   0  0.9749500E-07  0.2721758E+04  0.7818609E-02  0.8327980E-01
       -4   -1    0    0    0  501  0.00000000000E+00  0.00000000000E+00  0.17664493128E+04  0.17664497693E+04  0.12699999809E+01 0.  1.
        4   -1    0    0  501    0  0.00000000000E+00  0.00000000000E+00 -0.10484253405E+04  0.10484261097E+04  0.12699999809E+01 0. -1.
    10030    2    1    2    0    0  0.00000000000E+00  0.00000000000E+00  0.71802397226E+03  0.28148758791E+04  0.27217582166E+04 0.  0.
        2    1    3    3  502    0 -0.12626841707E+04 -0.20463285708E+03 -0.12136380147E+03  0.12849027565E+04  0.25500000920E-02 0. -1.
       -2    1    3    3    0  502  0.12626841707E+04  0.20463285708E+03  0.83938777373E+03  0.15299731226E+04  0.25500000920E-02 0.  1.
</event>
<event>
 5   0  0.3113328E-06  0.3006378E+04  0.7818609E-02  0.8241912E-01
        2   -1    0    0  501    0  0.00000000000E+00  0.00000000000E+00  0.20149345621E+04  0.20149345621E+04  0.25500000920E-02 0. -1.
       -2   -1    0    0    0  501  0.00000000000E+00  0.00000000000E+00 -0.11214149911E+04  0.11214149911E+04  0.25500000920E-02 0.  1.
    10030    2    1    2    0    0  0.00000000000E+00  0.00000000000E+00  0.89351957094E+03  0.31363495532E+04  0.30063784353E+04 0.  0.
        1    1    3    3  502    0  0.87930279295E+03 -0.66624294800E+02 -0.82322897481E+03  0.12063656756E+04  0.50400001928E-02 0.  1.
       -1    1    3    3    0  502 -0.87930279295E+03  0.66624294800E+02  0.17167485457E+04  0.19299838776E+04  0.50400001928E-02 0. -1.
</event>
<event>
 5   0  0.1091076E-06  0.3073101E+04  0.7818609E-02  0.8223159E-01
        1   -1    0    0  501    0  0.00000000000E+00  0.00000000000E+00  0.13070535652E+04  0.13070535652E+04  0.50400001928E-02 0. -1.
       -1   -1    0    0    0  501  0.00000000000E+00  0.00000000000E+00 -0.18063437968E+04  0.18063437968E+04  0.50400001928E-02 0.  1.
    10030    2    1    2    0    0  0.00000000000E+00  0.00000000000E+00 -0.49929023155E+03  0.31133973620E+04  0.30731014299E+04 0.  0.
        3    1    3    3  502    0 -0.11333940341E+04 -0.28701209437E+03  0.76043873669E+03  0.13947132542E+04  0.10100000352E+00 0. -1.
       -3    1    3    3    0  502  0.11333940341E+04  0.28701209437E+03 -0.12597289682E+04  0.17186841078E+04  0.10100000352E+00 0.  1.
</event>
<event>
 5   0  0.2970915E-06  0.3015056E+04  0.7818609E-02  0.8239444E-01
       -2   -1    0    0    0  501  0.00000000000E+00  0.00000000000E+00  0.25705441521E+04  0.25705441521E+04  0.25500000920E-02 0.  1.
        2   -1    0    0  501    0  0.00000000000E+00  0.00000000000E+00 -0.88410898964E+03  0.88410898965E+03  0.25500000920E-02 0. -1.
    10030    2    1    2    0    0  0.00000000000E+00  0.00000000000E+00  0.16864351625E+04  0.34546531417E+04  0.30150563465E+04 0.  0.
        4    1    3    3  502    0  0.97980286001E+03 -0.60593041348E+03  0.19573424637E+04  0.22712015419E+04  0.12699999809E+01 0.  1.
       -4    1    3    3    0  502 -0.97980286001E+03  0.60593041348E+03 -0.27090730129E+03  0.11834515999E+04  0.12699999809E+01 0. -1.
</event>
<event>
 5   0  0.2948711E-06  0.2862692E+04  0.7818609E-02  0.8284065E-01
       -2   -1    0    0    0  501  0.00000000000E+00  0.00000000000E+00  0.64830169661E+03  0.64830169661E+03  0.25500000920E-02 0. -1.
        2   -1    0    0  501    0  0.00000000000E+00  0.00000000000E+00 -0.31601825641E+04  0.31601825641E+04  0.25500000920E-02 0.  1.
    10030    2    1    2    0    0  0.00000000000E+00  0.00000000000E+00 -0.25118808675E+04  0.38084842607E+04  0.28626922419E+04 0.  0.
        5    1    3    3  502    0 -0.75416459285E+03  0.25228520115E+03 -0.28392207984E+04  0.29484926467E+04  0.46999998093E+01 0.  1.
       -5    1    3    3    0  502  0.75416459285E+03 -0.25228520115E+03  0.32733993087E+03  0.85999161401E+03  0.46999998093E+01 0. -1.
</event>
<event>
 5   0  0.2985941E-06  0.2702772E+04  0.7818609E-02  0.8334106E-01
        2   -1    0    0  501    0  0.00000000000E+00  0.00000000000E+00  0.17449198244E+04  0.17449198244E+04  0.25500000920E-02 0.  1.
       -2   -1    0    0    0  501  0.00000000000E+00  0.00000000000E+00 -0.10466063896E+04  0.10466063896E+04  0.25500000920E-02 0. -1.
    10030    2    1    2    0    0  0.00000000000E+00  0.00000000000E+00  0.69831343477E+03  0.27915262140E+04  0.27027720863E+04 0.  0.
        3    1    3    3  502    0  0.81741149009E+02  0.13308957003E+04  0.57609748983E+03  0.14525334105E+04  0.10100000352E+00 0. -1.
       -3    1    3    3    0  502 -0.81741149009E+02 -0.13308957003E+04  0.12221594494E+03  0.13389928035E+04  0.10100000352E+00 0.  1.
</event>
<event>
 5   0  0.1091075E-06  0.3024829E+04  0.7818609E-02  0.8236676E-01
       -1   -1    0    0    0  501  0.00000000000E+00  0.00000000000E+00  0.12653691488E+04  0.12653691488E+04  0.50400001928E-02 0. -1.
        1   -1    0    0  501    0  0.00000000000E+00  0.00000000000E+00 -0.18076917186E+04  0.18076917186E+04  0.50400001928E-02 0.  1.
    10030    2    1    2    0    0  0.00000000000E+00  0.00000000000E+00 -0.54232256984E+03  0.30730608674E+04  0.30248288092E+04 0.  0.
        1    1    3    3  502    0 -0.10312099256E+03 -0.10937813976E+04  0.78483838931E+03  0.13501714640E+04  0.50400001928E-02 0. -1.
       -1    1    3    3    0  502  0.10312099256E+03  0.10937813976E+04 -0.13271609591E+04  0.17228894034E+04  0.50400001928E-02 0.  1.
</event>
<event>
 5   0  0.1054384E-06  0.2998572E+04  0.7818609E-02  0.8244139E-01
       -1   -1    0    0    0  501  0.00000000000E+00  0.00000000000E+00  0.13460772943E+04  0.13460772943E+04  0.50400001928E-02 0. -1.
        1   -1    0    0  501    0  0.00000000000E+00  0.00000000000E+00 -0.16699324526E+04  0.16699324526E+04  0.50400001928E-02 0.  1.
    10030    2    1    2    0    0  0.00000000000E+00  0.00000000000E+00 -0.32385515834E+03  0.30160097469E+04  0.29985717650E+04 0.  0.
        2    1    3    3  502    0  0.72406359047E+02  0.77496348129E+03 -0.14508034573E+04  0.16464026694E+04  0.25500000920E-02 0.  1.
       -2    1    3    3    0  502 -0.72406359047E+02 -0.77496348129E+03  0.11269482990E+04  0.13696070775E+04  0.25500000920E-02 0. -1.
</event>
<event>
 5   0  0.1054384E-06  0.2679304E+04  0.7818609E-02  0.8341752E-01
        1   -1    0    0  501    0  0.00000000000E+00  0.00000000000E+00  0.14177352008E+04  0.14177352008E+04  0.50400001928E-02 0.  1.
       -1   -1    0    0    0  501  0.00000000000E+00  0.00000000000E+00 -0.12658691206E+04  0.12658691206E+04  0.50400001928E-02 0. -1.
    10030    2    1    2    0    0  0.00000000000E+00  0.00000000000E+00  0.15186608019E+03  0.26836043214E+04  0.26793037990E+04 0.  0.
        2    1    3    3  502    0 -0.10565691075E+04 -0.36106260636E+03  0.81736624503E+03  0.13837601176E+04  0.25500000920E-02 0.  1.
       -2    1    3    3    0  502  0.10565691075E+04  0.36106260636E+03 -0.66550016484E+03  0.12998442038E+04  0.25500000920E-02 0. -1.
</event>
<event>
 5   0  0.2862033E-06  0.2985646E+04  0.7818609E-02  0.8247842E-01
        2   -1    0    0  501    0  0.00000000000E+00  0.00000000000E+00  0.87986350218E+03  0.87986350218E+03  0.25500000920E-02 0.  1.
       -2   -1    0    0    0  501  0.00000000000E+00  0.00000000000E+00 -0.25328017693E+04  0.25328017693E+04  0.25500000920E-02 0. -1.
    10030    2    1    2    0    0  0.00000000000E+00  0.00000000000E+00 -0.16529382671E+04  0.34126652715E+04  0.29856455483E+04 0.  0.
        2    1    3    3  502    0 -0.47703605781E+03  0.28795318845E+03 -0.24094811331E+04  0.24730709189E+04  0.25500000920E-02 0. -1.
       -2    1    3    3    0  502  0.47703605781E+03 -0.28795318845E+03  0.75654286602E+03  0.93959435254E+03  0.25500000920E-02 0.  1.
</event>
<event>
 5   0  0.2970915E-06  0.3006474E+04  0.7818609E-02  0.8241885E-01
        2   -1    0    0  501    0  0.00000000000E+00  0.00000000000E+00  0.13181144388E+04  0.13181144388E+04  0.25500000920E-02 0.  1.
       -2   -1    0    0    0  501  0.00000000000E+00  0.00000000000E+00 -0.17143590777E+04  0.17143590777E+04  0.25500000920E-02 0. -1.
    10030    2    1    2    0    0  0.00000000000E+00  0.00000000000E+00 -0.39624463888E+03  0.30324735166E+04  0.30064739837E+04 0.  0.
        4    1    3    3  502    0  0.11299777735E+04  0.19954856346E+03 -0.11776281565E+04  0.16442259838E+04  0.12699999809E+01 0. -1.
       -4    1    3    3    0  502 -0.11299777735E+04 -0.19954856346E+03  0.78138351763E+03  0.13882475328E+04  0.12699999809E+01 0.  1.
</event>
<event>
 5   0  0.2948711E-06  0.2903972E+04  0.7818609E-02  0.8271697E-01
       -2   -1    0    0    0  501  0.00000000000E+00  0.00000000000E+00  0.13887861365E+04  0.13887861365E+04  0.25500000920E-02 0. -1.
        2   -1    0    0  501    0  0.00000000000E+00  0.00000000000E+00 -0.15180621882E+04  0.15180621882E+04  0.25500000920E-02 0.  1.
    10030    2    1    2    0    0  0.00000000000E+00  0.00000000000E+00 -0.12927605171E+03  0.29068483247E+04  0.29039722598E+04 0.  0.
        5    1    3    3  502    0  0.83255148802E+03 -0.70774265465E+03 -0.10217230334E+04  0.14959885335E+04  0.46999998093E+01 0.  1.
       -5    1    3    3    0  502 -0.83255148802E+03  0.70774265465E+03  0.89244698168E+03  0.14108597912E+04  0.46999998093E+01 0. -1.
</event>
<event>
 5   0  0.1091075E-06  0.2995189E+04  0.7818609E-02  0.8245106E-01
        1   -1    0    0  501    0  0.00000000000E+00  0.00000000000E+00  0.14901090004E+04  0.14901090004E+04  0.50400001928E-02 0. -1.
       -1   -1    0    0    0  501  0.00000000000E+00  0.00000000000E+00 -0.15051171196E+04  0.15051171196E+04  0.50400001928E-02 0.  1.
    10030    2    1    2    0    0  0.00000000000E+00  0.00000000000E+00 -0.15008119177E+02  0.29952261200E+04  0.29951885194E+04 0.  0.
        1    1    3    3  502    0 -0.58855642177E+03  0.46572343922E+03  0.12884642082E+04  0.14911193779E+04  0.50400001928E-02 0. -1.
       -1    1    3    3    0  502  0.58855642177E+03 -0.46572343922E+03 -0.13034723274E+04  0.15041067421E+04  0.50400001928E-02 0.  1.
</event>
<event>
 5   0  0.1097402E-06  0.3092100E+04  0.7818609E-02  0.8217909E-01
       -1   -1    0    0    0  501  0.00000000000E+00  0.00000000000E+00  0.15380785128E+04  0.15380785128E+04  0.50400001928E-02 0.  1.
        1   -1    0    0  501    0  0.00000000000E+00  0.00000000000E+00 -0.15540628707E+04  0.15540628707E+04  0.50400001928E-02 0. -1.
    10030    2    1    2    0    0  0.00000000000E+00  0.00000000000E+00 -0.15984357947E+02  0.30921413835E+04  0.30921000689E+04 0.  0.
        4    1    3    3  502    0  0.25392286880E+03 -0.90386935580E+03  0.12203615080E+04  0.15397209029E+04  0.12699999809E+01 0.  1.
       -4    1    3    3    0  502 -0.25392286880E+03  0.90386935580E+03 -0.12363458659E+04  0.15524204807E+04  0.12699999809E+01 0. -1.
</event>
<event>
 5   0  0.2862033E-06  0.2997212E+04  0.7818609E-02  0.8244527E-01
       -2   -1    0    0    0  501  0.00000000000E+00  0.00000000000E+00  0.10830416232E+04  0.10830416232E+04  0.25500000920E-02 0.  1.
        2   -1    0    0  501    0  0.00000000000E+00  0.00000000000E+00 -0.20736234075E+04  0.20736234075E+04  0.25500000920E-02 0. -1.
    10030    2    1    2    0    0  0.00000000000E+00  0.00000000000E+00 -0.99058178427E+03  0.31566650307E+04  0.29972123456E+04 0.  0.
        2    1    3    3  502    0 -0.14981835117E+04 -0.49568233611E+01 -0.53240863952E+03  0.15899803031E+04  0.25500000920E-02 0.  1.
       -2    1    3    3    0  502  0.14981835117E+04  0.49568233611E+01 -0.45817314475E+03  0.15666847275E+04  0.25500000920E-02 0. -1.
</event>
<event>
 5   0  0.3113328E-06  0.2976577E+04  0.7818609E-02  0.8250451E-01
        2   -1    0    0  501    0  0.00000000000E+00  0.00000000000E+00  0.12682287677E+04  0.12682287677E+04  0.25500000920E-02 0.  1.
       -2   -1    0    0    0  501  0.00000000000E+00  0.00000000000E+00 -0.17465324887E+04  0.17465324888E+04  0.25500000920E-02 0. -1.
    10030    2    1    2    0    0  0.00000000000E+00  0.00000000000E+00 -0.47830372109E+03  0.30147612564E+04  0.29765770582E+04 0.  0.
        1    1    3    3  502    0 -0.38462974976E+03 -0.76153823521E+03 -0.14742717812E+04  0.17033372575E+04  0.50400001928E-02 0. -1.
       -1    1    3    3    0  502  0.38462974976E+03  0.76153823521E+03  0.99596806009E+03  0.13114239989E+04  0.50400001928E-02 0.  1.
</event>
<event>
 5   0  0.3113328E-06  0.3003927E+04  0.7818609E-02  0.8242610E-01
        2   -1    0    0  501    0  0.00000000000E+00  0.00000000000E+00  0.17948215002E+04  0.17948215002E+04  0.25500000920E-02 0.  1.
       -2   -1    0    0    0  501  0.00000000000E+00  0.00000000000E+00 -0.12568906162E+04  0.12568906162E+04  0.25500000920E-02 0. -1.
    10030    2    1    2    0    0  0.00000000000E+00  0.00000000000E+00  0.53793088399E+03  0.30517121164E+04  0.30039269640E+04 0.  0.
        1    1    3    3  502    0 -0.43919501155E+02  0.12896261361E+04  0.10498474051E+04  0.16635035520E+04  0.50400001928E-02 0.  1.
       -1    1    3    3    0  502  0.43919501155E+02 -0.12896261361E+04 -0.51191652106E+03  0.13882085644E+04  0.50400001928E-02 0. -1.
</event>
<event>
 5   0  0.1054384E-06  0.2983167E+04  0.7818609E-02  0.8248554E-01
        1   -1    0    0  501    0  0.00000000000E+00  0.00000000000E+00  0.19531985056E+04  0.19531985056E+04  0.50400001928E-02 0.  1.
       -1   -1    0    0    0  501  0.00000000000E+00  0.00000000000E+00 -0.11390655391E+04  0.11390655391E+04  0.50400001928E-02 0. -1.
    10030    2    1    2    0    0  0.00000000000E+00  0.00000000000E+00  0.81413296654E+03  0.30922640447E+04  0.29831668466E+04 0.  0.
        2    1    3    3  502    0  0.11389127886E+04 -0.21644338235E+03 -0.56579332183E+03  0.12899969615E+04  0.25500000920E-02 0. -1.
       -2    1    3    3    0  502 -0.11389127886E+04  0.21644338235E+03  0.13799262884E+04  0.18022670832E+04  0.25500000920E-02 0.  1.
</event>
<event>
 5   0  0.2948711E-06  0.2983422E+04  0.7818609E-02  0.8248481E-01
        2   -1    0    0  501    0  0.00000000000E+00  0.00000000000E+00  0.15343377195E+04  0.15343377195E+04  0.25500000920E-02 0.  1.
       -2   -1    0    0    0  501  0.00000000000E+00  0.00000000000E+00 -0.14502684653E+04  0.14502684653E+04  0.25500000920E-02 0. -1.
    10030    2    1    2    0    0  0.00000000000E+00  0.00000000000E+00  0.84069254195E+02  0.29846061848E+04  0.29834219344E+04 0.  0.
        5    1    3    3  502    0 -0.14498211993E+04 -0.11844943415E+03 -0.28850194484E+03  0.14829926637E+04  0.46999998093E+01 0. -1.
       -5    1    3    3    0  502  0.14498211993E+04  0.11844943415E+03  0.37257119903E+03  0.15016135211E+04  0.46999998093E+01 0.  1.
</event>
<event>
 5   0  0.1097402E-06  0.3229284E+04  0.7818609E-02  0.8181126E-01
        1   -1    0    0  501    0  0.00000000000E+00  0.00000000000E+00  0.14874716840E+04  0.14874716840E+04  0.50400001928E-02 0. -1.
       -1   -1    0    0    0  501  0.00000000000E+00  0.00000000000E+00 -0.17526841638E+04  0.17526841638E+04  0.50400001928E-02 0.  1.
    10030    2    1    2    0    0  0.00000000000E+00  0.00000000000E+00 -0.26521247977E+03  0.32401558478E+04  0.32292835519E+04 0.  0.
        4    1    3    3  502    0 -0.96480054060E+03  0.73180732464E+03 -0.12042303396E+04  0.17077922494E+04  0.12699999809E+01 0.  1.
       -4    1    3    3    0  502  0.96480054060E+03 -0.73180732464E+03  0.93901785982E+03  0.15323635983E+04  0.12699999809E+01 0. -1.
</event>
<event>
 5   0  0.1091075E-06  0.3002870E+04  0.7818609E-02  0.8242912E-01
        1   -1    0    0  501    0  0.00000000000E+00  0.00000000000E+00  0.12069881368E+04  0.12069881368E+04  0.50400001928E-02 0.  1.
       -1   -1    0    0    0  501  0.00000000000E+00  0.00000000000E+00 -0.18677132708E+04  0.18677132708E+04  0.50400001928E-02 0. -1.
    10030    2    1    2    0    0  0.00000000000E+00  0.00000000000E+00 -0.66072513399E+03  0.30747014076E+04  0.30028704673E+04 0.  0.
        1    1    3    3  502    0  0.12265039424E+04 -0.34941521752E+03  0.48099682039E+03  0.13629970125E+04  0.50400001928E-02 0.  1.
       -1    1    3    3    0  502 -0.12265039424E+04  0.34941521752E+03 -0.11417219544E+04  0.17117043951E+04  0.50400001928E-02 0. -1.
</event>
<event>
 5   0  0.1091075E-06  0.2974799E+04  0.7818609E-02  0.8250964E-01
        1   -1    0    0  501    0  0.00000000000E+00  0.00000000000E+00  0.18169058745E+04  0.18169058745E+04  0.50400001928E-02 0. -1.
       -1   -1    0    0    0  501  0.00000000000E+00  0.00000000000E+00 -0.12176507431E+04  0.12176507431E+04  0.50400001928E-02 0.  1.
    10030    2    1    2    0    0  0.00000000000E+00  0.00000000000E+00  0.59925513142E+03  0.30345566176E+04  0.29747986743E+04 0.  0.
        1    1    3    3  502    0  0.97127116595E+03 -0.37792555811E+03 -0.78289754937E+03  0.13035044987E+04  0.50400001928E-02 0.  1.
       -1    1    3    3    0  502 -0.97127116595E+03  0.37792555811E+03  0.13821526808E+04  0.17310521189E+04  0.50400001928E-02 0. -1.
</event>
<event>
 5   0  0.1054384E-06  0.3003546E+04  0.7818609E-02  0.8242719E-01
        1   -1    0    0  501    0  0.00000000000E+00  0.00000000000E+00  0.16382212404E+04  0.16382212404E+04  0.50400001928E-02 0.  1.
       -1   -1    0    0    0  501  0.00000000000E+00  0.00000000000E+00 -0.13766893488E+04  0.13766893488E+04  0.50400001928E-02 0. -1.
    10030    2    1    2    0    0  0.00000000000E+00  0.00000000000E+00  0.26153189160E+03  0.30149105892E+04  0.30035457264E+04 0.  0.
        2    1    3    3  502    0 -0.11720265063E+04 -0.87980816385E+03 -0.19851981723E+03  0.14788910218E+04  0.25500000920E-02 0. -1.
       -2    1    3    3    0  502  0.11720265063E+04  0.87980816385E+03  0.46005170883E+03  0.15360195674E+04  0.25500000920E-02 0.  1.
</event>
<event>
 5   0  0.1091076E-06  0.2921809E+04  0.7818609E-02  0.8266418E-01
        1   -1    0    0  501    0  0.00000000000E+00  0.00000000000E+00  0.12342777793E+04  0.12342777793E+04  0.50400001928E-02 0. -1.
       -1   -1    0    0    0  501  0.00000000000E+00  0.00000000000E+00 -0.17291420157E+04  0.17291420157E+04  0.50400001928E-02 0.  1.
    10030    2    1    2    0    0  0.00000000000E+00  0.00000000000E+00 -0.49486423643E+03  0.29634197950E+04  0.29218087324E+04 0.  0.
        3    1    3    3  502    0 -0.10163757878E+04 -0.91878629988E+03  0.26679289487E+03  0.13958389828E+04  0.10100000352E+00 0. -1.
       -3    1    3    3    0  502  0.10163757878E+04  0.91878629988E+03 -0.76165713129E+03  0.15675808122E+04  0.10100000352E+00 0.  1.
</event>
<event>
 5   0  0.2985941E-06  0.2939449E+04  0.7818609E-02  0.8261236E-01
        2   -1    0    0  501    0  0.00000000000E+00  0.00000000000E+00  0.19100330422E+04  0.19100330422E+04  0.25500000920E-02 0. -1.
       -2   -1    0    0    0  501  0.00000000000E+00  0.00000000000E+00 -0.11309175179E+04  0.11309175179E+04  0.25500000920E-02 0.  1.
    10030    2    1    2    0    0  0.00000000000E+00  0.00000000000E+00  0.77911552436E+03  0.30409505601E+04  0.29394488104E+04 0.  0.
        3    1    3    3  502    0  0.31067623105E+03  0.13046341555E+04 -0.23245242661E+03  0.13611113625E+04  0.10100000352E+00 0.  1.
       -3    1    3    3    0  502 -0.31067623105E+03 -0.13046341555E+04  0.10115679510E+04  0.16798391976E+04  0.10100000352E+00 0. -1.
</event>
<event>
 5   0  0.1091076E-06  0.2994313E+04  0.7818609E-02  0.8245357E-01
       -1   -1    0    0    0  501  0.00000000000E+00  0.00000000000E+00  0.11726982416E+04  0.11726982416E+04  0.50400001928E-02 0.  1.
        1   -1    0    0  501    0  0.00000000000E+00  0.00000000000E+00 -0.19113853068E+04  0.19113853068E+04  0.50400001928E-02 0. -1.
    10030    2    1    2    0    0  0.00000000000E+00  0.00000000000E+00 -0.73868706522E+03  0.30840835485E+04  0.29943134027E+04 0.  0.
        3    1    3    3  502    0 -0.10447967572E+04  0.22098760238E+03 -0.14501076097E+04  0.18009019613E+04  0.10100000352E+00 0. -1.
       -3    1    3    3    0  502  0.10447967572E+04 -0.22098760238E+03  0.71142054450E+03  0.12831815872E+04  0.10100000352E+00 0.  1.
</event>
<event>
 5   0  0.2970915E-06  0.3008053E+04  0.7818609E-02  0.8241435E-01
        2   -1    0    0  501    0  0.00000000000E+00  0.00000000000E+00  0.10841926213E+04  0.10841926213E+04  0.25500000920E-02 0. -1.
       -2   -1    0    0    0  501  0.00000000000E+00  0.00000000000E+00 -0.20864337675E+04  0.20864337675E+04  0.25500000920E-02 0.  1.
    10030    2    1    2    0    0  0.00000000000E+00  0.00000000000E+00 -0.10022411461E+04  0.31706263888E+04  0.30080532546E+04 0.  0.
        4    1    3    3  502    0 -0.66276282387E+03 -0.12804225404E+04 -0.95246650051E+03  0.17279845168E+04  0.12699999809E+01 0. -1.
       -4    1    3    3    0  502  0.66276282387E+03  0.12804225404E+04 -0.49774645606E+02  0.14426418720E+04  0.12699999809E+01 0.  1.
</event>
<event>
 5   0  0.2985941E-06  0.2949303E+04  0.7818609E-02  0.8258358E-01
        2   -1    0    0  501    0  0.00000000000E+00  0.00000000000E+00  0.14232677824E+04  0.14232677824E+04  0.25500000920E-02 0. -1.
       -2   -1    0    0    0  501  0.00000000000E+00  0.00000000000E+00 -0.15278899895E+04  0.15278899895E+04  0.25500000920E-02 0.  1.
    10030    2    1    2    0    0  0.00000000000E+00  0.00000000000E+00 -0.10462220700E+03  0.29511577719E+04  0.29493026953E+04 0.  0.
        3    1    3    3  502    0  0.45461622041E+02  0.75945504584E+03 -0.13163387607E+04  0.15203902357E+04  0.10100000352E+00 0.  1.
       -3    1    3    3    0  502 -0.45461622041E+02 -0.75945504584E+03  0.12117165537E+04  0.14307675362E+04  0.10100000352E+00 0. -1.
</event>
<event>
 5   0  0.2862033E-06  0.3022002E+04  0.7818609E-02  0.8237476E-01
        2   -1    0    0  501    0  0.00000000000E+00  0.00000000000E+00  0.14881856302E+04  0.14881856302E+04  0.25500000920E-02 0.  1.
       -2   -1    0    0    0  501  0.00000000000E+00  0.00000000000E+00 -0.15341666108E+04  0.15341666108E+04  0.25500000920E-02 0. -1.
    10030    2    1    2    0    0  0.00000000000E+00  0.00000000000E+00 -0.45980980610E+02  0.30223522410E+04  0.30220024517E+04 0.  0.
        2    1    3    3  502    0 -0.15013865407E+04  0.11548285446E+03 -0.14801244014E+03  0.15130781595E+04  0.25500000920E-02 0.  1.
       -2    1    3    3    0  502  0.15013865407E+04 -0.11548285446E+03  0.10203145953E+03  0.15092740815E+04  0.25500000920E-02 0. -1.
</event>
<event>
 5   0  0.1113245E-06  0.3036586E+04  0.7818609E-02  0.8233360E-01
       -1   -1    0    0    0  501  0.00000000000E+00  0.00000000000E+00  0.19402276743E+04  0.19402276743E+04  0.50400001928E-02 0.  1.
        1   -1    0    0  501    0  0.00000000000E+00  0.00000000000E+00 -0.11881151612E+04  0.11881151612E+04  0.50400001928E-02 0. -1.
    10030    2    1    2    0    0  0.00000000000E+00  0.00000000000E+00  0.75211251318E+03  0.31283428355E+04  0.30365861858E+04 0.  0.
        5    1    3    3  502    0  0.67652912656E+03  0.69623139751E+03  0.15787048237E+04  0.18533107749E+04  0.46999998093E+01 0.  1.
       -5    1    3    3    0  502 -0.67652912656E+03 -0.69623139751E+03 -0.82659231048E+03  0.12750320607E+04  0.46999998093E+01 0. -1.
</event>
<event>
 5   0  0.1091075E-06  0.2939789E+04  0.7818609E-02  0.8261137E-01
        1   -1    0    0  501    0  0.00000000000E+00  0.00000000000E+00  0.19720629012E+04  0.19720629012E+04  0.50400001928E-02 0. -1.
       -1   -1    0    0    0  501  0.00000000000E+00  0.00000000000E+00 -0.10955987505E+04  0.10955987505E+04  0.50400001928E-02 0.  1.
    10030    2    1    2    0    0  0.00000000000E+00  0.00000000000E+00  0.87646415070E+03  0.30676616517E+04  0.29397888703E+04 0.  0.
        1    1    3    3  502    0  0.77840953388E+03  0.98866306943E+03  0.12310246744E+04  0.17603402558E+04  0.50400001928E-02 0. -1.
       -1    1    3    3    0  502 -0.77840953388E+03 -0.98866306943E+03 -0.35456052365E+03  0.13073213959E+04  0.50400001928E-02 0.  1.
</event>
<event>
 5   0  0.2970915E-06  0.2971594E+04  0.7818609E-02  0.8251889E-01
        2   -1    0    0  501    0  0.00000000000E+00  0.00000000000E+00  0.19748935307E+04  0.19748935307E+04  0.25500000920E-02 0.  1.
       -2   -1    0    0    0  501  0.00000000000E+00  0.00000000000E+00 -0.11178284652E+04  0.11178284652E+04  0.25500000920E-02 0. -1.
    10030    2    1    2    0    0  0.00000000000E+00  0.00000000000E+00  0.85706506549E+03  0.30927219959E+04  0.29715936495E+04 0.  0.
        4    1    3    3  502    0  0.10467975958E+04  0.98093643002E+03  0.83103857958E+03  0.16579047681E+04  0.12699999809E+01 0. -1.
       -4    1    3    3    0  502 -0.10467975958E+04 -0.98093643002E+03  0.26026485908E+02  0.14348172278E+04  0.12699999809E+01 0.  1.
</event>
<event>
 5   0  0.2970915E-06  0.2834384E+04  0.7818609E-02  0.8292672E-01
        2   -1    0    0  501    0  0.00000000000E+00  0.00000000000E+00  0.17164312570E+04  0.17164312570E+04  0.25500000920E-02 0.  1.
       -2   -1    0    0    0  501  0.00000000000E+00  0.00000000000E+00 -0.11701217217E+04  0.11701217217E+04  0.25500000920E-02 0. -1.
    10030    2    1    2    0    0  0.00000000000E+00  0.00000000000E+00  0.54630953532E+03  0.28865529787E+04  0.28343842348E+04 0.  0.
        4    1    3    3  502    0 -0.27952662985E+03 -0.84199306797E+03 -0.85233068405E+03  0.12302669105E+04  0.12699999809E+01 0. -1.
       -4    1    3    3    0  502  0.27952662985E+03  0.84199306797E+03  0.13986402194E+04  0.16562860681E+04  0.12699999809E+01 0.  1.
</event>
<event>
 5   0  0.2948711E-06  0.2998728E+04  0.7818609E-02  0.8244094E-01
       -2   -1    0    0    0  501  0.00000000000E+00  0.00000000000E+00  0.86543919279E+03  0.86543919279E+03  0.25500000920E-02 0.  1.
        2   -1    0    0  501    0  0.00000000000E+00  0.00000000000E+00 -0.25976312323E+04  0.25976312323E+04  0.25500000920E-02 0. -1.
    10030    2    1    2    0    0  0.00000000000E+00  0.00000000000E+00 -0.17321920395E+04  0.34630704251E+04  0.29987276481E+04 0.  0.
        5    1    3    3  502    0 -0.98559910734E+03 -0.33266118638E+03 -0.21131168534E+04  0.23552821469E+04  0.46999998093E+01 0. -1.
       -5    1    3    3    0  502  0.98559910734E+03  0.33266118638E+03  0.38092481395E+03  0.11077882781E+04  0.46999998093E+01 0.  1.
</event>
<event>
 5   0  0.2985941E-06  0.2997859E+04  0.7818609E-02  0.8244343E-01
        2   -1    0    0  501    0  0.00000000000E+00  0.00000000000E+00  0.21195042039E+04  0.21195042039E+04  0.25500000920E-02 0. -1.
       -2   -1    0    0    0  501  0.00000000000E+00  0.00000000000E+00 -0.10600541610E+04  0.10600541610E+04  0.25500000920E-02 0.  1.
    10030    2    1    2    0    0  0.00000000000E+00  0.00000000000E+00  0.10594500429E+04  0.31795583649E+04  0.29978587362E+04 0.  0.
        3    1    3    3  502    0  0.23317195851E+03 -0.60030057289E+03  0.19652984144E+04  0.20681218069E+04  0.10100000352E+00 0. -1.
       -3    1    3    3    0  502 -0.23317195851E+03  0.60030057289E+03 -0.90584837154E+03  0.11114365580E+04  0.10100000352E+00 0.  1.
</event>
<event>
 5   0  0.2970915E-06  0.2996055E+04  0.7818609E-02  0.8244858E-01
        2   -1    0    0  501    0  0.00000000000E+00  0.00000000000E+00  0.20265162555E+04  0.20265162555E+04  0.25500000920E-02 0. -1.
       -2   -1    0    0    0  501  0.00000000000E+00  0.00000000000E+00 -0.11073612915E+04  0.11073612915E+04  0.25500000920E-02 0.  1.
    10030    2    1    2    0    0  0.00000000000E+00  0.00000000000E+00  0.91915496401E+03  0.31338775470E+04  0.29960545108E+04 0.  0.
        4    1    3    3  502    0  0.66799431709E+03 -0.30828858755E+03  0.18245296132E+04  0.19672743030E+04  0.12699999809E+01 0. -1.
       -4    1    3    3    0  502 -0.66799431709E+03  0.30828858755E+03 -0.90537464915E+03  0.11666032441E+04  0.12699999809E+01 0.  1.
</event>
<event>
 5   0  0.1113245E-06  0.2816014E+04  0.7818609E-02  0.8298314E-01
        1   -1    0    0  501    0  0.00000000000E+00  0.00000000000E+00  0.22283872077E+04  0.22283872077E+04  0.50400001928E-02 0.  1.
       -1   -1    0    0    0  501  0.00000000000E+00  0.00000000000E+00 -0.88964982213E+03  0.88964982215E+03  0.50400001928E-02 0. -1.
    10030    2    1    2    0    0  0.00000000000E+00  0.00000000000E+00  0.13387373855E+04  0.31180370298E+04  0.28160144055E+04 0.  0.
        5    1    3    3  502    0  0.64640067138E+03  0.92768427739E+03 -0.25968765561E+03  0.11601257324E+04  0.46999998093E+01 0. -1.
       -5    1    3    3    0  502 -0.64640067138E+03 -0.92768427739E+03  0.15984250411E+04  0.19579112974E+04  0.46999998093E+01 0.  1.
</event>
<event>
 5   0  0.1054384E-06  0.3015464E+04  0.7818609E-02  0.8239329E-01
       -1   -1    0    0    0  501  0.00000000000E+00  0.00000000000E+00  0.15755249725E+04  0.15755249726E+04  0.50400001928E-02 0.  1.
        1   -1    0    0  501    0  0.00000000000E+00  0.00000000000E+00 -0.14428561783E+04  0.14428561783E+04  0.50400001928E-02 0. -1.
    10030    2    1    2    0    0  0.00000000000E+00  0.00000000000E+00  0.13266879423E+03  0.30183811509E+04  0.30154641041E+04 0.  0.
        2    1    3    3  502    0  0.64915999994E+03  0.11688552961E+04 -0.63120738403E+03  0.14785310853E+04  0.25500000920E-02 0. -1.
       -2    1    3    3    0  502 -0.64915999994E+03 -0.11688552961E+04  0.76387617825E+03  0.15398500655E+04  0.25500000920E-02 0.  1.
</event>
<event>
 5   0  0.2970915E-06  0.3001702E+04  0.7818609E-02  0.8243245E-01
        2   -1    0    0  501    0  0.00000000000E+00  0.00000000000E+00  0.15595600523E+04  0.15595600523E+04  0.25500000920E-02 0. -1.
       -2   -1    0    0    0  501  0.00000000000E+00  0.00000000000E+00 -0.14443520034E+04  0.14443520034E+04  0.25500000920E-02 0.  1.
    10030    2    1    2    0    0  0.00000000000E+00  0.00000000000E+00  0.11520804892E+03  0.30039120558E+04  0.30017019746E+04 0.  0.
        4    1    3    3  502    0 -0.33882590183E+03  0.87575026052E+03 -0.11140742145E+04  0.14570190386E+04  0.12699999809E+01 0.  1.
       -4    1    3    3    0  502  0.33882590183E+03 -0.87575026052E+03  0.12292822634E+04  0.15468930172E+04  0.12699999809E+01 0. -1.
</event>
<event>
 5   0  0.2985941E-06  0.3042199E+04  0.7818609E-02  0.8231782E-01
       -2   -1    0    0    0  501  0.00000000000E+00  0.00000000000E+00  0.18033582072E+04  0.18033582072E+04  0.25500000920E-02 0.  1.
        2   -1    0    0  501    0  0.00000000000E+00  0.00000000000E+00 -0.12830195991E+04  0.12830195991E+04  0.25500000920E-02 0. -1.
    10030    2    1    2    0    0  0.00000000000E+00  0.00000000000E+00  0.52033860816E+03  0.30863778063E+04  0.30421991546E+04 0.  0.
        3    1    3    3  502    0  0.97423556959E+03 -0.70288062243E+03  0.12067611210E+04  0.17027767111E+04  0.10100000352E+00 0.  1.
       -3    1    3    3    0  502 -0.97423556959E+03  0.70288062243E+03 -0.68642251281E+03  0.13836010952E+04  0.10100000352E+00 0. -1.
</event>
<event>
 5   0  0.9749500E-07  0.3018843E+04  0.7818609E-02  0.8238371E-01
        3   -1    0    0  501    0  0.00000000000E+00  0.00000000000E+00  0.25147733825E+04  0.25147733845E+04  0.10100000352E+00 0.  1.
       -3   -1    0    0    0  501  0.00000000000E+00  0.00000000000E+00 -0.90598740974E+03  0.90598741537E+03  0.10100000352E+00 0. -1.
    10030    2    1    2    0    0  0.00000000000E+00  0.00000000000E+00  0.16087859728E+04  0.34207607999E+04  0.30188428485E+04 0.  0.
        5    1    3    3  502    0 -0.78825411460E+03  0.11797302459E+04  0.22082998856E+03  0.14359303521E+04  0.46999998093E+01 0. -1.
       -5    1    3    3    0  502  0.78825411460E+03 -0.11797302459E+04  0.13879559842E+04  0.19848304478E+04  0.46999998093E+01 0.  1.
</event>
<event>
 5   0  0.2862033E-06  0.3168646E+04  0.7818609E-02  0.8197147E-01
        2   -1    0    0  501    0  0.00000000000E+00  0.00000000000E+00  0.20195991533E+04  0.20195991533E+04  0.25500000920E-02 0.  1.
       -2   -1    0    0    0  501  0.00000000000E+00  0.00000000000E+00 -0.12428601405E+04  0.12428601405E+04  0.25500000920E-02 0. -1.
    10030    2    1    2    0    0  0.00000000000E+00  0.00000000000E+00  0.77673901284E+03  0.32624592939E+04  0.31686459490E+04 0.  0.
        2    1    3    3  502    0  0.33166455847E+03  0.63139790949E+03  0.18449682011E+04  0.19780223362E+04  0.25500000920E-02 0.  1.
       -2    1    3    3    0  502 -0.33166455847E+03 -0.63139790949E+03 -0.10682291883E+04  0.12844369576E+04  0.25500000920E-02 0. -1.
</event>
<event>
 5   0  0.2970915E-06  0.3016616E+04  0.7818609E-02  0.8239002E-01
       -2   -1    0    0    0  501  0.00000000000E+00  0.00000000000E+00  0.18565079502E+04  0.18565079502E+04  0.25500000920E-02 0.  1.
        2   -1    0    0  501    0  0.00000000000E+00  0.00000000000E+00 -0.12254155092E+04  0.12254155092E+04  0.25500000920E-02 0. -1.
    10030    2    1    2    0    0  0.00000000000E+00  0.00000000000E+00  0.63109244092E+03  0.30819234594E+04  0.30166164059E+04 0.  0.
        4    1    3    3  502    0 -0.63061005560E+03  0.12739380938E+04 -0.19975875587E+03  0.14354415636E+04  0.12699999809E+01 0. -1.
       -4    1    3    3    0  502  0.63061005560E+03 -0.12739380938E+04  0.83085119680E+03  0.16464818958E+04  0.12699999809E+01 0.  1.
</event>
<event>
 5   0  0.1091075E-06  0.2981773E+04  0.7818609E-02  0.8248955E-01
       -1   -1    0    0    0  501  0.00000000000E+00  0.00000000000E+00  0.11450776125E+04  0.11450776126E+04  0.50400001928E-02 0.  1.
        1   -1    0    0  501    0  0.00000000000E+00  0.00000000000E+00 -0.19411283222E+04  0.19411283222E+04  0.50400001928E-02 0. -1.
    10030    2    1    2    0    0  0.00000000000E+00  0.00000000000E+00 -0.79605070964E+03  0.30862059347E+04  0.29817730194E+04 0.  0.
        1    1    3    3  502    0  0.24980598495E+03 -0.64462009854E+03 -0.17651990870E+04  0.18957494345E+04  0.50400001928E-02 0. -1.
       -1    1    3    3    0  502 -0.24980598495E+03  0.64462009854E+03  0.96914837738E+03  0.11904565002E+04  0.50400001928E-02 0.  1.
</event>
<event>
 5   0  0.2862033E-06  0.2987744E+04  0.7818609E-02  0.8247239E-01
        2   -1    0    0  501    0  0.00000000000E+00  0.00000000000E+00  0.13469467157E+04  0.13469467157E+04  0.25500000920E-02 0. -1.
       -2   -1    0    0    0  501  0.00000000000E+00  0.00000000000E+00 -0.16568236926E+04  0.16568236926E+04  0.25500000920E-02 0.  1.
    10030    2    1    2    0    0  0.00000000000E+00  0.00000000000E+00 -0.30987697690E+03  0.30037704083E+04  0.29877437850E+04 0.  0.
        2    1    3    3  502    0  0.17821345179E+03  0.12229295255E+04  0.68881096126E+03  0.14148417577E+04  0.25500000920E-02 0. -1.
       -2    1    3    3    0  502 -0.17821345179E+03 -0.12229295255E+04 -0.99868793816E+03  0.15889286506E+04  0.25500000920E-02 0.  1.
</event>
<event>
 5   0  0.1113245E-06  0.3000102E+04  0.7818609E-02  0.8243702E-01
        1   -1    0    0  501    0  0.00000000000E+00  0.00000000000E+00  0.22465016784E+04  0.22465016784E+04  0.50400001928E-02 0.  1.
       -1   -1    0    0    0  501  0.00000000000E+00  0.00000000000E+00 -0.10016256363E+04  0.10016256364E+04  0.50400001928E-02 0. -1.
    10030    2    1    2    0    0  0.00000000000E+00  0.00000000000E+00  0.12448760421E+04  0.32481273148E+04  0.30001024471E+04 0.  0.
        5    1    3    3  502    0 -0.58346790166E+03  0.12613262069E+04  0.12336953688E+04  0.18583339165E+04  0.46999998093E+01 0. -1.
       -5    1    3    3    0  502  0.58346790166E+03 -0.12613262069E+04  0.11180673286E+02  0.13897933982E+04  0.46999998093E+01 0.  1.
</event>
<event>
 5   0  0.1091076E-06  0.2981407E+04  0.7818609E-02  0.8249060E-01
       -1   -1    0    0    0  501  0.00000000000E+00  0.00000000000E+00  0.21595254381E+04  0.21595254381E+04  0.50400001928E-02 0. -1.
        1   -1    0    0  501    0  0.00000000000E+00  0.00000000000E+00 -0.10290212057E+04  0.10290212057E+04  0.50400001928E-02 0.  1.
    10030    2    1    2    0    0  0.00000000000E+00  0.00000000000E+00  0.11305042324E+04  0.31885466438E+04  0.29814073657E+04 0.  0.
        3    1    3    3  502    0 -0.55602976073E+03  0.13731231052E+04  0.74280238162E+03  0.16572240480E+04  0.10100000352E+00 0.  1.
       -3    1    3    3    0  502  0.55602976073E+03 -0.13731231052E+04  0.38770185078E+03  0.15313225958E+04  0.10100000352E+00 0. -1.
</event>
<event>
 5   0  0.2948711E-06  0.2994042E+04  0.7818609E-02  0.8245434E-01
        2   -1    0    0  501    0  0.00000000000E+00  0.00000000000E+00  0.18364636340E+04  0.18364636340E+04  0.25500000920E-02 0.  1.
       -2   -1    0    0    0  501  0.00000000000E+00  0.00000000000E+00 -0.12203191941E+04  0.12203191941E+04  0.25500000920E-02 0. -1.
    10030    2    1    2    0    0  0.00000000000E+00  0.00000000000E+00  0.61614443988E+03  0.30567828281E+04  0.29940419648E+04 0.  0.
        5    1    3    3  502    0  0.56539338180E+03 -0.72862053858E+03  0.15119737740E+04  0.17710574098E+04  0.46999998093E+01 0.  1.
       -5    1    3    3    0  502 -0.56539338180E+03  0.72862053858E+03 -0.89582933410E+03  0.12857254183E+04  0.46999998093E+01 0. -1.
</event>
<event>
 5   0  0.1113245E-06  0.2990215E+04  0.7818609E-02  0.8246530E-01
       -1   -1    0    0    0  501  0.00000000000E+00  0.00000000000E+00  0.10740541232E+04  0.10740541232E+04  0.50400001928E-02 0.  1.
        1   -1    0    0  501    0  0.00000000000E+00  0.00000000000E+00 -0.20812239140E+04  0.20812239140E+04  0.50400001928E-02 0. -1.
    10030    2    1    2    0    0  0.00000000000E+00  0.00000000000E+00 -0.10071697908E+04  0.31552780372E+04  0.29902154612E+04 0.  0.
        5    1    3    3  502    0 -0.94918300507E+03  0.21166997848E+03 -0.17018641205E+04  0.19601316618E+04  0.46999998093E+01 0. -1.
       -5    1    3    3    0  502  0.94918300507E+03 -0.21166997848E+03  0.69469432968E+03  0.11951463754E+04  0.46999998093E+01 0.  1.
</event>
<event>
 5   0  0.2985941E-06  0.2847532E+04  0.7818609E-02  0.8288662E-01
        2   -1    0    0  501    0  0.00000000000E+00  0.00000000000E+00  0.16311778462E+04  0.16311778462E+04  0.25500000920E-02 0.  1.
       -2   -1    0    0    0  501  0.00000000000E+00  0.00000000000E+00 -0.12427278987E+04  0.12427278987E+04  0.25500000920E-02 0. -1.
    10030    2    1    2    0    0  0.00000000000E+00  0.00000000000E+00  0.38844994752E+03  0.28739057449E+04  0.28475324175E+04 0.  0.
        3    1    3    3  502    0  0.42318328486E+03 -0.12196030391E+04  0.80028189832E+03  0.15188702356E+04  0.10100000352E+00 0.  1.
       -3    1    3    3    0  502 -0.42318328486E+03  0.12196030391E+04 -0.41183195080E+03  0.13550355093E+04  0.10100000352E+00 0. -1.
</event>
<event>
 5   0  0.1091075E-06  0.2985727E+04  0.7818609E-02  0.8247818E-01
       -1   -1    0    0    0  501  0.00000000000E+00  0.00000000000E+00  0.12404488019E+04  0.12404488019E+04  0.50400001928E-02 0. -1.
        1   -1    0    0  501    0  0.00000000000E+00  0.00000000000E+00 -0.17966416816E+04  0.17966416816E+04  0.50400001928E-02 0.  1.
    10030    2    1    2    0    0  0.00000000000E+00  0.00000000000E+00 -0.55619287972E+03  0.30370904835E+04  0.29857273963E+04 0.  0.
        1    1    3    3  502    0 -0.20828773184E+03 -0.15817327774E+03 -0.17731561049E+04  0.17923406867E+04  0.50400001928E-02 0.  1.
       -1    1    3    3    0  502  0.20828773184E+03  0.15817327774E+03  0.12169632252E+04  0.12447497967E+04  0.50400001928E-02 0. -1.
</event>
<event>
 5   0  0.1113245E-06  0.2877878E+04  0.7818609E-02  0.8279490E-01
        1   -1    0    0  501    0  0.00000000000E+00  0.00000000000E+00  0.68727997735E+03  0.68727997737E+03  0.50400001928E-02 0. -1.
       -1   -1    0    0    0  501  0.00000000000E+00  0.00000000000E+00 -0.30126666491E+04  0.30126666491E+04  0.50400001928E-02 0.  1.
    10030    2    1    2    0    0  0.00000000000E+00  0.00000000000E+00 -0.23253866718E+04  0.36999466265E+04  0.28778780144E+04 0.  0.
        5    1    3    3  502    0 -0.10491781523E+04  0.46558566161E+03 -0.22783084433E+04  0.25511284280E+04  0.46999998093E+01 0.  1.
       -5    1    3    3    0  502  0.10491781523E+04 -0.46558566161E+03 -0.47078228481E+02  0.11488181985E+04  0.46999998093E+01 0. -1.
</event>
<event>
 5   0  0.2985941E-06  0.2985753E+04  0.7818609E-02  0.8247811E-01
        2   -1    0    0  501    0  0.00000000000E+00  0.00000000000E+00  0.19571097052E+04  0.19571097052E+04  0.25500000920E-02 0. -1.
       -2   -1    0    0    0  501  0.00000000000E+00  0.00000000000E+00 -0.11387612677E+04  0.11387612677E+04  0.25500000920E-02 0.  1.
    10030    2    1    2    0    0  0.00000000000E+00  0.00000000000E+00  0.81834843750E+03  0.30958709729E+04  0.29857533247E+04 0.  0.
        3    1    3    3  502    0  0.76876405037E+03  0.12562894167E+04  0.15642299902E+03  0.14811243798E+04  0.10100000352E+00 0.  1.
       -3    1    3    3    0  502 -0.76876405037E+03 -0.12562894167E+04  0.66192543848E+03  0.16147465931E+04  0.10100000352E+00 0. -1.
</event>
<event>
 5   0  0.2948711E-06  0.3010169E+04  0.7818609E-02  0.8240833E-01
       -2   -1    0    0    0  501  0.00000000000E+00  0.00000000000E+00  0.17093757409E+04  0.17093757409E+04  0.25500000920E-02 0. -1.
        2   -1    0    0  501    0  0.00000000000E+00  0.00000000000E+00 -0.13252089801E+04  0.13252089801E+04  0.25500000920E-02 0.  1.
    10030    2    1    2    0    0  0.00000000000E+00  0.00000000000E+00  0.38416676083E+03  0.30345847211E+04  0.30101694851E+04 0.  0.
        5    1    3    3  502    0  0.24831739732E+03  0.13920158959E+04  0.71190921137E+03  0.15831003125E+04  0.46999998093E+01 0. -1.
       -5    1    3    3    0  502 -0.24831739732E+03 -0.13920158959E+04 -0.32774245054E+03  0.14514844085E+04  0.46999998093E+01 0.  1.
</event>
<event>
 5   0  0.2948711E-06  0.2993336E+04  0.7818609E-02  0.8245636E-01
       -2   -1    0    0    0  501  0.00000000000E+00  0.00000000000E+00  0.10990917212E+04  0.10990917212E+04  0.25500000920E-02 0.  1.
        2   -1    0    0  501    0  0.00000000000E+00  0.00000000000E+00 -0.20380605351E+04  0.20380605351E+04  0.25500000920E-02 0. -1.
    10030    2    1    2    0    0  0.00000000000E+00  0.00000000000E+00 -0.93896881385E+03  0.31371522563E+04  0.29933362401E+04 0.  0.
        5    1    3    3  502    0 -0.65848730877E+03 -0.11955861247E+04  0.17398615101E+03  0.13759814636E+04  0.46999998093E+01 0. -1.
       -5    1    3    3    0  502  0.65848730877E+03  0.11955861247E+04 -0.11129549649E+04  0.17611707927E+04  0.46999998093E+01 0.  1.
</event>
<event>
 5   0  0.1097402E-06  0.3056680E+04  0.7818609E-02  0.8227728E-01
        1   -1    0    0  501    0  0.00000000000E+00  0.00000000000E+00  0.12735875397E+04  0.12735875397E+04  0.50400001928E-02 0. -1.
       -1   -1    0    0    0  501  0.00000000000E+00  0.00000000000E+00 -0.18340496060E+04  0.18340496060E+04  0.50400001928E-02 0.  1.
    10030    2    1    2    0    0  0.00000000000E+00  0.00000000000E+00 -0.56046206626E+03  0.31076371457E+04  0.30566797185E+04 0.  0.
        4    1    3    3  502    0  0.26543772548E+03  0.14131608623E+04 -0.80688252888E+03  0.16488001204E+04  0.12699999809E+01 0. -1.
       -4    1    3    3    0  502 -0.26543772548E+03 -0.14131608623E+04  0.24642046262E+03  0.14588370252E+04  0.12699999809E+01 0.  1.
</event>
<event>
 5   0  0.9749500E-07  0.2909497E+04  0.7818609E-02  0.8270057E-01
       -3   -1    0    0    0  501  0.00000000000E+00  0.00000000000E+00  0.13767414026E+04  0.13767414063E+04  0.10100000352E+00 0. -1.
        3   -1    0    0  501    0  0.00000000000E+00  0.00000000000E+00 -0.15371759605E+04  0.15371759638E+04  0.10100000352E+00 0.  1.
    10030    2    1    2    0    0  0.00000000000E+00  0.00000000000E+00 -0.16043455790E+03  0.29139173701E+04  0.29094974123E+04 0.  0.
        1    1    3    3  502    0 -0.73893121215E+03  0.12374941281E+04  0.11726935784E+03  0.14460854593E+04  0.50400001928E-02 0. -1.
       -1    1    3    3    0  502  0.73893121215E+03 -0.12374941281E+04 -0.27770391574E+03  0.14678319107E+04  0.50400001928E-02 0.  1.
</event>
<event>
 5   0  0.1097402E-06  0.3001951E+04  0.7818609E-02  0.8243174E-01
       -1   -1    0    0    0  501  0.00000000000E+00  0.00000000000E+00  0.11494025736E+04  0.11494025736E+04  0.50400001928E-02 0. -1.
        1   -1    0    0  501    0  0.00000000000E+00  0.00000000000E+00 -0.19600858670E+04  0.19600858670E+04  0.50400001928E-02 0.  1.
    10030    2    1    2    0    0  0.00000000000E+00  0.00000000000E+00 -0.81068329337E+03  0.31094884406E+04  0.30019511921E+04 0.  0.
        4    1    3    3  502    0  0.10487675959E+04  0.93118564359E+03 -0.95919771664E+03  0.16991415613E+04  0.12699999809E+01 0. -1.
       -4    1    3    3    0  502 -0.10487675959E+04 -0.93118564359E+03  0.14851442327E+03  0.14103468792E+04  0.12699999809E+01 0.  1.
</event>
<event>
 5   0  0.1091076E-06  0.2994033E+04  0.7818609E-02  0.8245437E-01
       -1   -1    0    0    0  501  0.00000000000E+00  0.00000000000E+00  0.73399415005E+03  0.73399415007E+03  0.50400001928E-02 0. -1.
        1   -1    0    0  501    0  0.00000000000E+00  0.00000000000E+00 -0.30532371370E+04  0.30532371370E+04  0.50400001928E-02 0.  1.
    10030    2    1    2    0    0  0.00000000000E+00  0.00000000000E+00 -0.23192429869E+04  0.37872312870E+04  0.29940328637E+04 0.  0.
        3    1    3    3  502    0  0.84598801129E+03 -0.12348785837E+04 -0.11860749514E+04  0.19098153399E+04  0.10100000352E+00 0.  1.
       -3    1    3    3    0  502 -0.84598801129E+03  0.12348785837E+04 -0.11331680355E+04  0.18774159472E+04  0.10100000352E+00 0. -1.
</event>
<event>
 5   0  0.1091075E-06  0.3005105E+04  0.7818609E-02  0.8242275E-01
       -1   -1    0    0    0  501  0.00000000000E+00  0.00000000000E+00  0.18289848132E+04  0.18289848132E+04  0.50400001928E-02 0.  1.
        1   -1    0    0  501    0  0.00000000000E+00  0.00000000000E+00 -0.12343811510E+04  0.12343811510E+04  0.50400001928E-02 0. -1.
    10030    2    1    2    0    0  0.00000000000E+00  0.00000000000E+00  0.59460366218E+03  0.30633659643E+04  0.30051052421E+04 0.  0.
        1    1    3    3  502    0  0.56738732709E+03  0.10016141768E+04 -0.68708272340E+03  0.13406125492E+04  0.50400001928E-02 0. -1.
       -1    1    3    3    0  502 -0.56738732709E+03 -0.10016141768E+04  0.12816863856E+04  0.17227534151E+04  0.50400001928E-02 0.  1.
</event>
<event>
 5   0  0.2985941E-06  0.2990245E+04  0.7818609E-02  0.8246522E-01
       -2   -1    0    0    0  501  0.00000000000E+00  0.00000000000E+00  0.12829212509E+04  0.12829212509E+04  0.25500000920E-02 0. -1.
        2   -1    0    0  501    0  0.00000000000E+00  0.00000000000E+00 -0.17424225528E+04  0.17424225528E+04  0.25500000920E-02 0.  1.
    10030    2    1    2    0    0  0.00000000000E+00  0.00000000000E+00 -0.45950130195E+03  0.30253438037E+04  0.29902447532E+04 0.  0.
        3    1    3    3  502    0  0.87914555182E+03 -0.68668365492E+03 -0.12369048461E+04  0.16656425042E+04  0.10100000352E+00 0.  1.
       -3    1    3    3    0  502 -0.87914555182E+03  0.68668365492E+03  0.77740354413E+03  0.13597012995E+04  0.10100000352E+00 0. -1.
</event>
<event>
 5   0  0.2948711E-06  0.3021406E+04  0.7818609E-02  0.8237645E-01
        2   -1    0    0  501    0  0.00000000000E+00  0.00000000000E+00  0.25567209503E+04  0.25567209503E+04  0.25500000920E-02 0.  1.
       -2   -1    0    0    0  501  0.00000000000E+00  0.00000000000E+00 -0.89263699710E+03  0.89263699710E+03  0.25500000920E-02 0. -1.
    10030    2    1    2    0    0  0.00000000000E+00  0.00000000000E+00  0.16640839532E+04  0.34493579474E+04  0.30214061041E+04 0.  0.
        5    1    3    3  502    0 -0.14342062735E+04 -0.52081564923E+02  0.13706026842E+04  0.19844984082E+04  0.46999998093E+01 0.  1.
       -5    1    3    3    0  502  0.14342062735E+04  0.52081564923E+02  0.29348126894E+03  0.14648595392E+04  0.46999998093E+01 0. -1.
</event>
<event>
 5   0  0.2948711E-06  0.2980952E+04  0.7818609E-02  0.8249191E-01
        2   -1    0    0  501    0  0.00000000000E+00  0.00000000000E+00  0.10859210752E+04  0.10859210752E+04  0.25500000920E-02 0. -1.
       -2   -1    0    0    0  501  0.00000000000E+00  0.00000000000E+00 -0.20457457260E+04  0.20457457260E+04  0.25500000920E-02 0.  1.
    10030    2    1    2    0    0  0.00000000000E+00  0.00000000000E+00 -0.95982465084E+03  0.31316668012E+04  0.29809517932E+04 0.  0.
        5    1    3    3  502    0 -0.74523075062E+03 -0.60361644378E+03 -0.16785515802E+04  0.19332043814E+04  0.46999998093E+01 0.  1.
       -5    1    3    3    0  502  0.74523075062E+03  0.60361644378E+03  0.71872692932E+03  0.11984624198E+04  0.46999998093E+01 0. -1.
</event>
<event>
 5   0  0.1091075E-06  0.2998914E+04  0.7818609E-02  0.8244041E-01
       -1   -1    0    0    0  501  0.00000000000E+00  0.00000000000E+00  0.12228959047E+04  0.12228959047E+04  0.50400001928E-02 0.  1.
        1   -1    0    0  501    0  0.00000000000E+00  0.00000000000E+00 -0.18385630043E+04  0.18385630043E+04  0.50400001928E-02 0. -1.
    10030    2    1    2    0    0  0.00000000000E+00  0.00000000000E+00 -0.61566709951E+03  0.30614589090E+04  0.29989139158E+04 0.  0.
        1    1    3    3  502    0 -0.11542491919E+04  0.14716846099E+03 -0.12732963166E+04  0.17248864493E+04  0.50400001928E-02 0. -1.
       -1    1    3    3    0  502  0.11542491919E+04 -0.14716846099E+03  0.65762921711E+03  0.13365724597E+04  0.50400001928E-02 0.  1.
</event>
<event>
 5   0  0.3113328E-06  0.2796637E+04  0.7818609E-02  0.8304313E-01
       -2   -1    0    0    0  501  0.00000000000E+00  0.00000000000E+00  0.16286213643E+04  0.16286213643E+04  0.25500000920E-02 0. -1.
        2   -1    0    0  501    0  0.00000000000E+00  0.00000000000E+00 -0.12005823887E+04  0.12005823887E+04  0.25500000920E-02 0.  1.
    10030    2    1    2    0    0  0.00000000000E+00  0.00000000000E+00  0.42803897553E+03  0.28292037530E+04  0.27966366427E+04 0.  0.
        1    1    3    3  502    0  0.55690189914E+03 -0.31490013960E+03  0.14718781526E+04  0.16049071996E+04  0.50400001928E-02 0. -1.
       -1    1    3    3    0  502 -0.55690189914E+03  0.31490013960E+03 -0.10438391770E+04  0.12242965534E+04  0.50400001928E-02 0.  1.
</event>
<event>
 5   0  0.3113328E-06  0.2993683E+04  0.7818609E-02  0.8245537E-01
        2   -1    0    0  501    0  0.00000000000E+00  0.00000000000E+00  0.24139957465E+04  0.24139957465E+04  0.25500000920E-02 0.  1.
       -2   -1    0    0    0  501  0.00000000000E+00  0.00000000000E+00 -0.92814363747E+03  0.92814363747E+03  0.25500000920E-02 0. -1.
    10030    2    1    2    0    0  0.00000000000E+00  0.00000000000E+00  0.14858521090E+04  0.33421393840E+04  0.29936832117E+04 0.  0.
        1    1    3    3  502    0 -0.45105786728E+03 -0.56429029547E+02 -0.84922120044E+03  0.96323106382E+03  0.50400001928E-02 0. -1.
       -1    1    3    3    0  502  0.45105786728E+03  0.56429029547E+02  0.23350733095E+04  0.23789083202E+04  0.50400001928E-02 0.  1.
</event>
<event>
 5   0  0.1091076E-06  0.2992705E+04  0.7818609E-02  0.8245817E-01
        1   -1    0    0  501    0  0.00000000000E+00  0.00000000000E+00  0.95252672046E+03  0.95252672047E+03  0.50400001928E-02 0.  1.
       -1   -1    0    0    0  501  0.00000000000E+00  0.00000000000E+00 -0.23506652878E+04  0.23506652879E+04  0.50400001928E-02 0. -1.
    10030    2    1    2    0    0  0.00000000000E+00  0.00000000000E+00 -0.13981385674E+04  0.33031920083E+04  0.29927054633E+04 0.  0.
        3    1    3    3  502    0  0.78181227924E+03  0.84797727085E+03 -0.17512689764E+04  0.20969594487E+04  0.10100000352E+00 0. -1.
       -3    1    3    3    0  502 -0.78181227924E+03 -0.84797727085E+03  0.35313040898E+03  0.12062325596E+04  0.10100000352E+00 0.  1.
</event>
<event>
 5   0  0.2970915E-06  0.2983566E+04  0.7818609E-02  0.8248439E-01
       -2   -1    0    0    0  501  0.00000000000E+00  0.00000000000E+00  0.13722055620E+04  0.13722055620E+04  0.25500000920E-02 0.  1.
        2   -1    0    0  501    0  0.00000000000E+00  0.00000000000E+00 -0.16217811408E+04  0.16217811408E+04  0.25500000920E-02 0. -1.
    10030    2    1    2    0    0  0.00000000000E+00  0.00000000000E+00 -0.24957557882E+03  0.29939867028E+04  0.29835663906E+04 0.  0.
        4    1    3    3  502    0 -0.10524392687E+04 -0.90985398305E+03  0.41556552220E+03  0.14519500684E+04  0.12699999809E+01 0.  1.
       -4    1    3    3    0  502  0.10524392687E+04  0.90985398305E+03 -0.66514110102E+03  0.15420366345E+04  0.12699999809E+01 0. -1.
</event>
<event>
 5   0  0.1054384E-06  0.2652559E+04  0.7818609E-02  0.8350564E-01
        1   -1    0    0  501    0  0.00000000000E+00  0.00000000000E+00  0.18407926054E+04  0.18407926054E+04  0.50400001928E-02 0.  1.
       -1   -1    0    0    0  501  0.00000000000E+00  0.00000000000E+00 -0.95557623206E+03  0.95557623207E+03  0.50400001928E-02 0. -1.
    10030    2    1    2    0    0  0.00000000000E+00  0.00000000000E+00  0.88521637338E+03  0.27963688375E+04  0.26525592637E+04 0.  0.
        2    1    3    3  502    0  0.43017816795E+03  0.73217840618E+02  0.17629487180E+04  0.18161504042E+04  0.25500000920E-02 0.  1.
       -2    1    3    3    0  502 -0.43017816795E+03 -0.73217840618E+02 -0.87773234458E+03  0.98021843335E+03  0.25500000920E-02 0. -1.
</event>
<event>
 5   0  0.2862033E-06  0.3037755E+04  0.7818609E-02  0.8233031E-01
        2   -1    0    0  501    0  0.00000000000E+00  0.00000000000E+00  0.18013713401E+04  0.18013713401E+04  0.25500000920E-02 0. -1.
       -2   -1    0    0    0  501  0.00000000000E+00  0.00000000000E+00 -0.12806846241E+04  0.12806846241E+04  0.25500000920E-02 0.  1.
    10030    2    1    2    0    0  0.00000000000E+00  0.00000000000E+00  0.52068671597E+03  0.30820559642E+04  0.30377548140E+04 0.  0.
        2    1    3    3  502    0 -0.37880926105E+03  0.20692624902E+03 -0.12171472286E+04  0.12914187179E+04  0.25500000920E-02 0.  1.
       -2    1    3    3    0  502  0.37880926105E+03 -0.20692624902E+03  0.17378339446E+04  0.17906372463E+04  0.25500000920E-02 0. -1.
</event>
<event>
 5   0  0.1091075E-06  0.2981195E+04  0.7818609E-02  0.8249121E-01
        1   -1    0    0  501    0  0.00000000000E+00  0.00000000000E+00  0.11271417024E+04  0.11271417024E+04  0.50400001928E-02 0.  1.
       -1   -1    0    0    0  501  0.00000000000E+00  0.00000000000E+00 -0.19712530165E+04  0.19712530165E+04  0.50400001928E-02 0. -1.
    10030    2    1    2    0    0  0.00000000000E+00  0.00000000000E+00 -0.84411131409E+03  0.30983947188E+04  0.29811953849E+04 0.  0.
        1    1    3    3  502    0  0.43965717308E+03  0.12720088101E+04 -0.10880084131E+04  0.17306262305E+04  0.50400001928E-02 0. -1.
       -1    1    3    3    0  502 -0.43965717308E+03 -0.12720088101E+04  0.24389709903E+03  0.13677684883E+04  0.50400001928E-02 0.  1.
</event>
<event>
 5   0  0.2862033E-06  0.3006113E+04  0.7818609E-02  0.8241988E-01
       -2   -1    0    0    0  501  0.00000000000E+00  0.00000000000E+00  0.18417869345E+04  0.18417869345E+04  0.25500000920E-02 0. -1.
        2   -1    0    0  501    0  0.00000000000E+00  0.00000000000E+00 -0.12266230441E+04  0.12266230441E+04  0.25500000920E-02 0.  1.
    10030    2    1    2    0    0  0.00000000000E+00  0.00000000000E+00  0.61516389043E+03  0.30684099786E+04  0.30061126367E+04 0.  0.
        2    1    3    3  502    0  0.93354104877E+03 -0.83561177100E+03  0.11551097868E+04  0.17041198729E+04  0.25500000920E-02 0. -1.
       -2    1    3    3    0  502 -0.93354104877E+03  0.83561177100E+03 -0.53994589635E+03  0.13642901057E+04  0.25500000920E-02 0.  1.
</event>
<event>
 5   0  0.2948711E-06  0.2944592E+04  0.7818609E-02  0.8259732E-01
        2   -1    0    0  501    0  0.00000000000E+00  0.00000000000E+00  0.20442920095E+04  0.20442920095E+04  0.25500000920E-02 0. -1.
       -2   -1    0    0    0  501  0.00000000000E+00  0.00000000000E+00 -0.10603450909E+04  0.10603450910E+04  0.25500000920E-02 0.  1.
    10030    2    1    2    0    0  0.00000000000E+00  0.00000000000E+00  0.98394691851E+03  0.31046371004E+04  0.29445916503E+04 0.  0.
        5    1    3    3  502    0 -0.44076433977E+03  0.86573062126E+03 -0.67444248070E+03  0.11826484945E+04  0.46999998093E+01 0.  1.
       -5    1    3    3    0  502  0.44076433977E+03 -0.86573062126E+03  0.16583893992E+04  0.19219886059E+04  0.46999998093E+01 0. -1.
</event>
<event>
 5   0  0.2948711E-06  0.2997426E+04  0.7818609E-02  0.8244466E-01
       -2   -1    0    0    0  501  0.00000000000E+00  0.00000000000E+00  0.14052162204E+04  0.14052162204E+04  0.25500000920E-02 0.  1.
        2   -1    0    0  501    0  0.00000000000E+00  0.00000000000E+00 -0.15984310077E+04  0.15984310077E+04  0.25500000920E-02 0. -1.
    10030    2    1    2    0    0  0.00000000000E+00  0.00000000000E+00 -0.19321478737E+03  0.30036472281E+04  0.29974263489E+04 0.  0.
        5    1    3    3  502    0 -0.16628950302E+03  0.99484324747E+03 -0.12073996444E+04  0.15732772410E+04  0.46999998093E+01 0. -1.
       -5    1    3    3    0  502  0.16628950302E+03 -0.99484324747E+03  0.10141848570E+04  0.14303699871E+04  0.46999998093E+01 0.  1.
</event>
<event>
 5   0  0.2948711E-06  0.3048793E+04  0.7818609E-02  0.8229933E-01
       -2   -1    0    0    0  501  0.00000000000E+00  0.00000000000E+00  0.13438309036E+04  0.13438309036E+04  0.25500000920E-02 0. -1.
        2   -1    0    0  501    0  0.00000000000E+00  0.00000000000E+00 -0.17292245734E+04  0.17292245734E+04  0.25500000920E-02 0.  1.
    10030    2    1    2    0    0  0.00000000000E+00  0.00000000000E+00 -0.38539366986E+03  0.30730554770E+04  0.30487934800E+04 0.  0.
        5    1    3    3  502    0  0.94872179910E+03 -0.50036370117E+02 -0.13943190581E+04  0.16872238785E+04  0.46999998093E+01 0.  1.
       -5    1    3    3    0  502 -0.94872179910E+03  0.50036370117E+02  0.10089253882E+04  0.13858315985E+04  0.46999998093E+01 0. -1.
</event>
<event>
 5   0  0.1091076E-06  0.3035499E+04  0.7818609E-02  0.8233666E-01
       -1   -1    0    0    0  501  0.00000000000E+00  0.00000000000E+00  0.16630192075E+04  0.16630192075E+04  0.50400001928E-02 0.  1.
        1   -1    0    0  501    0  0.00000000000E+00  0.00000000000E+00 -0.13851696852E+04  0.13851696852E+04  0.50400001928E-02 0. -1.
    10030    2    1    2    0    0  0.00000000000E+00  0.00000000000E+00  0.27784952225E+03  0.30481888927E+04  0.30354991630E+04 0.  0.
        3    1    3    3  502    0  0.12682162351E+04  0.12324176381E+03 -0.68914536863E+03  0.14486139240E+04  0.10100000352E+00 0.  1.
       -3    1    3    3    0  502 -0.12682162351E+04 -0.12324176381E+03  0.96699489087E+03  0.15995749687E+04  0.10100000352E+00 0. -1.
</event>
<event>
 5   0  0.1091076E-06  0.3000935E+04  0.7818609E-02  0.8243464E-01
       -1   -1    0    0    0  501  0.00000000000E+00  0.00000000000E+00  0.10385535955E+04  0.10385535955E+04  0.50400001928E-02 0. -1.
        1   -1    0    0  501    0  0.00000000000E+00  0.00000000000E+00 -0.21678254528E+04  0.21678254528E+04  0.50400001928E-02 0.  1.
    10030    2    1    2    0    0  0.00000000000E+00  0.00000000000E+00 -0.11292718573E+04  0.32063790484E+04  0.30009351333E+04 0.  0.
        3    1    3    3  502    0  0.53370056966E+03 -0.13891522998E+04 -0.76966473334E+03  0.16753997200E+04  0.10100000352E+00 0. -1.
       -3    1    3    3    0  502 -0.53370056966E+03  0.13891522998E+04 -0.35960712397E+03  0.15309793283E+04  0.10100000352E+00 0.  1.
</event>
<event>
 5   0  0.1091076E-06  0.3014507E+04  0.7818609E-02  0.8239600E-01
        1   -1    0    0  501    0  0.00000000000E+00  0.00000000000E+00  0.21567119031E+04  0.21567119031E+04  0.50400001928E-02 0. -1.
       -1   -1    0    0    0  501  0.00000000000E+00  0.00000000000E+00 -0.10533687601E+04  0.10533687601E+04  0.50400001928E-02 0.  1.
    10030    2    1    2    0    0  0.00000000000E+00  0.00000000000E+00  0.11033431430E+04  0.32100806632E+04  0.30145068872E+04 0.  0.
        3    1    3    3  502    0  0.74999232103E+02  0.14974124251E+04  0.71644937875E+03  0.16616764361E+04  0.10100000352E+00 0. -1.
       -3    1    3    3    0  502 -0.74999232103E+02 -0.14974124251E+04  0.38689376424E+03  0.15484042272E+04  0.10100000352E+00 0.  1.
</event>
<event>
 5   0  0.3113328E-06  0.3013207E+04  0.7818609E-02  0.8239970E-01
        2   -1    0    0  501    0  0.00000000000E+00  0.00000000000E+00  0.16972638237E+04  0.16972638237E+04  0.25500000920E-02 0. -1.
       -2   -1    0    0    0  501  0.00000000000E+00  0.00000000000E+00 -0.13373604943E+04  0.13373604943E+04  0.25500000920E-02 0.  1.
    10030    2    1    2    0    0  0.00000000000E+00  0.00000000000E+00  0.35990332940E+03  0.30346243181E+04  0.30132066550E+04 0.  0.
        1    1    3    3  502    0  0.32089365330E+03  0.52482236808E+03 -0.12051210313E+04  0.13530439589E+04  0.50400001928E-02 0.  1.
       -1    1    3    3    0  502 -0.32089365330E+03 -0.52482236808E+03  0.15650243607E+04  0.16815803592E+04  0.50400001928E-02 0. -1.
</event>
<event>
 5   0  0.1113245E-06  0.3020630E+04  0.7818609E-02  0.8237864E-01
       -1   -1    0    0    0  501  0.00000000000E+00  0.00000000000E+00  0.10707288723E+04  0.10707288723E+04  0.50400001928E-02 0.  1.
        1   -1    0    0  501    0  0.00000000000E+00  0.00000000000E+00 -0.21303727386E+04  0.21303727386E+04  0.50400001928E-02 0. -1.
    10030    2    1    2    0    0  0.00000000000E+00  0.00000000000E+00 -0.10596438664E+04  0.32011016109E+04  0.30206301329E+04 0.  0.
        5    1    3    3  502    0  0.29872435545E+03  0.12056506005E+04 -0.14403406972E+04  0.19019550534E+04  0.46999998093E+01 0. -1.
       -5    1    3    3    0  502 -0.29872435545E+03 -0.12056506005E+04  0.38069683083E+03  0.12991465575E+04  0.46999998093E+01 0.  1.
</event>
<event>
 5   0  0.3113328E-06  0.2966122E+04  0.7818609E-02  0.8253472E-01
        2   -1    0    0  501    0  0.00000000000E+00  0.00000000000E+00  0.12371858766E+04  0.12371858766E+04  0.25500000920E-02 0.  1.
       -2   -1    0    0    0  501  0.00000000000E+00  0.00000000000E+00 -0.17778002582E+04  0.17778002582E+04  0.25500000920E-02 0. -1.
    10030    2    1    2    0    0  0.00000000000E+00  0.00000000000E+00 -0.54061438160E+03  0.30149861349E+04  0.29661216232E+04 0.  0.
        1    1    3    3  502    0 -0.14300392368E+04  0.99355500177E+02 -0.65681559381E+03  0.15767975325E+04  0.50400001928E-02 0. -1.
       -1    1    3    3    0  502  0.14300392368E+04 -0.99355500177E+02  0.11620121221E+03  0.14381886024E+04  0.50400001928E-02 0.  1.
</event>
<event>
 5   0  0.2985941E-06  0.3007227E+04  0.7818609E-02  0.8241670E-01
       -2   -1    0    0    0  501  0.00000000000E+00  0.00000000000E+00  0.17986734062E+04  0.17986734062E+04  0.25500000920E-02 0.  1.
        2   -1    0    0  501    0  0.00000000000E+00  0.00000000000E+00 -0.12569558292E+04  0.12569558292E+04  0.25500000920E-02 0. -1.
    10030    2    1    2    0    0  0.00000000000E+00  0.00000000000E+00  0.54171757704E+03  0.30556292354E+04  0.30072266444E+04 0.  0.
        3    1    3    3  502    0 -0.60189763276E+02  0.37164759437E+03  0.17500048763E+04  0.17900452004E+04  0.10100000352E+00 0.  1.
       -3    1    3    3    0  502  0.60189763276E+02 -0.37164759437E+03 -0.12082872993E+04  0.12655840350E+04  0.10100000352E+00 0. -1.
</event>
<event>
 5   0  0.2862033E-06  0.2996074E+04  0.7818609E-02  0.8244853E-01
       -2   -1    0    0    0  501  0.00000000000E+00  0.00000000000E+00  0.25711156644E+04  0.25711156644E+04  0.25500000920E-02 0. -1.
        2   -1    0    0  501    0  0.00000000000E+00  0.00000000000E+00 -0.87281780871E+03  0.87281780871E+03  0.25500000920E-02 0.  1.
    10030    2    1    2    0    0  0.00000000000E+00  0.00000000000E+00  0.16982978557E+04  0.34439334731E+04  0.29960744585E+04 0.  0.
        2    1    3    3  502    0  0.54988332349E+03  0.90666679477E+02 -0.74921941797E+03  0.93376755806E+03  0.25500000920E-02 0.  1.
       -2    1    3    3    0  502 -0.54988332349E+03 -0.90666679477E+02  0.24475172737E+04  0.25101659151E+04  0.25500000920E-02 0. -1.
</event>
<event>
 5   0  0.1054384E-06  0.2993711E+04  0.7818609E-02  0.8245529E-01
       -1   -1    0    0    0  501  0.00000000000E+00  0.00000000000E+00  0.92740693047E+03  0.92740693048E+03  0.50400001928E-02 0. -1.
        1   -1    0    0  501    0  0.00000000000E+00  0.00000000000E+00 -0.24159587773E+04  0.24159587773E+04  0.50400001928E-02 0.  1.
    10030    2    1    2    0    0  0.00000000000E+00  0.00000000000E+00 -0.14885518468E+04  0.33433657078E+04  0.29937113514E+04 0.  0.
        2    1    3    3  502    0 -0.28974941798E+03 -0.69853040956E+03  0.69837134858E+03  0.10293794241E+04  0.25500000920E-02 0. -1.
       -2    1    3    3    0  502  0.28974941798E+03  0.69853040956E+03 -0.21869231954E+04  0.23139862837E+04  0.25500000920E-02 0.  1.
</event>
<event>
 5   0  0.2948711E-06  0.3003358E+04  0.7818609E-02  0.8242773E-01
       -2   -1    0    0    0  501  0.00000000000E+00  0.00000000000E+00  0.18156204127E+04  0.18156204127E+04  0.25500000920E-02 0.  1.
        2   -1    0    0  501    0  0.00000000000E+00  0.00000000000E+00 -0.12420214839E+04  0.12420214839E+04  0.25500000920E-02 0. -1.
    10030    2    1    2    0    0  0.00000000000E+00  0.00000000000E+00  0.57359892880E+03  0.30576418966E+04  0.30033578270E+04 0.  0.
        5    1    3    3  502    0 -0.68510983456E+03 -0.30012558048E+03 -0.10388752462E+04  0.12801307420E+04  0.46999998093E+01 0. -1.
       -5    1    3    3    0  502  0.68510983456E+03  0.30012558048E+03  0.16124741750E+04  0.17775111546E+04  0.46999998093E+01 0.  1.
</event>
<event>
 5   0  0.2948711E-06  0.3001924E+04  0.7818609E-02  0.8243182E-01
       -2   -1    0    0    0  501  0.00000000000E+00  0.00000000000E+00  0.18356148924E+04  0.18356148924E+04  0.25500000920E-02 0.  1.
        2   -1    0    0  501    0  0.00000000000E+00  0.00000000000E+00 -0.12273196680E+04  0.12273196680E+04  0.25500000920E-02 0. -1.
    10030    2    1    2    0    0  0.00000000000E+00  0.00000000000E+00  0.60829522440E+03  0.30629345604E+04  0.30019235568E+04 0.  0.
        5    1    3    3  502    0 -0.21410626189E+03 -0.89950969362E+03  0.15105075797E+04  0.17710489600E+04  0.46999998093E+01 0.  1.
       -5    1    3    3    0  502  0.21410626189E+03  0.89950969362E+03 -0.90221235533E+03  0.12918856004E+04  0.46999998093E+01 0. -1.
</event>
<event>
 5   0  0.3113328E-06  0.2998956E+04  0.7818609E-02  0.8244029E-01
        2   -1    0    0  501    0  0.00000000000E+00  0.00000000000E+00  0.18783844156E+04  0.18783844156E+04  0.25500000920E-02 0.  1.
       -2   -1    0    0    0  501  0.00000000000E+00  0.00000000000E+00 -0.11970039757E+04  0.11970039757E+04  0.25500000920E-02 0. -1.
    10030    2    1    2    0    0  0.00000000000E+00  0.00000000000E+00  0.68138043992E+03  0.30753883913E+04  0.29989555605E+04 0.  0.
        1    1    3    3  502    0  0.42538101323E+03  0.72007965300E+03  0.16169862834E+04  0.18204692675E+04  0.50400001928E-02 0.  1.
       -1    1    3    3    0  502 -0.42538101323E+03 -0.72007965300E+03 -0.93560584348E+03  0.12549191239E+04  0.50400001928E-02 0. -1.
</event>
<event>
 5   0  0.2970915E-06  0.3003972E+04  0.7818609E-02  0.8242598E-01
       -2   -1    0    0    0  501  0.00000000000E+00  0.00000000000E+00  0.18168983810E+04  0.18168983810E+04  0.25500000920E-02 0. -1.
        2   -1    0    0  501    0  0.00000000000E+00  0.00000000000E+00 -0.12416555797E+04  0.12416555797E+04  0.25500000920E-02 0.  1.
    10030    2    1    2    0    0  0.00000000000E+00  0.00000000000E+00  0.57524280130E+03  0.30585539608E+04  0.30039720456E+04 0.  0.
        4    1    3    3  502    0 -0.37324137990E+03  0.11033101306E+04 -0.67795483348E+03  0.13476745680E+04  0.12699999809E+01 0.  1.
       -4    1    3    3    0  502  0.37324137990E+03 -0.11033101306E+04  0.12531976348E+04  0.17108793928E+04  0.12699999809E+01 0. -1.
</event>
<event>
 5   0  0.1054384E-06  0.2996265E+04  0.7818609E-02  0.8244798E-01
        1   -1    0    0  501    0  0.00000000000E+00  0.00000000000E+00  0.12713165524E+04  0.12713165524E+04  0.50400001928E-02 0.  1.
       -1   -1    0    0    0  501  0.00000000000E+00  0.00000000000E+00 -0.17654141733E+04  0.17654141733E+04  0.50400001928E-02 0. -1.
    10030    2    1    2    0    0  0.00000000000E+00  0.00000000000E+00 -0.49409762091E+03  0.30367307256E+04  0.29962645145E+04 0.  0.
        2    1    3    3  502    0  0.72114087338E+02 -0.12699335816E+04 -0.10492360661E+04  0.16488869172E+04  0.25500000920E-02 0.  1.
       -2    1    3    3    0  502 -0.72114087338E+02  0.12699335816E+04  0.55513844522E+03  0.13878438084E+04  0.25500000920E-02 0. -1.
</event>
<event>
 5   0  0.1054384E-06  0.3006835E+04  0.7818609E-02  0.8241782E-01
        1   -1    0    0  501    0  0.00000000000E+00  0.00000000000E+00  0.15218804455E+04  0.15218804455E+04  0.50400001928E-02 0. -1.
       -1   -1    0    0    0  501  0.00000000000E+00  0.00000000000E+00 -0.14851786727E+04  0.14851786727E+04  0.50400001928E-02 0.  1.
    10030    2    1    2    0    0  0.00000000000E+00  0.00000000000E+00  0.36701772777E+02  0.30070591182E+04  0.30068351336E+04 0.  0.
        2    1    3    3  502    0  0.22680652080E+03 -0.86178100375E+03  0.12292906559E+04  0.15183093272E+04  0.25500000920E-02 0. -1.
       -2    1    3    3    0  502 -0.22680652080E+03  0.86178100375E+03 -0.11925888831E+04  0.14887497911E+04  0.25500000920E-02 0.  1.
</event>
<event>
 5   0  0.2948711E-06  0.3000526E+04  0.7818609E-02  0.8243581E-01
        2   -1    0    0  501    0  0.00000000000E+00  0.00000000000E+00  0.11937076373E+04  0.11937076373E+04  0.25500000920E-02 0. -1.
       -2   -1    0    0    0  501  0.00000000000E+00  0.00000000000E+00 -0.18855447117E+04  0.18855447117E+04  0.25500000920E-02 0.  1.
    10030    2    1    2    0    0  0.00000000000E+00  0.00000000000E+00 -0.69183707438E+03  0.30792523490E+04  0.30005260358E+04 0.  0.
        5    1    3    3  502    0  0.38716707699E+03 -0.11447242916E+02  0.11415020602E+04  0.12054370280E+04  0.46999998093E+01 0. -1.
       -5    1    3    3    0  502 -0.38716707699E+03  0.11447242916E+02 -0.18333391346E+04  0.18738153211E+04  0.46999998093E+01 0.  1.
</event>
<event>
 5   0  0.2985941E-06  0.2960061E+04  0.7818609E-02  0.8255228E-01
        2   -1    0    0  501    0  0.00000000000E+00  0.00000000000E+00  0.12952499796E+04  0.12952499796E+04  0.25500000920E-02 0. -1.
       -2   -1    0    0    0  501  0.00000000000E+00  0.00000000000E+00 -0.16911721921E+04  0.16911721921E+04  0.25500000920E-02 0.  1.
    10030    2    1    2    0    0  0.00000000000E+00  0.00000000000E+00 -0.39592221256E+03  0.29864221717E+04  0.29600613151E+04 0.  0.
        3    1    3    3  502    0 -0.22851354907E+03 -0.13914689785E+04 -0.65150467468E+03  0.15533392133E+04  0.10100000352E+00 0.  1.
       -3    1    3    3    0  502  0.22851354907E+03  0.13914689785E+04  0.25558246212E+03  0.14330829583E+04  0.10100000352E+00 0. -1.
</event>
<event>
 5   0  0.1054384E-06  0.2979595E+04  0.7818609E-02  0.8249582E-01
       -1   -1    0    0    0  501  0.00000000000E+00  0.00000000000E+00  0.99959391597E+03  0.99959391598E+03  0.50400001928E-02 0. -1.
        1   -1    0    0  501    0  0.00000000000E+00  0.00000000000E+00 -0.22203984281E+04  0.22203984281E+04  0.50400001928E-02 0.  1.
    10030    2    1    2    0    0  0.00000000000E+00  0.00000000000E+00 -0.12208045122E+04  0.32199923441E+04  0.29795951133E+04 0.  0.
        2    1    3    3  502    0 -0.14560912769E+04  0.10451225584E+03 -0.28914327659E+03  0.14881963757E+04  0.25500000920E-02 0. -1.
       -2    1    3    3    0  502  0.14560912769E+04 -0.10451225584E+03 -0.93166123558E+03  0.17317959684E+04  0.25500000920E-02 0.  1.
</event>
<event>
 5   0  0.2862033E-06  0.2988889E+04  0.7818609E-02  0.8246911E-01
        2   -1    0    0  501    0  0.00000000000E+00  0.00000000000E+00  0.10177833884E+04  0.10177833884E+04  0.25500000920E-02 0. -1.
       -2   -1    0    0    0  501  0.00000000000E+00  0.00000000000E+00 -0.21943420680E+04  0.21943420680E+04  0.25500000920E-02 0.  1.
    10030    2    1    2    0    0  0.00000000000E+00  0.00000000000E+00 -0.11765586796E+04  0.32121254564E+04  0.29888893625E+04 0.  0.
        2    1    3    3  502    0 -0.12331187899E+04 -0.44192409659E+03  0.18481409034E+03  0.13228889239E+04  0.25500000920E-02 0. -1.
       -2    1    3    3    0  502  0.12331187899E+04  0.44192409659E+03 -0.13613727699E+04  0.18892365325E+04  0.25500000920E-02 0.  1.
</event>
<event>
 5   0  0.1097402E-06  0.3014241E+04  0.7818609E-02  0.8239676E-01
        1   -1    0    0  501    0  0.00000000000E+00  0.00000000000E+00  0.17440895733E+04  0.17440895733E+04  0.50400001928E-02 0. -1.
       -1   -1    0    0    0  501  0.00000000000E+00  0.00000000000E+00 -0.13023484476E+04  0.13023484476E+04  0.50400001928E-02 0.  1.
    10030    2    1    2    0    0  0.00000000000E+00  0.00000000000E+00  0.44174112574E+03  0.30464380210E+04  0.30142410974E+04 0.  0.
        4    1    3    3  502    0  0.11791065995E+04 -0.24195985289E+03 -0.69577574647E+03  0.13903030050E+04  0.12699999809E+01 0.  1.
       -4    1    3    3    0  502 -0.11791065995E+04  0.24195985289E+03  0.11375168722E+04  0.16561350159E+04  0.12699999809E+01 0. -1.
</event>
<event>
 5   0  0.1091076E-06  0.2996257E+04  0.7818609E-02  0.8244801E-01
       -1   -1    0    0    0  501  0.00000000000E+00  0.00000000000E+00  0.13477142280E+04  0.13477142280E+04  0.50400001928E-02 0.  1.
        1   -1    0    0  501    0  0.00000000000E+00  0.00000000000E+00 -0.16653297770E+04  0.16653297770E+04  0.50400001928E-02 0. -1.
    10030    2    1    2    0    0  0.00000000000E+00  0.00000000000E+00 -0.31761554903E+03  0.30130440050E+04  0.29962567545E+04 0.  0.
        3    1    3    3  502    0  0.90970468753E+03 -0.20570540074E+03 -0.13377719396E+04  0.16308007551E+04  0.10100000352E+00 0. -1.
       -3    1    3    3    0  502 -0.90970468753E+03  0.20570540074E+03  0.10201563905E+04  0.13822432499E+04  0.10100000352E+00 0.  1.
</event>
<event>
 5   0  0.3113328E-06  0.3002094E+04  0.7818609E-02  0.8243133E-01
        2   -1    0    0  501    0  0.00000000000E+00  0.00000000000E+00  0.16248700264E+04  0.16248700264E+04  0.25500000920E-02 0.  1.
       -2   -1    0    0    0  501  0.00000000000E+00  0.00000000000E+00 -0.13866602861E+04  0.13866602862E+04  0.25500000920E-02 0. -1.
    10030    2    1    2    0    0  0.00000000000E+00  0.00000000000E+00  0.23820974025E+03  0.30115303126E+04  0.30020944261E+04 0.  0.
        1    1    3    3  502    0 -0.67451350577E+03 -0.65945719110E+03 -0.10521653238E+04  0.14131185814E+04  0.50400001928E-02 0. -1.
       -1    1    3    3    0  502  0.67451350577E+03  0.65945719110E+03  0.12903750641E+04  0.15984117312E+04  0.50400001928E-02 0.  1.
</event>
<event>
 5   0  0.1054384E-06  0.2972200E+04  0.7818609E-02  0.8251714E-01
       -1   -1    0    0    0  501  0.00000000000E+00  0.00000000000E+00  0.13830091964E+04  0.13830091965E+04  0.50400001928E-02 0.  1.
        1   -1    0    0  501    0  0.00000000000E+00  0.00000000000E+00 -0.15968756904E+04  0.15968756904E+04  0.50400001928E-02 0. -1.
    10030    2    1    2    0    0  0.00000000000E+00  0.00000000000E+00 -0.21386649392E+03  0.29798848868E+04  0.29722003737E+04 0.  0.
        2    1    3    3  502    0  0.13173366705E+04  0.25362703570E+03 -0.74795411245E+03  0.15359485444E+04  0.25500000920E-02 0. -1.
       -2    1    3    3    0  502 -0.13173366705E+04 -0.25362703570E+03  0.53408761853E+03  0.14439363424E+04  0.25500000920E-02 0.  1.
</event>
<event>
 5   0  0.3113328E-06  0.2981782E+04  0.7818609E-02  0.8248952E-01
       -2   -1    0    0    0  501  0.00000000000E+00  0.00000000000E+00  0.13265651472E+04  0.13265651472E+04  0.25500000920E-02 0. -1.
        2   -1    0    0  501    0  0.00000000000E+00  0.00000000000E+00 -0.16755721538E+04  0.16755721538E+04  0.25500000920E-02 0.  1.
    10030    2    1    2    0    0  0.00000000000E+00  0.00000000000E+00 -0.34900700662E+03  0.30021373010E+04  0.29817817632E+04 0.  0.
        1    1    3    3  502    0 -0.46820010167E+03  0.55470301271E+03 -0.14856410894E+04  0.16534921270E+04  0.50400001928E-02 0.  1.
       -1    1    3    3    0  502  0.46820010167E+03 -0.55470301271E+03  0.11366340827E+04  0.13486451741E+04  0.50400001928E-02 0. -1.
</event>
<event>
 5   0  0.2985941E-06  0.2992287E+04  0.7818609E-02  0.8245937E-01
        2   -1    0    0  501    0  0.00000000000E+00  0.00000000000E+00  0.13919587691E+04  0.13919587691E+04  0.25500000920E-02 0. -1.
       -2   -1    0    0    0  501  0.00000000000E+00  0.00000000000E+00 -0.16081263337E+04  0.16081263337E+04  0.25500000920E-02 0.  1.
    10030    2    1    2    0    0  0.00000000000E+00  0.00000000000E+00 -0.21616756458E+03  0.30000851028E+04  0.29922871199E+04 0.  0.
        3    1    3    3  502    0 -0.31580020262E+03 -0.99737841645E+03 -0.11804280267E+04  0.15773090408E+04  0.10100000352E+00 0.  1.
       -3    1    3    3    0  502  0.31580020262E+03  0.99737841645E+03  0.96426046215E+03  0.14227760620E+04  0.10100000352E+00 0. -1.
</event>
<event>
 5   0  0.1091075E-06  0.3008610E+04  0.7818609E-02  0.8241276E-01
        1   -1    0    0  501    0  0.00000000000E+00  0.00000000000E+00  0.22177902503E+04  0.22177902503E+04  0.50400001928E-02 0. -1.
       -1   -1    0    0    0  501  0.00000000000E+00  0.00000000000E+00 -0.10203551338E+04  0.10203551338E+04  0.50400001928E-02 0.  1.
    10030    2    1    2    0    0  0.00000000000E+00  0.00000000000E+00  0.11974351165E+04  0.32381453841E+04  0.30086100895E+04 0.  0.
        1    1    3    3  502    0 -0.64310006362E+03 -0.42614726570E+03 -0.79122385334E+03  0.11050856845E+04  0.50400001928E-02 0.  1.
       -1    1    3    3    0  502  0.64310006362E+03  0.42614726570E+03  0.19886589698E+04  0.21330596997E+04  0.50400001928E-02 0. -1.
</event>
<event>
 5   0  0.1091075E-06  0.3001320E+04  0.7818609E-02  0.8243354E-01
       -1   -1    0    0    0  501  0.00000000000E+00  0.00000000000E+00  0.10130045275E+04  0.10130045275E+04  0.50400001928E-02 0. -1.
        1   -1    0    0  501    0  0.00000000000E+00  0.00000000000E+00 -0.22230705817E+04  0.22230705817E+04  0.50400001928E-02 0.  1.
    10030    2    1    2    0    0  0.00000000000E+00  0.00000000000E+00 -0.12100660542E+04  0.32360751093E+04  0.30013200858E+04 0.  0.
        1    1    3    3  502    0  0.12252512497E+04  0.25037654402E+03 -0.14994020720E+04  0.19524691066E+04  0.50400001928E-02 0.  1.
       -1    1    3    3    0  502 -0.12252512497E+04 -0.25037654402E+03  0.28933601780E+03  0.12836060026E+04  0.50400001928E-02 0. -1.
</event>
<event>
 5   0  0.3113328E-06  0.2946085E+04  0.7818609E-02  0.8259297E-01
       -2   -1    0    0    0  501  0.00000000000E+00  0.00000000000E+00  0.14701974352E+04  0.14701974352E+04  0.25500000920E-02 0.  1.
        2   -1    0    0  501    0  0.00000000000E+00  0.00000000000E+00 -0.14758927205E+04  0.14758927205E+04  0.25500000920E-02 0. -1.
    10030    2    1    2    0    0  0.00000000000E+00  0.00000000000E+00 -0.56952852265E+01  0.29460901557E+04  0.29460846507E+04 0.  0.
        1    1    3    3  502    0  0.74378292737E+03  0.32191079116E+03  0.12272010337E+04  0.14706671879E+04  0.50400001928E-02 0.  1.
       -1    1    3    3    0  502 -0.74378292737E+03 -0.32191079116E+03 -0.12328963190E+04  0.14754229678E+04  0.50400001928E-02 0. -1.
</event>
<event>
 5   0  0.1054384E-06  0.2991523E+04  0.7818609E-02  0.8246156E-01
        1   -1    0    0  501    0  0.00000000000E+00  0.00000000000E+00  0.22093867335E+04  0.22093867335E+04  0.50400001928E-02 0.  1.
       -1   -1    0    0    0  501  0.00000000000E+00  0.00000000000E+00 -0.10126349420E+04  0.10126349420E+04  0.50400001928E-02 0. -1.
    10030    2    1    2    0    0  0.00000000000E+00  0.00000000000E+00  0.11967517915E+04  0.32220216755E+04  0.29915228274E+04 0.  0.
        2    1    3    3  502    0 -0.80006501758E+03 -0.86602855571E+03 -0.39297463369E+03  0.12427946550E+04  0.25500000920E-02 0. -1.
       -2    1    3    3    0  502  0.80006501758E+03  0.86602855571E+03  0.15897264252E+04  0.19792270205E+04  0.25500000920E-02 0.  1.
</event>
<event>
 5   0  0.1091075E-06  0.3019556E+04  0.7818609E-02  0.8238169E-01
        1   -1    0    0  501    0  0.00000000000E+00  0.00000000000E+00  0.19283660602E+04  0.19283660602E+04  0.50400001928E-02 0. -1.
       -1   -1    0    0    0  501  0.00000000000E+00  0.00000000000E+00 -0.11820521210E+04  0.11820521210E+04  0.50400001928E-02 0.  1.
    10030    2    1    2    0    0  0.00000000000E+00  0.00000000000E+00  0.74631393923E+03  0.31104181812E+04  0.30195557233E+04 0.  0.
        1    1    3    3  502    0  0.14917618284E+04  0.15959280275E+01  0.61269095348E+03  0.16126828901E+04  0.50400001928E-02 0. -1.
       -1    1    3    3    0  502 -0.14917618284E+04 -0.15959280275E+01  0.13362298575E+03  0.14977352910E+04  0.50400001928E-02 0.  1.
</event>
<event>
 5   0  0.2985941E-06  0.2970475E+04  0.7818609E-02  0.8252213E-01
       -2   -1    0    0    0  501  0.00000000000E+00  0.00000000000E+00  0.95114903927E+03  0.95114903927E+03  0.25500000920E-02 0.  1.
        2   -1    0    0  501    0  0.00000000000E+00  0.00000000000E+00 -0.23192262606E+04  0.23192262606E+04  0.25500000920E-02 0. -1.
    10030    2    1    2    0    0  0.00000000000E+00  0.00000000000E+00 -0.13680772213E+04  0.32703752998E+04  0.29704745948E+04 0.  0.
        3    1    3    3  502    0  0.90332468489E+02  0.14711332812E+04 -0.48241929749E+03  0.15508454065E+04  0.10100000352E+00 0. -1.
       -3    1    3    3    0  502 -0.90332468489E+02 -0.14711332812E+04 -0.88565792379E+03  0.17195298934E+04  0.10100000352E+00 0.  1.
</event>
<event>
 5   0  0.1097402E-06  0.3029133E+04  0.7818609E-02  0.8235461E-01
       -1   -1    0    0    0  501  0.00000000000E+00  0.00000000000E+00  0.25026846406E+04  0.25026846406E+04  0.50400001928E-02 0. -1.
        1   -1    0    0  501    0  0.00000000000E+00  0.00000000000E+00 -0.91658013932E+03  0.91658013933E+03  0.50400001928E-02 0.  1.
    10030    2    1    2    0    0  0.00000000000E+00  0.00000000000E+00  0.15861045013E+04  0.34192647799E+04  0.30291325732E+04 0.  0.
        4    1    3    3  502    0  0.27197568388E+03 -0.13884037288E+04  0.18280005893E+03  0.14265528947E+04  0.12699999809E+01 0.  1.
       -4    1    3    3    0  502 -0.27197568388E+03  0.13884037288E+04  0.14033044423E+04  0.19927118853E+04  0.12699999809E+01 0. -1.
</event>
<event>
 5   0  0.1091075E-06  0.2990293E+04  0.7818609E-02  0.8246508E-01
       -1   -1    0    0    0  501  0.00000000000E+00  0.00000000000E+00  0.98737383049E+03  0.98737383050E+03  0.50400001928E-02 0. -1.
        1   -1    0    0  501    0  0.00000000000E+00  0.00000000000E+00 -0.22640487191E+04  0.22640487191E+04  0.50400001928E-02 0.  1.
    10030    2    1    2    0    0  0.00000000000E+00  0.00000000000E+00 -0.12766748886E+04  0.32514225496E+04  0.29902925985E+04 0.  0.
        1    1    3    3  502    0  0.31127512766E+03  0.14609099848E+04 -0.56693508287E+03  0.15976750536E+04  0.50400001928E-02 0. -1.
       -1    1    3    3    0  502 -0.31127512766E+03 -0.14609099848E+04 -0.70973980572E+03  0.16537474960E+04  0.50400001928E-02 0.  1.
</event>
<event>
 5   0  0.1091075E-06  0.3002685E+04  0.7818609E-02  0.8242964E-01
       -1   -1    0    0    0  501  0.00000000000E+00  0.00000000000E+00  0.98837934376E+03  0.98837934377E+03  0.50400001928E-02 0.  1.
        1   -1    0    0  501    0  0.00000000000E+00  0.00000000000E+00 -0.22805311242E+04  0.22805311242E+04  0.50400001928E-02 0. -1.
    10030    2    1    2    0    0  0.00000000000E+00  0.00000000000E+00 -0.12921517805E+04  0.32689104680E+04  0.30026853688E+04 0.  0.
        1    1    3    3  502    0 -0.65989955957E+03 -0.22863822762E+03 -0.20929269705E+04  0.22063739873E+04  0.50400001928E-02 0. -1.
       -1    1    3    3    0  502  0.65989955957E+03  0.22863822762E+03  0.80077519004E+03  0.10625364807E+04  0.50400001928E-02 0.  1.
</event>
<event>
 5   0  0.2862033E-06  0.2804217E+04  0.7818609E-02  0.8301960E-01
        2   -1    0    0  501    0  0.00000000000E+00  0.00000000000E+00  0.15580839053E+04  0.15580839053E+04  0.25500000920E-02 0.  1.
       -2   -1    0    0    0  501  0.00000000000E+00  0.00000000000E+00 -0.12617470928E+04  0.12617470928E+04  0.25500000920E-02 0. -1.
    10030    2    1    2    0    0  0.00000000000E+00  0.00000000000E+00  0.29633681254E+03  0.28198309982E+04  0.28042167091E+04 0.  0.
        2    1    3    3  502    0 -0.90421735074E+03  0.49648053468E+03  0.11030907243E+04  0.15102685472E+04  0.25500000920E-02 0.  1.
       -2    1    3    3    0  502  0.90421735074E+03 -0.49648053468E+03 -0.80675391177E+03  0.13095624509E+04  0.25500000920E-02 0. -1.
</event>
<event>
 5   0  0.2970915E-06  0.3001717E+04  0.7818609E-02  0.8243241E-01
        2   -1    0    0  501    0  0.00000000000E+00  0.00000000000E+00  0.21636731159E+04  0.21636731159E+04  0.25500000920E-02 0. -1.
       -2   -1    0    0    0  501  0.00000000000E+00  0.00000000000E+00 -0.10410888276E+04  0.10410888276E+04  0.25500000920E-02 0.  1.
    10030    2    1    2    0    0  0.00000000000E+00  0.00000000000E+00  0.11225842883E+04  0.32047619435E+04  0.30017167805E+04 0.  0.
        4    1    3    3  502    0  0.25196853976E+03 -0.14789639826E+04  0.51660789846E+03  0.15867286915E+04  0.12699999809E+01 0. -1.
       -4    1    3    3    0  502 -0.25196853976E+03  0.14789639826E+04  0.60597638980E+03  0.16180332520E+04  0.12699999809E+01 0.  1.
</event>
<event>
 5   0  0.2985941E-06  0.2870703E+04  0.7818609E-02  0.8281648E-01
        2   -1    0    0  501    0  0.00000000000E+00  0.00000000000E+00  0.20880579547E+04  0.20880579547E+04  0.25500000920E-02 0. -1.
       -2   -1    0    0    0  501  0.00000000000E+00  0.00000000000E+00 -0.98667497337E+03  0.98667497337E+03  0.25500000920E-02 0.  1.
    10030    2    1    2    0    0  0.00000000000E+00  0.00000000000E+00  0.11013829813E+04  0.30747329280E+04  0.28707034168E+04 0.  0.
        3    1    3    3  502    0  0.22987598259E+02 -0.11034827785E+04 -0.43214965786E+03  0.11853084025E+04  0.10100000352E+00 0.  1.
       -3    1    3    3    0  502 -0.22987598259E+02  0.11034827785E+04  0.15335326391E+04  0.18894245255E+04  0.10100000352E+00 0. -1.
</event>
<event>
 5   0  0.1091076E-06  0.3009087E+04  0.7818609E-02  0.8241141E-01
       -1   -1    0    0    0  501  0.00000000000E+00  0.00000000000E+00  0.15588229618E+04  0.15588229618E+04  0.50400001928E-02 0. -1.
        1   -1    0    0  501    0  0.00000000000E+00  0.00000000000E+00 -0.14521540048E+04  0.14521540048E+04  0.50400001928E-02 0.  1.
    10030    2    1    2    0    0  0.00000000000E+00  0.00000000000E+00  0.10666895697E+03  0.30109769666E+04  0.30090869092E+04 0.  0.
        3    1    3    3  502    0 -0.10343189064E+04  0.51571122830E+03  0.10172034124E+04  0.15396351722E+04  0.10100000352E+00 0. -1.
       -3    1    3    3    0  502  0.10343189064E+04 -0.51571122830E+03 -0.91053445542E+03  0.14713417944E+04  0.10100000352E+00 0.  1.
</event>
<event>
 5   0  0.2948711E-06  0.2979328E+04  0.7818609E-02  0.8249659E-01
       -2   -1    0    0    0  501  0.00000000000E+00  0.00000000000E+00  0.20396670319E+04  0.20396670319E+04  0.25500000920E-02 0. -1.
        2   -1    0    0  501    0  0.00000000000E+00  0.00000000000E+00 -0.10879711527E+04  0.10879711527E+04  0.25500000920E-02 0.  1.
    10030    2    1    2    0    0  0.00000000000E+00  0.00000000000E+00  0.95169587919E+03  0.31276381845E+04  0.29793280395E+04 0.  0.
        5    1    3    3  502    0  0.53841649218E+03  0.13038603156E+04 -0.26658667227E+02  0.14109134687E+04  0.46999998093E+01 0. -1.
       -5    1    3    3    0  502 -0.53841649218E+03 -0.13038603156E+04  0.97835454642E+03  0.17167247159E+04  0.46999998093E+01 0.  1.
</event>
<event>
 5   0  0.2862033E-06  0.3000698E+04  0.7818609E-02  0.8243532E-01
       -2   -1    0    0    0  501  0.00000000000E+00  0.00000000000E+00  0.12552653814E+04  0.12552653814E+04  0.25500000920E-02 0. -1.
        2   -1    0    0  501    0  0.00000000000E+00  0.00000000000E+00 -0.17932838112E+04  0.17932838112E+04  0.25500000920E-02 0.  1.
    10030    2    1    2    0    0  0.00000000000E+00  0.00000000000E+00 -0.53801842986E+03  0.30485491926E+04  0.30006979770E+04 0.  0.
        2    1    3    3  502    0  0.35544784634E+03  0.13630965360E+04 -0.79364683199E+03  0.16168644445E+04  0.25500000920E-02 0.  1.
       -2    1    3    3    0  502 -0.35544784634E+03 -0.13630965360E+04  0.25562840214E+03  0.14316847481E+04  0.25500000920E-02 0. -1.
</event>
<event>
 5   0  0.1091076E-06  0.3005973E+04  0.7818609E-02  0.8242027E-01
       -1   -1    0    0    0  501  0.00000000000E+00  0.00000000000E+00  0.11021083218E+04  0.11021083218E+04  0.50400001928E-02 0. -1.
        1   -1    0    0  501    0  0.00000000000E+00  0.00000000000E+00 -0.20496790086E+04  0.20496790087E+04  0.50400001928E-02 0.  1.
    10030    2    1    2    0    0  0.00000000000E+00  0.00000000000E+00 -0.94757068684E+03  0.31517873305E+04  0.30059729157E+04 0.  0.
        3    1    3    3  502    0 -0.65550176521E+03  0.13484671077E+04 -0.58336412298E+03  0.16088380325E+04  0.10100000352E+00 0. -1.
       -3    1    3    3    0  502  0.65550176521E+03 -0.13484671077E+04 -0.36420656385E+03  0.15429492980E+04  0.10100000352E+00 0.  1.
</event>
<event>
 5   0  0.2948711E-06  0.2958514E+04  0.7818609E-02  0.8255678E-01
        2   -1    0    0  501    0  0.00000000000E+00  0.00000000000E+00  0.24604854695E+04  0.24604854695E+04  0.25500000920E-02 0. -1.
       -2   -1    0    0    0  501  0.00000000000E+00  0.00000000000E+00 -0.88933717042E+03  0.88933717042E+03  0.25500000920E-02 0.  1.
    10030    2    1    2    0    0  0.00000000000E+00  0.00000000000E+00  0.15711482991E+04  0.33498226399E+04  0.29585139414E+04 0.  0.
        5    1    3    3  502    0  0.12556462055E+04 -0.49677318636E+03  0.10174955858E+03  0.13541809535E+04  0.46999998093E+01 0.  1.
       -5    1    3    3    0  502 -0.12556462055E+04  0.49677318636E+03  0.14693987405E+04  0.19956416864E+04  0.46999998093E+01 0. -1.
</event>
<event>
 5   0  0.9749500E-07  0.3021769E+04  0.7818609E-02  0.8237542E-01
       -3   -1    0    0    0  501  0.00000000000E+00  0.00000000000E+00  0.15099380697E+04  0.15099380731E+04  0.10100000352E+00 0.  1.
        3   -1    0    0  501    0  0.00000000000E+00  0.00000000000E+00 -0.15118316243E+04  0.15118316277E+04  0.10100000352E+00 0. -1.
    10030    2    1    2    0    0  0.00000000000E+00  0.00000000000E+00 -0.18935546244E+01  0.30217697008E+04  0.30217691075E+04 0.  0.
        3    1    3    3  502    0 -0.55158712240E+03  0.10964373176E+04  0.88016007454E+03  0.15103327157E+04  0.10100000352E+00 0.  1.
       -3    1    3    3    0  502  0.55158712240E+03 -0.10964373176E+04 -0.88205362917E+03  0.15114369851E+04  0.10100000352E+00 0. -1.
</event>
<event>
 5   0  0.2948711E-06  0.2986540E+04  0.7818609E-02  0.8247585E-01
       -2   -1    0    0    0  501  0.00000000000E+00  0.00000000000E+00  0.16230963337E+04  0.16230963337E+04  0.25500000920E-02 0. -1.
        2   -1    0    0  501    0  0.00000000000E+00  0.00000000000E+00 -0.13738280152E+04  0.13738280152E+04  0.25500000920E-02 0.  1.
    10030    2    1    2    0    0  0.00000000000E+00  0.00000000000E+00  0.24926831847E+03  0.29969243489E+04  0.29865399475E+04 0.  0.
        5    1    3    3  502    0  0.12979732562E+02 -0.13154294010E+04  0.83370993018E+03  0.15574393472E+04  0.46999998093E+01 0. -1.
       -5    1    3    3    0  502 -0.12979732562E+02  0.13154294010E+04 -0.58444161171E+03  0.14394850017E+04  0.46999998093E+01 0.  1.
</event>
<event>
 5   0  0.3113328E-06  0.3001111E+04  0.7818609E-02  0.8243414E-01
        2   -1    0    0  501    0  0.00000000000E+00  0.00000000000E+00  0.28710314930E+04  0.28710314930E+04  0.25500000920E-02 0.  1.
       -2   -1    0    0    0  501  0.00000000000E+00  0.00000000000E+00 -0.78427097779E+03  0.78427097780E+03  0.25500000920E-02 0. -1.
    10030    2    1    2    0    0  0.00000000000E+00  0.00000000000E+00  0.20867605152E+04  0.36553024708E+04  0.30011109118E+04 0.  0.
        1    1    3    3  502    0 -0.10626283138E+03  0.10167053089E+04  0.23813252779E+04  0.25914651365E+04  0.50400001928E-02 0.  1.
       -1    1    3    3    0  502  0.10626283138E+03 -0.10167053089E+04 -0.29456476272E+03  0.10638373343E+04  0.50400001928E-02 0. -1.
</event>
<event>
 5   0  0.2970915E-06  0.2988771E+04  0.7818609E-02  0.8246945E-01
       -2   -1    0    0    0  501  0.00000000000E+00  0.00000000000E+00  0.14667076991E+04  0.14667076991E+04  0.25500000920E-02 0. -1.
        2   -1    0    0  501    0  0.00000000000E+00  0.00000000000E+00 -0.15225851489E+04  0.15225851489E+04  0.25500000920E-02 0.  1.
    10030    2    1    2    0    0  0.00000000000E+00  0.00000000000E+00 -0.55877449788E+02  0.29892928481E+04  0.29887705570E+04 0.  0.
        4    1    3    3  502    0 -0.20246239160E+03  0.14463882943E+04  0.28859032170E+03  0.14887296950E+04  0.12699999809E+01 0. -1.
       -4    1    3    3    0  502  0.20246239160E+03 -0.14463882943E+04 -0.34446777149E+03  0.15005631531E+04  0.12699999809E+01 0.  1.
</event>
<event>
 5   0  0.1091076E-06  0.2980738E+04  0.7818609E-02  0.8249253E-01
       -1   -1    0    0    0  501  0.00000000000E+00  0.00000000000E+00  0.11681858966E+04  0.11681858966E+04  0.50400001928E-02 0. -1.
        1   -1    0    0  501    0  0.00000000000E+00  0.00000000000E+00 -0.19014092559E+04  0.19014092559E+04  0.50400001928E-02 0.  1.
    10030    2    1    2    0    0  0.00000000000E+00  0.00000000000E+00 -0.73322335928E+03  0.30695951525E+04  0.29807378123E+04 0.  0.
        3    1    3    3  502    0  0.84563367656E+03  0.71623023354E+03 -0.13928721945E+04  0.17799368030E+04  0.10100000352E+00 0.  1.
       -3    1    3    3    0  502 -0.84563367656E+03 -0.71623023354E+03  0.65964883519E+03  0.12896583495E+04  0.10100000352E+00 0. -1.
</event>
<event>
 5   0  0.1097402E-06  0.3010110E+04  0.7818609E-02  0.8240850E-01
       -1   -1    0    0    0  501  0.00000000000E+00  0.00000000000E+00  0.13380506308E+04  0.13380506308E+04  0.50400001928E-02 0. -1.
        1   -1    0    0  501    0  0.00000000000E+00  0.00000000000E+00 -0.16929040295E+04  0.16929040295E+04  0.50400001928E-02 0.  1.
    10030    2    1    2    0    0  0.00000000000E+00  0.00000000000E+00 -0.35485339868E+03  0.30309546603E+04  0.30101104994E+04 0.  0.
        4    1    3    3  502    0 -0.15649593812E+03 -0.10736523121E+04 -0.12277073070E+04  0.16384404507E+04  0.12699999809E+01 0.  1.
       -4    1    3    3    0  502  0.15649593812E+03  0.10736523121E+04  0.87285390831E+03  0.13925142096E+04  0.12699999809E+01 0. -1.
</event>
<event>
 5   0  0.3113328E-06  0.2986313E+04  0.7818609E-02  0.8247650E-01
        2   -1    0    0  501    0  0.00000000000E+00  0.00000000000E+00  0.69144185347E+03  0.69144185347E+03  0.25500000920E-02 0.  1.
       -2   -1    0    0    0  501  0.00000000000E+00  0.00000000000E+00 -0.32244461584E+04  0.32244461584E+04  0.25500000920E-02 0. -1.
    10030    2    1    2    0    0  0.00000000000E+00  0.00000000000E+00 -0.25330043049E+04  0.39158880118E+04  0.29863134652E+04 0.  0.
        1    1    3    3  502    0 -0.14729367828E+04  0.23247436985E+03 -0.13674784926E+04  0.20232608647E+04  0.50400001928E-02 0.  1.
       -1    1    3    3    0  502  0.14729367828E+04 -0.23247436985E+03 -0.11655258123E+04  0.18926271471E+04  0.50400001928E-02 0. -1.
</event>
<event>
 5   0  0.1091075E-06  0.3014954E+04  0.7818609E-02  0.8239474E-01
        1   -1    0    0  501    0  0.00000000000E+00  0.00000000000E+00  0.11673263754E+04  0.11673263754E+04  0.50400001928E-02 0. -1.
       -1   -1    0    0    0  501  0.00000000000E+00  0.00000000000E+00 -0.19467445074E+04  0.19467445074E+04  0.50400001928E-02 0.  1.
    10030    2    1    2    0    0  0.00000000000E+00  0.00000000000E+00 -0.77941813196E+03  0.31140708829E+04  0.30149535385E+04 0.  0.
        1    1    3    3  502    0  0.92570011130E+02  0.10956948018E+04  0.67539011858E+03  0.12904526795E+04  0.50400001928E-02 0.  1.
       -1    1    3    3    0  502 -0.92570011130E+02 -0.10956948018E+04 -0.14548082505E+04  0.18236182034E+04  0.50400001928E-02 0. -1.
</event>
<event>
 5   0  0.2970915E-06  0.3014380E+04  0.7818609E-02  0.8239636E-01
       -2   -1    0    0    0  501  0.00000000000E+00  0.00000000000E+00  0.10793638180E+04  0.10793638180E+04  0.25500000920E-02 0.  1.
        2   -1    0    0  501    0  0.00000000000E+00  0.00000000000E+00 -0.21045934402E+04  0.21045934402E+04  0.25500000920E-02 0. -1.
    10030    2    1    2    0    0  0.00000000000E+00  0.00000000000E+00 -0.10252296222E+04  0.31839572581E+04  0.30143802088E+04 0.  0.
        4    1    3    3  502    0  0.97284277039E+03  0.35288899448E+01  0.70331200593E+03  0.12004519564E+04  0.12699999809E+01 0.  1.
       -4    1    3    3    0  502 -0.97284277039E+03 -0.35288899448E+01 -0.17285416281E+04  0.19835053017E+04  0.12699999809E+01 0. -1.
</event>
<event>
 5   0  0.2948711E-06  0.2970682E+04  0.7818609E-02  0.8252153E-01
       -2   -1    0    0    0  501  0.00000000000E+00  0.00000000000E+00  0.17155563888E+04  0.17155563888E+04  0.25500000920E-02 0. -1.
        2   -1    0    0  501    0  0.00000000000E+00  0.00000000000E+00 -0.12860192000E+04  0.12860192000E+04  0.25500000920E-02 0.  1.
    10030    2    1    2    0    0  0.00000000000E+00  0.00000000000E+00  0.42953718881E+03  0.30015755889E+04  0.29706823827E+04 0.  0.
        5    1    3    3  502    0 -0.13007867730E+04  0.63071482271E+03 -0.12990786155E+03  0.14514632475E+04  0.46999998093E+01 0.  1.
       -5    1    3    3    0  502  0.13007867730E+04 -0.63071482271E+03  0.55944505036E+03  0.15501123413E+04  0.46999998093E+01 0. -1.
</event>
<event>
 5   0  0.2948711E-06  0.2997294E+04  0.7818609E-02  0.8244504E-01
        2   -1    0    0  501    0  0.00000000000E+00  0.00000000000E+00  0.96970973135E+03  0.96970973135E+03  0.25500000920E-02 0. -1.
       -2   -1    0    0    0  501  0.00000000000E+00  0.00000000000E+00 -0.23160979400E+04  0.23160979400E+04  0.25500000920E-02 0.  1.
    10030    2    1    2    0    0  0.00000000000E+00  0.00000000000E+00 -0.13463882086E+04  0.32858076713E+04  0.29972939203E+04 0.  0.
        5    1    3    3  502    0 -0.13015093365E+04  0.19627309428E+03 -0.14587385127E+04  0.19647874742E+04  0.46999998093E+01 0.  1.
       -5    1    3    3    0  502  0.13015093365E+04 -0.19627309428E+03  0.11235030401E+03  0.13210201971E+04  0.46999998093E+01 0. -1.
</event>
<event>
 5   0  0.1097402E-06  0.2976506E+04  0.7818609E-02  0.8250472E-01
        1   -1    0    0  501    0  0.00000000000E+00  0.00000000000E+00  0.18466722984E+04  0.18466722984E+04  0.50400001928E-02 0. -1.
       -1   -1    0    0    0  501  0.00000000000E+00  0.00000000000E+00 -0.11993992239E+04  0.11993992239E+04  0.50400001928E-02 0.  1.
    10030    2    1    2    0    0  0.00000000000E+00  0.00000000000E+00  0.64727307447E+03  0.30460715223E+04  0.29765062214E+04 0.  0.
        4    1    3    3  502    0  0.29171229744E+03 -0.14421253416E+04  0.55263895391E+03  0.15716974873E+04  0.12699999809E+01 0.  1.
       -4    1    3    3    0  502 -0.29171229744E+03  0.14421253416E+04  0.94634120556E+02  0.14743740350E+04  0.12699999809E+01 0. -1.
</event>
<event>
 5   0  0.1097402E-06  0.3007823E+04  0.7818609E-02  0.8241501E-01
       -1   -1    0    0    0  501  0.00000000000E+00  0.00000000000E+00  0.11200698440E+04  0.11200698440E+04  0.50400001928E-02 0.  1.
        1   -1    0    0  501    0  0.00000000000E+00  0.00000000000E+00 -0.20192933337E+04  0.20192933337E+04  0.50400001928E-02 0. -1.
    10030    2    1    2    0    0  0.00000000000E+00  0.00000000000E+00 -0.89922348970E+03  0.31393631777E+04  0.30078228467E+04 0.  0.
        4    1    3    3  502    0  0.28529374386E+03  0.13614573103E+04  0.14704328417E+03  0.13987787060E+04  0.12699999809E+01 0.  1.
       -4    1    3    3    0  502 -0.28529374386E+03 -0.13614573103E+04 -0.10462667739E+04  0.17405844717E+04  0.12699999809E+01 0. -1.
</event>
<event>
 5   0  0.1091075E-06  0.2997104E+04  0.7818609E-02  0.8244558E-01
        1   -1    0    0  501    0  0.00000000000E+00  0.00000000000E+00  0.13291794252E+04  0.13291794252E+04  0.50400001928E-02 0.  1.
       -1   -1    0    0    0  501  0.00000000000E+00  0.00000000000E+00 -0.16895069843E+04  0.16895069843E+04  0.50400001928E-02 0. -1.
    10030    2    1    2    0    0  0.00000000000E+00  0.00000000000E+00 -0.36032755910E+03  0.30186864094E+04  0.29971038835E+04 0.  0.
        1    1    3    3  502    0  0.89587546237E+03 -0.31624451183E+03 -0.13474114587E+04  0.16486725189E+04  0.50400001928E-02 0. -1.
       -1    1    3    3    0  502 -0.89587546237E+03  0.31624451183E+03  0.98708389964E+03  0.13700138905E+04  0.50400001928E-02 0.  1.
</event>
<event>
 5   0  0.2948711E-06  0.3002836E+04  0.7818609E-02  0.8242921E-01
       -2   -1    0    0    0  501  0.00000000000E+00  0.00000000000E+00  0.88244847921E+03  0.88244847922E+03  0.25500000920E-02 0.  1.
        2   -1    0    0  501    0  0.00000000000E+00  0.00000000000E+00 -0.25545472149E+04  0.25545472149E+04  0.25500000920E-02 0. -1.
    10030    2    1    2    0    0  0.00000000000E+00  0.00000000000E+00 -0.16720987357E+04  0.34369956941E+04  0.30028361959E+04 0.  0.
        5    1    3    3  502    0  0.36025648491E+02 -0.10012757503E+04 -0.21159283807E+04  0.23411591099E+04  0.46999998093E+01 0. -1.
       -5    1    3    3    0  502 -0.36025648491E+02  0.10012757503E+04  0.44382964500E+03  0.10958365842E+04  0.46999998093E+01 0.  1.
</event>
<event>
 5   0  0.2970915E-06  0.3181256E+04  0.7818609E-02  0.8193785E-01
       -2   -1    0    0    0  501  0.00000000000E+00  0.00000000000E+00  0.18254100002E+04  0.18254100002E+04  0.25500000920E-02 0.  1.
        2   -1    0    0  501    0  0.00000000000E+00  0.00000000000E+00 -0.13860435494E+04  0.13860435494E+04  0.25500000920E-02 0. -1.
    10030    2    1    2    0    0  0.00000000000E+00  0.00000000000E+00  0.43936645082E+03  0.32114535496E+04  0.31812562021E+04 0.  0.
        4    1    3    3  502    0 -0.51035214770E+03  0.11180202773E+04  0.12390542493E+04  0.17451893022E+04  0.12699999809E+01 0.  1.
       -4    1    3    3    0  502  0.51035214770E+03 -0.11180202773E+04 -0.79968779844E+03  0.14662642473E+04  0.12699999809E+01 0. -1.
</event>
<event>
 5   0  0.3113328E-06  0.3015362E+04  0.7818609E-02  0.8239358E-01
        2   -1    0    0  501    0  0.00000000000E+00  0.00000000000E+00  0.14861608369E+04  0.14861608369E+04  0.25500000920E-02 0.  1.
       -2   -1    0    0    0  501  0.00000000000E+00  0.00000000000E+00 -0.15295123341E+04  0.15295123341E+04  0.25500000920E-02 0. -1.
    10030    2    1    2    0    0  0.00000000000E+00  0.00000000000E+00 -0.43351497184E+02  0.30156731710E+04  0.30153615574E+04 0.  0.
        1    1    3    3  502    0  0.40130489922E+03  0.68005371413E+03 -0.13061692730E+04  0.15263016891E+04  0.50400001928E-02 0. -1.
       -1    1    3    3    0  502 -0.40130489922E+03 -0.68005371413E+03  0.12628177758E+04  0.14893714819E+04  0.50400001928E-02 0.  1.
</event>
<event>
 5   0  0.3113328E-06  0.2990304E+04  0.7818609E-02  0.8246505E-01
       -2   -1    0    0    0  501  0.00000000000E+00  0.00000000000E+00  0.10604063692E+04  0.10604063692E+04  0.25500000920E-02 0. -1.
        2   -1    0    0  501    0  0.00000000000E+00  0.00000000000E+00 -0.21081352534E+04  0.21081352534E+04  0.25500000920E-02 0.  1.
    10030    2    1    2    0    0  0.00000000000E+00  0.00000000000E+00 -0.10477288842E+04  0.31685416226E+04  0.29903043657E+04 0.  0.
        1    1    3    3  502    0  0.72174630796E+03 -0.10920086677E+04  0.24175383866E+03  0.13311069010E+04  0.50400001928E-02 0. -1.
       -1    1    3    3    0  502 -0.72174630796E+03  0.10920086677E+04 -0.12894827228E+04  0.18374347215E+04  0.50400001928E-02 0.  1.
</event>
<event>
 5   0  0.1054384E-06  0.3162852E+04  0.7818609E-02  0.8198697E-01
       -1   -1    0    0    0  501  0.00000000000E+00  0.00000000000E+00  0.28222383978E+04  0.28222383978E+04  0.50400001928E-02 0. -1.
        1   -1    0    0  501    0  0.00000000000E+00  0.00000000000E+00 -0.88614346672E+03  0.88614346674E+03  0.50400001928E-02 0.  1.
    10030    2    1    2    0    0  0.00000000000E+00  0.00000000000E+00  0.19360949311E+04  0.37083818645E+04  0.31628519521E+04 0.  0.
        2    1    3    3  502    0 -0.73451320085E+03  0.12236611550E+04  0.17667569479E+04  0.22711861169E+04  0.25500000920E-02 0. -1.
       -2    1    3    3    0  502  0.73451320085E+03 -0.12236611550E+04  0.16933798320E+03  0.14371957477E+04  0.25500000920E-02 0.  1.
</event>
<event>
 5   0  0.1113245E-06  0.2995434E+04  0.7818609E-02  0.8245036E-01
        1   -1    0    0  501    0  0.00000000000E+00  0.00000000000E+00  0.13254130360E+04  0.13254130360E+04  0.50400001928E-02 0. -1.
       -1   -1    0    0    0  501  0.00000000000E+00  0.00000000000E+00 -0.16924207544E+04  0.16924207544E+04  0.50400001928E-02 0.  1.
    10030    2    1    2    0    0  0.00000000000E+00  0.00000000000E+00 -0.36700771846E+03  0.30178337904E+04  0.29954342125E+04 0.  0.
        5    1    3    3  502    0  0.14143187215E+04  0.12764935008E+03 -0.66302803502E+03  0.15672332525E+04  0.46999998093E+01 0. -1.
       -5    1    3    3    0  502 -0.14143187215E+04 -0.12764935008E+03  0.29602031656E+03  0.14506005379E+04  0.46999998093E+01 0.  1.
</event>
<event>
 5   0  0.2948711E-06  0.3056205E+04  0.7818609E-02  0.8227861E-01
        2   -1    0    0  501    0  0.00000000000E+00  0.00000000000E+00  0.14036782034E+04  0.14036782034E+04  0.25500000920E-02 0. -1.
       -2   -1    0    0    0  501  0.00000000000E+00  0.00000000000E+00 -0.16635559588E+04  0.16635559588E+04  0.25500000920E-02 0.  1.
    10030    2    1    2    0    0  0.00000000000E+00  0.00000000000E+00 -0.25987775541E+03  0.30672341622E+04  0.30562049928E+04 0.  0.
        5    1    3    3  502    0 -0.94889338537E+03 -0.53624213258E+03 -0.12048413009E+04  0.16246904111E+04  0.46999998093E+01 0.  1.
       -5    1    3    3    0  502  0.94889338537E+03  0.53624213258E+03  0.94496354552E+03  0.14425437511E+04  0.46999998093E+01 0. -1.
</event>
<event>
 5   0  0.1097402E-06  0.3000991E+04  0.7818609E-02  0.8243448E-01
       -1   -1    0    0    0  501  0.00000000000E+00  0.00000000000E+00  0.12707939046E+04  0.12707939046E+04  0.50400001928E-02 0. -1.
        1   -1    0    0  501    0  0.00000000000E+00  0.00000000000E+00 -0.17717168818E+04  0.17717168818E+04  0.50400001928E-02 0.  1.
    10030    2    1    2    0    0  0.00000000000E+00  0.00000000000E+00 -0.50092297724E+03  0.30425107864E+04  0.30009911789E+04 0.  0.
        4    1    3    3  502    0 -0.12489615337E+04 -0.20637751517E+03  0.56628262278E+03  0.13867855685E+04  0.12699999809E+01 0. -1.
       -4    1    3    3    0  502  0.12489615337E+04  0.20637751517E+03 -0.10672056000E+04  0.16557252178E+04  0.12699999809E+01 0.  1.
</event>
<event>
 5   0  0.2862033E-06  0.2992013E+04  0.7818609E-02  0.8246015E-01
       -2   -1    0    0    0  501  0.00000000000E+00  0.00000000000E+00  0.12531040578E+04  0.12531040578E+04  0.25500000920E-02 0.  1.
        2   -1    0    0  501    0  0.00000000000E+00  0.00000000000E+00 -0.17859936500E+04  0.17859936500E+04  0.25500000920E-02 0. -1.
    10030    2    1    2    0    0  0.00000000000E+00  0.00000000000E+00 -0.53288959225E+03  0.30390977078E+04  0.29920132954E+04 0.  0.
        2    1    3    3  502    0  0.43952085878E+03  0.42565807241E+03 -0.16530918829E+04  0.17626900332E+04  0.25500000920E-02 0. -1.
       -2    1    3    3    0  502 -0.43952085878E+03 -0.42565807241E+03  0.11202022906E+04  0.12764076746E+04  0.25500000920E-02 0.  1.
</event>
<event>
 5   0  0.1091075E-06  0.3001840E+04  0.7818609E-02  0.8243206E-01
        1   -1    0    0  501    0  0.00000000000E+00  0.00000000000E+00  0.21226822698E+04  0.21226822698E+04  0.50400001928E-02 0. -1.
       -1   -1    0    0    0  501  0.00000000000E+00  0.00000000000E+00 -0.10612799523E+04  0.10612799523E+04  0.50400001928E-02 0.  1.
    10030    2    1    2    0    0  0.00000000000E+00  0.00000000000E+00  0.10614023175E+04  0.31839622221E+04  0.30018395281E+04 0.  0.
        1    1    3    3  502    0  0.11190866332E+04  0.99999981382E+03  0.55206301067E+03  0.15991022757E+04  0.50400001928E-02 0.  1.
       -1    1    3    3    0  502 -0.11190866332E+04 -0.99999981382E+03  0.50933930685E+03  0.15848599464E+04  0.50400001928E-02 0. -1.
</event>
<event>
 5   0  0.2985941E-06  0.2969530E+04  0.7818609E-02  0.8252486E-01
       -2   -1    0    0    0  501  0.00000000000E+00  0.00000000000E+00  0.12042684328E+04  0.12042684328E+04  0.25500000920E-02 0.  1.
        2   -1    0    0  501    0  0.00000000000E+00  0.00000000000E+00 -0.18305946755E+04  0.18305946755E+04  0.25500000920E-02 0. -1.
    10030    2    1    2    0    0  0.00000000000E+00  0.00000000000E+00 -0.62632624268E+03  0.30348631084E+04  0.29695301858E+04 0.  0.
        3    1    3    3  502    0 -0.14271556709E+03 -0.52750099787E+02  0.11962799331E+04  0.12059170762E+04  0.10100000352E+00 0.  1.
       -3    1    3    3    0  502  0.14271556709E+03  0.52750099787E+02 -0.18226061758E+04  0.18289460321E+04  0.10100000352E+00 0. -1.
</event>
<event>
 5   0  0.2948711E-06  0.3123380E+04  0.7818609E-02  0.8209351E-01
       -2   -1    0    0    0  501  0.00000000000E+00  0.00000000000E+00  0.11281083096E+04  0.11281083096E+04  0.25500000920E-02 0.  1.
        2   -1    0    0  501    0  0.00000000000E+00  0.00000000000E+00 -0.21619159627E+04  0.21619159627E+04  0.25500000920E-02 0. -1.
    10030    2    1    2    0    0  0.00000000000E+00  0.00000000000E+00 -0.10338076531E+04  0.32900242723E+04  0.31233798118E+04 0.  0.
        5    1    3    3  502    0 -0.57507408394E+03 -0.14131446249E+04 -0.86810746129E+03  0.17553690744E+04  0.46999998093E+01 0. -1.
       -5    1    3    3    0  502  0.57507408394E+03  0.14131446249E+04 -0.16570019181E+03  0.15346551979E+04  0.46999998093E+01 0.  1.
</event>
<event>
 5   0  0.1091075E-06  0.2987117E+04  0.7818609E-02  0.8247419E-01
        1   -1    0    0  501    0  0.00000000000E+00  0.00000000000E+00  0.13907677002E+04  0.13907677002E+04  0.50400001928E-02 0. -1.
       -1   -1    0    0    0  501  0.00000000000E+00  0.00000000000E+00 -0.16039463468E+04  0.16039463468E+04  0.50400001928E-02 0.  1.
    10030    2    1    2    0    0  0.00000000000E+00  0.00000000000E+00 -0.21317864653E+03  0.29947140470E+04  0.29871168521E+04 0.  0.
        1    1    3    3  502    0  0.27001547198E+00  0.13151037227E+04  0.60317941380E+03  0.14468321532E+04  0.50400001928E-02 0. -1.
       -1    1    3    3    0  502 -0.27001547198E+00 -0.13151037227E+04 -0.81635806033E+03  0.15478818938E+04  0.50400001928E-02 0.  1.
</event>
<event>
 5   0  0.1097402E-06  0.2892721E+04  0.7818609E-02  0.8275047E-01
       -1   -1    0    0    0  501  0.00000000000E+00  0.00000000000E+00  0.14413921218E+04  0.14413921218E+04  0.50400001928E-02 0.  1.
        1   -1    0    0  501    0  0.00000000000E+00  0.00000000000E+00 -0.14513458275E+04  0.14513458275E+04  0.50400001928E-02 0. -1.
    10030    2    1    2    0    0  0.00000000000E+00  0.00000000000E+00 -0.99537057007E+01  0.28927379493E+04  0.28927208242E+04 0.  0.
        4    1    3    3  502    0  0.11536629588E+04  0.42032004699E+03  0.75945534371E+03  0.14437386178E+04  0.12699999809E+01 0.  1.
       -4    1    3    3    0  502 -0.11536629588E+04 -0.42032004699E+03 -0.76940904941E+03  0.14489993315E+04  0.12699999809E+01 0. -1.
</event>
<event>
 5   0  0.9749500E-07  0.3011983E+04  0.7818609E-02  0.8240317E-01
       -3   -1    0    0    0  501  0.00000000000E+00  0.00000000000E+00  0.98806790422E+03  0.98806790938E+03  0.10100000352E+00 0.  1.
        3   -1    0    0  501    0  0.00000000000E+00  0.00000000000E+00 -0.22953986206E+04  0.22953986229E+04  0.10100000352E+00 0. -1.
    10030    2    1    2    0    0  0.00000000000E+00  0.00000000000E+00 -0.13073307164E+04  0.32834665322E+04  0.30119825475E+04 0.  0.
        1    1    3    3  502    0  0.46541719583E+03  0.14304457914E+04 -0.57489313000E+03  0.16103696592E+04  0.50400001928E-02 0. -1.
       -1    1    3    3    0  502 -0.46541719583E+03 -0.14304457914E+04 -0.73243758643E+03  0.16730968730E+04  0.50400001928E-02 0.  1.
</event>
<event>
 5   0  0.1113245E-06  0.3025210E+04  0.7818609E-02  0.8236568E-01
        1   -1    0    0  501    0  0.00000000000E+00  0.00000000000E+00  0.16413434388E+04  0.16413434388E+04  0.50400001928E-02 0. -1.
       -1   -1    0    0    0  501  0.00000000000E+00  0.00000000000E+00 -0.13939645653E+04  0.13939645653E+04  0.50400001928E-02 0.  1.
    10030    2    1    2    0    0  0.00000000000E+00  0.00000000000E+00  0.24737887355E+03  0.30353080041E+04  0.30252104675E+04 0.  0.
        5    1    3    3  502    0  0.41347301274E+03  0.29722085845E+03  0.15527511535E+04  0.16341231305E+04  0.46999998093E+01 0. -1.
       -5    1    3    3    0  502 -0.41347301274E+03 -0.29722085845E+03 -0.13053722799E+04  0.14011848737E+04  0.46999998093E+01 0.  1.
</event>
<event>
 5   0  0.2948711E-06  0.3017836E+04  0.7818609E-02  0.8238656E-01
        2   -1    0    0  501    0  0.00000000000E+00  0.00000000000E+00  0.14510882804E+04  0.14510882804E+04  0.25500000920E-02 0.  1.
       -2   -1    0    0    0  501  0.00000000000E+00  0.00000000000E+00 -0.15690522551E+04  0.15690522551E+04  0.25500000920E-02 0. -1.
    10030    2    1    2    0    0  0.00000000000E+00  0.00000000000E+00 -0.11796397472E+03  0.30201405356E+04  0.30178358728E+04 0.  0.
        5    1    3    3  502    0 -0.18745647264E+03  0.12112986174E+04 -0.93966936690E+03  0.15444691252E+04  0.46999998093E+01 0. -1.
       -5    1    3    3    0  502  0.18745647264E+03 -0.12112986174E+04  0.82170539218E+03  0.14756714103E+04  0.46999998093E+01 0.  1.
</event>
<event>
 5   0  0.2948711E-06  0.2975368E+04  0.7818609E-02  0.8250800E-01
        2   -1    0    0  501    0  0.00000000000E+00  0.00000000000E+00  0.15555657714E+04  0.15555657714E+04  0.25500000920E-02 0.  1.
       -2   -1    0    0    0  501  0.00000000000E+00  0.00000000000E+00 -0.14227648895E+04  0.14227648895E+04  0.25500000920E-02 0. -1.
    10030    2    1    2    0    0  0.00000000000E+00  0.00000000000E+00  0.13280088192E+03  0.29783306610E+04  0.29753684565E+04 0.  0.
        5    1    3    3  502    0  0.10793217692E+04 -0.59014030433E+03 -0.77108130507E+03  0.14518228299E+04  0.46999998093E+01 0. -1.
       -5    1    3    3    0  502 -0.10793217692E+04  0.59014030433E+03  0.90388218699E+03  0.15265078311E+04  0.46999998093E+01 0.  1.
</event>
<event>
 5   0  0.2985941E-06  0.3099808E+04  0.7818609E-02  0.8215790E-01
        2   -1    0    0  501    0  0.00000000000E+00  0.00000000000E+00  0.24524533475E+04  0.24524533475E+04  0.25500000920E-02 0. -1.
       -2   -1    0    0    0  501  0.00000000000E+00  0.00000000000E+00 -0.97951023699E+03  0.97951023700E+03  0.25500000920E-02 0.  1.
    10030    2    1    2    0    0  0.00000000000E+00  0.00000000000E+00  0.14729431105E+04  0.34319635845E+04  0.30998084842E+04 0.  0.
        3    1    3    3  502    0  0.26847016329E+02  0.87509435124E+03 -0.67951329959E+03  0.11082640571E+04  0.10100000352E+00 0.  1.
       -3    1    3    3    0  502 -0.26847016329E+02 -0.87509435124E+03  0.21524564101E+04  0.23236995274E+04  0.10100000352E+00 0. -1.
</event>
<event>
 5   0  0.2948711E-06  0.2995355E+04  0.7818609E-02  0.8245059E-01
       -2   -1    0    0    0  501  0.00000000000E+00  0.00000000000E+00  0.99615205716E+03  0.99615205716E+03  0.25500000920E-02 0. -1.
        2   -1    0    0  501    0  0.00000000000E+00  0.00000000000E+00 -0.22517024111E+04  0.22517024111E+04  0.25500000920E-02 0.  1.
    10030    2    1    2    0    0  0.00000000000E+00  0.00000000000E+00 -0.12555503540E+04  0.32478544683E+04  0.29953550634E+04 0.  0.
        5    1    3    3  502    0  0.86715825148E+03  0.78209656424E+03 -0.16445760447E+04  0.20170004774E+04  0.46999998093E+01 0.  1.
       -5    1    3    3    0  502 -0.86715825148E+03 -0.78209656424E+03  0.38902569073E+03  0.12308539909E+04  0.46999998093E+01 0. -1.
</event>
<event>
 5   0  0.1054384E-06  0.2912116E+04  0.7818609E-02  0.8269282E-01
       -1   -1    0    0    0  501  0.00000000000E+00  0.00000000000E+00  0.75380121940E+03  0.75380121941E+03  0.50400001928E-02 0.  1.
        1   -1    0    0  501    0  0.00000000000E+00  0.00000000000E+00 -0.28125514664E+04  0.28125514664E+04  0.50400001928E-02 0. -1.
    10030    2    1    2    0    0  0.00000000000E+00  0.00000000000E+00 -0.20587502470E+04  0.35663526858E+04  0.29121158803E+04 0.  0.
        2    1    3    3  502    0  0.43969147019E+03  0.80939817430E+03 -0.24103938243E+04  0.25803977178E+04  0.25500000920E-02 0. -1.
       -2    1    3    3    0  502 -0.43969147019E+03 -0.80939817430E+03  0.35164357733E+03  0.98595496804E+03  0.25500000920E-02 0.  1.
</event>
<event>
 5   0  0.2985941E-06  0.3033345E+04  0.7818609E-02  0.8234273E-01
        2   -1    0    0  501    0  0.00000000000E+00  0.00000000000E+00  0.17664118861E+04  0.17664118861E+04  0.25500000920E-02 0. -1.
       -2   -1    0    0    0  501  0.00000000000E+00  0.00000000000E+00 -0.13022420526E+04  0.13022420526E+04  0.25500000920E-02 0.  1.
    10030    2    1    2    0    0  0.00000000000E+00  0.00000000000E+00  0.46416983350E+03  0.30686539388E+04  0.30333452427E+04 0.  0.
        3    1    3    3  502    0  0.90465426820E+03 -0.46198779415E+03  0.13714557673E+04  0.17066701493E+04  0.10100000352E+00 0. -1.
       -3    1    3    3    0  502 -0.90465426820E+03  0.46198779415E+03 -0.90728593375E+03  0.13619837894E+04  0.10100000352E+00 0.  1.
</event>
<event>
 5   0  0.2862033E-06  0.3024531E+04  0.7818609E-02  0.8236760E-01
       -2   -1    0    0    0  501  0.00000000000E+00  0.00000000000E+00  0.10282661156E+04  0.10282661156E+04  0.25500000920E-02 0.  1.
        2   -1    0    0  501    0  0.00000000000E+00  0.00000000000E+00 -0.22240807884E+04  0.22240807885E+04  0.25500000920E-02 0. -1.
    10030    2    1    2    0    0  0.00000000000E+00  0.00000000000E+00 -0.11958146729E+04  0.32523469041E+04  0.30245309806E+04 0.  0.
        2    1    3    3  502    0 -0.69052410930E+03  0.12741652571E+04 -0.10624495739E+04  0.17969751654E+04  0.25500000920E-02 0.  1.
       -2    1    3    3    0  502  0.69052410930E+03 -0.12741652571E+04 -0.13336509891E+03  0.14553717386E+04  0.25500000920E-02 0. -1.
</event>
<event>
 5   0  0.2985941E-06  0.3000477E+04  0.7818609E-02  0.8243595E-01
        2   -1    0    0  501    0  0.00000000000E+00  0.00000000000E+00  0.12548897186E+04  0.12548897186E+04  0.25500000920E-02 0.  1.
       -2   -1    0    0    0  501  0.00000000000E+00  0.00000000000E+00 -0.17935567594E+04  0.17935567594E+04  0.25500000920E-02 0. -1.
    10030    2    1    2    0    0  0.00000000000E+00  0.00000000000E+00 -0.53866704080E+03  0.30484464780E+04  0.30004772534E+04 0.  0.
        3    1    3    3  502    0  0.10328825859E+04  0.27871699559E+02 -0.13744234352E+04  0.17194950007E+04  0.10100000352E+00 0. -1.
       -3    1    3    3    0  502 -0.10328825859E+04 -0.27871699559E+02  0.83575639444E+03  0.13289514773E+04  0.10100000352E+00 0.  1.
</event>
<event>
 5   0  0.1054384E-06  0.3016231E+04  0.7818609E-02  0.8239111E-01
        1   -1    0    0  501    0  0.00000000000E+00  0.00000000000E+00  0.16479554945E+04  0.16479554945E+04  0.50400001928E-02 0.  1.
       -1   -1    0    0    0  501  0.00000000000E+00  0.00000000000E+00 -0.13801416296E+04  0.13801416296E+04  0.50400001928E-02 0. -1.
    10030    2    1    2    0    0  0.00000000000E+00  0.00000000000E+00  0.26781386486E+03  0.30280971241E+04  0.30162307483E+04 0.  0.
        2    1    3    3  502    0  0.14481550741E+04  0.22949157977E+02  0.55595612998E+03  0.15513758413E+04  0.25500000920E-02 0.  1.
       -2    1    3    3    0  502 -0.14481550741E+04 -0.22949157977E+02 -0.28814226512E+03  0.14767212829E+04  0.25500000920E-02 0. -1.
</event>
<event>
 5   0  0.2862033E-06  0.2965723E+04  0.7818609E-02  0.8253587E-01
        2   -1    0    0  501    0  0.00000000000E+00  0.00000000000E+00  0.22013104271E+04  0.22013104271E+04  0.25500000920E-02 0.  1.
       -2   -1    0    0    0  501  0.00000000000E+00  0.00000000000E+00 -0.99889500169E+03  0.99889500169E+03  0.25500000920E-02 0. -1.
    10030    2    1    2    0    0  0.00000000000E+00  0.00000000000E+00  0.12024154254E+04  0.32002054288E+04  0.29657228345E+04 0.  0.
        2    1    3    3  502    0 -0.10136993299E+03  0.90358533003E+03  0.18652040745E+04  0.20750249520E+04  0.25500000920E-02 0.  1.
       -2    1    3    3    0  502  0.10136993299E+03 -0.90358533003E+03 -0.66278864908E+03  0.11251804768E+04  0.25500000920E-02 0. -1.
</event>
<event>
 5   0  0.1097402E-06  0.2996534E+04  0.7818609E-02  0.8244721E-01
       -1   -1    0    0    0  501  0.00000000000E+00  0.00000000000E+00  0.13196881192E+04  0.13196881192E+04  0.50400001928E-02 0.  1.
        1   -1    0    0  501    0  0.00000000000E+00  0.00000000000E+00 -0.17010107810E+04  0.17010107810E+04  0.50400001928E-02 0. -1.
    10030    2    1    2    0    0  0.00000000000E+00  0.00000000000E+00 -0.38132266181E+03  0.30206989003E+04  0.29965338098E+04 0.  0.
        4    1    3    3  502    0 -0.94205053954E+03  0.87976957200E+03 -0.96059312810E+03  0.16075429977E+04  0.12699999809E+01 0. -1.
       -4    1    3    3    0  502  0.94205053954E+03 -0.87976957200E+03  0.57927046629E+03  0.14131559025E+04  0.12699999809E+01 0.  1.
</event>
<event>
 5   0  0.1097402E-06  0.2845167E+04  0.7818609E-02  0.8289381E-01
       -1   -1    0    0    0  501  0.00000000000E+00  0.00000000000E+00  0.93028651103E+03  0.93028651104E+03  0.50400001928E-02 0. -1.
        1   -1    0    0  501    0  0.00000000000E+00  0.00000000000E+00 -0.21753980589E+04  0.21753980589E+04  0.50400001928E-02 0.  1.
    10030    2    1    2    0    0  0.00000000000E+00  0.00000000000E+00 -0.12451115479E+04  0.31056845700E+04  0.28451667581E+04 0.  0.
        4    1    3    3  502    0 -0.62981374630E+03 -0.71879886143E+03  0.52768898730E+03  0.10916933811E+04  0.12699999809E+01 0. -1.
       -4    1    3    3    0  502  0.62981374630E+03  0.71879886143E+03 -0.17728005352E+04  0.20139911888E+04  0.12699999809E+01 0.  1.
</event>
<event>
 5   0  0.2970915E-06  0.2999761E+04  0.7818609E-02  0.8243799E-01
        2   -1    0    0  501    0  0.00000000000E+00  0.00000000000E+00  0.16286002698E+04  0.16286002699E+04  0.25500000920E-02 0. -1.
       -2   -1    0    0    0  501  0.00000000000E+00  0.00000000000E+00 -0.13813342023E+04  0.13813342023E+04  0.25500000920E-02 0.  1.
    10030    2    1    2    0    0  0.00000000000E+00  0.00000000000E+00  0.24726606752E+03  0.30099344722E+04  0.29997608269E+04 0.  0.
        4    1    3    3  502    0 -0.74313397582E+03 -0.65824337860E+03  0.12517713819E+04  0.15976437829E+04  0.12699999809E+01 0. -1.
       -4    1    3    3    0  502  0.74313397582E+03  0.65824337860E+03 -0.10045053144E+04  0.14122906893E+04  0.12699999809E+01 0.  1.
</event>
<event>
 5   0  0.1091076E-06  0.3012263E+04  0.7818609E-02  0.8240238E-01
       -1   -1    0    0    0  501  0.00000000000E+00  0.00000000000E+00  0.14292286303E+04  0.14292286303E+04  0.50400001928E-02 0.  1.
        1   -1    0    0  501    0  0.00000000000E+00  0.00000000000E+00 -0.15871725674E+04  0.15871725674E+04  0.50400001928E-02 0. -1.
    10030    2    1    2    0    0  0.00000000000E+00  0.00000000000E+00 -0.15794393711E+03  0.30164011978E+04  0.30122632519E+04 0.  0.
        3    1    3    3  502    0 -0.78821155293E+03  0.10162775229E+04 -0.86384392753E+03  0.15492978400E+04  0.10100000352E+00 0. -1.
       -3    1    3    3    0  502  0.78821155293E+03 -0.10162775229E+04  0.70589999042E+03  0.14671033578E+04  0.10100000352E+00 0.  1.
</event>
<event>
 5   0  0.1054384E-06  0.3047247E+04  0.7818609E-02  0.8230367E-01
       -1   -1    0    0    0  501  0.00000000000E+00  0.00000000000E+00  0.14350325234E+04  0.14350325234E+04  0.50400001928E-02 0. -1.
        1   -1    0    0  501    0  0.00000000000E+00  0.00000000000E+00 -0.16176833554E+04  0.16176833555E+04  0.50400001928E-02 0.  1.
    10030    2    1    2    0    0  0.00000000000E+00  0.00000000000E+00 -0.18265083204E+03  0.30527158789E+04  0.30472467755E+04 0.  0.
        2    1    3    3  502    0  0.92385425470E+03 -0.14983882383E+03 -0.12957601777E+04  0.15984219703E+04  0.25500000920E-02 0.  1.
       -2    1    3    3    0  502 -0.92385425470E+03  0.14983882383E+03  0.11131093457E+04  0.14542939086E+04  0.25500000920E-02 0. -1.
</event>
<event>
 5   0  0.2985941E-06  0.3024335E+04  0.7818609E-02  0.8236816E-01
       -2   -1    0    0    0  501  0.00000000000E+00  0.00000000000E+00  0.18439177684E+04  0.18439177684E+04  0.25500000920E-02 0. -1.
        2   -1    0    0  501    0  0.00000000000E+00  0.00000000000E+00 -0.12401043248E+04  0.12401043248E+04  0.25500000920E-02 0.  1.
    10030    2    1    2    0    0  0.00000000000E+00  0.00000000000E+00  0.60381344351E+03  0.30840220932E+04  0.30243349016E+04 0.  0.
        3    1    3    3  502    0  0.76961313653E+03 -0.12977249539E+04  0.19863638091E+03  0.15217919891E+04  0.10100000352E+00 0. -1.
       -3    1    3    3    0  502 -0.76961313653E+03  0.12977249539E+04  0.40517706260E+03  0.15622301041E+04  0.10100000352E+00 0.  1.
</event>
<event>
 5   0  0.2985941E-06  0.2995103E+04  0.7818609E-02  0.8245131E-01
        2   -1    0    0  501    0  0.00000000000E+00  0.00000000000E+00  0.13900764615E+04  0.13900764615E+04  0.25500000920E-02 0.  1.
       -2   -1    0    0    0  501  0.00000000000E+00  0.00000000000E+00 -0.16133358546E+04  0.16133358546E+04  0.25500000920E-02 0. -1.
    10030    2    1    2    0    0  0.00000000000E+00  0.00000000000E+00 -0.22325939305E+03  0.30034123161E+04  0.29951028003E+04 0.  0.
        3    1    3    3  502    0  0.40776702754E+03 -0.22530970700E+03  0.13155623028E+04  0.13956154899E+04  0.10100000352E+00 0.  1.
       -3    1    3    3    0  502 -0.40776702754E+03  0.22530970700E+03 -0.15388216958E+04  0.16077968263E+04  0.10100000352E+00 0. -1.
</event>
<event>
 5   0  0.2862033E-06  0.2997686E+04  0.7818609E-02  0.8244392E-01
        2   -1    0    0  501    0  0.00000000000E+00  0.00000000000E+00  0.28243300113E+04  0.28243300113E+04  0.25500000920E-02 0.  1.
       -2   -1    0    0    0  501  0.00000000000E+00  0.00000000000E+00 -0.79542036407E+03  0.79542036407E+03  0.25500000920E-02 0. -1.
    10030    2    1    2    0    0  0.00000000000E+00  0.00000000000E+00  0.20289096472E+04  0.36197503754E+04  0.29976855111E+04 0.  0.
        2    1    3    3  502    0 -0.11225590948E+04  0.45848680951E+03 -0.49379321161E+02  0.12135845224E+04  0.25500000920E-02 0. -1.
       -2    1    3    3    0  502  0.11225590948E+04 -0.45848680951E+03  0.20782889684E+04  0.24061658529E+04  0.25500000920E-02 0.  1.
</event>
<event>
 5   0  0.1091075E-06  0.2998391E+04  0.7818609E-02  0.8244190E-01
        1   -1    0    0  501    0  0.00000000000E+00  0.00000000000E+00  0.14378977091E+04  0.14378977091E+04  0.50400001928E-02 0. -1.
       -1   -1    0    0    0  501  0.00000000000E+00  0.00000000000E+00 -0.15631069057E+04  0.15631069057E+04  0.50400001928E-02 0.  1.
    10030    2    1    2    0    0  0.00000000000E+00  0.00000000000E+00 -0.12520919661E+03  0.30010046148E+04  0.29983914613E+04 0.  0.
        1    1    3    3  502    0 -0.73822538452E+03 -0.12173610931E+04 -0.53274058496E+03  0.15201175219E+04  0.50400001928E-02 0.  1.
       -1    1    3    3    0  502  0.73822538452E+03  0.12173610931E+04  0.40753138835E+03  0.14808870929E+04  0.50400001928E-02 0. -1.
</event>
<event>
 5   0  0.2970915E-06  0.2998165E+04  0.7818609E-02  0.8244255E-01
       -2   -1    0    0    0  501  0.00000000000E+00  0.00000000000E+00  0.89427158425E+03  0.89427158425E+03  0.25500000920E-02 0.  1.
        2   -1    0    0  501    0  0.00000000000E+00  0.00000000000E+00 -0.25129379200E+04  0.25129379200E+04  0.25500000920E-02 0. -1.
    10030    2    1    2    0    0  0.00000000000E+00  0.00000000000E+00 -0.16186663357E+04  0.34072095042E+04  0.29981654223E+04 0.  0.
        4    1    3    3  502    0 -0.19166962083E+03  0.11824138841E+04  0.21497401005E+03  0.12169861440E+04  0.12699999809E+01 0.  1.
       -4    1    3    3    0  502  0.19166962083E+03 -0.11824138841E+04 -0.18336403458E+04  0.21902233602E+04  0.12699999809E+01 0. -1.
</event>
<event>
 5   0  0.1091076E-06  0.3032022E+04  0.7818609E-02  0.8234645E-01
        1   -1    0    0  501    0  0.00000000000E+00  0.00000000000E+00  0.14305590835E+04  0.14305590835E+04  0.50400001928E-02 0. -1.
       -1   -1    0    0    0  501  0.00000000000E+00  0.00000000000E+00 -0.16065677268E+04  0.16065677268E+04  0.50400001928E-02 0.  1.
    10030    2    1    2    0    0  0.00000000000E+00  0.00000000000E+00 -0.17600864328E+03  0.30371268103E+04  0.30320224635E+04 0.  0.
        3    1    3    3  502    0  0.63504467404E+03 -0.28723605201E+03  0.12605547311E+04  0.14404112357E+04  0.10100000352E+00 0. -1.
       -3    1    3    3    0  502 -0.63504467404E+03  0.28723605201E+03 -0.14365633744E+04  0.15967155747E+04  0.10100000352E+00 0.  1.
</event>
<event>
 5   0  0.2985941E-06  0.2976581E+04  0.7818609E-02  0.8250450E-01
        2   -1    0    0  501    0  0.00000000000E+00  0.00000000000E+00  0.19121326576E+04  0.19121326576E+04  0.25500000920E-02 0. -1.
       -2   -1    0    0    0  501  0.00000000000E+00  0.00000000000E+00 -0.11583971457E+04  0.11583971457E+04  0.25500000920E-02 0.  1.
    10030    2    1    2    0    0  0.00000000000E+00  0.00000000000E+00  0.75373551193E+03  0.30705298034E+04  0.29765812691E+04 0.  0.
        3    1    3    3  502    0 -0.93622010700E+03 -0.89938562943E+03  0.11275777306E+04  0.17195447502E+04  0.10100000352E+00 0. -1.
       -3    1    3    3    0  502  0.93622010700E+03  0.89938562943E+03 -0.37384221870E+03  0.13509850532E+04  0.10100000352E+00 0.  1.
</event>
<event>
 5   0  0.2985941E-06  0.2997968E+04  0.7818609E-02  0.8244311E-01
       -2   -1    0    0    0  501  0.00000000000E+00  0.00000000000E+00  0.13143274093E+04  0.13143274093E+04  0.25500000920E-02 0.  1.
        2   -1    0    0  501    0  0.00000000000E+00  0.00000000000E+00 -0.17095839299E+04  0.17095839299E+04  0.25500000920E-02 0. -1.
    10030    2    1    2    0    0  0.00000000000E+00  0.00000000000E+00 -0.39525652061E+03  0.30239113392E+04  0.29979679902E+04 0.  0.
        3    1    3    3  502    0 -0.14541814628E+04  0.33778909077E+03 -0.33373227230E+03  0.15297458731E+04  0.10100000352E+00 0.  1.
       -3    1    3    3    0  502  0.14541814628E+04 -0.33778909077E+03 -0.61524248313E+02  0.14941654660E+04  0.10100000352E+00 0. -1.
</event>
<event>
 5   0  0.1091075E-06  0.2993564E+04  0.7818609E-02  0.8245571E-01
        1   -1    0    0  501    0  0.00000000000E+00  0.00000000000E+00  0.17698642977E+04  0.17698642977E+04  0.50400001928E-02 0. -1.
       -1   -1    0    0    0  501  0.00000000000E+00  0.00000000000E+00 -0.12658353335E+04  0.12658353335E+04  0.50400001928E-02 0.  1.
    10030    2    1    2    0    0  0.00000000000E+00  0.00000000000E+00  0.50402896418E+03  0.30356996313E+04  0.29935642727E+04 0.  0.
        1    1    3    3  502    0  0.10944692508E+03 -0.80810768691E+03 -0.10207773363E+04  0.13065232617E+04  0.50400001928E-02 0.  1.
       -1    1    3    3    0  502 -0.10944692508E+03  0.80810768691E+03  0.15248063005E+04  0.17291763696E+04  0.50400001928E-02 0. -1.
</event>
<event>
 5   0  0.1091075E-06  0.3001115E+04  0.7818609E-02  0.8243413E-01
        1   -1    0    0  501    0  0.00000000000E+00  0.00000000000E+00  0.13923251691E+04  0.13923251691E+04  0.50400001928E-02 0. -1.
       -1   -1    0    0    0  501  0.00000000000E+00  0.00000000000E+00 -0.16172034436E+04  0.16172034436E+04  0.50400001928E-02 0.  1.
    10030    2    1    2    0    0  0.00000000000E+00  0.00000000000E+00 -0.22487827442E+03  0.30095286127E+04  0.30011151648E+04 0.  0.
        1    1    3    3  502    0 -0.32228970900E+03 -0.14554679130E+04 -0.28442959204E+03  0.15176157930E+04  0.50400001928E-02 0. -1.
       -1    1    3    3    0  502  0.32228970900E+03  0.14554679130E+04  0.59551317623E+02  0.14919128197E+04  0.50400001928E-02 0.  1.
</event>
<event>
 5   0  0.3113328E-06  0.2984104E+04  0.7818609E-02  0.8248285E-01
       -2   -1    0    0    0  501  0.00000000000E+00  0.00000000000E+00  0.11196136844E+04  0.11196136844E+04  0.25500000920E-02 0.  1.
        2   -1    0    0  501    0  0.00000000000E+00  0.00000000000E+00 -0.19883809610E+04  0.19883809610E+04  0.25500000920E-02 0. -1.
    10030    2    1    2    0    0  0.00000000000E+00  0.00000000000E+00 -0.86876727664E+03  0.31079946454E+04  0.29841035731E+04 0.  0.
        1    1    3    3  502    0  0.37075196323E+03  0.12291386092E+04 -0.12261967654E+04  0.17753301796E+04  0.50400001928E-02 0. -1.
       -1    1    3    3    0  502 -0.37075196323E+03 -0.12291386092E+04  0.35742948877E+03  0.13326644658E+04  0.50400001928E-02 0.  1.
</event>
<event>
 5   0  0.1097402E-06  0.2992530E+04  0.7818609E-02  0.8245867E-01
        1   -1    0    0  501    0  0.00000000000E+00  0.00000000000E+00  0.16811988008E+04  0.16811988008E+04  0.50400001928E-02 0.  1.
       -1   -1    0    0    0  501  0.00000000000E+00  0.00000000000E+00 -0.13316742507E+04  0.13316742507E+04  0.50400001928E-02 0. -1.
    10030    2    1    2    0    0  0.00000000000E+00  0.00000000000E+00  0.34952455009E+03  0.30128730515E+04  0.29925301357E+04 0.  0.
        4    1    3    3  502    0 -0.64900535346E+03 -0.12526032410E+04 -0.32720974294E+03  0.14482025608E+04  0.12699999809E+01 0. -1.
       -4    1    3    3    0  502  0.64900535346E+03  0.12526032410E+04  0.67673429303E+03  0.15646704907E+04  0.12699999809E+01 0.  1.
</event>
<event>
 5   0  0.2948711E-06  0.3106449E+04  0.7818609E-02  0.8213970E-01
        2   -1    0    0  501    0  0.00000000000E+00  0.00000000000E+00  0.80233015481E+03  0.80233015481E+03  0.25500000920E-02 0.  1.
       -2   -1    0    0    0  501  0.00000000000E+00  0.00000000000E+00 -0.30068746121E+04  0.30068746121E+04  0.25500000920E-02 0. -1.
    10030    2    1    2    0    0  0.00000000000E+00  0.00000000000E+00 -0.22045444573E+04  0.38092047670E+04  0.31064488878E+04 0.  0.
        5    1    3    3  502    0  0.13474507821E+04 -0.12131867023E+03 -0.20378602830E+04  0.24460659135E+04  0.46999998093E+01 0. -1.
       -5    1    3    3    0  502 -0.13474507821E+04  0.12131867023E+03 -0.16668417431E+03  0.13631388535E+04  0.46999998093E+01 0.  1.
</event>
<event>
 5   0  0.1054384E-06  0.2993834E+04  0.7818609E-02  0.8245494E-01
        1   -1    0    0  501    0  0.00000000000E+00  0.00000000000E+00  0.23650805262E+04  0.23650805262E+04  0.50400001928E-02 0.  1.
       -1   -1    0    0    0  501  0.00000000000E+00  0.00000000000E+00 -0.94743547551E+03  0.94743547552E+03  0.50400001928E-02 0. -1.
    10030    2    1    2    0    0  0.00000000000E+00  0.00000000000E+00  0.14176450507E+04  0.33125160017E+04  0.29938344597E+04 0.  0.
        2    1    3    3  502    0 -0.28206201920E+03  0.10743092730E+04  0.18191683466E+04  0.21314485380E+04  0.25500000920E-02 0.  1.
       -2    1    3    3    0  502  0.28206201920E+03 -0.10743092730E+04 -0.40152329588E+03  0.11810674638E+04  0.25500000920E-02 0. -1.
</event>
<event>
 5   0  0.1113245E-06  0.3001619E+04  0.7818609E-02  0.8243269E-01
        1   -1    0    0  501    0  0.00000000000E+00  0.00000000000E+00  0.27298221908E+04  0.27298221908E+04  0.50400001928E-02 0.  1.
       -1   -1    0    0    0  501  0.00000000000E+00  0.00000000000E+00 -0.82511956348E+03  0.82511956349E+03  0.50400001928E-02 0. -1.
    10030    2    1    2    0    0  0.00000000000E+00  0.00000000000E+00  0.19047026273E+04  0.35549417543E+04  0.30016193593E+04 0.  0.
        5    1    3    3  502    0  0.68854685776E+03  0.11442135596E+04  0.17635050652E+04  0.22120790335E+04  0.46999998093E+01 0.  1.
       -5    1    3    3    0  502 -0.68854685776E+03 -0.11442135596E+04  0.14119756210E+03  0.13428627208E+04  0.46999998093E+01 0. -1.
</event>
<event>
 5   0  0.1091075E-06  0.2985603E+04  0.7818609E-02  0.8247854E-01
        1   -1    0    0  501    0  0.00000000000E+00  0.00000000000E+00  0.19911202515E+04  0.19911202515E+04  0.50400001928E-02 0. -1.
       -1   -1    0    0    0  501  0.00000000000E+00  0.00000000000E+00 -0.11191971815E+04  0.11191971815E+04  0.50400001928E-02 0.  1.
    10030    2    1    2    0    0  0.00000000000E+00  0.00000000000E+00  0.87192306999E+03  0.31103174330E+04  0.29856029029E+04 0.  0.
        1    1    3    3  502    0  0.68714940975E+03  0.19673558360E+03  0.18012699740E+04  0.19378990481E+04  0.50400001928E-02 0. -1.
       -1    1    3    3    0  502 -0.68714940975E+03 -0.19673558360E+03 -0.92934690403E+03  0.11724183849E+04  0.50400001928E-02 0.  1.
</event>
<event>
 5   0  0.2948711E-06  0.3005228E+04  0.7818609E-02  0.8242239E-01
       -2   -1    0    0    0  501  0.00000000000E+00  0.00000000000E+00  0.14638188680E+04  0.14638188680E+04  0.25500000920E-02 0. -1.
        2   -1    0    0  501    0  0.00000000000E+00  0.00000000000E+00 -0.15424377679E+04  0.15424377679E+04  0.25500000920E-02 0.  1.
    10030    2    1    2    0    0  0.00000000000E+00  0.00000000000E+00 -0.78618899823E+02  0.30062566359E+04  0.30052284488E+04 0.  0.
        5    1    3    3  502    0 -0.14359311355E+04 -0.39097422239E+03 -0.24690960429E+03  0.15085574272E+04  0.46999998093E+01 0. -1.
       -5    1    3    3    0  502  0.14359311355E+04  0.39097422239E+03  0.16829070447E+03  0.14976992087E+04  0.46999998093E+01 0.  1.
</event>
<event>
 5   0  0.1054384E-06  0.2987200E+04  0.7818609E-02  0.8247395E-01
       -1   -1    0    0    0  501  0.00000000000E+00  0.00000000000E+00  0.11116375792E+04  0.11116375792E+04  0.50400001928E-02 0.  1.
        1   -1    0    0  501    0  0.00000000000E+00  0.00000000000E+00 -0.20068059433E+04  0.20068059433E+04  0.50400001928E-02 0. -1.
    10030    2    1    2    0    0  0.00000000000E+00  0.00000000000E+00 -0.89516836411E+03  0.31184435225E+04  0.29871999604E+04 0.  0.
        2    1    3    3  502    0  0.27495132970E+03 -0.41243598100E+03 -0.19184365161E+04  0.19814389566E+04  0.25500000920E-02 0. -1.
       -2    1    3    3    0  502 -0.27495132970E+03  0.41243598100E+03  0.10232681520E+04  0.11370045660E+04  0.25500000920E-02 0.  1.
</event>
<event>
 5   0  0.1091076E-06  0.2996800E+04  0.7818609E-02  0.8244645E-01
        1   -1    0    0  501    0  0.00000000000E+00  0.00000000000E+00  0.13129285232E+04  0.13129285232E+04  0.50400001928E-02 0. -1.
       -1   -1    0    0    0  501  0.00000000000E+00  0.00000000000E+00 -0.17100725831E+04  0.17100725831E+04  0.50400001928E-02 0.  1.
    10030    2    1    2    0    0  0.00000000000E+00  0.00000000000E+00 -0.39714405988E+03  0.30230011063E+04  0.29968003411E+04 0.  0.
        3    1    3    3  502    0  0.24931815677E+03  0.12739723768E+04  0.55632758904E+03  0.14123262926E+04  0.10100000352E+00 0. -1.
       -3    1    3    3    0  502 -0.24931815677E+03 -0.12739723768E+04 -0.95347164892E+03  0.16106748138E+04  0.10100000352E+00 0.  1.
</event>
<event>
 5   0  0.2985941E-06  0.3002088E+04  0.7818609E-02  0.8243135E-01
        2   -1    0    0  501    0  0.00000000000E+00  0.00000000000E+00  0.14168160667E+04  0.14168160667E+04  0.25500000920E-02 0. -1.
       -2   -1    0    0    0  501  0.00000000000E+00  0.00000000000E+00 -0.15902787921E+04  0.15902787921E+04  0.25500000920E-02 0.  1.
    10030    2    1    2    0    0  0.00000000000E+00  0.00000000000E+00 -0.17346272546E+03  0.30070948588E+04  0.30020876358E+04 0.  0.
        3    1    3    3  502    0 -0.12436389590E+04  0.94477264974E+02  0.74986748286E+03  0.14552886539E+04  0.10100000352E+00 0. -1.
       -3    1    3    3    0  502  0.12436389590E+04 -0.94477264974E+02 -0.92333020831E+03  0.15518062050E+04  0.10100000352E+00 0.  1.
</event>
<event>
 5   0  0.2948711E-06  0.3008364E+04  0.7818609E-02  0.8241346E-01
       -2   -1    0    0    0  501  0.00000000000E+00  0.00000000000E+00  0.13611227463E+04  0.13611227463E+04  0.25500000920E-02 0.  1.
        2   -1    0    0  501    0  0.00000000000E+00  0.00000000000E+00 -0.16622775147E+04  0.16622775147E+04  0.25500000920E-02 0. -1.
    10030    2    1    2    0    0  0.00000000000E+00  0.00000000000E+00 -0.30115476846E+03  0.30234002610E+04  0.30083641641E+04 0.  0.
        5    1    3    3  502    0 -0.95832785112E+03 -0.10143007664E+04  0.41378370749E+03  0.14554852667E+04  0.46999998093E+01 0.  1.
       -5    1    3    3    0  502  0.95832785112E+03  0.10143007664E+04 -0.71493847595E+03  0.15679149943E+04  0.46999998093E+01 0. -1.
</event>
<event>
 5   0  0.3113328E-06  0.2879589E+04  0.7818609E-02  0.8278976E-01
       -2   -1    0    0    0  501  0.00000000000E+00  0.00000000000E+00  0.12884273785E+04  0.12884273785E+04  0.25500000920E-02 0.  1.
        2   -1    0    0  501    0  0.00000000000E+00  0.00000000000E+00 -0.16089441724E+04  0.16089441724E+04  0.25500000920E-02 0. -1.
    10030    2    1    2    0    0  0.00000000000E+00  0.00000000000E+00 -0.32051679388E+03  0.28973715509E+04  0.28795886666E+04 0.  0.
        1    1    3    3  502    0 -0.11303680537E+04  0.29418774604E+03 -0.10073179537E+04  0.15423902965E+04  0.50400001928E-02 0.  1.
       -1    1    3    3    0  502  0.11303680537E+04 -0.29418774604E+03  0.68680115979E+03  0.13549812545E+04  0.50400001928E-02 0. -1.
</event>
<event>
 5   0  0.1097402E-06  0.2982302E+04  0.7818609E-02  0.8248803E-01
        1   -1    0    0  501    0  0.00000000000E+00  0.00000000000E+00  0.14913444478E+04  0.14913444478E+04  0.50400001928E-02 0. -1.
       -1   -1    0    0    0  501  0.00000000000E+00  0.00000000000E+00 -0.14909578693E+04  0.14909578693E+04  0.50400001928E-02 0.  1.
    10030    2    1    2    0    0  0.00000000000E+00  0.00000000000E+00  0.38657850726E+00  0.29823023171E+04  0.29823022920E+04 0.  0.
        4    1    3    3  502    0  0.73066602779E+03  0.11255443470E+04 -0.65004298568E+03  0.14910668722E+04  0.12699999809E+01 0.  1.
       -4    1    3    3    0  502 -0.73066602779E+03 -0.11255443470E+04  0.65042956419E+03  0.14912354449E+04  0.12699999809E+01 0. -1.
</event>
<event>
 5   0  0.1113245E-06  0.2996901E+04  0.7818609E-02  0.8244617E-01
       -1   -1    0    0    0  501  0.00000000000E+00  0.00000000000E+00  0.16744988630E+04  0.16744988631E+04  0.50400001928E-02 0.  1.
        1   -1    0    0  501    0  0.00000000000E+00  0.00000000000E+00 -0.13409105601E+04  0.13409105601E+04  0.50400001928E-02 0. -1.
    10030    2    1    2    0    0  0.00000000000E+00  0.00000000000E+00  0.33358830299E+03  0.30154094231E+04  0.29969005377E+04 0.  0.
        5    1    3    3  502    0 -0.29766386758E+03  0.10941539526E+04  0.11524124869E+04  0.16167415625E+04  0.46999998093E+01 0.  1.
       -5    1    3    3    0  502  0.29766386758E+03 -0.10941539526E+04 -0.81882418392E+03  0.13986678606E+04  0.46999998093E+01 0. -1.
</event>
<event>
 5   0  0.1091076E-06  0.2988674E+04  0.7818609E-02  0.8246972E-01
       -1   -1    0    0    0  501  0.00000000000E+00  0.00000000000E+00  0.10133072249E+04  0.10133072249E+04  0.50400001928E-02 0.  1.
        1   -1    0    0  501    0  0.00000000000E+00  0.00000000000E+00 -0.22037178535E+04  0.22037178535E+04  0.50400001928E-02 0. -1.
    10030    2    1    2    0    0  0.00000000000E+00  0.00000000000E+00 -0.11904106287E+04  0.32170250784E+04  0.29886741024E+04 0.  0.
        3    1    3    3  502    0 -0.39196040610E+03  0.10901475311E+04 -0.16112480215E+04  0.19844835087E+04  0.10100000352E+00 0. -1.
       -3    1    3    3    0  502  0.39196040610E+03 -0.10901475311E+04  0.42083739281E+03  0.12325415696E+04  0.10100000352E+00 0.  1.
</event>
<event>
 5   0  0.2862033E-06  0.3040044E+04  0.7818609E-02  0.8232388E-01
       -2   -1    0    0    0  501  0.00000000000E+00  0.00000000000E+00  0.20530286572E+04  0.20530286572E+04  0.25500000920E-02 0. -1.
        2   -1    0    0  501    0  0.00000000000E+00  0.00000000000E+00 -0.11253947167E+04  0.11253947167E+04  0.25500000920E-02 0.  1.
    10030    2    1    2    0    0  0.00000000000E+00  0.00000000000E+00  0.92763394046E+03  0.31784233740E+04  0.30400444761E+04 0.  0.
        2    1    3    3  502    0  0.39446582638E+02 -0.13936125942E+04  0.10969866811E+04  0.17740044741E+04  0.25500000920E-02 0. -1.
       -2    1    3    3    0  502 -0.39446582638E+02  0.13936125942E+04 -0.16935274066E+03  0.14044188999E+04  0.25500000920E-02 0.  1.
</event>
<event>
 5   0  0.1091076E-06  0.2991916E+04  0.7818609E-02  0.8246043E-01
        1   -1    0    0  501    0  0.00000000000E+00  0.00000000000E+00  0.18922129734E+04  0.18922129734E+04  0.50400001928E-02 0. -1.
       -1   -1    0    0    0  501  0.00000000000E+00  0.00000000000E+00 -0.11826844628E+04  0.11826844628E+04  0.50400001928E-02 0.  1.
    10030    2    1    2    0    0  0.00000000000E+00  0.00000000000E+00  0.70952851053E+03  0.30748974362E+04  0.29919163651E+04 0.  0.
        3    1    3    3  502    0  0.31209428217E+03  0.11412418171E+04  0.12956079618E+04  0.17545471572E+04  0.10100000352E+00 0. -1.
       -3    1    3    3    0  502 -0.31209428217E+03 -0.11412418171E+04 -0.58607945126E+03  0.13203502790E+04  0.10100000352E+00 0.  1.
</event>
<event>
 5   0  0.1054384E-06  0.3000947E+04  0.7818609E-02  0.8243460E-01
        1   -1    0    0  501    0  0.00000000000E+00  0.00000000000E+00  0.86964209022E+03  0.86964209023E+03  0.50400001928E-02 0.  1.
       -1   -1    0    0    0  501  0.00000000000E+00  0.00000000000E+00 -0.25889052742E+04  0.25889052742E+04  0.50400001928E-02 0. -1.
    10030    2    1    2    0    0  0.00000000000E+00  0.00000000000E+00 -0.17192631840E+04  0.34585473645E+04  0.30009471799E+04 0.  0.
        2    1    3    3  502    0 -0.77925672992E+03  0.10968863460E+04 -0.94273532168E+02  0.13488099221E+04  0.25500000920E-02 0.  1.
       -2    1    3    3    0  502  0.77925672992E+03 -0.10968863460E+04 -0.16249896518E+04  0.21097374423E+04  0.25500000920E-02 0. -1.
</event>
<event>
 5   0  0.1097402E-06  0.3232305E+04  0.7818609E-02  0.8180337E-01
       -1   -1    0    0    0  501  0.00000000000E+00  0.00000000000E+00  0.13109217060E+04  0.13109217060E+04  0.50400001928E-02 0. -1.
        1   -1    0    0  501    0  0.00000000000E+00  0.00000000000E+00 -0.19924518882E+04  0.19924518882E+04  0.50400001928E-02 0.  1.
    10030    2    1    2    0    0  0.00000000000E+00  0.00000000000E+00 -0.68153018227E+03  0.33033735942E+04  0.32323047062E+04 0.  0.
        4    1    3    3  502    0  0.11122110501E+04 -0.16149625195E+03  0.84617173836E+03  0.14068058441E+04  0.12699999809E+01 0. -1.
       -4    1    3    3    0  502 -0.11122110501E+04  0.16149625195E+03 -0.15277019206E+04  0.18965677501E+04  0.12699999809E+01 0.  1.
</event>
<event>
 5   0  0.3113328E-06  0.3002116E+04  0.7818609E-02  0.8243127E-01
       -2   -1    0    0    0  501  0.00000000000E+00  0.00000000000E+00  0.80352726192E+03  0.80352726193E+03  0.25500000920E-02 0.  1.
        2   -1    0    0  501    0  0.00000000000E+00  0.00000000000E+00 -0.28041056124E+04  0.28041056124E+04  0.25500000920E-02 0. -1.
    10030    2    1    2    0    0  0.00000000000E+00  0.00000000000E+00 -0.20005783505E+04  0.36076328743E+04  0.30021161236E+04 0.  0.
        1    1    3    3  502    0 -0.89609775209E+02  0.92124356760E+03 -0.24203548420E+04  0.25913002882E+04  0.50400001928E-02 0. -1.
       -1    1    3    3    0  502  0.89609775209E+02 -0.92124356760E+03  0.41977649153E+03  0.10163325861E+04  0.50400001928E-02 0.  1.
</event>
<event>
 5   0  0.2985941E-06  0.3006408E+04  0.7818609E-02  0.8241903E-01
        2   -1    0    0  501    0  0.00000000000E+00  0.00000000000E+00  0.27214565835E+04  0.27214565835E+04  0.25500000920E-02 0. -1.
       -2   -1    0    0    0  501  0.00000000000E+00  0.00000000000E+00 -0.83029884216E+03  0.83029884217E+03  0.25500000920E-02 0.  1.
    10030    2    1    2    0    0  0.00000000000E+00  0.00000000000E+00  0.18911577413E+04  0.35517554256E+04  0.30064079898E+04 0.  0.
        3    1    3    3  502    0  0.13875538851E+03  0.14784434268E+04  0.66959170353E+03  0.16289263592E+04  0.10100000352E+00 0.  1.
       -3    1    3    3    0  502 -0.13875538851E+03 -0.14784434268E+04  0.12215660378E+04  0.19228290665E+04  0.10100000352E+00 0. -1.
</event>
<event>
 5   0  0.1054384E-06  0.3002392E+04  0.7818609E-02  0.8243048E-01
       -1   -1    0    0    0  501  0.00000000000E+00  0.00000000000E+00  0.99147359835E+03  0.99147359836E+03  0.50400001928E-02 0. -1.
        1   -1    0    0  501    0  0.00000000000E+00  0.00000000000E+00 -0.22729703421E+04  0.22729703421E+04  0.50400001928E-02 0.  1.
    10030    2    1    2    0    0  0.00000000000E+00  0.00000000000E+00 -0.12814967438E+04  0.32644439405E+04  0.30023924354E+04 0.  0.
        2    1    3    3  502    0  0.93508386616E+03  0.67936169171E+03  0.40081675402E+03  0.12233430489E+04  0.25500000920E-02 0. -1.
       -2    1    3    3    0  502 -0.93508386616E+03 -0.67936169171E+03 -0.16823134978E+04  0.20411008916E+04  0.25500000920E-02 0.  1.
</event>
<event>
 5   0  0.1113245E-06  0.2992526E+04  0.7818609E-02  0.8245868E-01
        1   -1    0    0  501    0  0.00000000000E+00  0.00000000000E+00  0.25479146460E+04  0.25479146460E+04  0.50400001928E-02 0. -1.
       -1   -1    0    0    0  501  0.00000000000E+00  0.00000000000E+00 -0.87868045888E+03  0.87868045890E+03  0.50400001928E-02 0.  1.
    10030    2    1    2    0    0  0.00000000000E+00  0.00000000000E+00  0.16692341871E+04  0.34265951049E+04  0.29925258965E+04 0.  0.
        5    1    3    3  502    0  0.47409683733E+03 -0.13308149242E+04  0.13990059762E+04  0.19882343888E+04  0.46999998093E+01 0. -1.
       -5    1    3    3    0  502 -0.47409683733E+03  0.13308149242E+04  0.27022821092E+03  0.14383607161E+04  0.46999998093E+01 0.  1.
</event>
<event>
 5   0  0.2948711E-06  0.3012948E+04  0.7818609E-02  0.8240043E-01
        2   -1    0    0  501    0  0.00000000000E+00  0.00000000000E+00  0.22645326571E+04  0.22645326571E+04  0.25500000920E-02 0. -1.
       -2   -1    0    0    0  501  0.00000000000E+00  0.00000000000E+00 -0.10021775386E+04  0.10021775386E+04  0.25500000920E-02 0.  1.
    10030    2    1    2    0    0  0.00000000000E+00  0.00000000000E+00  0.12623551185E+04  0.32667101957E+04  0.30129479015E+04 0.  0.
        5    1    3    3  502    0 -0.63609839509E+03 -0.65954912434E+03 -0.66528201698E+03  0.11323641057E+04  0.46999998093E+01 0. -1.
       -5    1    3    3    0  502  0.63609839509E+03  0.65954912434E+03  0.19276371355E+04  0.21343460900E+04  0.46999998093E+01 0.  1.
</event>
<event>
 5   0  0.3113328E-06  0.3008864E+04  0.7818609E-02  0.8241204E-01
       -2   -1    0    0    0  501  0.00000000000E+00  0.00000000000E+00  0.24741634095E+04  0.24741634095E+04  0.25500000920E-02 0. -1.
        2   -1    0    0  501    0  0.00000000000E+00  0.00000000000E+00 -0.91477996688E+03  0.91477996688E+03  0.25500000920E-02 0.  1.
    10030    2    1    2    0    0  0.00000000000E+00  0.00000000000E+00  0.15593834426E+04  0.33889433763E+04  0.30088636538E+04 0.  0.
        1    1    3    3  502    0  0.29055399913E+03 -0.65335353828E+03 -0.71115042726E+03  0.10084777651E+04  0.50400001928E-02 0.  1.
       -1    1    3    3    0  502 -0.29055399913E+03  0.65335353828E+03  0.22705338698E+04  0.23804656113E+04  0.50400001928E-02 0. -1.
</event>
<event>
 5   0  0.9749500E-07  0.2999270E+04  0.7818609E-02  0.8243939E-01
        3   -1    0    0  501    0  0.00000000000E+00  0.00000000000E+00  0.22184453741E+04  0.22184453764E+04  0.10100000352E+00 0.  1.
       -3   -1    0    0    0  501  0.00000000000E+00  0.00000000000E+00 -0.10137299322E+04  0.10137299372E+04  0.10100000352E+00 0. -1.
    10030    2    1    2    0    0  0.00000000000E+00  0.00000000000E+00  0.12047154419E+04  0.32321753136E+04  0.29992695714E+04 0.  0.
        1    1    3    3  502    0  0.29300387186E+03  0.52446631781E+03  0.20830985690E+04  0.21679981171E+04  0.50400001928E-02 0.  1.
       -1    1    3    3    0  502 -0.29300387186E+03 -0.52446631781E+03 -0.87838312716E+03  0.10641771965E+04  0.50400001928E-02 0. -1.
</event>
<event>
 5   0  0.1097402E-06  0.2980433E+04  0.7818609E-02  0.8249341E-01
        1   -1    0    0  501    0  0.00000000000E+00  0.00000000000E+00  0.24576055982E+04  0.24576055983E+04  0.50400001928E-02 0. -1.
       -1   -1    0    0    0  501  0.00000000000E+00  0.00000000000E+00 -0.90362120633E+03  0.90362120635E+03  0.50400001928E-02 0.  1.
    10030    2    1    2    0    0  0.00000000000E+00  0.00000000000E+00  0.15539843919E+04  0.33612268046E+04  0.29804325427E+04 0.  0.
        4    1    3    3  502    0  0.57404537935E+03  0.43663792787E+03 -0.69367625230E+03  0.10006843326E+04  0.12699999809E+01 0.  1.
       -4    1    3    3    0  502 -0.57404537935E+03 -0.43663792787E+03  0.22476606442E+04  0.23605424720E+04  0.12699999809E+01 0. -1.
</event>
<event>
 5   0  0.2970915E-06  0.2931405E+04  0.7818609E-02  0.8263594E-01
        2   -1    0    0  501    0  0.00000000000E+00  0.00000000000E+00  0.19923939233E+04  0.19923939234E+04  0.25500000920E-02 0. -1.
       -2   -1    0    0    0  501  0.00000000000E+00  0.00000000000E+00 -0.10782423882E+04  0.10782423882E+04  0.25500000920E-02 0.  1.
    10030    2    1    2    0    0  0.00000000000E+00  0.00000000000E+00  0.91415153513E+03  0.30706363116E+04  0.29314048388E+04 0.  0.
        4    1    3    3  502    0 -0.67321278216E+03 -0.54518348404E+02 -0.90551316838E+03  0.11296651767E+04  0.12699999809E+01 0.  1.
       -4    1    3    3    0  502  0.67321278216E+03  0.54518348404E+02  0.18196647035E+04  0.19409711349E+04  0.12699999809E+01 0. -1.
</event>
<event>
 5   0  0.2985941E-06  0.2997104E+04  0.7818609E-02  0.8244558E-01
        2   -1    0    0  501    0  0.00000000000E+00  0.00000000000E+00  0.28153083374E+04  0.28153083374E+04  0.25500000920E-02 0. -1.
       -2   -1    0    0    0  501  0.00000000000E+00  0.00000000000E+00 -0.79765991913E+03  0.79765991913E+03  0.25500000920E-02 0.  1.
    10030    2    1    2    0    0  0.00000000000E+00  0.00000000000E+00  0.20176484183E+04  0.36129682565E+04  0.29971043497E+04 0.  0.
        3    1    3    3  502    0 -0.13894153646E+04  0.51137779658E+03  0.72953536696E+03  0.16505163337E+04  0.10100000352E+00 0.  1.
       -3    1    3    3    0  502  0.13894153646E+04 -0.51137779658E+03  0.12881130513E+04  0.19624519228E+04  0.10100000352E+00 0. -1.
</event>
<event>
 5   0  0.2948711E-06  0.3012709E+04  0.7818609E-02  0.8240111E-01
       -2   -1    0    0    0  501  0.00000000000E+00  0.00000000000E+00  0.94344572196E+03  0.94344572197E+03  0.25500000920E-02 0.  1.
        2   -1    0    0  501    0  0.00000000000E+00  0.00000000000E+00 -0.24051245425E+04  0.24051245425E+04  0.25500000920E-02 0. -1.
    10030    2    1    2    0    0  0.00000000000E+00  0.00000000000E+00 -0.14616788205E+04  0.33485702645E+04  0.30127093855E+04 0.  0.
        5    1    3    3  502    0  0.15731191296E+02 -0.13022098190E+04  0.11057801608E+03  0.13069994150E+04  0.46999998093E+01 0.  1.
       -5    1    3    3    0  502 -0.15731191296E+02  0.13022098190E+04 -0.15722568366E+04  0.20415708495E+04  0.46999998093E+01 0. -1.
</event>
<event>
 5   0  0.2948711E-06  0.2985256E+04  0.7818609E-02  0.8247954E-01
       -2   -1    0    0    0  501  0.00000000000E+00  0.00000000000E+00  0.17514033763E+04  0.17514033763E+04  0.25500000920E-02 0. -1.
        2   -1    0    0  501    0  0.00000000000E+00  0.00000000000E+00 -0.12720876346E+04  0.12720876346E+04  0.25500000920E-02 0.  1.
    10030    2    1    2    0    0  0.00000000000E+00  0.00000000000E+00  0.47931574176E+03  0.30234910109E+04  0.29852561553E+04 0.  0.
        5    1    3    3  502    0  0.15041952474E+03 -0.14826111283E+04  0.32532667407E+03  0.15253266293E+04  0.46999998093E+01 0.  1.
       -5    1    3    3    0  502 -0.15041952474E+03  0.14826111283E+04  0.15398906768E+03  0.14981643816E+04  0.46999998093E+01 0. -1.
</event>
<event>
 5   0  0.2948711E-06  0.2993138E+04  0.7818609E-02  0.8245693E-01
       -2   -1    0    0    0  501  0.00000000000E+00  0.00000000000E+00  0.86086227728E+03  0.86086227728E+03  0.25500000920E-02 0. -1.
        2   -1    0    0  501    0  0.00000000000E+00  0.00000000000E+00 -0.26017152959E+04  0.26017152959E+04  0.25500000920E-02 0.  1.
    10030    2    1    2    0    0  0.00000000000E+00  0.00000000000E+00 -0.17408530187E+04  0.34625775732E+04  0.29931378548E+04 0.  0.
        5    1    3    3  502    0  0.21834137598E+02 -0.12876278085E+04 -0.17523855834E+04  0.21747044456E+04  0.46999998093E+01 0.  1.
       -5    1    3    3    0  502 -0.21834137598E+02  0.12876278085E+04  0.11532564695E+02  0.12878731276E+04  0.46999998093E+01 0. -1.
</event>
<event>
 5   0  0.1113245E-06  0.2995209E+04  0.7818609E-02  0.8245100E-01
       -1   -1    0    0    0  501  0.00000000000E+00  0.00000000000E+00  0.95063861507E+03  0.95063861508E+03  0.50400001928E-02 0. -1.
        1   -1    0    0  501    0  0.00000000000E+00  0.00000000000E+00 -0.23592760084E+04  0.23592760084E+04  0.50400001928E-02 0.  1.
    10030    2    1    2    0    0  0.00000000000E+00  0.00000000000E+00 -0.14086373933E+04  0.33099146234E+04  0.29952087588E+04 0.  0.
        5    1    3    3  502    0  0.14800586683E+04  0.15384146991E+03 -0.89105890152E+03  0.17344304297E+04  0.46999998093E+01 0.  1.
       -5    1    3    3    0  502 -0.14800586683E+04 -0.15384146991E+03 -0.51757849177E+03  0.15754841937E+04  0.46999998093E+01 0. -1.
</event>
<event>
 5   0  0.3113328E-06  0.3034756E+04  0.7818609E-02  0.8233875E-01
       -2   -1    0    0    0  501  0.00000000000E+00  0.00000000000E+00  0.94624708423E+03  0.94624708423E+03  0.25500000920E-02 0.  1.
        2   -1    0    0  501    0  0.00000000000E+00  0.00000000000E+00 -0.24332285815E+04  0.24332285815E+04  0.25500000920E-02 0. -1.
    10030    2    1    2    0    0  0.00000000000E+00  0.00000000000E+00 -0.14869814973E+04  0.33794756658E+04  0.30347556413E+04 0.  0.
        1    1    3    3  502    0  0.76804167103E+03  0.12909485529E+04 -0.98232746609E+03  0.17948268511E+04  0.50400001928E-02 0.  1.
       -1    1    3    3    0  502 -0.76804167103E+03 -0.12909485529E+04 -0.50465403121E+03  0.15846488147E+04  0.50400001928E-02 0. -1.
</event>
<event>
 5   0  0.1054384E-06  0.2932026E+04  0.7818609E-02  0.8263412E-01
       -1   -1    0    0    0  501  0.00000000000E+00  0.00000000000E+00  0.13273512909E+04  0.13273512909E+04  0.50400001928E-02 0. -1.
        1   -1    0    0  501    0  0.00000000000E+00  0.00000000000E+00 -0.16191602381E+04  0.16191602381E+04  0.50400001928E-02 0.  1.
    10030    2    1    2    0    0  0.00000000000E+00  0.00000000000E+00 -0.29180894721E+03  0.29465115290E+04  0.29320262155E+04 0.  0.
        2    1    3    3  502    0 -0.66946619499E+03 -0.23342927587E+03  0.11436028997E+04  0.13455488863E+04  0.25500000920E-02 0. -1.
       -2    1    3    3    0  502  0.66946619499E+03  0.23342927587E+03 -0.14354118469E+04  0.16009626427E+04  0.25500000920E-02 0.  1.
</event>
<event>
 5   0  0.1054384E-06  0.2992551E+04  0.7818609E-02  0.8245861E-01
       -1   -1    0    0    0  501  0.00000000000E+00  0.00000000000E+00  0.14922739853E+04  0.14922739853E+04  0.50400001928E-02 0. -1.
        1   -1    0    0  501    0  0.00000000000E+00  0.00000000000E+00 -0.15002880922E+04  0.15002880922E+04  0.50400001928E-02 0.  1.
    10030    2    1    2    0    0  0.00000000000E+00  0.00000000000E+00 -0.80141069147E+01  0.29925620776E+04  0.29925513466E+04 0.  0.
        2    1    3    3  502    0  0.12876181192E+03  0.95833570737E+02  0.14836397745E+04  0.14922971078E+04  0.25500000920E-02 0. -1.
       -2    1    3    3    0  502 -0.12876181192E+03 -0.95833570737E+02 -0.14916538814E+04  0.15002649697E+04  0.25500000920E-02 0.  1.
</event>
<event>
 5   0  0.1091076E-06  0.3006495E+04  0.7818609E-02  0.8241879E-01
       -1   -1    0    0    0  501  0.00000000000E+00  0.00000000000E+00  0.13100799043E+04  0.13100799043E+04  0.50400001928E-02 0. -1.
        1   -1    0    0  501    0  0.00000000000E+00  0.00000000000E+00 -0.17248966826E+04  0.17248966826E+04  0.50400001928E-02 0.  1.
    10030    2    1    2    0    0  0.00000000000E+00  0.00000000000E+00 -0.41481677825E+03  0.30349765869E+04  0.30064946239E+04 0.  0.
        3    1    3    3  502    0 -0.19770734863E+03 -0.27751878252E+02 -0.17114541252E+04  0.17230593708E+04  0.10100000352E+00 0.  1.
       -3    1    3    3    0  502  0.19770734863E+03  0.27751878252E+02  0.12966373469E+04  0.13119172162E+04  0.10100000352E+00 0. -1.
</event>
<event>
 5   0  0.3113328E-06  0.3006526E+04  0.7818609E-02  0.8241870E-01
       -2   -1    0    0    0  501  0.00000000000E+00  0.00000000000E+00  0.12201799453E+04  0.12201799453E+04  0.25500000920E-02 0. -1.
        2   -1    0    0  501    0  0.00000000000E+00  0.00000000000E+00 -0.18520220315E+04  0.18520220315E+04  0.25500000920E-02 0.  1.
    10030    2    1    2    0    0  0.00000000000E+00  0.00000000000E+00 -0.63184208625E+03  0.30722019768E+04  0.30065263286E+04 0.  0.
        1    1    3    3  502    0 -0.38588176939E+03  0.14315238944E+04 -0.56960765019E+03  0.15882752518E+04  0.50400001928E-02 0.  1.
       -1    1    3    3    0  502  0.38588176939E+03 -0.14315238944E+04 -0.62234436065E+02  0.14839267250E+04  0.50400001928E-02 0. -1.
</event>
<event>
 5   0  0.1097402E-06  0.2972059E+04  0.7818609E-02  0.8251755E-01
        1   -1    0    0  501    0  0.00000000000E+00  0.00000000000E+00  0.15581101259E+04  0.15581101259E+04  0.50400001928E-02 0. -1.
       -1   -1    0    0    0  501  0.00000000000E+00  0.00000000000E+00 -0.14172831987E+04  0.14172831987E+04  0.50400001928E-02 0.  1.
    10030    2    1    2    0    0  0.00000000000E+00  0.00000000000E+00  0.14082692726E+03  0.29753933246E+04  0.29720587498E+04 0.  0.
        4    1    3    3  502    0 -0.80210141939E+03  0.88366798455E+03 -0.81604366598E+03  0.14457401812E+04  0.12699999809E+01 0.  1.
       -4    1    3    3    0  502  0.80210141939E+03 -0.88366798455E+03  0.95687059324E+03  0.15296531434E+04  0.12699999809E+01 0. -1.
</event>
<event>
 5   0  0.1097402E-06  0.2984468E+04  0.7818609E-02  0.8248180E-01
       -1   -1    0    0    0  501  0.00000000000E+00  0.00000000000E+00  0.10884474119E+04  0.10884474120E+04  0.50400001928E-02 0. -1.
        1   -1    0    0  501    0  0.00000000000E+00  0.00000000000E+00 -0.20458147780E+04  0.20458147780E+04  0.50400001928E-02 0.  1.
    10030    2    1    2    0    0  0.00000000000E+00  0.00000000000E+00 -0.95736736608E+03  0.31342621900E+04  0.29844676580E+04 0.  0.
        4    1    3    3  502    0  0.14316769703E+04  0.19191689877E+03 -0.85416607387E+02  0.14470067909E+04  0.12699999809E+01 0. -1.
       -4    1    3    3    0  502 -0.14316769703E+04 -0.19191689877E+03 -0.87195075869E+03  0.16872553991E+04  0.12699999809E+01 0.  1.
</event>
<event>
 5   0  0.1113245E-06  0.3035414E+04  0.7818609E-02  0.8233690E-01
       -1   -1    0    0    0  501  0.00000000000E+00  0.00000000000E+00  0.94524648145E+03  0.94524648147E+03  0.50400001928E-02 0.  1.
        1   -1    0    0  501    0  0.00000000000E+00  0.00000000000E+00 -0.24368615848E+04  0.24368615848E+04  0.50400001928E-02 0. -1.
    10030    2    1    2    0    0  0.00000000000E+00  0.00000000000E+00 -0.14916151034E+04  0.33821080663E+04  0.30354141983E+04 0.  0.
        5    1    3    3  502    0 -0.53862677774E+03  0.46162791235E+03 -0.22407660189E+04  0.23503773265E+04  0.46999998093E+01 0. -1.
       -5    1    3    3    0  502  0.53862677774E+03 -0.46162791235E+03  0.74915091558E+03  0.10317307398E+04  0.46999998093E+01 0.  1.
</event>
<event>
 5   0  0.2862033E-06  0.2998328E+04  0.7818609E-02  0.8244208E-01
        2   -1    0    0  501    0  0.00000000000E+00  0.00000000000E+00  0.20284919803E+04  0.20284919803E+04  0.25500000920E-02 0.  1.
       -2   -1    0    0    0  501  0.00000000000E+00  0.00000000000E+00 -0.11079625173E+04  0.11079625173E+04  0.25500000920E-02 0. -1.
    10030    2    1    2    0    0  0.00000000000E+00  0.00000000000E+00  0.92052946297E+03  0.31364544975E+04  0.29983282547E+04 0.  0.
        2    1    3    3  502    0 -0.62366361180E+03 -0.12948153372E+04  0.90652025384E+03  0.16992004086E+04  0.25500000920E-02 0.  1.
       -2    1    3    3    0  502  0.62366361180E+03  0.12948153372E+04  0.14009209126E+02  0.14372540889E+04  0.25500000920E-02 0. -1.
</event>
<event>
 5   0  0.2970915E-06  0.2999757E+04  0.7818609E-02  0.8243800E-01
        2   -1    0    0  501    0  0.00000000000E+00  0.00000000000E+00  0.27780545044E+04  0.27780545044E+04  0.25500000920E-02 0.  1.
       -2   -1    0    0    0  501  0.00000000000E+00  0.00000000000E+00 -0.80978798438E+03  0.80978798438E+03  0.25500000920E-02 0. -1.
    10030    2    1    2    0    0  0.00000000000E+00  0.00000000000E+00  0.19682665201E+04  0.35878424888E+04  0.29997567619E+04 0.  0.
        4    1    3    3  502    0  0.59141499628E+03 -0.34151126181E+03  0.25813036147E+04  0.26701182753E+04  0.12699999809E+01 0.  1.
       -4    1    3    3    0  502 -0.59141499628E+03  0.34151126181E+03 -0.61303709466E+03  0.91772421353E+03  0.12699999809E+01 0. -1.
</event>
<event>
 5   0  0.2948711E-06  0.3037980E+04  0.7818609E-02  0.8232968E-01
       -2   -1    0    0    0  501  0.00000000000E+00  0.00000000000E+00  0.94578176570E+03  0.94578176571E+03  0.25500000920E-02 0. -1.
        2   -1    0    0  501    0  0.00000000000E+00  0.00000000000E+00 -0.24396015605E+04  0.24396015605E+04  0.25500000920E-02 0.  1.
    10030    2    1    2    0    0  0.00000000000E+00  0.00000000000E+00 -0.14938197948E+04  0.33853833262E+04  0.30379800338E+04 0.  0.
        5    1    3    3  502    0 -0.50401568155E+02 -0.24945293536E+03 -0.24156672016E+04  0.24290403875E+04  0.46999998093E+01 0.  1.
       -5    1    3    3    0  502  0.50401568155E+02  0.24945293536E+03  0.92184740681E+03  0.95634293874E+03  0.46999998093E+01 0. -1.
</event>
<event>
 5   0  0.2985941E-06  0.3026198E+04  0.7818609E-02  0.8236289E-01
        2   -1    0    0  501    0  0.00000000000E+00  0.00000000000E+00  0.30369675213E+04  0.30369675213E+04  0.25500000920E-02 0.  1.
       -2   -1    0    0    0  501  0.00000000000E+00  0.00000000000E+00 -0.75386666118E+03  0.75386666118E+03  0.25500000920E-02 0. -1.
    10030    2    1    2    0    0  0.00000000000E+00  0.00000000000E+00  0.22831008601E+04  0.37908341825E+04  0.30261979878E+04 0.  0.
        3    1    3    3  502    0 -0.12133405063E+04 -0.59087725977E+03  0.28446495450E+03  0.13792213168E+04  0.10100000352E+00 0. -1.
       -3    1    3    3    0  502  0.12133405063E+04  0.59087725977E+03  0.19986359056E+04  0.24116128656E+04  0.10100000352E+00 0.  1.
</event>
<event>
 5   0  0.2948711E-06  0.2743922E+04  0.7818609E-02  0.8320893E-01
       -2   -1    0    0    0  501  0.00000000000E+00  0.00000000000E+00  0.10624347692E+04  0.10624347692E+04  0.25500000920E-02 0. -1.
        2   -1    0    0  501    0  0.00000000000E+00  0.00000000000E+00 -0.17716631944E+04  0.17716631944E+04  0.25500000920E-02 0.  1.
    10030    2    1    2    0    0  0.00000000000E+00  0.00000000000E+00 -0.70922842514E+03  0.28340979636E+04  0.27439217023E+04 0.  0.
        5    1    3    3  502    0 -0.74373686535E+03 -0.93062735901E+03 -0.10574496573E+04  0.15929324135E+04  0.46999998093E+01 0.  1.
       -5    1    3    3    0  502  0.74373686535E+03  0.93062735901E+03  0.34822123220E+03  0.12411655501E+04  0.46999998093E+01 0. -1.
</event>
<event>
 5   0  0.2862033E-06  0.2992334E+04  0.7818609E-02  0.8245923E-01
        2   -1    0    0  501    0  0.00000000000E+00  0.00000000000E+00  0.13881658831E+04  0.13881658831E+04  0.25500000920E-02 0.  1.
       -2   -1    0    0    0  501  0.00000000000E+00  0.00000000000E+00 -0.16125702107E+04  0.16125702107E+04  0.25500000920E-02 0. -1.
    10030    2    1    2    0    0  0.00000000000E+00  0.00000000000E+00 -0.22440432758E+03  0.30007360938E+04  0.29923335045E+04 0.  0.
        2    1    3    3  502    0 -0.31327727153E+03 -0.11415669701E+04 -0.10297562606E+04  0.15689855806E+04  0.25500000920E-02 0. -1.
       -2    1    3    3    0  502  0.31327727153E+03  0.11415669701E+04  0.80535193297E+03  0.14317505132E+04  0.25500000920E-02 0.  1.
</event>
<event>
 5   0  0.1091075E-06  0.3004786E+04  0.7818609E-02  0.8242366E-01
       -1   -1    0    0    0  501  0.00000000000E+00  0.00000000000E+00  0.23994196383E+04  0.23994196383E+04  0.50400001928E-02 0.  1.
        1   -1    0    0  501    0  0.00000000000E+00  0.00000000000E+00 -0.94072103093E+03  0.94072103095E+03  0.50400001928E-02 0. -1.
    10030    2    1    2    0    0  0.00000000000E+00  0.00000000000E+00  0.14586986073E+04  0.33401406692E+04  0.30047858598E+04 0.  0.
        1    1    3    3  502    0 -0.16066730202E+03 -0.11905350185E+04 -0.27356218650E+03  0.12320811183E+04  0.50400001928E-02 0. -1.
       -1    1    3    3    0  502  0.16066730202E+03  0.11905350185E+04  0.17322607938E+04  0.21080595509E+04  0.50400001928E-02 0.  1.
</event>
<event>
 5   0  0.1097402E-06  0.2988376E+04  0.7818609E-02  0.8247058E-01
        1   -1    0    0  501    0  0.00000000000E+00  0.00000000000E+00  0.15984976403E+04  0.15984976403E+04  0.50400001928E-02 0.  1.
       -1   -1    0    0    0  501  0.00000000000E+00  0.00000000000E+00 -0.13966851671E+04  0.13966851671E+04  0.50400001928E-02 0. -1.
    10030    2    1    2    0    0  0.00000000000E+00  0.00000000000E+00  0.20181247312E+03  0.29951828074E+04  0.29883761101E+04 0.  0.
        4    1    3    3  502    0 -0.14555462497E+04  0.33504799340E+03  0.14252536601E+03  0.15003956597E+04  0.12699999809E+01 0.  1.
       -4    1    3    3    0  502  0.14555462497E+04 -0.33504799340E+03  0.59287107111E+02  0.14947871477E+04  0.12699999809E+01 0. -1.
</event>
<event>
 5   0  0.2970915E-06  0.3013045E+04  0.7818609E-02  0.8240016E-01
        2   -1    0    0  501    0  0.00000000000E+00  0.00000000000E+00  0.29654977657E+04  0.29654977657E+04  0.25500000920E-02 0. -1.
       -2   -1    0    0    0  501  0.00000000000E+00  0.00000000000E+00 -0.76533839766E+03  0.76533839766E+03  0.25500000920E-02 0.  1.
    10030    2    1    2    0    0  0.00000000000E+00  0.00000000000E+00  0.22001593680E+04  0.37308361633E+04  0.30130445123E+04 0.  0.
        4    1    3    3  502    0 -0.75063747511E+03  0.50474937914E+03  0.25918125857E+04  0.27451270731E+04  0.12699999809E+01 0. -1.
       -4    1    3    3    0  502  0.75063747511E+03 -0.50474937914E+03 -0.39165321773E+03  0.98570909027E+03  0.12699999809E+01 0.  1.
</event>
<event>
 5   0  0.2970915E-06  0.3010873E+04  0.7818609E-02  0.8240633E-01
        2   -1    0    0  501    0  0.00000000000E+00  0.00000000000E+00  0.25358649078E+04  0.25358649078E+04  0.25500000920E-02 0. -1.
       -2   -1    0    0    0  501  0.00000000000E+00  0.00000000000E+00 -0.89371467485E+03  0.89371467485E+03  0.25500000920E-02 0.  1.
    10030    2    1    2    0    0  0.00000000000E+00  0.00000000000E+00  0.16421502329E+04  0.34295795826E+04  0.30108734158E+04 0.  0.
        4    1    3    3  502    0  0.10129025578E+04  0.11135997060E+04  0.83951853781E+03  0.17236208646E+04  0.12699999809E+01 0. -1.
       -4    1    3    3    0  502 -0.10129025578E+04 -0.11135997060E+04  0.80263169513E+03  0.17059587180E+04  0.12699999809E+01 0.  1.
</event>
<event>
 5   0  0.1054384E-06  0.3021662E+04  0.7818609E-02  0.8237572E-01
        1   -1    0    0  501    0  0.00000000000E+00  0.00000000000E+00  0.14022298354E+04  0.14022298354E+04  0.50400001928E-02 0. -1.
       -1   -1    0    0    0  501  0.00000000000E+00  0.00000000000E+00 -0.16278431386E+04  0.16278431386E+04  0.50400001928E-02 0.  1.
    10030    2    1    2    0    0  0.00000000000E+00  0.00000000000E+00 -0.22561330327E+03  0.30300729740E+04  0.30216619376E+04 0.  0.
        2    1    3    3  502    0 -0.35760462359E+03 -0.14320229044E+04 -0.43625612481E+03  0.15391199017E+04  0.25500000920E-02 0.  1.
       -2    1    3    3    0  502  0.35760462359E+03  0.14320229044E+04  0.21064282153E+03  0.14909530723E+04  0.25500000920E-02 0. -1.
</event>
<event>
 5   0  0.1054384E-06  0.3026334E+04  0.7818609E-02  0.8236251E-01
       -1   -1    0    0    0  501  0.00000000000E+00  0.00000000000E+00  0.11365218909E+04  0.11365218909E+04  0.50400001928E-02 0.  1.
        1   -1    0    0  501    0  0.00000000000E+00  0.00000000000E+00 -0.20146324824E+04  0.20146324824E+04  0.50400001928E-02 0. -1.
    10030    2    1    2    0    0  0.00000000000E+00  0.00000000000E+00 -0.87811059145E+03  0.31511543733E+04  0.30263337017E+04 0.  0.
        2    1    3    3  502    0  0.20431025026E+03 -0.11091125039E+04  0.61141611328E+03  0.12828495190E+04  0.25500000920E-02 0.  1.
       -2    1    3    3    0  502 -0.20431025026E+03  0.11091125039E+04 -0.14895267047E+04  0.18683048544E+04  0.25500000920E-02 0. -1.
</event>
<event>
 5   0  0.2862033E-06  0.2986859E+04  0.7818609E-02  0.8247493E-01
        2   -1    0    0  501    0  0.00000000000E+00  0.00000000000E+00  0.26544369416E+04  0.26544369416E+04  0.25500000920E-02 0.  1.
       -2   -1    0    0    0  501  0.00000000000E+00  0.00000000000E+00 -0.84022787974E+03  0.84022787974E+03  0.25500000920E-02 0. -1.
    10030    2    1    2    0    0  0.00000000000E+00  0.00000000000E+00  0.18142090618E+04  0.34946648213E+04  0.29868591686E+04 0.  0.
        2    1    3    3  502    0 -0.85796250507E+03  0.78154468618E+03  0.20068050671E+04  0.23182274121E+04  0.25500000920E-02 0.  1.
       -2    1    3    3    0  502  0.85796250507E+03 -0.78154468618E+03 -0.19259600530E+03  0.11764374092E+04  0.25500000920E-02 0. -1.
</event>
<event>
 5   0  0.2985941E-06  0.3059729E+04  0.7818609E-02  0.8226878E-01
        2   -1    0    0  501    0  0.00000000000E+00  0.00000000000E+00  0.15627712750E+04  0.15627712750E+04  0.25500000920E-02 0. -1.
       -2   -1    0    0    0  501  0.00000000000E+00  0.00000000000E+00 -0.14976506542E+04  0.14976506542E+04  0.25500000920E-02 0.  1.
    10030    2    1    2    0    0  0.00000000000E+00  0.00000000000E+00  0.65120620705E+02  0.30604219292E+04  0.30597290222E+04 0.  0.
        3    1    3    3  502    0  0.11604802148E+04 -0.66986720916E+03 -0.70588122229E+03  0.15144981733E+04  0.10100000352E+00 0.  1.
       -3    1    3    3    0  502 -0.11604802148E+04  0.66986720916E+03  0.77100184299E+03  0.15459237559E+04  0.10100000352E+00 0. -1.
</event>
<event>
 5   0  0.2862033E-06  0.2939728E+04  0.7818609E-02  0.8261154E-01
        2   -1    0    0  501    0  0.00000000000E+00  0.00000000000E+00  0.10938383949E+04  0.10938383949E+04  0.25500000920E-02 0.  1.
       -2   -1    0    0    0  501  0.00000000000E+00  0.00000000000E+00 -0.19751553644E+04  0.19751553644E+04  0.25500000920E-02 0. -1.
    10030    2    1    2    0    0  0.00000000000E+00  0.00000000000E+00 -0.88131696946E+03  0.30689937593E+04  0.29397284048E+04 0.  0.
        2    1    3    3  502    0 -0.14049432086E+04 -0.36046224211E+03 -0.68925167887E+03  0.16058849038E+04  0.25500000920E-02 0. -1.
       -2    1    3    3    0  502  0.14049432086E+04  0.36046224211E+03 -0.19206529059E+03  0.14631088556E+04  0.25500000920E-02 0.  1.
</event>
<event>
 5   0  0.3113328E-06  0.3031379E+04  0.7818609E-02  0.8234827E-01
       -2   -1    0    0    0  501  0.00000000000E+00  0.00000000000E+00  0.10136735739E+04  0.10136735739E+04  0.25500000920E-02 0. -1.
        2   -1    0    0  501    0  0.00000000000E+00  0.00000000000E+00 -0.22663263186E+04  0.22663263186E+04  0.25500000920E-02 0.  1.
    10030    2    1    2    0    0  0.00000000000E+00  0.00000000000E+00 -0.12526527447E+04  0.32799998925E+04  0.30313792894E+04 0.  0.
        1    1    3    3  502    0 -0.44272813736E+03 -0.80468952567E+03  0.67829095883E+03  0.11417583200E+04  0.50400001928E-02 0. -1.
       -1    1    3    3    0  502  0.44272813736E+03  0.80468952567E+03 -0.19309437036E+04  0.21382415726E+04  0.50400001928E-02 0.  1.
</event>
<event>
 5   0  0.1113245E-06  0.2985948E+04  0.7818609E-02  0.8247755E-01
       -1   -1    0    0    0  501  0.00000000000E+00  0.00000000000E+00  0.17401455707E+04  0.17401455707E+04  0.50400001928E-02 0.  1.
        1   -1    0    0  501    0  0.00000000000E+00  0.00000000000E+00 -0.12809112876E+04  0.12809112876E+04  0.50400001928E-02 0. -1.
    10030    2    1    2    0    0  0.00000000000E+00  0.00000000000E+00  0.45923428303E+03  0.30210568583E+04  0.29859484949E+04 0.  0.
        5    1    3    3  502    0  0.15506061479E+03  0.46075401067E+02 -0.12720112542E+04  0.12822641918E+04  0.46999998093E+01 0. -1.
       -5    1    3    3    0  502 -0.15506061479E+03 -0.46075401067E+02  0.17312455372E+04  0.17387926665E+04  0.46999998093E+01 0.  1.
</event>
<event>
 5   0  0.2948711E-06  0.2985574E+04  0.7818609E-02  0.8247862E-01
       -2   -1    0    0    0  501  0.00000000000E+00  0.00000000000E+00  0.11323190435E+04  0.11323190436E+04  0.25500000920E-02 0. -1.
        2   -1    0    0  501    0  0.00000000000E+00  0.00000000000E+00 -0.19680077016E+04  0.19680077016E+04  0.25500000920E-02 0.  1.
    10030    2    1    2    0    0  0.00000000000E+00  0.00000000000E+00 -0.83568865804E+03  0.31003267451E+04  0.29855737126E+04 0.  0.
        5    1    3    3  502    0 -0.90979578941E+03 -0.74954581155E+02  0.80867278411E+03  0.12195574318E+04  0.46999998093E+01 0. -1.
       -5    1    3    3    0  502  0.90979578941E+03  0.74954581155E+02 -0.16443614421E+04  0.18807693134E+04  0.46999998093E+01 0.  1.
</event>
<event>
 5   0  0.2970915E-06  0.3020678E+04  0.7818609E-02  0.8237851E-01
        2   -1    0    0  501    0  0.00000000000E+00  0.00000000000E+00  0.23670129357E+04  0.23670129357E+04  0.25500000920E-02 0.  1.
       -2   -1    0    0    0  501  0.00000000000E+00  0.00000000000E+00 -0.96371392192E+03  0.96371392192E+03  0.25500000920E-02 0. -1.
    10030    2    1    2    0    0  0.00000000000E+00  0.00000000000E+00  0.14032990138E+04  0.33307268576E+04  0.30206776190E+04 0.  0.
        4    1    3    3  502    0 -0.14620361660E+04 -0.14214514451E+03  0.31436186460E+03  0.15021917279E+04  0.12699999809E+01 0.  1.
       -4    1    3    3    0  502  0.14620361660E+04  0.14214514451E+03  0.10889371492E+04  0.18285351297E+04  0.12699999809E+01 0. -1.
</event>
<event>
 5   0  0.2862033E-06  0.3003431E+04  0.7818609E-02  0.8242752E-01
       -2   -1    0    0    0  501  0.00000000000E+00  0.00000000000E+00  0.13991264774E+04  0.13991264774E+04  0.25500000920E-02 0. -1.
        2   -1    0    0  501    0  0.00000000000E+00  0.00000000000E+00 -0.16118265921E+04  0.16118265921E+04  0.25500000920E-02 0.  1.
    10030    2    1    2    0    0  0.00000000000E+00  0.00000000000E+00 -0.21270011467E+03  0.30109530694E+04  0.30034308794E+04 0.  0.
        2    1    3    3  502    0  0.39906418386E+03  0.68129241565E+03 -0.13869442158E+04  0.15959404238E+04  0.25500000920E-02 0.  1.
       -2    1    3    3    0  502 -0.39906418386E+03 -0.68129241565E+03  0.11742441011E+04  0.14150126457E+04  0.25500000920E-02 0. -1.
</event>
<event>
 5   0  0.1113245E-06  0.3005336E+04  0.7818609E-02  0.8242209E-01
       -1   -1    0    0    0  501  0.00000000000E+00  0.00000000000E+00  0.13375532452E+04  0.13375532452E+04  0.50400001928E-02 0. -1.
        1   -1    0    0  501    0  0.00000000000E+00  0.00000000000E+00 -0.16881654126E+04  0.16881654126E+04  0.50400001928E-02 0.  1.
    10030    2    1    2    0    0  0.00000000000E+00  0.00000000000E+00 -0.35061216745E+03  0.30257186578E+04  0.30053360052E+04 0.  0.
        5    1    3    3  502    0  0.39552578759E+03 -0.60624347854E+03  0.11504456795E+04  0.13592347683E+04  0.46999998093E+01 0. -1.
       -5    1    3    3    0  502 -0.39552578759E+03  0.60624347854E+03 -0.15010578470E+04  0.16664838895E+04  0.46999998093E+01 0.  1.
</event>
<event>
 5   0  0.1113245E-06  0.3010099E+04  0.7818609E-02  0.8240853E-01
       -1   -1    0    0    0  501  0.00000000000E+00  0.00000000000E+00  0.13316327192E+04  0.13316327192E+04  0.50400001928E-02 0.  1.
        1   -1    0    0  501    0  0.00000000000E+00  0.00000000000E+00 -0.17010497068E+04  0.17010497068E+04  0.50400001928E-02 0. -1.
    10030    2    1    2    0    0  0.00000000000E+00  0.00000000000E+00 -0.36941698760E+03  0.30326824260E+04  0.30100986339E+04 0.  0.
        5    1    3    3  502    0 -0.47139274214E+03 -0.14114708943E+04 -0.41154242120E+03  0.15439722981E+04  0.46999998093E+01 0.  1.
       -5    1    3    3    0  502  0.47139274214E+03  0.14114708943E+04  0.42125433596E+02  0.14887101279E+04  0.46999998093E+01 0. -1.
</event>
<event>
 5   0  0.3113328E-06  0.3027460E+04  0.7818609E-02  0.8235933E-01
        2   -1    0    0  501    0  0.00000000000E+00  0.00000000000E+00  0.18157987975E+04  0.18157987975E+04  0.25500000920E-02 0. -1.
       -2   -1    0    0    0  501  0.00000000000E+00  0.00000000000E+00 -0.12619119590E+04  0.12619119590E+04  0.25500000920E-02 0.  1.
    10030    2    1    2    0    0  0.00000000000E+00  0.00000000000E+00  0.55388683852E+03  0.30777107564E+04  0.30274598049E+04 0.  0.
        1    1    3    3  502    0 -0.96579524124E+03  0.11616909350E+04  0.18000906470E+03  0.15214103785E+04  0.50400001928E-02 0. -1.
       -1    1    3    3    0  502  0.96579524124E+03 -0.11616909350E+04  0.37387777382E+03  0.15563003779E+04  0.50400001928E-02 0.  1.
</event>
<event>
 5   0  0.2948711E-06  0.2785415E+04  0.7818609E-02  0.8307811E-01
       -2   -1    0    0    0  501  0.00000000000E+00  0.00000000000E+00  0.12682319881E+04  0.12682319881E+04  0.25500000920E-02 0. -1.
        2   -1    0    0  501    0  0.00000000000E+00  0.00000000000E+00 -0.15293998190E+04  0.15293998190E+04  0.25500000920E-02 0.  1.
    10030    2    1    2    0    0  0.00000000000E+00  0.00000000000E+00 -0.26116783088E+03  0.27976318071E+04  0.27854147074E+04 0.  0.
        5    1    3    3  502    0  0.27576177180E+03 -0.10106471188E+04  0.79113367584E+03  0.13127706336E+04  0.46999998093E+01 0. -1.
       -5    1    3    3    0  502 -0.27576177180E+03  0.10106471188E+04 -0.10523015067E+04  0.14848611735E+04  0.46999998093E+01 0.  1.
</event>
<event>
 5   0  0.2948711E-06  0.3006579E+04  0.7818609E-02  0.8241855E-01
        2   -1    0    0  501    0  0.00000000000E+00  0.00000000000E+00  0.21887412778E+04  0.21887412778E+04  0.25500000920E-02 0. -1.
       -2   -1    0    0    0  501  0.00000000000E+00  0.00000000000E+00 -0.10325020177E+04  0.10325020177E+04  0.25500000920E-02 0.  1.
    10030    2    1    2    0    0  0.00000000000E+00  0.00000000000E+00  0.11562392600E+04  0.32212432955E+04  0.30065793092E+04 0.  0.
        5    1    3    3  502    0 -0.27211865665E+03  0.37900679495E+03 -0.95295395195E+03  0.10610551534E+04  0.46999998093E+01 0.  1.
       -5    1    3    3    0  502  0.27211865665E+03 -0.37900679495E+03  0.21091932120E+04  0.21601881421E+04  0.46999998093E+01 0. -1.
</event>
<event>
 5   0  0.1097402E-06  0.3041680E+04  0.7818609E-02  0.8231928E-01
        1   -1    0    0  501    0  0.00000000000E+00  0.00000000000E+00  0.19127694035E+04  0.19127694035E+04  0.50400001928E-02 0.  1.
       -1   -1    0    0    0  501  0.00000000000E+00  0.00000000000E+00 -0.12092176606E+04  0.12092176606E+04  0.50400001928E-02 0. -1.
    10030    2    1    2    0    0  0.00000000000E+00  0.00000000000E+00  0.70355174284E+03  0.31219870641E+04  0.30416801564E+04 0.  0.
        4    1    3    3  502    0  0.13860270827E+03 -0.87085525185E+03 -0.92003263447E+03  0.12743866139E+04  0.12699999809E+01 0. -1.
       -4    1    3    3    0  502 -0.13860270827E+03  0.87085525185E+03  0.16235843773E+04  0.18476004502E+04  0.12699999809E+01 0.  1.
</event>
<event>
 5   0  0.1097402E-06  0.3004791E+04  0.7818609E-02  0.8242364E-01
       -1   -1    0    0    0  501  0.00000000000E+00  0.00000000000E+00  0.21434048355E+04  0.21434048355E+04  0.50400001928E-02 0. -1.
        1   -1    0    0  501    0  0.00000000000E+00  0.00000000000E+00 -0.10530874834E+04  0.10530874834E+04  0.50400001928E-02 0.  1.
    10030    2    1    2    0    0  0.00000000000E+00  0.00000000000E+00  0.10903173521E+04  0.31964923190E+04  0.30047913766E+04 0.  0.
        4    1    3    3  502    0  0.94069516765E+03 -0.10852769631E+04  0.10142656834E+04  0.17582576530E+04  0.12699999809E+01 0. -1.
       -4    1    3    3    0  502 -0.94069516765E+03  0.10852769631E+04  0.76051668717E+02  0.14382346659E+04  0.12699999809E+01 0.  1.
</event>
<event>
 5   0  0.1054384E-06  0.2993208E+04  0.7818609E-02  0.8245673E-01
       -1   -1    0    0    0  501  0.00000000000E+00  0.00000000000E+00  0.86783674501E+03  0.86783674503E+03  0.50400001928E-02 0. -1.
        1   -1    0    0  501    0  0.00000000000E+00  0.00000000000E+00 -0.25809270093E+04  0.25809270093E+04  0.50400001928E-02 0.  1.
    10030    2    1    2    0    0  0.00000000000E+00  0.00000000000E+00 -0.17130902642E+04  0.34487637543E+04  0.29932078410E+04 0.  0.
        2    1    3    3  502    0  0.11754819520E+03 -0.14892380607E+04 -0.96072635549E+03  0.17761313886E+04  0.25500000920E-02 0. -1.
       -2    1    3    3    0  502 -0.11754819520E+03  0.14892380607E+04 -0.75236390876E+03  0.16726323657E+04  0.25500000920E-02 0.  1.
</event>
<event>
 5   0  0.3113328E-06  0.2992983E+04  0.7818609E-02  0.8245737E-01
       -2   -1    0    0    0  501  0.00000000000E+00  0.00000000000E+00  0.10980331613E+04  0.10980331613E+04  0.25500000920E-02 0.  1.
        2   -1    0    0  501    0  0.00000000000E+00  0.00000000000E+00 -0.20395439681E+04  0.20395439681E+04  0.25500000920E-02 0. -1.
    10030    2    1    2    0    0  0.00000000000E+00  0.00000000000E+00 -0.94151080678E+03  0.31375771294E+04  0.29929830677E+04 0.  0.
        1    1    3    3  502    0  0.92688953723E+03 -0.77314376243E+03  0.45663637407E+03  0.12905007826E+04  0.50400001928E-02 0.  1.
       -1    1    3    3    0  502 -0.92688953723E+03  0.77314376243E+03 -0.13981471808E+04  0.18470763468E+04  0.50400001928E-02 0. -1.
</event>
<event>
 5   0  0.2948711E-06  0.2982748E+04  0.7818609E-02  0.8248675E-01
       -2   -1    0    0    0  501  0.00000000000E+00  0.00000000000E+00  0.94361967318E+03  0.94361967318E+03  0.25500000920E-02 0. -1.
        2   -1    0    0  501    0  0.00000000000E+00  0.00000000000E+00 -0.23570892106E+04  0.23570892106E+04  0.25500000920E-02 0.  1.
    10030    2    1    2    0    0  0.00000000000E+00  0.00000000000E+00 -0.14134695374E+04  0.33007088838E+04  0.29827475593E+04 0.  0.
        5    1    3    3  502    0 -0.76236506838E+02  0.86228900531E+03  0.63714412503E+03  0.10748623445E+04  0.46999998093E+01 0. -1.
       -5    1    3    3    0  502  0.76236506838E+02 -0.86228900531E+03 -0.20506136625E+04  0.22258465393E+04  0.46999998093E+01 0.  1.
</event>
<event>
 5   0  0.2985941E-06  0.3021649E+04  0.7818609E-02  0.8237576E-01
        2   -1    0    0  501    0  0.00000000000E+00  0.00000000000E+00  0.28033744129E+04  0.28033744129E+04  0.25500000920E-02 0. -1.
       -2   -1    0    0    0  501  0.00000000000E+00  0.00000000000E+00 -0.81422969130E+03  0.81422969130E+03  0.25500000920E-02 0.  1.
    10030    2    1    2    0    0  0.00000000000E+00  0.00000000000E+00  0.19891447216E+04  0.36176041042E+04  0.30216490086E+04 0.  0.
        3    1    3    3  502    0  0.49432406348E+03 -0.80200267668E+03 -0.41948878198E+03  0.10312785373E+04  0.10100000352E+00 0.  1.
       -3    1    3    3    0  502 -0.49432406348E+03  0.80200267668E+03  0.24086335035E+04  0.25863255668E+04  0.10100000352E+00 0. -1.
</event>
<event>
 5   0  0.1097402E-06  0.3005717E+04  0.7818609E-02  0.8242100E-01
        1   -1    0    0  501    0  0.00000000000E+00  0.00000000000E+00  0.22551631183E+04  0.22551631184E+04  0.50400001928E-02 0. -1.
       -1   -1    0    0    0  501  0.00000000000E+00  0.00000000000E+00 -0.10015169950E+04  0.10015169950E+04  0.50400001928E-02 0.  1.
    10030    2    1    2    0    0  0.00000000000E+00  0.00000000000E+00  0.12536461234E+04  0.32566801133E+04  0.30057173450E+04 0.  0.
        4    1    3    3  502    0  0.11731406121E+04 -0.24136784924E+03  0.16103986991E+04  0.20069636064E+04  0.12699999809E+01 0. -1.
       -4    1    3    3    0  502 -0.11731406121E+04  0.24136784924E+03 -0.35675257575E+03  0.12497165069E+04  0.12699999809E+01 0.  1.
</event>
<event>
 5   0  0.3113328E-06  0.2984417E+04  0.7818609E-02  0.8248195E-01
        2   -1    0    0  501    0  0.00000000000E+00  0.00000000000E+00  0.21503981945E+04  0.21503981945E+04  0.25500000920E-02 0.  1.
       -2   -1    0    0    0  501  0.00000000000E+00  0.00000000000E+00 -0.10354762145E+04  0.10354762145E+04  0.25500000920E-02 0. -1.
    10030    2    1    2    0    0  0.00000000000E+00  0.00000000000E+00  0.11149219800E+04  0.31858744090E+04  0.29844169830E+04 0.  0.
        1    1    3    3  502    0 -0.90790943314E+03 -0.28545702602E+03  0.17843471619E+04  0.20222957367E+04  0.50400001928E-02 0.  1.
       -1    1    3    3    0  502  0.90790943314E+03  0.28545702602E+03 -0.66942518191E+03  0.11635786723E+04  0.50400001928E-02 0. -1.
</event>
<event>
 5   0  0.1097402E-06  0.3069983E+04  0.7818609E-02  0.8224024E-01
       -1   -1    0    0    0  501  0.00000000000E+00  0.00000000000E+00  0.17528155408E+04  0.17528155409E+04  0.50400001928E-02 0. -1.
        1   -1    0    0  501    0  0.00000000000E+00  0.00000000000E+00 -0.13442368296E+04  0.13442368297E+04  0.50400001928E-02 0.  1.
    10030    2    1    2    0    0  0.00000000000E+00  0.00000000000E+00  0.40857871120E+03  0.30970523705E+04  0.30699831958E+04 0.  0.
        4    1    3    3  502    0 -0.16305382569E+03  0.15187855342E+04  0.35695627025E+03  0.15686667718E+04  0.12699999809E+01 0. -1.
       -4    1    3    3    0  502  0.16305382569E+03 -0.15187855342E+04  0.51622440951E+02  0.15283855987E+04  0.12699999809E+01 0.  1.
</event>
<event>
 5   0  0.2985941E-06  0.2991820E+04  0.7818609E-02  0.8246070E-01
       -2   -1    0    0    0  501  0.00000000000E+00  0.00000000000E+00  0.12662393364E+04  0.12662393364E+04  0.25500000920E-02 0. -1.
        2   -1    0    0  501    0  0.00000000000E+00  0.00000000000E+00 -0.17672387681E+04  0.17672387681E+04  0.25500000920E-02 0.  1.
    10030    2    1    2    0    0  0.00000000000E+00  0.00000000000E+00 -0.50099943165E+03  0.30334781045E+04  0.29918203455E+04 0.  0.
        3    1    3    3  502    0 -0.10708269930E+04  0.10064496901E+04  0.32920226028E+02  0.14699303314E+04  0.10100000352E+00 0. -1.
       -3    1    3    3    0  502  0.10708269930E+04 -0.10064496901E+04 -0.53391965768E+03  0.15635477731E+04  0.10100000352E+00 0.  1.
</event>
<event>
 5   0  0.2970915E-06  0.3008535E+04  0.7818609E-02  0.8241298E-01
       -2   -1    0    0    0  501  0.00000000000E+00  0.00000000000E+00  0.11785938017E+04  0.11785938017E+04  0.25500000920E-02 0.  1.
        2   -1    0    0  501    0  0.00000000000E+00  0.00000000000E+00 -0.19199329158E+04  0.19199329158E+04  0.25500000920E-02 0. -1.
    10030    2    1    2    0    0  0.00000000000E+00  0.00000000000E+00 -0.74133911414E+03  0.30985267174E+04  0.30085352145E+04 0.  0.
        4    1    3    3  502    0 -0.56435437673E+02  0.26231831971E+03 -0.18950867826E+04  0.19139883454E+04  0.12699999809E+01 0. -1.
       -4    1    3    3    0  502  0.56435437673E+02 -0.26231831971E+03  0.11537476685E+04  0.11845383721E+04  0.12699999809E+01 0.  1.
</event>
<event>
 5   0  0.1091075E-06  0.3005756E+04  0.7818609E-02  0.8242089E-01
        1   -1    0    0  501    0  0.00000000000E+00  0.00000000000E+00  0.23123953171E+04  0.23123953171E+04  0.50400001928E-02 0.  1.
       -1   -1    0    0    0  501  0.00000000000E+00  0.00000000000E+00 -0.97675471720E+03  0.97675471721E+03  0.50400001928E-02 0. -1.
    10030    2    1    2    0    0  0.00000000000E+00  0.00000000000E+00  0.13356405999E+04  0.32891500343E+04  0.30057564998E+04 0.  0.
        1    1    3    3  502    0 -0.14025893479E+04 -0.26370681921E+03  0.15240823160E+03  0.14352792182E+04  0.50400001928E-02 0. -1.
       -1    1    3    3    0  502  0.14025893479E+04  0.26370681921E+03  0.11832323683E+04  0.18538708161E+04  0.50400001928E-02 0.  1.
</event>
<event>
 5   0  0.3113328E-06  0.3000744E+04  0.7818609E-02  0.8243518E-01
        2   -1    0    0  501    0  0.00000000000E+00  0.00000000000E+00  0.12609071318E+04  0.12609071318E+04  0.25500000920E-02 0.  1.
       -2   -1    0    0    0  501  0.00000000000E+00  0.00000000000E+00 -0.17853146612E+04  0.17853146612E+04  0.25500000920E-02 0. -1.
    10030    2    1    2    0    0  0.00000000000E+00  0.00000000000E+00 -0.52440752943E+03  0.30462217930E+04  0.30007439003E+04 0.  0.
        1    1    3    3  502    0  0.55156511797E+03 -0.30177916584E+03 -0.16451352356E+04  0.17611827525E+04  0.50400001928E-02 0. -1.
       -1    1    3    3    0  502 -0.55156511797E+03  0.30177916584E+03  0.11207277061E+04  0.12850390405E+04  0.50400001928E-02 0.  1.
</event>
<event>
 5   0  0.1113245E-06  0.2980429E+04  0.7818609E-02  0.8249342E-01
        1   -1    0    0  501    0  0.00000000000E+00  0.00000000000E+00  0.16816266562E+04  0.16816266562E+04  0.50400001928E-02 0. -1.
       -1   -1    0    0    0  501  0.00000000000E+00  0.00000000000E+00 -0.13205895495E+04  0.13205895495E+04  0.50400001928E-02 0.  1.
    10030    2    1    2    0    0  0.00000000000E+00  0.00000000000E+00  0.36103710670E+03  0.30022162058E+04  0.29804285520E+04 0.  0.
        5    1    3    3  502    0 -0.50820023587E+03 -0.12717425783E+04 -0.41124499342E+03  0.14299444744E+04  0.46999998093E+01 0. -1.
       -5    1    3    3    0  502  0.50820023587E+03  0.12717425783E+04  0.77228210012E+03  0.15722717314E+04  0.46999998093E+01 0.  1.
</event>
<event>
 5   0  0.1113245E-06  0.2997813E+04  0.7818609E-02  0.8244356E-01
       -1   -1    0    0    0  501  0.00000000000E+00  0.00000000000E+00  0.10696336087E+04  0.10696336087E+04  0.50400001928E-02 0.  1.
        1   -1    0    0  501    0  0.00000000000E+00  0.00000000000E+00 -0.21004575519E+04  0.21004575520E+04  0.50400001928E-02 0. -1.
    10030    2    1    2    0    0  0.00000000000E+00  0.00000000000E+00 -0.10308239433E+04  0.31700911606E+04  0.29978125300E+04 0.  0.
        5    1    3    3  502    0 -0.93160963295E+03  0.21085962419E+03 -0.17369316567E+04  0.19822492173E+04  0.46999998093E+01 0. -1.
       -5    1    3    3    0  502  0.93160963295E+03 -0.21085962419E+03  0.70610771348E+03  0.11878419433E+04  0.46999998093E+01 0.  1.
</event>
<event>
 5   0  0.1091075E-06  0.3027824E+04  0.7818609E-02  0.8235830E-01
        1   -1    0    0  501    0  0.00000000000E+00  0.00000000000E+00  0.24347746140E+04  0.24347746141E+04  0.50400001928E-02 0. -1.
       -1   -1    0    0    0  501  0.00000000000E+00  0.00000000000E+00 -0.94133157800E+03  0.94133157801E+03  0.50400001928E-02 0.  1.
    10030    2    1    2    0    0  0.00000000000E+00  0.00000000000E+00  0.14934430360E+04  0.33761061921E+04  0.30278244530E+04 0.  0.
        1    1    3    3  502    0 -0.69316617024E+03 -0.55416906732E+03  0.21143227890E+04  0.22930206172E+04  0.50400001928E-02 0. -1.
       -1    1    3    3    0  502  0.69316617024E+03  0.55416906732E+03 -0.62087975299E+03  0.10830855748E+04  0.50400001928E-02 0.  1.
</event>
<event>
 5   0  0.1091076E-06  0.3099398E+04  0.7818609E-02  0.8215903E-01
        1   -1    0    0  501    0  0.00000000000E+00  0.00000000000E+00  0.13527155079E+04  0.13527155079E+04  0.50400001928E-02 0. -1.
       -1   -1    0    0    0  501  0.00000000000E+00  0.00000000000E+00 -0.17753671953E+04  0.17753671953E+04  0.50400001928E-02 0.  1.
    10030    2    1    2    0    0  0.00000000000E+00  0.00000000000E+00 -0.42265168745E+03  0.31280827032E+04  0.30993978365E+04 0.  0.
        3    1    3    3  502    0  0.79651080788E+03  0.11451342086E+04 -0.89270743800E+03  0.16561063984E+04  0.10100000352E+00 0.  1.
       -3    1    3    3    0  502 -0.79651080788E+03 -0.11451342086E+04  0.47005575055E+03  0.14719763047E+04  0.10100000352E+00 0. -1.
</event>
<event>
 5   0  0.1091076E-06  0.3008599E+04  0.7818609E-02  0.8241280E-01
        1   -1    0    0  501    0  0.00000000000E+00  0.00000000000E+00  0.13218396933E+04  0.13218396933E+04  0.50400001928E-02 0.  1.
       -1   -1    0    0    0  501  0.00000000000E+00  0.00000000000E+00 -0.17119447606E+04  0.17119447606E+04  0.50400001928E-02 0. -1.
    10030    2    1    2    0    0  0.00000000000E+00  0.00000000000E+00 -0.39010506733E+03  0.30337844538E+04  0.30085987019E+04 0.  0.
        3    1    3    3  502    0 -0.17087640425E+03  0.73670810694E+02 -0.17002946168E+04  0.17104467042E+04  0.10100000352E+00 0. -1.
       -3    1    3    3    0  502  0.17087640425E+03 -0.73670810694E+02  0.13101895495E+04  0.13233377496E+04  0.10100000352E+00 0.  1.
</event>
<event>
 5   0  0.1097402E-06  0.2998908E+04  0.7818609E-02  0.8244043E-01
        1   -1    0    0  501    0  0.00000000000E+00  0.00000000000E+00  0.15717541505E+04  0.15717541505E+04  0.50400001928E-02 0. -1.
       -1   -1    0    0    0  501  0.00000000000E+00  0.00000000000E+00 -0.14304800879E+04  0.14304800879E+04  0.50400001928E-02 0.  1.
    10030    2    1    2    0    0  0.00000000000E+00  0.00000000000E+00  0.14127406261E+03  0.30022342384E+04  0.29989084783E+04 0.  0.
        4    1    3    3  502    0  0.13819249167E+04 -0.50991063916E+03 -0.21009518494E+03  0.14879068972E+04  0.12699999809E+01 0.  1.
       -4    1    3    3    0  502 -0.13819249167E+04  0.50991063916E+03  0.35136924755E+03  0.15143273412E+04  0.12699999809E+01 0. -1.
</event>
<event>
 5   0  0.1091076E-06  0.3002131E+04  0.7818609E-02  0.8243123E-01
       -1   -1    0    0    0  501  0.00000000000E+00  0.00000000000E+00  0.12683005557E+04  0.12683005557E+04  0.50400001928E-02 0. -1.
        1   -1    0    0  501    0  0.00000000000E+00  0.00000000000E+00 -0.17765487292E+04  0.17765487292E+04  0.50400001928E-02 0.  1.
    10030    2    1    2    0    0  0.00000000000E+00  0.00000000000E+00 -0.50824817351E+03  0.30448492849E+04  0.30021310701E+04 0.  0.
        3    1    3    3  502    0 -0.53596883947E+02  0.82334137555E+03 -0.15259344980E+04  0.17347160428E+04  0.10100000352E+00 0.  1.
       -3    1    3    3    0  502  0.53596883947E+02 -0.82334137555E+03  0.10176863245E+04  0.13101332421E+04  0.10100000352E+00 0. -1.
</event>
<event>
 5   0  0.1091075E-06  0.2947723E+04  0.7818609E-02  0.8258818E-01
        1   -1    0    0  501    0  0.00000000000E+00  0.00000000000E+00  0.18747235346E+04  0.18747235346E+04  0.50400001928E-02 0.  1.
       -1   -1    0    0    0  501  0.00000000000E+00  0.00000000000E+00 -0.11587137985E+04  0.11587137985E+04  0.50400001928E-02 0. -1.
    10030    2    1    2    0    0  0.00000000000E+00  0.00000000000E+00  0.71600973615E+03  0.30334373332E+04  0.29477232082E+04 0.  0.
        1    1    3    3  502    0 -0.11414294564E+04 -0.81089609762E+03  0.83166519711E+03  0.16285210116E+04  0.50400001928E-02 0.  1.
       -1    1    3    3    0  502  0.11414294564E+04  0.81089609762E+03 -0.11565546097E+03  0.14049163216E+04  0.50400001928E-02 0. -1.
</event>
<event>
 5   0  0.1113245E-06  0.2984569E+04  0.7818609E-02  0.8248151E-01
       -1   -1    0    0    0  501  0.00000000000E+00  0.00000000000E+00  0.15387462132E+04  0.15387462132E+04  0.50400001928E-02 0.  1.
        1   -1    0    0  501    0  0.00000000000E+00  0.00000000000E+00 -0.14472261109E+04  0.14472261110E+04  0.50400001928E-02 0. -1.
    10030    2    1    2    0    0  0.00000000000E+00  0.00000000000E+00  0.91520102248E+02  0.29859723241E+04  0.29845694483E+04 0.  0.
        5    1    3    3  502    0  0.70499713719E+03 -0.13910058250E+03 -0.12627238378E+04  0.14528811087E+04  0.46999998093E+01 0. -1.
       -5    1    3    3    0  502 -0.70499713719E+03  0.13910058250E+03  0.13542439401E+04  0.15330912154E+04  0.46999998093E+01 0.  1.
</event>
<event>
 5   0  0.2985941E-06  0.3015439E+04  0.7818609E-02  0.8239336E-01
        2   -1    0    0  501    0  0.00000000000E+00  0.00000000000E+00  0.15451911535E+04  0.15451911535E+04  0.25500000920E-02 0.  1.
       -2   -1    0    0    0  501  0.00000000000E+00  0.00000000000E+00 -0.14711566554E+04  0.14711566554E+04  0.25500000920E-02 0. -1.
    10030    2    1    2    0    0  0.00000000000E+00  0.00000000000E+00  0.74034498089E+02  0.30163478089E+04  0.30154391052E+04 0.  0.
        3    1    3    3  502    0  0.90662126066E+02  0.17728490614E+03  0.15319804782E+04  0.15448669052E+04  0.10100000352E+00 0.  1.
       -3    1    3    3    0  502 -0.90662126066E+02 -0.17728490614E+03 -0.14579459801E+04  0.14714809037E+04  0.10100000352E+00 0. -1.
</event>
<event>
 5   0  0.2862033E-06  0.2938304E+04  0.7818609E-02  0.8261571E-01
        2   -1    0    0  501    0  0.00000000000E+00  0.00000000000E+00  0.20586642063E+04  0.20586642063E+04  0.25500000920E-02 0.  1.
       -2   -1    0    0    0  501  0.00000000000E+00  0.00000000000E+00 -0.10484506341E+04  0.10484506341E+04  0.25500000920E-02 0. -1.
    10030    2    1    2    0    0  0.00000000000E+00  0.00000000000E+00  0.10102135723E+04  0.31071148404E+04  0.29383041316E+04 0.  0.
        2    1    3    3  502    0  0.86201103021E+02 -0.13164506682E+04 -0.17851331969E+03  0.13312926039E+04  0.25500000920E-02 0.  1.
       -2    1    3    3    0  502 -0.86201103021E+02  0.13164506682E+04  0.11887268920E+04  0.17758222365E+04  0.25500000920E-02 0. -1.
</event>
<event>
 5   0  0.1113245E-06  0.2993375E+04  0.7818609E-02  0.8245625E-01
        1   -1    0    0  501    0  0.00000000000E+00  0.00000000000E+00  0.12275026752E+04  0.12275026752E+04  0.50400001928E-02 0.  1.
       -1   -1    0    0    0  501  0.00000000000E+00  0.00000000000E+00 -0.18249033412E+04  0.18249033412E+04  0.50400001928E-02 0. -1.
    10030    2    1    2    0    0  0.00000000000E+00  0.00000000000E+00 -0.59740066601E+03  0.30524060163E+04  0.29933751741E+04 0.  0.
        5    1    3    3  502    0 -0.18532834535E+03  0.12300318036E+04 -0.11474158578E+04  0.16923090953E+04  0.46999998093E+01 0. -1.
       -5    1    3    3    0  502  0.18532834535E+03 -0.12300318036E+04  0.55001519179E+03  0.13600969210E+04  0.46999998093E+01 0.  1.
</event>
<event>
 5   0  0.2985941E-06  0.3002352E+04  0.7818609E-02  0.8243059E-01
       -2   -1    0    0    0  501  0.00000000000E+00  0.00000000000E+00  0.90374614466E+03  0.90374614467E+03  0.25500000920E-02 0. -1.
        2   -1    0    0  501    0  0.00000000000E+00  0.00000000000E+00 -0.24935429110E+04  0.24935429110E+04  0.25500000920E-02 0.  1.
    10030    2    1    2    0    0  0.00000000000E+00  0.00000000000E+00 -0.15897967663E+04  0.33972890556E+04  0.30023522727E+04 0.  0.
        3    1    3    3  502    0  0.41014580669E+03  0.56271564179E+03  0.70995153747E+03  0.99443434776E+03  0.10100000352E+00 0. -1.
       -3    1    3    3    0  502 -0.41014580669E+03 -0.56271564179E+03 -0.22997483038E+04  0.24028547079E+04  0.10100000352E+00 0.  1.
</event>
<event>
 5   0  0.3113328E-06  0.2994448E+04  0.7818609E-02  0.8245318E-01
        2   -1    0    0  501    0  0.00000000000E+00  0.00000000000E+00  0.16685534148E+04  0.16685534148E+04  0.25500000920E-02 0.  1.
       -2   -1    0    0    0  501  0.00000000000E+00  0.00000000000E+00 -0.13434873617E+04  0.13434873617E+04  0.25500000920E-02 0. -1.
    10030    2    1    2    0    0  0.00000000000E+00  0.00000000000E+00  0.32506605309E+03  0.30120407765E+04  0.29944484802E+04 0.  0.
        1    1    3    3  502    0 -0.14727737949E+04 -0.26944224663E+03  0.15818908583E+03  0.15055515806E+04  0.50400001928E-02 0.  1.
       -1    1    3    3    0  502  0.14727737949E+04  0.26944224663E+03  0.16687696726E+03  0.15064891959E+04  0.50400001928E-02 0. -1.
</event>
<event>
 5   0  0.2970915E-06  0.2990726E+04  0.7818609E-02  0.8246384E-01
       -2   -1    0    0    0  501  0.00000000000E+00  0.00000000000E+00  0.11425977862E+04  0.11425977862E+04  0.25500000920E-02 0. -1.
        2   -1    0    0  501    0  0.00000000000E+00  0.00000000000E+00 -0.19570409473E+04  0.19570409473E+04  0.25500000920E-02 0.  1.
    10030    2    1    2    0    0  0.00000000000E+00  0.00000000000E+00 -0.81444316106E+03  0.30996387335E+04  0.29907261018E+04 0.  0.
        4    1    3    3  502    0  0.14848143971E+04 -0.15318814792E+03 -0.31470352441E+03  0.15255098570E+04  0.12699999809E+01 0.  1.
       -4    1    3    3    0  502 -0.14848143971E+04  0.15318814792E+03 -0.49973963665E+03  0.15741288765E+04  0.12699999809E+01 0. -1.
</event>
<event>
 5   0  0.2862033E-06  0.2986728E+04  0.7818609E-02  0.8247531E-01
        2   -1    0    0  501    0  0.00000000000E+00  0.00000000000E+00  0.18195064102E+04  0.18195064102E+04  0.25500000920E-02 0.  1.
       -2   -1    0    0    0  501  0.00000000000E+00  0.00000000000E+00 -0.12256815164E+04  0.12256815164E+04  0.25500000920E-02 0. -1.
    10030    2    1    2    0    0  0.00000000000E+00  0.00000000000E+00  0.59382489379E+03  0.30451879265E+04  0.29867275576E+04 0.  0.
        2    1    3    3  502    0 -0.51037677437E+03  0.14977067560E+03 -0.11258289364E+04  0.12451532039E+04  0.25500000920E-02 0. -1.
       -2    1    3    3    0  502  0.51037677437E+03 -0.14977067560E+03  0.17196538302E+04  0.18000347227E+04  0.25500000920E-02 0.  1.
</event>
<event>
 5   0  0.1113245E-06  0.2996300E+04  0.7818609E-02  0.8244788E-01
       -1   -1    0    0    0  501  0.00000000000E+00  0.00000000000E+00  0.10439680196E+04  0.10439680196E+04  0.50400001928E-02 0.  1.
        1   -1    0    0  501    0  0.00000000000E+00  0.00000000000E+00 -0.21499254248E+04  0.21499254248E+04  0.50400001928E-02 0. -1.
    10030    2    1    2    0    0  0.00000000000E+00  0.00000000000E+00 -0.11059574053E+04  0.31938934444E+04  0.29962999770E+04 0.  0.
        5    1    3    3  502    0  0.92978248031E+03  0.66666538141E+03 -0.15839710171E+04  0.19539509883E+04  0.46999998093E+01 0. -1.
       -5    1    3    3    0  502 -0.92978248031E+03 -0.66666538141E+03  0.47801361186E+03  0.12399424562E+04  0.46999998093E+01 0.  1.
</event>
<event>
 5   0  0.2862033E-06  0.3009150E+04  0.7818609E-02  0.8241123E-01
       -2   -1    0    0    0  501  0.00000000000E+00  0.00000000000E+00  0.14894967565E+04  0.14894967565E+04  0.25500000920E-02 0. -1.
        2   -1    0    0  501    0  0.00000000000E+00  0.00000000000E+00 -0.15198059205E+04  0.15198059205E+04  0.25500000920E-02 0.  1.
    10030    2    1    2    0    0  0.00000000000E+00  0.00000000000E+00 -0.30309163932E+02  0.30093026770E+04  0.30091500388E+04 0.  0.
        2    1    3    3  502    0  0.18471864961E+03  0.64260726214E+03 -0.13630660115E+04  0.15182272638E+04  0.25500000920E-02 0.  1.
       -2    1    3    3    0  502 -0.18471864961E+03 -0.64260726214E+03  0.13327568476E+04  0.14910754131E+04  0.25500000920E-02 0. -1.
</event>
<event>
 5   0  0.1113245E-06  0.2999588E+04  0.7818609E-02  0.8243849E-01
       -1   -1    0    0    0  501  0.00000000000E+00  0.00000000000E+00  0.11412262362E+04  0.11412262362E+04  0.50400001928E-02 0.  1.
        1   -1    0    0  501    0  0.00000000000E+00  0.00000000000E+00 -0.19710219966E+04  0.19710219966E+04  0.50400001928E-02 0. -1.
    10030    2    1    2    0    0  0.00000000000E+00  0.00000000000E+00 -0.82979576044E+03  0.31122482328E+04  0.29995879815E+04 0.  0.
        5    1    3    3  502    0 -0.14754158119E+04 -0.25813222464E+03 -0.49443106826E+03  0.15773294629E+04  0.46999998093E+01 0.  1.
       -5    1    3    3    0  502  0.14754158119E+04  0.25813222464E+03 -0.33536469218E+03  0.15349187699E+04  0.46999998093E+01 0. -1.
</event>
<event>
 5   0  0.1097402E-06  0.2987029E+04  0.7818609E-02  0.8247445E-01
       -1   -1    0    0    0  501  0.00000000000E+00  0.00000000000E+00  0.14819432085E+04  0.14819432085E+04  0.50400001928E-02 0.  1.
        1   -1    0    0  501    0  0.00000000000E+00  0.00000000000E+00 -0.15051762406E+04  0.15051762406E+04  0.50400001928E-02 0. -1.
    10030    2    1    2    0    0  0.00000000000E+00  0.00000000000E+00 -0.23233032131E+02  0.29871194491E+04  0.29870290975E+04 0.  0.
        4    1    3    3  502    0 -0.43925244077E+03  0.12900353194E+04  0.59950773903E+03  0.14888065603E+04  0.12699999809E+01 0.  1.
       -4    1    3    3    0  502  0.43925244077E+03 -0.12900353194E+04 -0.62274077116E+03  0.14983128888E+04  0.12699999809E+01 0. -1.
</event>
<event>
 5   0  0.1054384E-06  0.2983328E+04  0.7818609E-02  0.8248508E-01
       -1   -1    0    0    0  501  0.00000000000E+00  0.00000000000E+00  0.14780872954E+04  0.14780872955E+04  0.50400001928E-02 0. -1.
        1   -1    0    0  501    0  0.00000000000E+00  0.00000000000E+00 -0.15053653615E+04  0.15053653615E+04  0.50400001928E-02 0.  1.
    10030    2    1    2    0    0  0.00000000000E+00  0.00000000000E+00 -0.27278066053E+02  0.29834526570E+04  0.29833279510E+04 0.  0.
        2    1    3    3  502    0 -0.11577718515E+04 -0.29383655451E+00 -0.95422375929E+03  0.15003262076E+04  0.25500000920E-02 0.  1.
       -2    1    3    3    0  502  0.11577718515E+04  0.29383655451E+00  0.92694569324E+03  0.14831264493E+04  0.25500000920E-02 0. -1.
</event>
<event>
 5   0  0.1097402E-06  0.3015655E+04  0.7818609E-02  0.8239274E-01
       -1   -1    0    0    0  501  0.00000000000E+00  0.00000000000E+00  0.10305884947E+04  0.10305884947E+04  0.50400001928E-02 0. -1.
        1   -1    0    0  501    0  0.00000000000E+00  0.00000000000E+00 -0.22060642242E+04  0.22060642242E+04  0.50400001928E-02 0.  1.
    10030    2    1    2    0    0  0.00000000000E+00  0.00000000000E+00 -0.11754757295E+04  0.32366527190E+04  0.30156554234E+04 0.  0.
        4    1    3    3  502    0 -0.81048437772E+03  0.35976781315E+03  0.72115085330E+03  0.11429689287E+04  0.12699999809E+01 0. -1.
       -4    1    3    3    0  502  0.81048437772E+03 -0.35976781315E+03 -0.18966265828E+04  0.20936837902E+04  0.12699999809E+01 0.  1.
</event>
<event>
 5   0  0.3113328E-06  0.2987905E+04  0.7818609E-02  0.8247193E-01
       -2   -1    0    0    0  501  0.00000000000E+00  0.00000000000E+00  0.10297893613E+04  0.10297893613E+04  0.25500000920E-02 0.  1.
        2   -1    0    0  501    0  0.00000000000E+00  0.00000000000E+00 -0.21673306341E+04  0.21673306341E+04  0.25500000920E-02 0. -1.
    10030    2    1    2    0    0  0.00000000000E+00  0.00000000000E+00 -0.11375412728E+04  0.31971199954E+04  0.29879049714E+04 0.  0.
        1    1    3    3  502    0 -0.62393833471E+03 -0.11294173706E+04  0.23695660279E+03  0.13118807393E+04  0.50400001928E-02 0.  1.
       -1    1    3    3    0  502  0.62393833471E+03  0.11294173706E+04 -0.13744978756E+04  0.18852392561E+04  0.50400001928E-02 0. -1.
</event>
<event>
 5   0  0.2970915E-06  0.2980046E+04  0.7818609E-02  0.8249452E-01
        2   -1    0    0  501    0  0.00000000000E+00  0.00000000000E+00  0.13606331568E+04  0.13606331568E+04  0.25500000920E-02 0. -1.
       -2   -1    0    0    0  501  0.00000000000E+00  0.00000000000E+00 -0.16317171240E+04  0.16317171240E+04  0.25500000920E-02 0.  1.
    10030    2    1    2    0    0  0.00000000000E+00  0.00000000000E+00 -0.27108396716E+03  0.29923502808E+04  0.29800459201E+04 0.  0.
        4    1    3    3  502    0  0.42785929679E+03  0.14179911517E+04 -0.29870698348E+03  0.15109566370E+04  0.12699999809E+01 0. -1.
       -4    1    3    3    0  502 -0.42785929679E+03 -0.14179911517E+04  0.27623016322E+02  0.14813936438E+04  0.12699999809E+01 0.  1.
</event>
<event>
 5   0  0.1091076E-06  0.2973664E+04  0.7818609E-02  0.8251292E-01
        1   -1    0    0  501    0  0.00000000000E+00  0.00000000000E+00  0.25653402846E+04  0.25653402846E+04  0.50400001928E-02 0. -1.
       -1   -1    0    0    0  501  0.00000000000E+00  0.00000000000E+00 -0.86174483383E+03  0.86174483384E+03  0.50400001928E-02 0.  1.
    10030    2    1    2    0    0  0.00000000000E+00  0.00000000000E+00  0.17035954508E+04  0.34270851185E+04  0.29736635568E+04 0.  0.
        3    1    3    3  502    0  0.75914925312E+03 -0.55634854480E+03  0.21783194177E+04  0.23729531786E+04  0.10100000352E+00 0. -1.
       -3    1    3    3    0  502 -0.75914925312E+03  0.55634854480E+03 -0.47472396691E+03  0.10541319399E+04  0.10100000352E+00 0.  1.
</event>
<event>
 5   0  0.2985941E-06  0.2924007E+04  0.7818609E-02  0.8265770E-01
       -2   -1    0    0    0  501  0.00000000000E+00  0.00000000000E+00  0.13673653395E+04  0.13673653395E+04  0.25500000920E-02 0.  1.
        2   -1    0    0  501    0  0.00000000000E+00  0.00000000000E+00 -0.15631918163E+04  0.15631918163E+04  0.25500000920E-02 0. -1.
    10030    2    1    2    0    0  0.00000000000E+00  0.00000000000E+00 -0.19582647681E+03  0.29305571558E+04  0.29240070510E+04 0.  0.
        3    1    3    3  502    0 -0.10764286987E+04  0.36639338086E+02  0.89294348656E+03  0.13990672839E+04  0.10100000352E+00 0.  1.
       -3    1    3    3    0  502  0.10764286987E+04 -0.36639338086E+02 -0.10887699634E+04  0.15314898719E+04  0.10100000352E+00 0. -1.
</event>
<event>
 5   0  0.1091076E-06  0.3141844E+04  0.7818609E-02  0.8204347E-01
       -1   -1    0    0    0  501  0.00000000000E+00  0.00000000000E+00  0.14523959228E+04  0.14523959228E+04  0.50400001928E-02 0.  1.
        1   -1    0    0  501    0  0.00000000000E+00  0.00000000000E+00 -0.16991206125E+04  0.16991206126E+04  0.50400001928E-02 0. -1.
    10030    2    1    2    0    0  0.00000000000E+00  0.00000000000E+00 -0.24672468977E+03  0.31515165353E+04  0.31418439490E+04 0.  0.
        3    1    3    3  502    0  0.80209337107E+03  0.51388305543E+03 -0.13763542245E+04  0.16738520042E+04  0.10100000352E+00 0.  1.
       -3    1    3    3    0  502 -0.80209337107E+03 -0.51388305543E+03  0.11296295347E+04  0.14776645311E+04  0.10100000352E+00 0. -1.
</event>
<event>
 5   0  0.1054384E-06  0.3000983E+04  0.7818609E-02  0.8243450E-01
        1   -1    0    0  501    0  0.00000000000E+00  0.00000000000E+00  0.18293653316E+04  0.18293653316E+04  0.50400001928E-02 0.  1.
       -1   -1    0    0    0  501  0.00000000000E+00  0.00000000000E+00 -0.12307409625E+04  0.12307409625E+04  0.50400001928E-02 0. -1.
    10030    2    1    2    0    0  0.00000000000E+00  0.00000000000E+00  0.59862436910E+03  0.30601062942E+04  0.30009830716E+04 0.  0.
        2    1    3    3  502    0 -0.11183632711E+04  0.17400804767E+03  0.13038393972E+04  0.17265608534E+04  0.25500000920E-02 0.  1.
       -2    1    3    3    0  502  0.11183632711E+04 -0.17400804767E+03 -0.70521502809E+03  0.13335454408E+04  0.25500000920E-02 0. -1.
</event>
<event>
 5   0  0.2862033E-06  0.2987655E+04  0.7818609E-02  0.8247265E-01
        2   -1    0    0  501    0  0.00000000000E+00  0.00000000000E+00  0.21604547733E+04  0.21604547733E+04  0.25500000920E-02 0. -1.
       -2   -1    0    0    0  501  0.00000000000E+00  0.00000000000E+00 -0.10328938908E+04  0.10328938908E+04  0.25500000920E-02 0.  1.
    10030    2    1    2    0    0  0.00000000000E+00  0.00000000000E+00  0.11275608825E+04  0.31933486642E+04  0.29876549579E+04 0.  0.
        2    1    3    3  502    0  0.39305669038E+03  0.24722689874E+02  0.21039660401E+04  0.21405087879E+04  0.25500000920E-02 0. -1.
       -2    1    3    3    0  502 -0.39305669038E+03 -0.24722689874E+02 -0.97640515760E+03  0.10528398763E+04  0.25500000920E-02 0.  1.
</event>
<event>
 5   0  0.9749500E-07  0.2999830E+04  0.7818609E-02  0.8243779E-01
        3   -1    0    0  501    0  0.00000000000E+00  0.00000000000E+00  0.14531093650E+04  0.14531093685E+04  0.10100000352E+00 0.  1.
       -3   -1    0    0    0  501  0.00000000000E+00  0.00000000000E+00 -0.15482285405E+04  0.15482285438E+04  0.10100000352E+00 0. -1.
    10030    2    1    2    0    0  0.00000000000E+00  0.00000000000E+00 -0.95119175515E+02  0.30013379123E+04  0.29998302629E+04 0.  0.
        4    1    3    3  502    0 -0.82220344219E+03  0.90330571875E+03 -0.91849352878E+03  0.15282708193E+04  0.12699999809E+01 0. -1.
       -4    1    3    3    0  502  0.82220344219E+03 -0.90330571875E+03  0.82337435326E+03  0.14730670930E+04  0.12699999809E+01 0.  1.
</event>
<event>
 5   0  0.1091075E-06  0.2996285E+04  0.7818609E-02  0.8244792E-01
        1   -1    0    0  501    0  0.00000000000E+00  0.00000000000E+00  0.20625006099E+04  0.20625006099E+04  0.50400001928E-02 0. -1.
       -1   -1    0    0    0  501  0.00000000000E+00  0.00000000000E+00 -0.10882086717E+04  0.10882086717E+04  0.50400001928E-02 0.  1.
    10030    2    1    2    0    0  0.00000000000E+00  0.00000000000E+00  0.97429193818E+03  0.31507092816E+04  0.29962850659E+04 0.  0.
        1    1    3    3  502    0  0.12719182026E+04  0.73579110821E+03  0.18009206409E+03  0.14804045462E+04  0.50400001928E-02 0.  1.
       -1    1    3    3    0  502 -0.12719182026E+04 -0.73579110821E+03  0.79419987410E+03  0.16703047354E+04  0.50400001928E-02 0. -1.
</event>
<event>
 5   0  0.2970915E-06  0.2993036E+04  0.7818609E-02  0.8245722E-01
       -2   -1    0    0    0  501  0.00000000000E+00  0.00000000000E+00  0.11317399474E+04  0.11317399474E+04  0.25500000920E-02 0.  1.
        2   -1    0    0  501    0  0.00000000000E+00  0.00000000000E+00 -0.19788704549E+04  0.19788704549E+04  0.25500000920E-02 0. -1.
    10030    2    1    2    0    0  0.00000000000E+00  0.00000000000E+00 -0.84713050750E+03  0.31106104024E+04  0.29930364145E+04 0.  0.
        4    1    3    3  502    0  0.10930959524E+04  0.50410149447E+03 -0.13476434927E+04  0.18069647684E+04  0.12699999809E+01 0. -1.
       -4    1    3    3    0  502 -0.10930959524E+04 -0.50410149447E+03  0.50051298520E+03  0.13036456340E+04  0.12699999809E+01 0.  1.
</event>
<event>
 5   0  0.1091075E-06  0.2991430E+04  0.7818609E-02  0.8246182E-01
       -1   -1    0    0    0  501  0.00000000000E+00  0.00000000000E+00  0.14907894309E+04  0.14907894309E+04  0.50400001928E-02 0. -1.
        1   -1    0    0  501    0  0.00000000000E+00  0.00000000000E+00 -0.15006565415E+04  0.15006565415E+04  0.50400001928E-02 0.  1.
    10030    2    1    2    0    0  0.00000000000E+00  0.00000000000E+00 -0.98671105562E+01  0.29914459724E+04  0.29914296993E+04 0.  0.
        1    1    3    3  502    0  0.72183231456E+03 -0.27204512089E+03  0.12765227800E+04  0.14914961770E+04  0.50400001928E-02 0. -1.
       -1    1    3    3    0  502 -0.72183231456E+03  0.27204512089E+03 -0.12863898906E+04  0.14999497954E+04  0.50400001928E-02 0.  1.
</event>
<event>
 5   0  0.2970915E-06  0.2998203E+04  0.7818609E-02  0.8244244E-01
        2   -1    0    0  501    0  0.00000000000E+00  0.00000000000E+00  0.17267831604E+04  0.17267831604E+04  0.25500000920E-02 0. -1.
       -2   -1    0    0    0  501  0.00000000000E+00  0.00000000000E+00 -0.13014406891E+04  0.13014406891E+04  0.25500000920E-02 0.  1.
    10030    2    1    2    0    0  0.00000000000E+00  0.00000000000E+00  0.42534247129E+03  0.30282238495E+04  0.29982033728E+04 0.  0.
        4    1    3    3  502    0 -0.13886693797E+04 -0.14015754001E+03  0.76519299742E+03  0.15917187937E+04  0.12699999809E+01 0.  1.
       -4    1    3    3    0  502  0.13886693797E+04  0.14015754001E+03 -0.33985052613E+03  0.14365050557E+04  0.12699999809E+01 0. -1.
</event>
<event>
 5   0  0.2948711E-06  0.3004271E+04  0.7818609E-02  0.8242512E-01
       -2   -1    0    0    0  501  0.00000000000E+00  0.00000000000E+00  0.14868739674E+04  0.14868739674E+04  0.25500000920E-02 0. -1.
        2   -1    0    0  501    0  0.00000000000E+00  0.00000000000E+00 -0.15175535506E+04  0.15175535506E+04  0.25500000920E-02 0.  1.
    10030    2    1    2    0    0  0.00000000000E+00  0.00000000000E+00 -0.30679583158E+02  0.30044275180E+04  0.30042708723E+04 0.  0.
        5    1    3    3  502    0 -0.27872911874E+03  0.77130012518E+02  0.14587621054E+04  0.14871610305E+04  0.46999998093E+01 0. -1.
       -5    1    3    3    0  502  0.27872911874E+03 -0.77130012518E+02 -0.14894416886E+04  0.15172664875E+04  0.46999998093E+01 0.  1.
</event>
<event>
 5   0  0.1097402E-06  0.2984332E+04  0.7818609E-02  0.8248219E-01
        1   -1    0    0  501    0  0.00000000000E+00  0.00000000000E+00  0.26435758574E+04  0.26435758574E+04  0.50400001928E-02 0. -1.
       -1   -1    0    0    0  501  0.00000000000E+00  0.00000000000E+00 -0.84225310627E+03  0.84225310628E+03  0.50400001928E-02 0.  1.
    10030    2    1    2    0    0  0.00000000000E+00  0.00000000000E+00  0.18013227512E+04  0.34858289637E+04  0.29843324062E+04 0.  0.
        4    1    3    3  502    0  0.46754804977E+03 -0.11907303402E+04  0.33803724125E+01  0.12792392121E+04  0.12699999809E+01 0.  1.
       -4    1    3    3    0  502 -0.46754804977E+03  0.11907303402E+04  0.17979423788E+04  0.22065897517E+04  0.12699999809E+01 0. -1.
</event>
<event>
 5   0  0.2948711E-06  0.3000162E+04  0.7818609E-02  0.8243685E-01
        2   -1    0    0  501    0  0.00000000000E+00  0.00000000000E+00  0.17168462153E+04  0.17168462153E+04  0.25500000920E-02 0. -1.
       -2   -1    0    0    0  501  0.00000000000E+00  0.00000000000E+00 -0.13106836676E+04  0.13106836676E+04  0.25500000920E-02 0.  1.
    10030    2    1    2    0    0  0.00000000000E+00  0.00000000000E+00  0.40616254772E+03  0.30275298830E+04  0.30001615252E+04 0.  0.
        5    1    3    3  502    0 -0.47389453834E+03  0.44867023895E+03 -0.11599210452E+04  0.13309094402E+04  0.46999998093E+01 0.  1.
       -5    1    3    3    0  502  0.47389453834E+03 -0.44867023895E+03  0.15660835930E+04  0.16966204428E+04  0.46999998093E+01 0. -1.
</event>
<event>
 5   0  0.1054384E-06  0.3029662E+04  0.7818609E-02  0.8235311E-01
        1   -1    0    0  501    0  0.00000000000E+00  0.00000000000E+00  0.15343017200E+04  0.15343017200E+04  0.50400001928E-02 0.  1.
       -1   -1    0    0    0  501  0.00000000000E+00  0.00000000000E+00 -0.14956073838E+04  0.14956073838E+04  0.50400001928E-02 0. -1.
    10030    2    1    2    0    0  0.00000000000E+00  0.00000000000E+00  0.38694336184E+02  0.30299091039E+04  0.30296620151E+04 0.  0.
        2    1    3    3  502    0  0.52231295323E+03  0.13282632369E+04  0.52695031670E+03  0.15214370457E+04  0.25500000920E-02 0.  1.
       -2    1    3    3    0  502 -0.52231295323E+03 -0.13282632369E+04 -0.48825598052E+03  0.15084720582E+04  0.25500000920E-02 0. -1.
</event>
<event>
 5   0  0.2862033E-06  0.3008534E+04  0.7818609E-02  0.8241298E-01
        2   -1    0    0  501    0  0.00000000000E+00  0.00000000000E+00  0.13735044117E+04  0.13735044117E+04  0.25500000920E-02 0.  1.
       -2   -1    0    0    0  501  0.00000000000E+00  0.00000000000E+00 -0.16474784116E+04  0.16474784116E+04  0.25500000920E-02 0. -1.
    10030    2    1    2    0    0  0.00000000000E+00  0.00000000000E+00 -0.27397399995E+03  0.30209828233E+04  0.30085337735E+04 0.  0.
        2    1    3    3  502    0 -0.20209729669E+03 -0.24960155722E+03  0.13386771488E+04  0.13766629085E+04  0.25500000920E-02 0.  1.
       -2    1    3    3    0  502  0.20209729669E+03  0.24960155722E+03 -0.16126511488E+04  0.16443199149E+04  0.25500000920E-02 0. -1.
</event>
<event>
 5   0  0.1113245E-06  0.3026698E+04  0.7818609E-02  0.8236148E-01
        1   -1    0    0  501    0  0.00000000000E+00  0.00000000000E+00  0.21445642180E+04  0.21445642180E+04  0.50400001928E-02 0.  1.
       -1   -1    0    0    0  501  0.00000000000E+00  0.00000000000E+00 -0.10679207374E+04  0.10679207374E+04  0.50400001928E-02 0. -1.
    10030    2    1    2    0    0  0.00000000000E+00  0.00000000000E+00  0.10766434806E+04  0.32124849554E+04  0.30266976070E+04 0.  0.
        5    1    3    3  502    0 -0.18297405065E+03  0.81576629975E+03 -0.80055640484E+03  0.11575261580E+04  0.46999998093E+01 0. -1.
       -5    1    3    3    0  502  0.18297405065E+03 -0.81576629975E+03  0.18771998855E+04  0.20549587974E+04  0.46999998093E+01 0.  1.
</event>
</LesHouchesEvents>
