<LesHouchesEvents version="3.0">
<header>
<!--
#*********************************************************************
#                                                                    *
#                        MadGraph5_aMC@NLO                           *
#                                                                    *
#                           Going Beyond                             *
#                                                                    *
#                   http://madgraph.hep.uiuc.edu                     *
#                   http://madgraph.phys.ucl.ac.be                   *
#                   http://amcatnlo.cern.ch                          *
#                                                                    *
#                     The MadGraph5_aMC@NLO team                     *
#                                                                    *
#....................................................................*
#                                                                    *
# This file contains all the information necessary to reproduce      *
# the events generated:                                              *
#                                                                    *
# 1. software version                                                *
# 2. proc_card          : code generation info including model       *
# 3. param_card         : model primary parameters in the LH format  *
# 4. run_card           : running parameters (collider and cuts)     *
# 5. pythia_card        : present only if pythia has been run        *
# 6. pgs_card           : present only if pgs has been run           *
# 7. delphes_cards      : present only if delphes has been run       *
#                                                                    *
#                                                                    *
#*********************************************************************
-->
<MGVersion>
#5.2.2.3
</MGVersion>
<MG5ProcCard>
#************************************************************
#*                     MadGraph5_aMC@NLO                    *
#*                                                          *
#*                *                       *                 *
#*                  *        * *        *                   *
#*                    * * * * 5 * * * *                     *
#*                  *        * *        *                   *
#*                *                       *                 *
#*                                                          *
#*                                                          *
#*         VERSION 2.2.3                 2015-02-10         *
#*                                                          *
#*    The MadGraph5_aMC@NLO Development Team - Find us at   *
#*    https://server06.fynu.ucl.ac.be/projects/madgraph     *
#*                                                          *
#************************************************************
#*                                                          *
#*               Command File for MadGraph5_aMC@NLO         *
#*                                                          *
#*     run as ./bin/mg5_aMC  filename                       *
#*                                                          *
#************************************************************
set group_subprocesses Auto
set ignore_six_quark_processes False
set loop_optimized_output True
set gauge unitary
set complex_mass_scheme False
import model sm
define p = g u c d s u~ c~ d~ s~
define j = g u c d s u~ c~ d~ s~
define l+ = e+ mu+
define l- = e- mu-
define vl = ve vm vt
define vl~ = ve~ vm~ vt~
import model Zprime_UFO
generate p p > zph, zph > j j
add process p p > zph, zph > b b~
output Dijet_signal
</MG5ProcCard>
<MGProcCard>
#*********************************************************************
#                        MadGraph/MadEvent                           *
#                   http://madgraph.hep.uiuc.edu                     *
#                                                                    *
#                          proc_card.dat                             *
#*********************************************************************
#                                                                    *
#            This Files is generated by MADGRAPH 5                   *
#                                                                    *
# WARNING: This Files is generated for MADEVENT (compatibility issue)*
#          This files is NOT a valid MG4 proc_card.dat               *
#          Running this in MG4 will NEVER reproduce the result of MG5*
#                                                                    *
#*********************************************************************
#*********************************************************************
# Process(es) requested : mg2 input                                  *
#*********************************************************************
# Begin PROCESS # This is TAG. Do not modify this line
p p > zph , zph > j j           #Process
# Be carefull the coupling are here in MG5 convention
          
end_coup           # End the couplings input

done               # this tells MG there are no more procs
# End PROCESS  # This is TAG. Do not modify this line
#*********************************************************************
# Model information                                                  *
#*********************************************************************
# Begin MODEL  # This is TAG. Do not modify this line
Zprime_UFO
# End   MODEL  # This is TAG. Do not modify this line
#*********************************************************************
# Start multiparticle definitions                                    *
#*********************************************************************
# Begin MULTIPARTICLES # This is TAG. Do not modify this line

# End  MULTIPARTICLES # This is TAG. Do not modify this line
</MGProcCard>
<MGRunCard>
#*********************************************************************
#                       MadGraph5_aMC@NLO                            *
#                                                                    *
#                     run_card.dat MadEvent                          *
#                                                                    *
#  This file is used to set the parameters of the run.               *
#                                                                    *
#  Some notation/conventions:                                        *
#                                                                    *
#   Lines starting with a '# ' are info or comments                  *
#                                                                    *
#   mind the format:   value    = variable     ! comment             *
#*********************************************************************
#
#*******************                                                 
# Running parameters
#*******************                                                 
#                                                                    
#*********************************************************************
# Tag name for the run (one word)                                    *
#*********************************************************************
  tag_1     = run_tag ! name of the run 
#*********************************************************************
# Run to generate the grid pack                                      *
#*********************************************************************
  .false.     = gridpack  !True = setting up the grid pack
#*********************************************************************
# Number of events and rnd seed                                      *
# Warning: Do not generate more than 1M events in a single run       *
# If you want to run Pythia, avoid more than 50k events in a run.    *
#*********************************************************************
  2000 = nevents ! Number of unweighted events requested 
 2253 = iseed   ! rnd seed (0=assigned automatically=default))
#*********************************************************************
# Collider type and energy                                           *
# lpp: 0=No PDF, 1=proton, -1=antiproton, 2=photon from proton,      *
#                                         3=photon from electron     *
#*********************************************************************
        1     = lpp1    ! beam 1 type 
        1     = lpp2    ! beam 2 type
     4000     = ebeam1  ! beam 1 total energy in GeV
     4000     = ebeam2  ! beam 2 total energy in GeV
#*********************************************************************
# Beam polarization from -100 (left-handed) to 100 (right-handed)    *
#*********************************************************************
        0     = polbeam1 ! beam polarization for beam 1
        0     = polbeam2 ! beam polarization for beam 2
#*********************************************************************
# PDF CHOICE: this automatically fixes also alpha_s and its evol.    *
#*********************************************************************
 'nn23lo1'    = pdlabel     ! PDF set                                     
 230000    = lhaid     ! if pdlabel=lhapdf, this is the lhapdf number
#*********************************************************************
# Renormalization and factorization scales                           *
#*********************************************************************
 F        = fixed_ren_scale  ! if .true. use fixed ren scale
 F        = fixed_fac_scale  ! if .true. use fixed fac scale
 91.1880  = scale            ! fixed ren scale
 91.1880  = dsqrt_q2fact1    ! fixed fact scale for pdf1
 91.1880  = dsqrt_q2fact2    ! fixed fact scale for pdf2
 1        = scalefact        ! scale factor for event-by-event scales
#*********************************************************************
# Matching - Warning! ickkw > 1 is still beta
#*********************************************************************
 0        = ickkw            ! 0 no matching, 1 MLM, 2 CKKW matching
 1        = highestmult      ! for ickkw=2, highest mult group
 1        = ktscheme         ! for ickkw=1, 1 Durham kT, 2 Pythia pTE
 1        = alpsfact         ! scale factor for QCD emission vx
 F        = chcluster        ! cluster only according to channel diag
 T        = pdfwgt           ! for ickkw=1, perform pdf reweighting
 5        = asrwgtflavor     ! highest quark flavor for a_s reweight
 T        = clusinfo         ! include clustering tag in output
 3.0      = lhe_version       ! Change the way clustering information pass to shower.        
#*********************************************************************
#**********************************************************
#
#**********************************************************
# Automatic ptj and mjj cuts if xqcut > 0
# (turn off for VBF and single top processes)
#**********************************************************
   T  = auto_ptj_mjj  ! Automatic setting of ptj and mjj
#**********************************************************
#                                                                    
#**********************************
# BW cutoff (M+/-bwcutoff*Gamma)
#**********************************
  15  = bwcutoff      ! (M+/-bwcutoff*Gamma)
#**********************************************************
# Apply pt/E/eta/dr/mij cuts on decay products or not
# (note that etmiss/ptll/ptheavy/ht/sorted cuts always apply)
#**********************************************************
   T  = cut_decays    ! Cut decay products 
#*************************************************************
# Number of helicities to sum per event (0 = all helicities)
# 0 gives more stable result, but longer run time (needed for
# long decay chains e.g.).
# Use >=2 if most helicities contribute, e.g. pure QCD.
#*************************************************************
   0  = nhel          ! Number of helicities used per event
#*******************                                                 
# Standard Cuts
#*******************                                                 
#                                                                    
#*********************************************************************
# Minimum and maximum pt's (for max, -1 means no cut)                *
#*********************************************************************
 20  = ptj       ! minimum pt for the jets 
  0  = ptb       ! minimum pt for the b 
 10  = pta       ! minimum pt for the photons 
 10  = ptl       ! minimum pt for the charged leptons 
  0  = misset    ! minimum missing Et (sum of neutrino's momenta)
  0  = ptheavy   ! minimum pt for one heavy final state
 1.0 = ptonium   ! minimum pt for the quarkonium states
 -1  = ptjmax    ! maximum pt for the jets
 -1  = ptbmax    ! maximum pt for the b
 -1  = ptamax    ! maximum pt for the photons
 -1  = ptlmax    ! maximum pt for the charged leptons
 -1  = missetmax ! maximum missing Et (sum of neutrino's momenta)
#*********************************************************************
# Minimum and maximum E's (in the center of mass frame)              *
#*********************************************************************
  0  = ej     ! minimum E for the jets 
  0  = eb     ! minimum E for the b 
  0  = ea     ! minimum E for the photons 
  0  = el     ! minimum E for the charged leptons 
 -1   = ejmax ! maximum E for the jets
 -1   = ebmax ! maximum E for the b
 -1   = eamax ! maximum E for the photons
 -1   = elmax ! maximum E for the charged leptons
#*********************************************************************
# Maximum and minimum absolute rapidity (for max, -1 means no cut)   *
#*********************************************************************
   5  = etaj    ! max rap for the jets 
  -1  = etab    ! max rap for the b
 2.5  = etaa    ! max rap for the photons 
 2.5  = etal    ! max rap for the charged leptons 
 0.6  = etaonium ! max rap for the quarkonium states
   0  = etajmin ! min rap for the jets
   0  = etabmin ! min rap for the b
   0  = etaamin ! min rap for the photons
   0  = etalmin ! main rap for the charged leptons
#*********************************************************************
# Minimum and maximum DeltaR distance                                *
#*********************************************************************
 0.4 = drjj    ! min distance between jets 
 0   = drbb    ! min distance between b's 
 0.4 = drll    ! min distance between leptons 
 0.4 = draa    ! min distance between gammas 
 0   = drbj    ! min distance between b and jet 
 0.4 = draj    ! min distance between gamma and jet 
 0.4 = drjl    ! min distance between jet and lepton 
 0   = drab    ! min distance between gamma and b 
 0   = drbl    ! min distance between b and lepton 
 0.4 = dral    ! min distance between gamma and lepton 
 -1  = drjjmax ! max distance between jets
 -1  = drbbmax ! max distance between b's
 -1  = drllmax ! max distance between leptons
 -1  = draamax ! max distance between gammas
 -1  = drbjmax ! max distance between b and jet
 -1  = drajmax ! max distance between gamma and jet
 -1  = drjlmax ! max distance between jet and lepton
 -1  = drabmax ! max distance between gamma and b
 -1  = drblmax ! max distance between b and lepton
 -1  = dralmax ! maxdistance between gamma and lepton
#*********************************************************************
# Minimum and maximum invariant mass for pairs                       *
# WARNING: for four lepton final state mmll cut require to have      *
#          different lepton masses for each flavor!                  *           
#*********************************************************************
 0   = mmjj    ! min invariant mass of a jet pair 
 0   = mmbb    ! min invariant mass of a b pair 
 0   = mmaa    ! min invariant mass of gamma gamma pair
 0   = mmll    ! min invariant mass of l+l- (same flavour) lepton pair
 -1  = mmjjmax ! max invariant mass of a jet pair
 -1  = mmbbmax ! max invariant mass of a b pair
 -1  = mmaamax ! max invariant mass of gamma gamma pair
 -1  = mmllmax ! max invariant mass of l+l- (same flavour) lepton pair
#*********************************************************************
# Minimum and maximum invariant mass for all letpons                 *
#*********************************************************************
 0   = mmnl    ! min invariant mass for all letpons (l+- and vl) 
 -1  = mmnlmax ! max invariant mass for all letpons (l+- and vl) 
#*********************************************************************
# Minimum and maximum pt for 4-momenta sum of leptons                *
#*********************************************************************
 0   = ptllmin  ! Minimum pt for 4-momenta sum of leptons(l and vl)
 -1  = ptllmax  ! Maximum pt for 4-momenta sum of leptons(l and vl)
#*********************************************************************
# Inclusive cuts                                                     *
#*********************************************************************
 0  = xptj ! minimum pt for at least one jet  
 0  = xptb ! minimum pt for at least one b 
 0  = xpta ! minimum pt for at least one photon 
 0  = xptl ! minimum pt for at least one charged lepton 
#*********************************************************************
# Control the pt's of the jets sorted by pt                          *
#*********************************************************************
 0   = ptj1min ! minimum pt for the leading jet in pt
 0   = ptj2min ! minimum pt for the second jet in pt
 0   = ptj3min ! minimum pt for the third jet in pt
 0   = ptj4min ! minimum pt for the fourth jet in pt
 -1  = ptj1max ! maximum pt for the leading jet in pt 
 -1  = ptj2max ! maximum pt for the second jet in pt
 -1  = ptj3max ! maximum pt for the third jet in pt
 -1  = ptj4max ! maximum pt for the fourth jet in pt
 0   = cutuse  ! reject event if fails any (0) / all (1) jet pt cuts
#*********************************************************************
# Control the pt's of leptons sorted by pt                           *
#*********************************************************************
 0   = ptl1min ! minimum pt for the leading lepton in pt
 0   = ptl2min ! minimum pt for the second lepton in pt
 0   = ptl3min ! minimum pt for the third lepton in pt
 0   = ptl4min ! minimum pt for the fourth lepton in pt
 -1  = ptl1max ! maximum pt for the leading lepton in pt 
 -1  = ptl2max ! maximum pt for the second lepton in pt
 -1  = ptl3max ! maximum pt for the third lepton in pt
 -1  = ptl4max ! maximum pt for the fourth lepton in pt
#*********************************************************************
# Control the Ht(k)=Sum of k leading jets                            *
#*********************************************************************
 0   = htjmin ! minimum jet HT=Sum(jet pt)
 -1  = htjmax ! maximum jet HT=Sum(jet pt)
 0   = ihtmin  !inclusive Ht for all partons (including b)
 -1  = ihtmax  !inclusive Ht for all partons (including b)
 0   = ht2min ! minimum Ht for the two leading jets
 0   = ht3min ! minimum Ht for the three leading jets
 0   = ht4min ! minimum Ht for the four leading jets
 -1  = ht2max ! maximum Ht for the two leading jets
 -1  = ht3max ! maximum Ht for the three leading jets
 -1  = ht4max ! maximum Ht for the four leading jets
#***********************************************************************
# Photon-isolation cuts, according to hep-ph/9801442                   *
# When ptgmin=0, all the other parameters are ignored                  *
# When ptgmin>0, pta and draj are not going to be used                 *
#***********************************************************************
   0 = ptgmin ! Min photon transverse momentum
 0.4 = R0gamma ! Radius of isolation code
 1.0 = xn ! n parameter of eq.(3.4) in hep-ph/9801442
 1.0 = epsgamma ! epsilon_gamma parameter of eq.(3.4) in hep-ph/9801442
 .true. = isoEM ! isolate photons from EM energy (photons and leptons)
#*********************************************************************
# WBF cuts                                                           *
#*********************************************************************
 0   = xetamin ! minimum rapidity for two jets in the WBF case  
 0   = deltaeta ! minimum rapidity for two jets in the WBF case 
#*********************************************************************
# KT DURHAM CUT                                                      *
#*********************************************************************
 -1    =  ktdurham        
 0.4  =  dparameter 
#*********************************************************************
# maximal pdg code for quark to be considered as a light jet         *
# (otherwise b cuts are applied)                                     *
#*********************************************************************
 4 = maxjetflavor    ! Maximum jet pdg code
#*********************************************************************
# Jet measure cuts                                                   *
#*********************************************************************
 0   = xqcut   ! minimum kt jet measure between partons
#*********************************************************************
#
#*********************************************************************
# Store info for systematics studies                                 *
# WARNING: If use_syst is T, matched Pythia output is                *
#          meaningful ONLY if plotted taking matchscale              *
#          reweighting into account!                                 *
#*********************************************************************
   F  = use_syst      ! Enable systematics studies
#
#**************************************
# Parameter of the systematics study
#  will be used by SysCalc (if installed)
#**************************************                                  
#
0.5 1 2 = sys_scalefact  # factorization/renormalization scale factor
0.5 1 2 = sys_alpsfact  # \alpha_s emission scale factors
30 50 = sys_matchscale # variation of merging scale
# PDF sets and number of members (0 or none for all members).
CT10nlo.LHgrid = sys_pdf # matching scales
# MSTW2008nlo68cl.LHgrid 1  = sys_pdf
</MGRunCard>
<slha>
######################################################################
## PARAM_CARD AUTOMATICALY GENERATED BY MG5 FOLLOWING UFO MODEL   ####
######################################################################
##                                                                  ##
##  Width set on Auto will be computed following the information    ##
##        present in the decay.py files of the model.               ##
##        See  arXiv:1402.1178 for more details.                    ##
##                                                                  ##
######################################################################

###################################
## INFORMATION FOR CKMBLOCK
###################################
Block ckmblock 
    1 2.277360e-01 # cabi 

###################################
## INFORMATION FOR FRBLOCK
###################################
Block frblock 
    1 1.200000e+00 # gz 

###################################
## INFORMATION FOR MASS
###################################
Block mass 
    1 5.040000e-03 # MD 
    2 2.550000e-03 # MU 
    3 1.010000e-01 # MS 
    4 1.270000e+00 # MC 
    5 4.700000e+00 # MB 
    6 1.720000e+02 # MT 
   11 5.110000e-04 # Me 
   13 1.056600e-01 # MM 
   15 1.777000e+00 # MTA 
   23 9.118760e+01 # MZ 
   25 1.200000e+02 # MH 
  10030 2.000000e+03 # MZph 
  10031 3.000000e+02 # MZpl 
## Dependent parameters, given by model restrictions.
## Those values should be edited following the 
## analytical expression. MG5 ignores those values 
## but they are important for interfacing the output of MG5
## to external program such as Pythia.
  12 0.000000 # ve : 0.0 
  14 0.000000 # vm : 0.0 
  16 0.000000 # vt : 0.0 
  21 0.000000 # g : 0.0 
  22 0.000000 # a : 0.0 
  24 79.824360 # w+ : cmath.sqrt(MZ__exp__2/2. + cmath.sqrt(MZ__exp__4/4. - (aEW*cmath.pi*MZ__exp__2)/(Gf*sqrt__2))) 

###################################
## INFORMATION FOR SMINPUTS
###################################
Block sminputs 
    1 1.279000e+02 # aEWM1 
    2 1.166370e-05 # Gf 
    3 1.184000e-01 # aS 

###################################
## INFORMATION FOR YUKAWA
###################################
Block yukawa 
    1 5.040000e-03 # ymdo 
    2 2.550000e-03 # ymup 
    3 1.010000e-01 # yms 
    4 1.270000e+00 # ymc 
    5 4.700000e+00 # ymb 
    6 1.720000e+02 # ymt 
   11 5.110000e-04 # yme 
   13 1.056600e-01 # ymm 
   15 1.777000e+00 # ymtau 

###################################
## INFORMATION FOR DECAY
###################################
DECAY   6 1.508336e+00 # WT 
DECAY  23 2.495200e+00 # WZ 
DECAY  24 2.085000e+00 # WW 
DECAY  25 5.753088e-03 # WH 
## Dependent parameters, given by model restrictions.
## Those values should be edited following the 
## analytical expression. MG5 ignores those values 
## but they are important for interfacing the output of MG5
## to external program such as Pythia.
DECAY  1 0.000000 # d : 0.0 
DECAY  2 0.000000 # u : 0.0 
DECAY  3 0.000000 # s : 0.0 
DECAY  4 0.000000 # c : 0.0 
DECAY  5 0.000000 # b : 0.0 
DECAY  11 0.000000 # e- : 0.0 
DECAY  12 0.000000 # ve : 0.0 
DECAY  13 0.000000 # mu- : 0.0 
DECAY  14 0.000000 # vm : 0.0 
DECAY  15 0.000000 # ta- : 0.0 
DECAY  16 0.000000 # vt : 0.0 
DECAY  21 0.000000 # g : 0.0 
DECAY  22 0.000000 # a : 0.0 
DECAY  10030 0.308725 # zph : (gz__exp__2*MZph*(5 + cmath.sqrt(1 - (4*MT__exp__2)/MZph__exp__2)))/(144.*cmath.pi) 
DECAY  10031 0.132629 # zpl : (5*gz__exp__2*MZpl)/(144.*cmath.pi) 
#===========================================================
# QUANTUM NUMBERS OF NEW STATE(S) (NON SM PDG CODE)
#===========================================================

Block QNUMBERS 10030  # zph 
        1 0  # 3 times electric charge
        2 3  # number of spin states (2S+1)
        3 1  # colour rep (1: singlet, 3: triplet, 8: octet)
        4 0  # Particle/Antiparticle distinction (0=own anti)
Block QNUMBERS 10031  # zpl 
        1 0  # 3 times electric charge
        2 3  # number of spin states (2S+1)
        3 1  # colour rep (1: singlet, 3: triplet, 8: octet)
        4 0  # Particle/Antiparticle distinction (0=own anti)
</slha>
## END BANNER##
<MGGenerationInfo>
#  Number of Events        :         3926
#  Integrated weight (pb)  :  0.52253E-01
#  Max wgt                 :  0.18937E-04
#  Average wgt             :  0.13309E-04
</MGGenerationInfo>
</header>
<init>
     2212     2212  0.40000000000E+04  0.40000000000E+04 0 0  247000  247000 2   1
  0.52256799486E-01  0.98431156730E-04  0.18936870000E-04   0
</init>
<event>
 5   0  0.1834645E-04  0.2046712E+04  0.7818609E-02  0.8585087E-01
        2   -1    0    0  501    0  0.00000000000E+00  0.00000000000E+00  0.14068893679E+04  0.14068893679E+04  0.25500000920E-02 0. -1.
       -2   -1    0    0    0  501  0.00000000000E+00  0.00000000000E+00 -0.74437827548E+03  0.74437827549E+03  0.25500000920E-02 0.  1.
    10030    2    1    2    0    0  0.00000000000E+00  0.00000000000E+00  0.66251109239E+03  0.21512676434E+04  0.20467123701E+04 0.  0.
        1    1    3    3  502    0  0.17884173935E+03 -0.66408178372E+03  0.11277729670E+04  0.13209318106E+04  0.50400001928E-02 0. -1.
       -1    1    3    3    0  502 -0.17884173935E+03  0.66408178372E+03 -0.46526187458E+03  0.83033583276E+03  0.50400001928E-02 0.  1.
</event>
<event>
 5   0  0.1834645E-04  0.1999064E+04  0.7818609E-02  0.8607059E-01
        2   -1    0    0  501    0  0.00000000000E+00  0.00000000000E+00  0.41052647254E+03  0.41052647255E+03  0.25500000920E-02 0.  1.
       -2   -1    0    0    0  501  0.00000000000E+00  0.00000000000E+00 -0.24336162255E+04  0.24336162255E+04  0.25500000920E-02 0. -1.
    10030    2    1    2    0    0  0.00000000000E+00  0.00000000000E+00 -0.20230897529E+04  0.28441426980E+04  0.19990636654E+04 0.  0.
        1    1    3    3  502    0 -0.91566681178E+03 -0.36427859860E+03 -0.77381879038E+03  0.12529725168E+04  0.50400001928E-02 0.  1.
       -1    1    3    3    0  502  0.91566681178E+03  0.36427859860E+03 -0.12492709626E+04  0.15911701812E+04  0.50400001928E-02 0. -1.
</event>
<event>
 5   0  0.1812865E-04  0.1944142E+04  0.7818609E-02  0.8633191E-01
       -2   -1    0    0    0  501  0.00000000000E+00  0.00000000000E+00  0.46189883730E+03  0.46189883731E+03  0.25500000920E-02 0.  1.
        2   -1    0    0  501    0  0.00000000000E+00  0.00000000000E+00 -0.20457343166E+04  0.20457343166E+04  0.25500000920E-02 0. -1.
    10030    2    1    2    0    0  0.00000000000E+00  0.00000000000E+00 -0.15838354793E+04  0.25076331539E+04  0.19441422811E+04 0.  0.
        3    1    3    3  502    0  0.96012380725E+03 -0.62138738141E+00 -0.59594611616E+03  0.11300397758E+04  0.10100000352E+00 0. -1.
       -3    1    3    3    0  502 -0.96012380725E+03  0.62138738141E+00 -0.98788936315E+03  0.13775933781E+04  0.10100000352E+00 0.  1.
</event>
<event>
 5   0  0.1834645E-04  0.2008247E+04  0.7818609E-02  0.8602775E-01
       -2   -1    0    0    0  501  0.00000000000E+00  0.00000000000E+00  0.10359159703E+04  0.10359159703E+04  0.25500000920E-02 0.  1.
        2   -1    0    0  501    0  0.00000000000E+00  0.00000000000E+00 -0.97330656383E+03  0.97330656384E+03  0.25500000920E-02 0. -1.
    10030    2    1    2    0    0  0.00000000000E+00  0.00000000000E+00  0.62609406502E+02  0.20092225342E+04  0.20082468110E+04 0.  0.
        1    1    3    3  502    0  0.49039291479E+03 -0.38501927707E+03  0.81879497055E+03  0.10291502604E+04  0.50400001928E-02 0.  1.
       -1    1    3    3    0  502 -0.49039291479E+03  0.38501927707E+03 -0.75618556405E+03  0.98007227381E+03  0.50400001928E-02 0. -1.
</event>
<event>
 5   0  0.1812865E-04  0.1960460E+04  0.7818609E-02  0.8625333E-01
        2   -1    0    0  501    0  0.00000000000E+00  0.00000000000E+00  0.66317943200E+03  0.66317943200E+03  0.25500000920E-02 0.  1.
       -2   -1    0    0    0  501  0.00000000000E+00  0.00000000000E+00 -0.14488548585E+04  0.14488548585E+04  0.25500000920E-02 0. -1.
    10030    2    1    2    0    0  0.00000000000E+00  0.00000000000E+00 -0.78567542649E+03  0.21120342905E+04  0.19604598870E+04 0.  0.
        3    1    3    3  502    0  0.11666248603E+03  0.77655310169E+03 -0.10248887452E+04  0.12911397312E+04  0.10100000352E+00 0. -1.
       -3    1    3    3    0  502 -0.11666248603E+03 -0.77655310169E+03  0.23921331868E+03  0.82089455926E+03  0.10100000352E+00 0.  1.
</event>
<event>
 5   0  0.8861350E-05  0.2002785E+04  0.7818609E-02  0.8605320E-01
       -1   -1    0    0    0  501  0.00000000000E+00  0.00000000000E+00  0.11375272909E+04  0.11375272909E+04  0.50400001928E-02 0. -1.
        1   -1    0    0  501    0  0.00000000000E+00  0.00000000000E+00 -0.88154979063E+03  0.88154979065E+03  0.50400001928E-02 0.  1.
    10030    2    1    2    0    0  0.00000000000E+00  0.00000000000E+00  0.25597750024E+03  0.20190770815E+04  0.20027850061E+04 0.  0.
        1    1    3    3  502    0 -0.58923947532E+02  0.85435815872E+03  0.65123596469E+03  0.10758755396E+04  0.50400001928E-02 0. -1.
       -1    1    3    3    0  502  0.58923947532E+02 -0.85435815872E+03 -0.39525846446E+03  0.94320154194E+03  0.50400001928E-02 0.  1.
</event>
<event>
 5   0  0.8765057E-05  0.2016431E+04  0.7818609E-02  0.8598977E-01
        1   -1    0    0  501    0  0.00000000000E+00  0.00000000000E+00  0.25743683274E+04  0.25743683275E+04  0.50400001928E-02 0. -1.
       -1   -1    0    0    0  501  0.00000000000E+00  0.00000000000E+00 -0.39485370729E+03  0.39485370732E+03  0.50400001928E-02 0.  1.
    10030    2    1    2    0    0  0.00000000000E+00  0.00000000000E+00  0.21795146202E+04  0.29692220348E+04  0.20164313805E+04 0.  0.
        3    1    3    3  502    0  0.74153422160E+03  0.18886801240E+03  0.20564202263E+04  0.21941759923E+04  0.10100000352E+00 0. -1.
       -3    1    3    3    0  502 -0.74153422160E+03 -0.18886801240E+03  0.12309439383E+03  0.77504604244E+03  0.10100000352E+00 0.  1.
</event>
<event>
 5   0  0.1834645E-04  0.1975647E+04  0.7818609E-02  0.8618092E-01
        2   -1    0    0  501    0  0.00000000000E+00  0.00000000000E+00  0.17150832365E+04  0.17150832365E+04  0.25500000920E-02 0.  1.
       -2   -1    0    0    0  501  0.00000000000E+00  0.00000000000E+00 -0.56894893446E+03  0.56894893447E+03  0.25500000920E-02 0. -1.
    10030    2    1    2    0    0  0.00000000000E+00  0.00000000000E+00  0.11461343020E+04  0.22840321709E+04  0.19756465068E+04 0.  0.
        1    1    3    3  502    0  0.30226976187E+03 -0.31792641140E+03  0.15962919498E+04  0.16554734069E+04  0.50400001928E-02 0.  1.
       -1    1    3    3    0  502 -0.30226976187E+03  0.31792641140E+03 -0.45015764776E+03  0.62855876405E+03  0.50400001928E-02 0. -1.
</event>
<event>
 5   0  0.8577422E-05  0.2003136E+04  0.7818609E-02  0.8605156E-01
        1   -1    0    0  501    0  0.00000000000E+00  0.00000000000E+00  0.79268349001E+03  0.79268349002E+03  0.50400001928E-02 0.  1.
       -1   -1    0    0    0  501  0.00000000000E+00  0.00000000000E+00 -0.12654971060E+04  0.12654971060E+04  0.50400001928E-02 0. -1.
    10030    2    1    2    0    0  0.00000000000E+00  0.00000000000E+00 -0.47281361597E+03  0.20581805960E+04  0.20031362036E+04 0.  0.
        2    1    3    3  502    0  0.64970645272E+03  0.58016306884E+03  0.27157848950E+03  0.91239384978E+03  0.25500000920E-02 0.  1.
       -2    1    3    3    0  502 -0.64970645272E+03 -0.58016306884E+03 -0.74439210547E+03  0.11457867462E+04  0.25500000920E-02 0. -1.
</event>
<event>
 5   0  0.1834645E-04  0.1955366E+04  0.7818609E-02  0.8627777E-01
       -2   -1    0    0    0  501  0.00000000000E+00  0.00000000000E+00  0.69809543750E+03  0.69809543751E+03  0.25500000920E-02 0. -1.
        2   -1    0    0  501    0  0.00000000000E+00  0.00000000000E+00 -0.13692460351E+04  0.13692460351E+04  0.25500000920E-02 0.  1.
    10030    2    1    2    0    0  0.00000000000E+00  0.00000000000E+00 -0.67115059755E+03  0.20673414726E+04  0.19553663697E+04 0.  0.
        1    1    3    3  502    0  0.65050685721E+03 -0.46944100454E+03  0.25529368265E+03  0.84184849732E+03  0.50400001928E-02 0. -1.
       -1    1    3    3    0  502 -0.65050685721E+03  0.46944100454E+03 -0.92644428020E+03  0.12254929752E+04  0.50400001928E-02 0.  1.
</event>
<event>
 5   0  0.6531625E-05  0.1815582E+04  0.7818609E-02  0.8698057E-01
        4   -1    0    0  501    0  0.00000000000E+00  0.00000000000E+00  0.58293212262E+03  0.58293350605E+03  0.12699999809E+01 0. -1.
       -4   -1    0    0    0  501  0.00000000000E+00  0.00000000000E+00 -0.14136855652E+04  0.14136861357E+04  0.12699999809E+01 0.  1.
    10030    2    1    2    0    0  0.00000000000E+00  0.00000000000E+00 -0.83075344257E+03  0.19966196417E+04  0.18155821962E+04 0.  0.
        1    1    3    3  502    0 -0.49115779550E+02  0.92929853761E+01 -0.14121718981E+04  0.14130563291E+04  0.50400001928E-02 0.  1.
       -1    1    3    3    0  502  0.49115779550E+02 -0.92929853761E+01  0.58141845553E+03  0.58356331261E+03  0.50400001928E-02 0. -1.
</event>
<event>
 5   0  0.1807498E-04  0.2028827E+04  0.7818609E-02  0.8593260E-01
       -2   -1    0    0    0  501  0.00000000000E+00  0.00000000000E+00  0.77373227955E+03  0.77373227955E+03  0.25500000920E-02 0.  1.
        2   -1    0    0  501    0  0.00000000000E+00  0.00000000000E+00 -0.13299626720E+04  0.13299626720E+04  0.25500000920E-02 0. -1.
    10030    2    1    2    0    0  0.00000000000E+00  0.00000000000E+00 -0.55623039244E+03  0.21036949515E+04  0.20288272967E+04 0.  0.
        5    1    3    3  502    0 -0.21517357350E+03 -0.93953557228E+02  0.74515836131E+03  0.78128740619E+03  0.46999998093E+01 0.  1.
       -5    1    3    3    0  502  0.21517357350E+03  0.93953557228E+02 -0.13013887537E+04  0.13224075454E+04  0.46999998093E+01 0. -1.
</event>
<event>
 5   0  0.8881384E-05  0.1975633E+04  0.7818609E-02  0.8618098E-01
       -1   -1    0    0    0  501  0.00000000000E+00  0.00000000000E+00  0.21174146643E+04  0.21174146643E+04  0.50400001928E-02 0. -1.
        1   -1    0    0  501    0  0.00000000000E+00  0.00000000000E+00 -0.46083625252E+03  0.46083625254E+03  0.50400001928E-02 0.  1.
    10030    2    1    2    0    0  0.00000000000E+00  0.00000000000E+00  0.16565784118E+04  0.25782509169E+04  0.19756330013E+04 0.  0.
        5    1    3    3  502    0  0.23452774041E+03 -0.26607233908E+03 -0.37485742992E+03  0.51607938674E+03  0.46999998093E+01 0.  1.
       -5    1    3    3    0  502 -0.23452774041E+03  0.26607233908E+03  0.20314358417E+04  0.20621715301E+04  0.46999998093E+01 0. -1.
</event>
<event>
 5   0  0.8861350E-05  0.2014171E+04  0.7818609E-02  0.8600024E-01
        1   -1    0    0  501    0  0.00000000000E+00  0.00000000000E+00  0.84073642277E+03  0.84073642279E+03  0.50400001928E-02 0. -1.
       -1   -1    0    0    0  501  0.00000000000E+00  0.00000000000E+00 -0.12063485578E+04  0.12063485578E+04  0.50400001928E-02 0.  1.
    10030    2    1    2    0    0  0.00000000000E+00  0.00000000000E+00 -0.36561213500E+03  0.20470849806E+04  0.20141709670E+04 0.  0.
        1    1    3    3  502    0 -0.99653303927E+03  0.11950139459E+03 -0.26699992037E+03  0.10385796258E+04  0.50400001928E-02 0. -1.
       -1    1    3    3    0  502  0.99653303927E+03 -0.11950139459E+03 -0.98612214630E+02  0.10085053548E+04  0.50400001928E-02 0.  1.
</event>
<event>
 5   0  0.8765057E-05  0.2012339E+04  0.7818609E-02  0.8600873E-01
        1   -1    0    0  501    0  0.00000000000E+00  0.00000000000E+00  0.11935489873E+04  0.11935489873E+04  0.50400001928E-02 0.  1.
       -1   -1    0    0    0  501  0.00000000000E+00  0.00000000000E+00 -0.84820747136E+03  0.84820747137E+03  0.50400001928E-02 0. -1.
    10030    2    1    2    0    0  0.00000000000E+00  0.00000000000E+00  0.34534151594E+03  0.20417564587E+04  0.20123391051E+04 0.  0.
        3    1    3    3  502    0 -0.74956693739E+03  0.62934722048E+03  0.40942419497E+03  0.10609225698E+04  0.10100000352E+00 0.  1.
       -3    1    3    3    0  502  0.74956693739E+03 -0.62934722048E+03 -0.64082679035E+02  0.98083388885E+03  0.10100000352E+00 0. -1.
</event>
<event>
 5   0  0.8765057E-05  0.2157413E+04  0.7818609E-02  0.8536366E-01
       -1   -1    0    0    0  501  0.00000000000E+00  0.00000000000E+00  0.13905307578E+04  0.13905307578E+04  0.50400001928E-02 0.  1.
        1   -1    0    0  501    0  0.00000000000E+00  0.00000000000E+00 -0.83680855579E+03  0.83680855580E+03  0.50400001928E-02 0. -1.
    10030    2    1    2    0    0  0.00000000000E+00  0.00000000000E+00  0.55372220202E+03  0.22273393136E+04  0.21574132986E+04 0.  0.
        3    1    3    3  502    0 -0.33688643273E+03  0.87634640604E+03  0.82523858578E+03  0.12499976902E+04  0.10100000352E+00 0.  1.
       -3    1    3    3    0  502  0.33688643273E+03 -0.87634640604E+03 -0.27151638376E+03  0.97734162338E+03  0.10100000352E+00 0. -1.
</event>
<event>
 5   0  0.1834645E-04  0.2005117E+04  0.7818609E-02  0.8604232E-01
       -2   -1    0    0    0  501  0.00000000000E+00  0.00000000000E+00  0.56321654411E+03  0.56321654412E+03  0.25500000920E-02 0.  1.
        2   -1    0    0  501    0  0.00000000000E+00  0.00000000000E+00 -0.17846137133E+04  0.17846137133E+04  0.25500000920E-02 0. -1.
    10030    2    1    2    0    0  0.00000000000E+00  0.00000000000E+00 -0.12213971692E+04  0.23478302574E+04  0.20051174212E+04 0.  0.
        1    1    3    3  502    0  0.52411072788E+03 -0.11016465948E+03 -0.16030797346E+04  0.16901754178E+04  0.50400001928E-02 0. -1.
       -1    1    3    3    0  502 -0.52411072788E+03  0.11016465948E+03  0.38168256545E+03  0.65765483962E+03  0.50400001928E-02 0.  1.
</event>
<event>
 5   0  0.8958919E-05  0.1982214E+04  0.7818609E-02  0.8614981E-01
        1   -1    0    0  501    0  0.00000000000E+00  0.00000000000E+00  0.14451927496E+04  0.14451927496E+04  0.50400001928E-02 0. -1.
       -1   -1    0    0    0  501  0.00000000000E+00  0.00000000000E+00 -0.67969725436E+03  0.67969725438E+03  0.50400001928E-02 0.  1.
    10030    2    1    2    0    0  0.00000000000E+00  0.00000000000E+00  0.76549549520E+03  0.21248900040E+04  0.19822144626E+04 0.  0.
        4    1    3    3  502    0 -0.24557338933E+03 -0.93828343386E+03  0.16408045295E+03  0.98366971069E+03  0.12699999809E+01 0.  1.
       -4    1    3    3    0  502  0.24557338933E+03  0.93828343386E+03  0.60141504225E+03  0.11412202933E+04  0.12699999809E+01 0. -1.
</event>
<event>
 5   0  0.8861350E-05  0.1997151E+04  0.7818609E-02  0.8607954E-01
        1   -1    0    0  501    0  0.00000000000E+00  0.00000000000E+00  0.11290661676E+04  0.11290661676E+04  0.50400001928E-02 0. -1.
       -1   -1    0    0    0  501  0.00000000000E+00  0.00000000000E+00 -0.88316605094E+03  0.88316605095E+03  0.50400001928E-02 0.  1.
    10030    2    1    2    0    0  0.00000000000E+00  0.00000000000E+00  0.24590011668E+03  0.20122322186E+04  0.19971508792E+04 0.  0.
        1    1    3    3  502    0 -0.18999066005E+03  0.72328151135E+03 -0.54380261817E+03  0.92463716296E+03  0.50400001928E-02 0.  1.
       -1    1    3    3    0  502  0.18999066005E+03 -0.72328151135E+03  0.78970273485E+03  0.10875950556E+04  0.50400001928E-02 0. -1.
</event>
<event>
 5   0  0.1782172E-04  0.1992798E+04  0.7818609E-02  0.8609995E-01
        2   -1    0    0  501    0  0.00000000000E+00  0.00000000000E+00  0.18477113057E+04  0.18477113057E+04  0.25500000920E-02 0.  1.
       -2   -1    0    0    0  501  0.00000000000E+00  0.00000000000E+00 -0.53731906622E+03  0.53731906622E+03  0.25500000920E-02 0. -1.
    10030    2    1    2    0    0  0.00000000000E+00  0.00000000000E+00  0.13103922395E+04  0.23850303719E+04  0.19927975446E+04 0.  0.
        2    1    3    3  502    0  0.78134710720E+03 -0.50917814700E+03  0.10750154320E+04  0.14231738708E+04  0.25500000920E-02 0.  1.
       -2    1    3    3    0  502 -0.78134710720E+03  0.50917814700E+03  0.23537680745E+03  0.96185650115E+03  0.25500000920E-02 0. -1.
</event>
<event>
 5   0  0.8765057E-05  0.1990511E+04  0.7818609E-02  0.8611070E-01
       -1   -1    0    0    0  501  0.00000000000E+00  0.00000000000E+00  0.45995486353E+03  0.45995486356E+03  0.50400001928E-02 0.  1.
        1   -1    0    0  501    0  0.00000000000E+00  0.00000000000E+00 -0.21535451731E+04  0.21535451731E+04  0.50400001928E-02 0. -1.
    10030    2    1    2    0    0  0.00000000000E+00  0.00000000000E+00 -0.16935903096E+04  0.26135000366E+04  0.19905110663E+04 0.  0.
        3    1    3    3  502    0 -0.48845072044E+03  0.57481219463E+03  0.56717277711E+01  0.75433768572E+03  0.10100000352E+00 0.  1.
       -3    1    3    3    0  502  0.48845072044E+03 -0.57481219463E+03 -0.16992620373E+04  0.18591623509E+04  0.10100000352E+00 0. -1.
</event>
<event>
 5   0  0.1812865E-04  0.1994797E+04  0.7818609E-02  0.8609057E-01
        2   -1    0    0  501    0  0.00000000000E+00  0.00000000000E+00  0.79074887369E+03  0.79074887370E+03  0.25500000920E-02 0.  1.
       -2   -1    0    0    0  501  0.00000000000E+00  0.00000000000E+00 -0.12580526245E+04  0.12580526245E+04  0.25500000920E-02 0. -1.
    10030    2    1    2    0    0  0.00000000000E+00  0.00000000000E+00 -0.46730375081E+03  0.20488014982E+04  0.19947969279E+04 0.  0.
        3    1    3    3  502    0 -0.98751265602E+01  0.99449314843E+03 -0.31112301978E+03  0.10420708633E+04  0.10100000352E+00 0.  1.
       -3    1    3    3    0  502  0.98751265602E+01 -0.99449314843E+03 -0.15618073103E+03  0.10067306350E+04  0.10100000352E+00 0. -1.
</event>
<event>
 5   0  0.8861350E-05  0.1987750E+04  0.7818609E-02  0.8612369E-01
        1   -1    0    0  501    0  0.00000000000E+00  0.00000000000E+00  0.89447494002E+03  0.89447494003E+03  0.50400001928E-02 0.  1.
       -1   -1    0    0    0  501  0.00000000000E+00  0.00000000000E+00 -0.11043213991E+04  0.11043213991E+04  0.50400001928E-02 0. -1.
    10030    2    1    2    0    0  0.00000000000E+00  0.00000000000E+00 -0.20984645910E+03  0.19987963392E+04  0.19877503035E+04 0.  0.
        1    1    3    3  502    0 -0.98724657923E+03  0.20644439756E+02 -0.21826969983E+03  0.10112980090E+04  0.50400001928E-02 0. -1.
       -1    1    3    3    0  502  0.98724657923E+03 -0.20644439756E+02  0.84232407281E+01  0.98749833018E+03  0.50400001928E-02 0.  1.
</event>
<event>
 5   0  0.1782172E-04  0.1947587E+04  0.7818609E-02  0.8631525E-01
        2   -1    0    0  501    0  0.00000000000E+00  0.00000000000E+00  0.15140615757E+04  0.15140615757E+04  0.25500000920E-02 0.  1.
       -2   -1    0    0    0  501  0.00000000000E+00  0.00000000000E+00 -0.62631119388E+03  0.62631119389E+03  0.25500000920E-02 0. -1.
    10030    2    1    2    0    0  0.00000000000E+00  0.00000000000E+00  0.88775038185E+03  0.21403727696E+04  0.19475869307E+04 0.  0.
        2    1    3    3  502    0  0.61789296039E+03 -0.21018839635E+03 -0.35036847406E+03  0.74076240461E+03  0.25500000920E-02 0. -1.
       -2    1    3    3    0  502 -0.61789296039E+03  0.21018839635E+03  0.12381188559E+04  0.13996103650E+04  0.25500000920E-02 0.  1.
</event>
<event>
 5   0  0.8577422E-05  0.1999337E+04  0.7818609E-02  0.8606931E-01
        1   -1    0    0  501    0  0.00000000000E+00  0.00000000000E+00  0.12704312891E+04  0.12704312891E+04  0.50400001928E-02 0. -1.
       -1   -1    0    0    0  501  0.00000000000E+00  0.00000000000E+00 -0.78661220261E+03  0.78661220263E+03  0.50400001928E-02 0.  1.
    10030    2    1    2    0    0  0.00000000000E+00  0.00000000000E+00  0.48381908651E+03  0.20570434918E+04  0.19993366446E+04 0.  0.
        2    1    3    3  502    0  0.38975883393E+03 -0.89565044706E+03  0.23085397214E+02  0.97705404534E+03  0.25500000920E-02 0.  1.
       -2    1    3    3    0  502 -0.38975883393E+03  0.89565044706E+03  0.46073368929E+03  0.10799894464E+04  0.25500000920E-02 0. -1.
</event>
<event>
 5   0  0.1812865E-04  0.1943490E+04  0.7818609E-02  0.8633507E-01
        2   -1    0    0  501    0  0.00000000000E+00  0.00000000000E+00  0.13690515564E+04  0.13690515564E+04  0.25500000920E-02 0.  1.
       -2   -1    0    0    0  501  0.00000000000E+00  0.00000000000E+00 -0.68973884613E+03  0.68973884613E+03  0.25500000920E-02 0. -1.
    10030    2    1    2    0    0  0.00000000000E+00  0.00000000000E+00  0.67931271028E+03  0.20587904025E+04  0.19434896869E+04 0.  0.
        3    1    3    3  502    0  0.39010507268E+03 -0.64856675218E+03 -0.30598322851E+03  0.81636177403E+03  0.10100000352E+00 0. -1.
       -3    1    3    3    0  502 -0.39010507268E+03  0.64856675218E+03  0.98529593879E+03  0.12424286285E+04  0.10100000352E+00 0.  1.
</event>
<event>
 5   0  0.1807498E-04  0.1991148E+04  0.7818609E-02  0.8610771E-01
        2   -1    0    0  501    0  0.00000000000E+00  0.00000000000E+00  0.17587935178E+04  0.17587935178E+04  0.25500000920E-02 0.  1.
       -2   -1    0    0    0  501  0.00000000000E+00  0.00000000000E+00 -0.56354945120E+03  0.56354945121E+03  0.25500000920E-02 0. -1.
    10030    2    1    2    0    0  0.00000000000E+00  0.00000000000E+00  0.11952440666E+04  0.23223429691E+04  0.19911475302E+04 0.  0.
        5    1    3    3  502    0  0.91676272873E+03 -0.30286328864E+03  0.31440464076E+03  0.10154075244E+04  0.46999998093E+01 0. -1.
       -5    1    3    3    0  502 -0.91676272873E+03  0.30286328864E+03  0.88083942588E+03  0.13069354447E+04  0.46999998093E+01 0.  1.
</event>
<event>
 5   0  0.8577422E-05  0.1791714E+04  0.7818609E-02  0.8710718E-01
        1   -1    0    0  501    0  0.00000000000E+00  0.00000000000E+00  0.11071313059E+04  0.11071313059E+04  0.50400001928E-02 0.  1.
       -1   -1    0    0    0  501  0.00000000000E+00  0.00000000000E+00 -0.72490026922E+03  0.72490026923E+03  0.50400001928E-02 0. -1.
    10030    2    1    2    0    0  0.00000000000E+00  0.00000000000E+00  0.38223103671E+03  0.18320315752E+04  0.17917140193E+04 0.  0.
        2    1    3    3  502    0 -0.14935825914E+03 -0.37652395142E+03  0.10081463732E+04  0.10864793074E+04  0.25500000920E-02 0.  1.
       -2    1    3    3    0  502  0.14935825914E+03  0.37652395142E+03 -0.62591533648E+03  0.74555226780E+03  0.25500000920E-02 0. -1.
</event>
<event>
 5   0  0.1812865E-04  0.1820523E+04  0.7818609E-02  0.8695461E-01
       -2   -1    0    0    0  501  0.00000000000E+00  0.00000000000E+00  0.13521116412E+04  0.13521116412E+04  0.25500000920E-02 0.  1.
        2   -1    0    0  501    0  0.00000000000E+00  0.00000000000E+00 -0.61280123629E+03  0.61280123630E+03  0.25500000920E-02 0. -1.
    10030    2    1    2    0    0  0.00000000000E+00  0.00000000000E+00  0.73931040491E+03  0.19649128775E+04  0.18205226561E+04 0.  0.
        3    1    3    3  502    0  0.67242142460E+03 -0.25219939419E+02  0.10312914286E+04  0.12314010876E+04  0.10100000352E+00 0.  1.
       -3    1    3    3    0  502 -0.67242142460E+03  0.25219939419E+02 -0.29198102366E+03  0.73351178994E+03  0.10100000352E+00 0. -1.
</event>
<event>
 5   0  0.1834645E-04  0.2075198E+04  0.7818609E-02  0.8572248E-01
        2   -1    0    0  501    0  0.00000000000E+00  0.00000000000E+00  0.17499505341E+04  0.17499505341E+04  0.25500000920E-02 0.  1.
       -2   -1    0    0    0  501  0.00000000000E+00  0.00000000000E+00 -0.61522381243E+03  0.61522381244E+03  0.25500000920E-02 0. -1.
    10030    2    1    2    0    0  0.00000000000E+00  0.00000000000E+00  0.11347267216E+04  0.23651743465E+04  0.20751975705E+04 0.  0.
        1    1    3    3  502    0  0.21543667815E+02  0.19304738424E+03  0.17290429640E+04  0.17399198238E+04  0.50400001928E-02 0.  1.
       -1    1    3    3    0  502 -0.21543667815E+02 -0.19304738424E+03 -0.59431624232E+03  0.62525452265E+03  0.50400001928E-02 0. -1.
</event>
<event>
 5   0  0.8881384E-05  0.1996408E+04  0.7818609E-02  0.8608302E-01
        1   -1    0    0  501    0  0.00000000000E+00  0.00000000000E+00  0.65159903781E+03  0.65159903783E+03  0.50400001928E-02 0.  1.
       -1   -1    0    0    0  501  0.00000000000E+00  0.00000000000E+00 -0.15291789079E+04  0.15291789079E+04  0.50400001928E-02 0. -1.
    10030    2    1    2    0    0  0.00000000000E+00  0.00000000000E+00 -0.87757987013E+03  0.21807779458E+04  0.19964082800E+04 0.  0.
        5    1    3    3  502    0 -0.71368537767E+03  0.38046735380E+03  0.20029327330E+03  0.83321168435E+03  0.46999998093E+01 0.  1.
       -5    1    3    3    0  502  0.71368537767E+03 -0.38046735380E+03 -0.10778731434E+04  0.13475662614E+04  0.46999998093E+01 0. -1.
</event>
<event>
 5   0  0.1812865E-04  0.1974606E+04  0.7818609E-02  0.8618586E-01
       -2   -1    0    0    0  501  0.00000000000E+00  0.00000000000E+00  0.10012743306E+04  0.10012743306E+04  0.25500000920E-02 0.  1.
        2   -1    0    0  501    0  0.00000000000E+00  0.00000000000E+00 -0.97352704458E+03  0.97352704458E+03  0.25500000920E-02 0. -1.
    10030    2    1    2    0    0  0.00000000000E+00  0.00000000000E+00  0.27747286044E+02  0.19748013752E+04  0.19746064316E+04 0.  0.
        3    1    3    3  502    0  0.54497263880E+03 -0.19363101565E+03 -0.78638001193E+03  0.97615658612E+03  0.10100000352E+00 0.  1.
       -3    1    3    3    0  502 -0.54497263880E+03  0.19363101565E+03  0.81412729797E+03  0.99864478908E+03  0.10100000352E+00 0. -1.
</event>
<event>
 5   0  0.8958919E-05  0.1985984E+04  0.7818609E-02  0.8613202E-01
        1   -1    0    0  501    0  0.00000000000E+00  0.00000000000E+00  0.10639280460E+04  0.10639280460E+04  0.50400001928E-02 0. -1.
       -1   -1    0    0    0  501  0.00000000000E+00  0.00000000000E+00 -0.92678555343E+03  0.92678555344E+03  0.50400001928E-02 0.  1.
    10030    2    1    2    0    0  0.00000000000E+00  0.00000000000E+00  0.13714249254E+03  0.19907135994E+04  0.19859840311E+04 0.  0.
        4    1    3    3  502    0 -0.18753349051E+03  0.61294589190E+03  0.82877041253E+03  0.10477277729E+04  0.12699999809E+01 0. -1.
       -4    1    3    3    0  502  0.18753349051E+03 -0.61294589190E+03 -0.69162791999E+03  0.94298582655E+03  0.12699999809E+01 0.  1.
</event>
<event>
 5   0  0.8861350E-05  0.2050430E+04  0.7818609E-02  0.8583399E-01
        1   -1    0    0  501    0  0.00000000000E+00  0.00000000000E+00  0.10413477191E+04  0.10413477191E+04  0.50400001928E-02 0. -1.
       -1   -1    0    0    0  501  0.00000000000E+00  0.00000000000E+00 -0.10093322443E+04  0.10093322443E+04  0.50400001928E-02 0.  1.
    10030    2    1    2    0    0  0.00000000000E+00  0.00000000000E+00  0.32015474798E+02  0.20506799635E+04  0.20504300334E+04 0.  0.
        1    1    3    3  502    0  0.17852557267E+03  0.26758929924E+02 -0.99331218858E+03  0.10095823515E+04  0.50400001928E-02 0.  1.
       -1    1    3    3    0  502 -0.17852557267E+03 -0.26758929924E+02  0.10253276634E+04  0.10410976120E+04  0.50400001928E-02 0. -1.
</event>
<event>
 5   0  0.8765057E-05  0.2088425E+04  0.7818609E-02  0.8566360E-01
       -1   -1    0    0    0  501  0.00000000000E+00  0.00000000000E+00  0.14013013736E+04  0.14013013737E+04  0.50400001928E-02 0.  1.
        1   -1    0    0  501    0  0.00000000000E+00  0.00000000000E+00 -0.77811902276E+03  0.77811902278E+03  0.50400001928E-02 0. -1.
    10030    2    1    2    0    0  0.00000000000E+00  0.00000000000E+00  0.62318235088E+03  0.21794203964E+04  0.20884245311E+04 0.  0.
        3    1    3    3  502    0  0.63685972549E+03 -0.38012775924E+03 -0.45548134008E+03  0.87037387636E+03  0.10100000352E+00 0. -1.
       -3    1    3    3    0  502 -0.63685972549E+03  0.38012775924E+03  0.10786636910E+04  0.13090465201E+04  0.10100000352E+00 0.  1.
</event>
<event>
 5   0  0.1893687E-04  0.2024309E+04  0.7818609E-02  0.8595339E-01
       -2   -1    0    0    0  501  0.00000000000E+00  0.00000000000E+00  0.45495554468E+03  0.45495554469E+03  0.25500000920E-02 0.  1.
        2   -1    0    0  501    0  0.00000000000E+00  0.00000000000E+00 -0.22517737476E+04  0.22517737476E+04  0.25500000920E-02 0. -1.
    10030    2    1    2    0    0  0.00000000000E+00  0.00000000000E+00 -0.17968182029E+04  0.27067292923E+04  0.20243092173E+04 0.  0.
        4    1    3    3  502    0 -0.45460329289E+03 -0.89979638049E+03 -0.10191767851E+04  0.14335343081E+04  0.12699999809E+01 0. -1.
       -4    1    3    3    0  502  0.45460329289E+03  0.89979638049E+03 -0.77764141786E+03  0.12731949842E+04  0.12699999809E+01 0.  1.
</event>
<event>
 5   0  0.1893687E-04  0.1927757E+04  0.7818609E-02  0.8641162E-01
       -2   -1    0    0    0  501  0.00000000000E+00  0.00000000000E+00  0.80886346661E+03  0.80886346662E+03  0.25500000920E-02 0.  1.
        2   -1    0    0  501    0  0.00000000000E+00  0.00000000000E+00 -0.11486013219E+04  0.11486013219E+04  0.25500000920E-02 0. -1.
    10030    2    1    2    0    0  0.00000000000E+00  0.00000000000E+00 -0.33973785529E+03  0.19574647885E+04  0.19277568799E+04 0.  0.
        4    1    3    3  502    0  0.68248761196E+02  0.21401353848E+03 -0.11216506967E+04  0.11439237677E+04  0.12699999809E+01 0. -1.
       -4    1    3    3    0  502 -0.68248761196E+02 -0.21401353848E+03  0.78191284141E+03  0.81354102080E+03  0.12699999809E+01 0.  1.
</event>
<event>
 5   0  0.8577422E-05  0.2081749E+04  0.7818609E-02  0.8569326E-01
        1   -1    0    0  501    0  0.00000000000E+00  0.00000000000E+00  0.13741306112E+04  0.13741306112E+04  0.50400001928E-02 0. -1.
       -1   -1    0    0    0  501  0.00000000000E+00  0.00000000000E+00 -0.78843982747E+03  0.78843982749E+03  0.50400001928E-02 0.  1.
    10030    2    1    2    0    0  0.00000000000E+00  0.00000000000E+00  0.58569078374E+03  0.21625704387E+04  0.20817485939E+04 0.  0.
        2    1    3    3  502    0  0.31697692958E+03 -0.98107464162E+03  0.44135536150E+03  0.11215063002E+04  0.25500000920E-02 0.  1.
       -2    1    3    3    0  502 -0.31697692958E+03  0.98107464162E+03  0.14433542224E+03  0.10410641385E+04  0.25500000920E-02 0. -1.
</event>
<event>
 5   0  0.8881384E-05  0.1491831E+04  0.7818609E-02  0.8889903E-01
        1   -1    0    0  501    0  0.00000000000E+00  0.00000000000E+00  0.14162063772E+04  0.14162063772E+04  0.50400001928E-02 0. -1.
       -1   -1    0    0    0  501  0.00000000000E+00  0.00000000000E+00 -0.39287362907E+03  0.39287362910E+03  0.50400001928E-02 0.  1.
    10030    2    1    2    0    0  0.00000000000E+00  0.00000000000E+00  0.10233327481E+04  0.18090800063E+04  0.14918312759E+04 0.  0.
        5    1    3    3  502    0 -0.21641173458E+03  0.54457345497E+03  0.10712965415E+04  0.12211030491E+04  0.46999998093E+01 0. -1.
       -5    1    3    3    0  502  0.21641173458E+03 -0.54457345497E+03 -0.47963793357E+02  0.58797695720E+03  0.46999998093E+01 0.  1.
</event>
<event>
 5   0  0.8881384E-05  0.1994933E+04  0.7818609E-02  0.8608993E-01
       -1   -1    0    0    0  501  0.00000000000E+00  0.00000000000E+00  0.64391680936E+03  0.64391680938E+03  0.50400001928E-02 0.  1.
        1   -1    0    0  501    0  0.00000000000E+00  0.00000000000E+00 -0.15451371243E+04  0.15451371243E+04  0.50400001928E-02 0. -1.
    10030    2    1    2    0    0  0.00000000000E+00  0.00000000000E+00 -0.90122031491E+03  0.21890539337E+04  0.19949333494E+04 0.  0.
        5    1    3    3  502    0 -0.20775282814E+03 -0.12783342553E+03 -0.15118908148E+04  0.15314498190E+04  0.46999998093E+01 0. -1.
       -5    1    3    3    0  502  0.20775282814E+03  0.12783342553E+03  0.61067049984E+03  0.65760411469E+03  0.46999998093E+01 0.  1.
</event>
<event>
 5   0  0.1782172E-04  0.2012720E+04  0.7818609E-02  0.8600697E-01
        2   -1    0    0  501    0  0.00000000000E+00  0.00000000000E+00  0.67197330890E+03  0.67197330891E+03  0.25500000920E-02 0.  1.
       -2   -1    0    0    0  501  0.00000000000E+00  0.00000000000E+00 -0.15071440762E+04  0.15071440762E+04  0.25500000920E-02 0. -1.
    10030    2    1    2    0    0  0.00000000000E+00  0.00000000000E+00 -0.83517076730E+03  0.21791173851E+04  0.20127201414E+04 0.  0.
        2    1    3    3  502    0 -0.39942886988E+03 -0.66464478501E+03 -0.11120712438E+04  0.13557280567E+04  0.25500000920E-02 0.  1.
       -2    1    3    3    0  502  0.39942886988E+03  0.66464478501E+03  0.27690047648E+03  0.82338932846E+03  0.25500000920E-02 0. -1.
</event>
<event>
 5   0  0.1812865E-04  0.1687574E+04  0.7818609E-02  0.8768483E-01
        2   -1    0    0  501    0  0.00000000000E+00  0.00000000000E+00  0.15035377861E+04  0.15035377861E+04  0.25500000920E-02 0.  1.
       -2   -1    0    0    0  501  0.00000000000E+00  0.00000000000E+00 -0.47353411260E+03  0.47353411261E+03  0.25500000920E-02 0. -1.
    10030    2    1    2    0    0  0.00000000000E+00  0.00000000000E+00  0.10300036735E+04  0.19770718987E+04  0.16875739170E+04 0.  0.
        3    1    3    3  502    0  0.12709675122E+03 -0.15902846923E+03 -0.44433178798E+03  0.48874777361E+03  0.10100000352E+00 0. -1.
       -3    1    3    3    0  502 -0.12709675122E+03  0.15902846923E+03  0.14743354615E+04  0.14883241251E+04  0.10100000352E+00 0.  1.
</event>
<event>
 5   0  0.1834645E-04  0.2035694E+04  0.7818609E-02  0.8590112E-01
        2   -1    0    0  501    0  0.00000000000E+00  0.00000000000E+00  0.17221496668E+04  0.17221496668E+04  0.25500000920E-02 0. -1.
       -2   -1    0    0    0  501  0.00000000000E+00  0.00000000000E+00 -0.60158119398E+03  0.60158119398E+03  0.25500000920E-02 0.  1.
    10030    2    1    2    0    0  0.00000000000E+00  0.00000000000E+00  0.11205684728E+04  0.23237308608E+04  0.20356943315E+04 0.  0.
        1    1    3    3  502    0  0.31070875101E+03  0.16808619236E+03  0.16499288336E+04  0.16873227468E+04  0.50400001928E-02 0. -1.
       -1    1    3    3    0  502 -0.31070875101E+03 -0.16808619236E+03 -0.52936036073E+03  0.63640811399E+03  0.50400001928E-02 0.  1.
</event>
<event>
 5   0  0.1782172E-04  0.1980777E+04  0.7818609E-02  0.8615661E-01
        2   -1    0    0  501    0  0.00000000000E+00  0.00000000000E+00  0.51566400613E+03  0.51566400613E+03  0.25500000920E-02 0. -1.
       -2   -1    0    0    0  501  0.00000000000E+00  0.00000000000E+00 -0.19021488347E+04  0.19021488347E+04  0.25500000920E-02 0.  1.
    10030    2    1    2    0    0  0.00000000000E+00  0.00000000000E+00 -0.13864848286E+04  0.24178128409E+04  0.19807773104E+04 0.  0.
        2    1    3    3  502    0 -0.23652535010E+03 -0.85522687515E+03 -0.12302018405E+04  0.15168235948E+04  0.25500000920E-02 0.  1.
       -2    1    3    3    0  502  0.23652535010E+03  0.85522687515E+03 -0.15628298810E+03  0.90098924611E+03  0.25500000920E-02 0. -1.
</event>
<event>
 5   0  0.1812865E-04  0.2002112E+04  0.7818609E-02  0.8605634E-01
        2   -1    0    0  501    0  0.00000000000E+00  0.00000000000E+00  0.96803805765E+03  0.96803805765E+03  0.25500000920E-02 0.  1.
       -2   -1    0    0    0  501  0.00000000000E+00  0.00000000000E+00 -0.10352004020E+04  0.10352004020E+04  0.25500000920E-02 0. -1.
    10030    2    1    2    0    0  0.00000000000E+00  0.00000000000E+00 -0.67162344377E+02  0.20032384597E+04  0.20021122710E+04 0.  0.
        3    1    3    3  502    0  0.75713669057E+01 -0.35886957398E+03  0.90143293655E+03  0.97027111985E+03  0.10100000352E+00 0.  1.
       -3    1    3    3    0  502 -0.75713669057E+01  0.35886957398E+03 -0.96859528092E+03  0.10329673398E+04  0.10100000352E+00 0. -1.
</event>
<event>
 5   0  0.8765057E-05  0.1948158E+04  0.7818609E-02  0.8631250E-01
       -1   -1    0    0    0  501  0.00000000000E+00  0.00000000000E+00  0.67261300111E+03  0.67261300113E+03  0.50400001928E-02 0.  1.
        1   -1    0    0  501    0  0.00000000000E+00  0.00000000000E+00 -0.14106622228E+04  0.14106622228E+04  0.50400001928E-02 0. -1.
    10030    2    1    2    0    0  0.00000000000E+00  0.00000000000E+00 -0.73804922167E+03  0.20832752239E+04  0.19481578491E+04 0.  0.
        3    1    3    3  502    0  0.78287842250E+03  0.29273760202E+03 -0.90395496056E+03  0.12311492635E+04  0.10100000352E+00 0. -1.
       -3    1    3    3    0  502 -0.78287842250E+03 -0.29273760202E+03  0.16590573889E+03  0.85212596043E+03  0.10100000352E+00 0.  1.
</event>
<event>
 5   0  0.1807498E-04  0.1832950E+04  0.7818609E-02  0.8688971E-01
        2   -1    0    0  501    0  0.00000000000E+00  0.00000000000E+00  0.64080764755E+03  0.64080764755E+03  0.25500000920E-02 0.  1.
       -2   -1    0    0    0  501  0.00000000000E+00  0.00000000000E+00 -0.13107306172E+04  0.13107306172E+04  0.25500000920E-02 0. -1.
    10030    2    1    2    0    0  0.00000000000E+00  0.00000000000E+00 -0.66992296965E+03  0.19515382648E+04  0.18329497575E+04 0.  0.
        5    1    3    3  502    0 -0.76264883617E+03  0.50669810277E+03 -0.29334419514E+03  0.96148277233E+03  0.46999998093E+01 0. -1.
       -5    1    3    3    0  502  0.76264883617E+03 -0.50669810277E+03 -0.37657877451E+03  0.99005549242E+03  0.46999998093E+01 0.  1.
</event>
<event>
 5   0  0.8881384E-05  0.1987090E+04  0.7818609E-02  0.8612680E-01
        1   -1    0    0  501    0  0.00000000000E+00  0.00000000000E+00  0.18030894821E+04  0.18030894821E+04  0.50400001928E-02 0. -1.
       -1   -1    0    0    0  501  0.00000000000E+00  0.00000000000E+00 -0.54746688283E+03  0.54746688285E+03  0.50400001928E-02 0.  1.
    10030    2    1    2    0    0  0.00000000000E+00  0.00000000000E+00  0.12556225993E+04  0.23505563650E+04  0.19870901120E+04 0.  0.
        5    1    3    3  502    0  0.29063138734E+02  0.70766441572E+03  0.14520196940E+04  0.16155546642E+04  0.46999998093E+01 0. -1.
       -5    1    3    3    0  502 -0.29063138734E+02 -0.70766441572E+03 -0.19639709472E+03  0.73500170076E+03  0.46999998093E+01 0.  1.
</event>
<event>
 5   0  0.8765057E-05  0.2009192E+04  0.7818609E-02  0.8602335E-01
       -1   -1    0    0    0  501  0.00000000000E+00  0.00000000000E+00  0.90831282577E+03  0.90831282579E+03  0.50400001928E-02 0.  1.
        1   -1    0    0  501    0  0.00000000000E+00  0.00000000000E+00 -0.11110857353E+04  0.11110857353E+04  0.50400001928E-02 0. -1.
    10030    2    1    2    0    0  0.00000000000E+00  0.00000000000E+00 -0.20277290948E+03  0.20193985611E+04  0.20091922993E+04 0.  0.
        3    1    3    3  502    0  0.15610210266E+03 -0.64835696953E+02 -0.10966904691E+04  0.11096402702E+04  0.10100000352E+00 0. -1.
       -3    1    3    3    0  502 -0.15610210266E+03  0.64835696953E+02  0.89391755965E+03  0.90975829082E+03  0.10100000352E+00 0.  1.
</event>
<event>
 5   0  0.1812865E-04  0.2008240E+04  0.7818609E-02  0.8602778E-01
       -2   -1    0    0    0  501  0.00000000000E+00  0.00000000000E+00  0.65603558282E+03  0.65603558282E+03  0.25500000920E-02 0.  1.
        2   -1    0    0  501    0  0.00000000000E+00  0.00000000000E+00 -0.15368936669E+04  0.15368936669E+04  0.25500000920E-02 0. -1.
    10030    2    1    2    0    0  0.00000000000E+00  0.00000000000E+00 -0.88085808410E+03  0.21929292497E+04  0.20082399583E+04 0.  0.
        3    1    3    3  502    0 -0.98330647067E+03 -0.26514338455E+02 -0.22023530115E+03  0.10080169758E+04  0.10100000352E+00 0.  1.
       -3    1    3    3    0  502  0.98330647067E+03  0.26514338455E+02 -0.66062278294E+03  0.11849122740E+04  0.10100000352E+00 0. -1.
</event>
<event>
 5   0  0.8861350E-05  0.2015710E+04  0.7818609E-02  0.8599311E-01
        1   -1    0    0  501    0  0.00000000000E+00  0.00000000000E+00  0.21792011943E+04  0.21792011943E+04  0.50400001928E-02 0.  1.
       -1   -1    0    0    0  501  0.00000000000E+00  0.00000000000E+00 -0.46612120081E+03  0.46612120084E+03  0.50400001928E-02 0. -1.
    10030    2    1    2    0    0  0.00000000000E+00  0.00000000000E+00  0.17130799935E+04  0.26453223951E+04  0.20157101751E+04 0.  0.
        1    1    3    3  502    0 -0.98030614723E+03 -0.13468943354E+03  0.11077123848E+04  0.14853175126E+04  0.50400001928E-02 0.  1.
       -1    1    3    3    0  502  0.98030614723E+03  0.13468943354E+03  0.60536760865E+03  0.11600048825E+04  0.50400001928E-02 0. -1.
</event>
<event>
 5   0  0.8765057E-05  0.1989884E+04  0.7818609E-02  0.8611365E-01
       -1   -1    0    0    0  501  0.00000000000E+00  0.00000000000E+00  0.59161673197E+03  0.59161673199E+03  0.50400001928E-02 0. -1.
        1   -1    0    0  501    0  0.00000000000E+00  0.00000000000E+00 -0.16732280939E+04  0.16732280939E+04  0.50400001928E-02 0.  1.
    10030    2    1    2    0    0  0.00000000000E+00  0.00000000000E+00 -0.10816113619E+04  0.22648448259E+04  0.19898841542E+04 0.  0.
        3    1    3    3  502    0  0.49812559796E+03  0.42137984444E+03  0.31413259061E+03  0.72413353694E+03  0.10100000352E+00 0. -1.
       -3    1    3    3    0  502 -0.49812559796E+03 -0.42137984444E+03 -0.13957439525E+04  0.15407112889E+04  0.10100000352E+00 0.  1.
</event>
<event>
 5   0  0.8577422E-05  0.1968415E+04  0.7818609E-02  0.8621532E-01
        1   -1    0    0  501    0  0.00000000000E+00  0.00000000000E+00  0.16069156229E+04  0.16069156229E+04  0.50400001928E-02 0.  1.
       -1   -1    0    0    0  501  0.00000000000E+00  0.00000000000E+00 -0.60280964183E+03  0.60280964185E+03  0.50400001928E-02 0. -1.
    10030    2    1    2    0    0  0.00000000000E+00  0.00000000000E+00  0.10041059811E+04  0.22097252647E+04  0.19684148253E+04 0.  0.
        2    1    3    3  502    0 -0.86898142648E+03  0.36777198308E+03  0.18796953155E+03  0.96214213913E+03  0.25500000920E-02 0. -1.
       -2    1    3    3    0  502  0.86898142648E+03 -0.36777198308E+03  0.81613644950E+03  0.12475831256E+04  0.25500000920E-02 0.  1.
</event>
<event>
 5   0  0.8881384E-05  0.1974629E+04  0.7818609E-02  0.8618575E-01
       -1   -1    0    0    0  501  0.00000000000E+00  0.00000000000E+00  0.90706666727E+03  0.90706666728E+03  0.50400001928E-02 0.  1.
        1   -1    0    0  501    0  0.00000000000E+00  0.00000000000E+00 -0.10746615579E+04  0.10746615580E+04  0.50400001928E-02 0. -1.
    10030    2    1    2    0    0  0.00000000000E+00  0.00000000000E+00 -0.16759489068E+03  0.19817282252E+04  0.19746287528E+04 0.  0.
        5    1    3    3  502    0  0.82703080584E+03 -0.12859687975E+03  0.44177469247E+03  0.94641644121E+03  0.46999998093E+01 0.  1.
       -5    1    3    3    0  502 -0.82703080584E+03  0.12859687975E+03 -0.60936958315E+03  0.10353117840E+04  0.46999998093E+01 0. -1.
</event>
<event>
 5   0  0.1893687E-04  0.2011784E+04  0.7818609E-02  0.8601131E-01
       -2   -1    0    0    0  501  0.00000000000E+00  0.00000000000E+00  0.76798214703E+03  0.76798214704E+03  0.25500000920E-02 0.  1.
        2   -1    0    0  501    0  0.00000000000E+00  0.00000000000E+00 -0.13175023914E+04  0.13175023914E+04  0.25500000920E-02 0. -1.
    10030    2    1    2    0    0  0.00000000000E+00  0.00000000000E+00 -0.54952024432E+03  0.20854845384E+04  0.20117836019E+04 0.  0.
        4    1    3    3  502    0 -0.90202332949E+03 -0.25100729858E+03 -0.65587803672E+03  0.11431659385E+04  0.12699999809E+01 0. -1.
       -4    1    3    3    0  502  0.90202332949E+03  0.25100729858E+03  0.10635779240E+03  0.94231859994E+03  0.12699999809E+01 0.  1.
</event>
<event>
 5   0  0.1834645E-04  0.2001105E+04  0.7818609E-02  0.8606104E-01
       -2   -1    0    0    0  501  0.00000000000E+00  0.00000000000E+00  0.11679973179E+04  0.11679973179E+04  0.25500000920E-02 0. -1.
        2   -1    0    0  501    0  0.00000000000E+00  0.00000000000E+00 -0.85711227647E+03  0.85711227647E+03  0.25500000920E-02 0.  1.
    10030    2    1    2    0    0  0.00000000000E+00  0.00000000000E+00  0.31088504147E+03  0.20251095944E+04  0.20011045351E+04 0.  0.
        1    1    3    3  502    0 -0.72260686337E+03  0.60766504748E+03  0.49060626188E+03  0.10640075155E+04  0.50400001928E-02 0.  1.
       -1    1    3    3    0  502  0.72260686337E+03 -0.60766504748E+03 -0.17972122041E+03  0.96110207887E+03  0.50400001928E-02 0. -1.
</event>
<event>
 5   0  0.8958919E-05  0.1995426E+04  0.7818609E-02  0.8608762E-01
        1   -1    0    0  501    0  0.00000000000E+00  0.00000000000E+00  0.10000836052E+04  0.10000836052E+04  0.50400001928E-02 0.  1.
       -1   -1    0    0    0  501  0.00000000000E+00  0.00000000000E+00 -0.99534806813E+03  0.99534806814E+03  0.50400001928E-02 0. -1.
    10030    2    1    2    0    0  0.00000000000E+00  0.00000000000E+00  0.47355370479E+01  0.19954316733E+04  0.19954260542E+04 0.  0.
        4    1    3    3  502    0 -0.81800750889E+03  0.13643932382E+03 -0.55232082039E+03  0.99639945566E+03  0.12699999809E+01 0. -1.
       -4    1    3    3    0  502  0.81800750889E+03 -0.13643932382E+03  0.55705635744E+03  0.99903221768E+03  0.12699999809E+01 0.  1.
</event>
<event>
 5   0  0.1782172E-04  0.1995850E+04  0.7818609E-02  0.8608563E-01
        2   -1    0    0  501    0  0.00000000000E+00  0.00000000000E+00  0.10944853263E+04  0.10944853263E+04  0.25500000920E-02 0.  1.
       -2   -1    0    0    0  501  0.00000000000E+00  0.00000000000E+00 -0.90988345160E+03  0.90988345161E+03  0.25500000920E-02 0. -1.
    10030    2    1    2    0    0  0.00000000000E+00  0.00000000000E+00  0.18460187474E+03  0.20043687779E+04  0.19958497804E+04 0.  0.
        2    1    3    3  502    0 -0.51818445382E+03 -0.84939027106E+03  0.15324402004E+02  0.99509486887E+03  0.25500000920E-02 0.  1.
       -2    1    3    3    0  502  0.51818445382E+03  0.84939027106E+03  0.16927747273E+03  0.10092739091E+04  0.25500000920E-02 0. -1.
</event>
<event>
 5   0  0.8881384E-05  0.2010830E+04  0.7818609E-02  0.8601574E-01
        1   -1    0    0  501    0  0.00000000000E+00  0.00000000000E+00  0.82606785930E+03  0.82606785931E+03  0.50400001928E-02 0.  1.
       -1   -1    0    0    0  501  0.00000000000E+00  0.00000000000E+00 -0.12237006000E+04  0.12237006000E+04  0.50400001928E-02 0. -1.
    10030    2    1    2    0    0  0.00000000000E+00  0.00000000000E+00 -0.39763274067E+03  0.20497684593E+04  0.20108304106E+04 0.  0.
        5    1    3    3  502    0 -0.12454820816E+03  0.93161384688E+03 -0.56268944113E+03  0.10954716395E+04  0.46999998093E+01 0. -1.
       -5    1    3    3    0  502  0.12454820816E+03 -0.93161384688E+03  0.16505670046E+03  0.95429681977E+03  0.46999998093E+01 0.  1.
</event>
<event>
 5   0  0.1782172E-04  0.1970317E+04  0.7818609E-02  0.8620625E-01
       -2   -1    0    0    0  501  0.00000000000E+00  0.00000000000E+00  0.44885987679E+03  0.44885987679E+03  0.25500000920E-02 0.  1.
        2   -1    0    0  501    0  0.00000000000E+00  0.00000000000E+00 -0.21622282837E+04  0.21622282837E+04  0.25500000920E-02 0. -1.
    10030    2    1    2    0    0  0.00000000000E+00  0.00000000000E+00 -0.17133684070E+04  0.26110881605E+04  0.19703172547E+04 0.  0.
        2    1    3    3  502    0  0.58527469867E+03 -0.31151650203E+03  0.10894764454E+03  0.67190668489E+03  0.25500000920E-02 0.  1.
       -2    1    3    3    0  502 -0.58527469867E+03  0.31151650203E+03 -0.18223160515E+04  0.19391814757E+04  0.25500000920E-02 0. -1.
</event>
<event>
 5   0  0.8958919E-05  0.1990167E+04  0.7818609E-02  0.8611232E-01
        1   -1    0    0  501    0  0.00000000000E+00  0.00000000000E+00  0.16756398159E+04  0.16756398159E+04  0.50400001928E-02 0. -1.
       -1   -1    0    0    0  501  0.00000000000E+00  0.00000000000E+00 -0.59093291771E+03  0.59093291773E+03  0.50400001928E-02 0.  1.
    10030    2    1    2    0    0  0.00000000000E+00  0.00000000000E+00  0.10847068982E+04  0.22665727337E+04  0.19901665513E+04 0.  0.
        4    1    3    3  502    0  0.28098491277E+03 -0.49221752382E+03 -0.38914004424E+03  0.68750432645E+03  0.12699999809E+01 0.  1.
       -4    1    3    3    0  502 -0.28098491277E+03  0.49221752382E+03  0.14738469425E+04  0.15790684072E+04  0.12699999809E+01 0. -1.
</event>
<event>
 5   0  0.8958919E-05  0.2166510E+04  0.7818609E-02  0.8532498E-01
       -1   -1    0    0    0  501  0.00000000000E+00  0.00000000000E+00  0.69394835037E+03  0.69394835039E+03  0.50400001928E-02 0.  1.
        1   -1    0    0  501    0  0.00000000000E+00  0.00000000000E+00 -0.16909629406E+04  0.16909629406E+04  0.50400001928E-02 0. -1.
    10030    2    1    2    0    0  0.00000000000E+00  0.00000000000E+00 -0.99701459025E+03  0.23849112910E+04  0.21665095829E+04 0.  0.
        4    1    3    3  502    0  0.89811817728E+03  0.43850025830E+03 -0.95840351451E+03  0.13847157277E+04  0.12699999809E+01 0. -1.
       -4    1    3    3    0  502 -0.89811817728E+03 -0.43850025830E+03 -0.38611075738E+02  0.10001955634E+04  0.12699999809E+01 0.  1.
</event>
<event>
 5   0  0.8577422E-05  0.2004420E+04  0.7818609E-02  0.8604557E-01
       -1   -1    0    0    0  501  0.00000000000E+00  0.00000000000E+00  0.94069792535E+03  0.94069792536E+03  0.50400001928E-02 0. -1.
        1   -1    0    0  501    0  0.00000000000E+00  0.00000000000E+00 -0.10677438636E+04  0.10677438636E+04  0.50400001928E-02 0.  1.
    10030    2    1    2    0    0  0.00000000000E+00  0.00000000000E+00 -0.12704593826E+03  0.20084417890E+04  0.20044195542E+04 0.  0.
        2    1    3    3  502    0 -0.86702793000E+03  0.19533428290E+03 -0.52762789397E+03  0.10335783028E+04  0.25500000920E-02 0.  1.
       -2    1    3    3    0  502  0.86702793000E+03 -0.19533428290E+03  0.40058195571E+03  0.97486348620E+03  0.25500000920E-02 0. -1.
</event>
<event>
 5   0  0.1782172E-04  0.1972106E+04  0.7818609E-02  0.8619774E-01
       -2   -1    0    0    0  501  0.00000000000E+00  0.00000000000E+00  0.49350609081E+03  0.49350609082E+03  0.25500000920E-02 0.  1.
        2   -1    0    0  501    0  0.00000000000E+00  0.00000000000E+00 -0.19701895724E+04  0.19701895724E+04  0.25500000920E-02 0. -1.
    10030    2    1    2    0    0  0.00000000000E+00  0.00000000000E+00 -0.14766834815E+04  0.24636956632E+04  0.19721060357E+04 0.  0.
        2    1    3    3  502    0 -0.92140378792E+02  0.24491433130E+03  0.44933872722E+03  0.51997901002E+03  0.25500000920E-02 0.  1.
       -2    1    3    3    0  502  0.92140378792E+02 -0.24491433130E+03 -0.19260222088E+04  0.19437166532E+04  0.25500000920E-02 0. -1.
</event>
<event>
 5   0  0.6531625E-05  0.1974653E+04  0.7818609E-02  0.8618564E-01
        3   -1    0    0  501    0  0.00000000000E+00  0.00000000000E+00  0.46899801270E+03  0.46899802358E+03  0.10100000352E+00 0. -1.
       -3   -1    0    0    0  501  0.00000000000E+00  0.00000000000E+00 -0.20785031953E+04  0.20785031977E+04  0.10100000352E+00 0.  1.
    10030    2    1    2    0    0  0.00000000000E+00  0.00000000000E+00 -0.16095051826E+04  0.25475012213E+04  0.19746532708E+04 0.  0.
        4    1    3    3  502    0 -0.23165420628E+03  0.87172745494E+03 -0.28671683376E+03  0.94645685726E+03  0.12699999809E+01 0. -1.
       -4    1    3    3    0  502  0.23165420628E+03 -0.87172745494E+03 -0.13227883488E+04  0.16010443641E+04  0.12699999809E+01 0.  1.
</event>
<event>
 5   0  0.1807498E-04  0.2000681E+04  0.7818609E-02  0.8606302E-01
       -2   -1    0    0    0  501  0.00000000000E+00  0.00000000000E+00  0.88300152575E+03  0.88300152575E+03  0.25500000920E-02 0.  1.
        2   -1    0    0  501    0  0.00000000000E+00  0.00000000000E+00 -0.11332722610E+04  0.11332722610E+04  0.25500000920E-02 0. -1.
    10030    2    1    2    0    0  0.00000000000E+00  0.00000000000E+00 -0.25027073528E+03  0.20162737868E+04  0.20006810196E+04 0.  0.
        5    1    3    3  502    0  0.76564168733E+03  0.78354661361E+02  0.51883804331E+03  0.92820345373E+03  0.46999998093E+01 0.  1.
       -5    1    3    3    0  502 -0.76564168733E+03 -0.78354661361E+02 -0.76910877859E+03  0.10880703330E+04  0.46999998093E+01 0. -1.
</event>
<event>
 5   0  0.1807498E-04  0.2297034E+04  0.7818609E-02  0.8479092E-01
        2   -1    0    0  501    0  0.00000000000E+00  0.00000000000E+00  0.73342353299E+03  0.73342353300E+03  0.25500000920E-02 0.  1.
       -2   -1    0    0    0  501  0.00000000000E+00  0.00000000000E+00 -0.17985391038E+04  0.17985391038E+04  0.25500000920E-02 0. -1.
    10030    2    1    2    0    0  0.00000000000E+00  0.00000000000E+00 -0.10651155709E+04  0.25319626368E+04  0.22970336556E+04 0.  0.
        5    1    3    3  502    0 -0.71492911135E+02  0.11330836088E+04 -0.34138659418E+03  0.11855617224E+04  0.46999998093E+01 0.  1.
       -5    1    3    3    0  502  0.71492911135E+02 -0.11330836088E+04 -0.72372897668E+03  0.13464009145E+04  0.46999998093E+01 0. -1.
</event>
<event>
 5   0  0.1893687E-04  0.1861023E+04  0.7818609E-02  0.8674505E-01
       -2   -1    0    0    0  501  0.00000000000E+00  0.00000000000E+00  0.82480628176E+03  0.82480628177E+03  0.25500000920E-02 0.  1.
        2   -1    0    0  501    0  0.00000000000E+00  0.00000000000E+00 -0.10497635157E+04  0.10497635157E+04  0.25500000920E-02 0. -1.
    10030    2    1    2    0    0  0.00000000000E+00  0.00000000000E+00 -0.22495723390E+03  0.18745697974E+04  0.18610228823E+04 0.  0.
        4    1    3    3  502    0 -0.19996897319E+03 -0.68708336438E+03 -0.71160134923E+03  0.10091824577E+04  0.12699999809E+01 0. -1.
       -4    1    3    3    0  502  0.19996897319E+03  0.68708336438E+03  0.48664411533E+03  0.86538733971E+03  0.12699999809E+01 0.  1.
</event>
<event>
 5   0  0.8958919E-05  0.2005836E+04  0.7818609E-02  0.8603897E-01
        1   -1    0    0  501    0  0.00000000000E+00  0.00000000000E+00  0.13694737439E+04  0.13694737439E+04  0.50400001928E-02 0.  1.
       -1   -1    0    0    0  501  0.00000000000E+00  0.00000000000E+00 -0.73447518560E+03  0.73447518562E+03  0.50400001928E-02 0. -1.
    10030    2    1    2    0    0  0.00000000000E+00  0.00000000000E+00  0.63499855829E+03  0.21039489295E+04  0.20058359676E+04 0.  0.
        4    1    3    3  502    0  0.28122113253E+03  0.31463404873E+03  0.12718165278E+04  0.13399995535E+04  0.12699999809E+01 0.  1.
       -4    1    3    3    0  502 -0.28122113253E+03 -0.31463404873E+03 -0.63681796951E+03  0.76394937606E+03  0.12699999809E+01 0. -1.
</event>
<event>
 5   0  0.8577422E-05  0.2288859E+04  0.7818609E-02  0.8482327E-01
       -1   -1    0    0    0  501  0.00000000000E+00  0.00000000000E+00  0.77949525725E+03  0.77949525726E+03  0.50400001928E-02 0.  1.
        1   -1    0    0  501    0  0.00000000000E+00  0.00000000000E+00 -0.16802146949E+04  0.16802146949E+04  0.50400001928E-02 0. -1.
    10030    2    1    2    0    0  0.00000000000E+00  0.00000000000E+00 -0.90071943768E+03  0.24597099522E+04  0.22888594416E+04 0.  0.
        2    1    3    3  502    0  0.89660968787E+03 -0.33640014045E+03  0.22302775136E+03  0.98326769740E+03  0.25500000920E-02 0.  1.
       -2    1    3    3    0  502 -0.89660968787E+03  0.33640014045E+03 -0.11237471890E+04  0.14764422548E+04  0.25500000920E-02 0. -1.
</event>
<event>
 5   0  0.1782172E-04  0.1865824E+04  0.7818609E-02  0.8672057E-01
        2   -1    0    0  501    0  0.00000000000E+00  0.00000000000E+00  0.20352644220E+04  0.20352644220E+04  0.25500000920E-02 0. -1.
       -2   -1    0    0    0  501  0.00000000000E+00  0.00000000000E+00 -0.42762260264E+03  0.42762260265E+03  0.25500000920E-02 0.  1.
    10030    2    1    2    0    0  0.00000000000E+00  0.00000000000E+00  0.16076418194E+04  0.24628870247E+04  0.18658242888E+04 0.  0.
        2    1    3    3  502    0 -0.11748649475E+03 -0.36766237888E+03  0.19249243186E+04  0.19632402638E+04  0.25500000920E-02 0. -1.
       -2    1    3    3    0  502  0.11748649475E+03  0.36766237888E+03 -0.31728249920E+03  0.49964676082E+03  0.25500000920E-02 0.  1.
</event>
<event>
 5   0  0.8577422E-05  0.2019597E+04  0.7818609E-02  0.8597513E-01
       -1   -1    0    0    0  501  0.00000000000E+00  0.00000000000E+00  0.70476195607E+03  0.70476195609E+03  0.50400001928E-02 0.  1.
        1   -1    0    0  501    0  0.00000000000E+00  0.00000000000E+00 -0.14468609230E+04  0.14468609231E+04  0.50400001928E-02 0. -1.
    10030    2    1    2    0    0  0.00000000000E+00  0.00000000000E+00 -0.74209896697E+03  0.21516228791E+04  0.20195965283E+04 0.  0.
        2    1    3    3  502    0 -0.53924255130E+03  0.32373924003E+03  0.47059686171E+03  0.78552595815E+03  0.25500000920E-02 0.  1.
       -2    1    3    3    0  502  0.53924255130E+03 -0.32373924003E+03 -0.12126958287E+04  0.13660969210E+04  0.25500000920E-02 0. -1.
</event>
<event>
 5   0  0.1812865E-04  0.2009229E+04  0.7818609E-02  0.8602318E-01
        2   -1    0    0  501    0  0.00000000000E+00  0.00000000000E+00  0.17483264388E+04  0.17483264388E+04  0.25500000920E-02 0.  1.
       -2   -1    0    0    0  501  0.00000000000E+00  0.00000000000E+00 -0.57726661299E+03  0.57726661300E+03  0.25500000920E-02 0. -1.
    10030    2    1    2    0    0  0.00000000000E+00  0.00000000000E+00  0.11710598258E+04  0.23255930518E+04  0.20092291872E+04 0.  0.
        3    1    3    3  502    0 -0.79323109763E+03 -0.33442742276E+03 -0.13885796751E+02  0.86095882648E+03  0.10100000352E+00 0. -1.
       -3    1    3    3    0  502  0.79323109763E+03  0.33442742276E+03  0.11849456225E+04  0.14646342253E+04  0.10100000352E+00 0.  1.
</event>
<event>
 5   0  0.1807498E-04  0.1990424E+04  0.7818609E-02  0.8611111E-01
       -2   -1    0    0    0  501  0.00000000000E+00  0.00000000000E+00  0.67548992742E+03  0.67548992742E+03  0.25500000920E-02 0.  1.
        2   -1    0    0  501    0  0.00000000000E+00  0.00000000000E+00 -0.14662643648E+04  0.14662643648E+04  0.25500000920E-02 0. -1.
    10030    2    1    2    0    0  0.00000000000E+00  0.00000000000E+00 -0.79077443735E+03  0.21417542922E+04  0.19904238838E+04 0.  0.
        5    1    3    3  502    0 -0.23276518264E+03 -0.64092289480E+02 -0.14342639222E+04  0.14544492224E+04  0.46999998093E+01 0. -1.
       -5    1    3    3    0  502  0.23276518264E+03  0.64092289480E+02  0.64348948490E+03  0.68730506981E+03  0.46999998093E+01 0.  1.
</event>
<event>
 5   0  0.8881384E-05  0.1991506E+04  0.7818609E-02  0.8610602E-01
       -1   -1    0    0    0  501  0.00000000000E+00  0.00000000000E+00  0.73303469294E+03  0.73303469296E+03  0.50400001928E-02 0.  1.
        1   -1    0    0  501    0  0.00000000000E+00  0.00000000000E+00 -0.13526285474E+04  0.13526285474E+04  0.50400001928E-02 0. -1.
    10030    2    1    2    0    0  0.00000000000E+00  0.00000000000E+00 -0.61959385441E+03  0.20856632403E+04  0.19915056132E+04 0.  0.
        5    1    3    3  502    0  0.38889567793E+03 -0.60321596870E+03 -0.10326415871E+04  0.12575691196E+04  0.46999998093E+01 0. -1.
       -5    1    3    3    0  502 -0.38889567793E+03  0.60321596870E+03  0.41304773272E+03  0.82809412068E+03  0.46999998093E+01 0.  1.
</event>
<event>
 5   0  0.8765057E-05  0.1992056E+04  0.7818609E-02  0.8610344E-01
       -1   -1    0    0    0  501  0.00000000000E+00  0.00000000000E+00  0.45918167915E+03  0.45918167918E+03  0.50400001928E-02 0.  1.
        1   -1    0    0  501    0  0.00000000000E+00  0.00000000000E+00 -0.21605219930E+04  0.21605219930E+04  0.50400001928E-02 0. -1.
    10030    2    1    2    0    0  0.00000000000E+00  0.00000000000E+00 -0.17013403138E+04  0.26197036722E+04  0.19920563412E+04 0.  0.
        3    1    3    3  502    0 -0.79265875782E+03 -0.33901494849E+03 -0.19466901436E+03  0.88381846383E+03  0.10100000352E+00 0.  1.
       -3    1    3    3    0  502  0.79265875782E+03  0.33901494849E+03 -0.15066712995E+04  0.17358852083E+04  0.10100000352E+00 0. -1.
</event>
<event>
 5   0  0.1812865E-04  0.2013454E+04  0.7818609E-02  0.8600356E-01
       -2   -1    0    0    0  501  0.00000000000E+00  0.00000000000E+00  0.42657773910E+03  0.42657773911E+03  0.25500000920E-02 0.  1.
        2   -1    0    0  501    0  0.00000000000E+00  0.00000000000E+00 -0.23758832018E+04  0.23758832018E+04  0.25500000920E-02 0. -1.
    10030    2    1    2    0    0  0.00000000000E+00  0.00000000000E+00 -0.19493054627E+04  0.28024609409E+04  0.20134536345E+04 0.  0.
        3    1    3    3  502    0  0.66188000725E+03 -0.60326114026E+03 -0.33456047460E+03  0.95600202338E+03  0.10100000352E+00 0.  1.
       -3    1    3    3    0  502 -0.66188000725E+03  0.60326114026E+03 -0.16147449881E+04  0.18464589175E+04  0.10100000352E+00 0. -1.
</event>
<event>
 5   0  0.1834645E-04  0.2113866E+04  0.7818609E-02  0.8555160E-01
        2   -1    0    0  501    0  0.00000000000E+00  0.00000000000E+00  0.11491438899E+04  0.11491438899E+04  0.25500000920E-02 0. -1.
       -2   -1    0    0    0  501  0.00000000000E+00  0.00000000000E+00 -0.97212176009E+03  0.97212176010E+03  0.25500000920E-02 0.  1.
    10030    2    1    2    0    0  0.00000000000E+00  0.00000000000E+00  0.17702212981E+03  0.21212656500E+04  0.21138663920E+04 0.  0.
        1    1    3    3  502    0  0.57430224087E+03 -0.81131535942E+03 -0.27198462032E+03  0.10305490333E+04  0.50400001928E-02 0. -1.
       -1    1    3    3    0  502 -0.57430224087E+03  0.81131535942E+03  0.44900675013E+03  0.10907166167E+04  0.50400001928E-02 0.  1.
</event>
<event>
 5   0  0.1834645E-04  0.2050961E+04  0.7818609E-02  0.8583159E-01
        2   -1    0    0  501    0  0.00000000000E+00  0.00000000000E+00  0.11074153920E+04  0.11074153920E+04  0.25500000920E-02 0.  1.
       -2   -1    0    0    0  501  0.00000000000E+00  0.00000000000E+00 -0.94960767025E+03  0.94960767025E+03  0.25500000920E-02 0. -1.
    10030    2    1    2    0    0  0.00000000000E+00  0.00000000000E+00  0.15780772174E+03  0.20570230622E+04  0.20509608971E+04 0.  0.
        1    1    3    3  502    0  0.60037713472E+03  0.75785367062E+03  0.42169656593E+03  0.10548094063E+04  0.50400001928E-02 0.  1.
       -1    1    3    3    0  502 -0.60037713472E+03 -0.75785367062E+03 -0.26388884419E+03  0.10022136559E+04  0.50400001928E-02 0. -1.
</event>
<event>
 5   0  0.1782172E-04  0.1521970E+04  0.7818609E-02  0.8869973E-01
        2   -1    0    0  501    0  0.00000000000E+00  0.00000000000E+00  0.19219349983E+04  0.19219349983E+04  0.25500000920E-02 0.  1.
       -2   -1    0    0    0  501  0.00000000000E+00  0.00000000000E+00 -0.30130991009E+03  0.30130991011E+03  0.25500000920E-02 0. -1.
    10030    2    1    2    0    0  0.00000000000E+00  0.00000000000E+00  0.16206250882E+04  0.22232449084E+04  0.15219698572E+04 0.  0.
        2    1    3    3  502    0  0.30192705709E+03 -0.59749393662E+03  0.28172619089E+03  0.72631164024E+03  0.25500000920E-02 0. -1.
       -2    1    3    3    0  502 -0.30192705709E+03  0.59749393662E+03  0.13388988973E+04  0.14969332681E+04  0.25500000920E-02 0.  1.
</event>
<event>
 5   0  0.8861350E-05  0.2008118E+04  0.7818609E-02  0.8602835E-01
        1   -1    0    0  501    0  0.00000000000E+00  0.00000000000E+00  0.11750368416E+04  0.11750368416E+04  0.50400001928E-02 0.  1.
       -1   -1    0    0    0  501  0.00000000000E+00  0.00000000000E+00 -0.85796005928E+03  0.85796005929E+03  0.50400001928E-02 0. -1.
    10030    2    1    2    0    0  0.00000000000E+00  0.00000000000E+00  0.31707678235E+03  0.20329969009E+04  0.20081182020E+04 0.  0.
        1    1    3    3  502    0  0.85998292592E+03  0.50292330368E+03  0.31960621153E+02  0.99675672237E+03  0.50400001928E-02 0.  1.
       -1    1    3    3    0  502 -0.85998292592E+03 -0.50292330368E+03  0.28511616120E+03  0.10362401786E+04  0.50400001928E-02 0. -1.
</event>
<event>
 5   0  0.1834645E-04  0.1610413E+04  0.7818609E-02  0.8814176E-01
       -2   -1    0    0    0  501  0.00000000000E+00  0.00000000000E+00  0.76361611967E+03  0.76361611967E+03  0.25500000920E-02 0. -1.
        2   -1    0    0  501    0  0.00000000000E+00  0.00000000000E+00 -0.84906226918E+03  0.84906226919E+03  0.25500000920E-02 0.  1.
    10030    2    1    2    0    0  0.00000000000E+00  0.00000000000E+00 -0.85446149516E+02  0.16126783889E+04  0.16104131586E+04 0.  0.
        1    1    3    3  502    0  0.83425466313E+02 -0.69798056787E+03 -0.43598522362E+03  0.82717579558E+03  0.50400001928E-02 0.  1.
       -1    1    3    3    0  502 -0.83425466313E+02  0.69798056787E+03  0.35053907410E+03  0.78550259328E+03  0.50400001928E-02 0. -1.
</event>
<event>
 5   0  0.1893687E-04  0.2016034E+04  0.7818609E-02  0.8599161E-01
        2   -1    0    0  501    0  0.00000000000E+00  0.00000000000E+00  0.13953845895E+04  0.13953845895E+04  0.25500000920E-02 0.  1.
       -2   -1    0    0    0  501  0.00000000000E+00  0.00000000000E+00 -0.72818481784E+03  0.72818481785E+03  0.25500000920E-02 0. -1.
    10030    2    1    2    0    0  0.00000000000E+00  0.00000000000E+00  0.66719977161E+03  0.21235694073E+04  0.20160336040E+04 0.  0.
        4    1    3    3  502    0  0.47842102895E+03 -0.49696208548E+03 -0.44061472730E+03  0.81853585515E+03  0.12699999809E+01 0. -1.
       -4    1    3    3    0  502 -0.47842102895E+03  0.49696208548E+03  0.11078144989E+04  0.13050335522E+04  0.12699999809E+01 0.  1.
</event>
<event>
 5   0  0.1812865E-04  0.1997840E+04  0.7818609E-02  0.8607631E-01
       -2   -1    0    0    0  501  0.00000000000E+00  0.00000000000E+00  0.10966946527E+04  0.10966946527E+04  0.25500000920E-02 0. -1.
        2   -1    0    0  501    0  0.00000000000E+00  0.00000000000E+00 -0.90986225313E+03  0.90986225314E+03  0.25500000920E-02 0.  1.
    10030    2    1    2    0    0  0.00000000000E+00  0.00000000000E+00  0.18683239954E+03  0.20065569058E+04  0.19978399012E+04 0.  0.
        3    1    3    3  502    0  0.64394498802E+03  0.75851196288E+03  0.18232085247E+03  0.10115564487E+04  0.10100000352E+00 0.  1.
       -3    1    3    3    0  502 -0.64394498802E+03 -0.75851196288E+03  0.45115470665E+01  0.99500045713E+03  0.10100000352E+00 0. -1.
</event>
<event>
 5   0  0.8881384E-05  0.2039519E+04  0.7818609E-02  0.8588364E-01
        1   -1    0    0  501    0  0.00000000000E+00  0.00000000000E+00  0.11319512899E+04  0.11319512899E+04  0.50400001928E-02 0. -1.
       -1   -1    0    0    0  501  0.00000000000E+00  0.00000000000E+00 -0.91868723530E+03  0.91868723531E+03  0.50400001928E-02 0.  1.
    10030    2    1    2    0    0  0.00000000000E+00  0.00000000000E+00  0.21326405457E+03  0.20506385252E+04  0.20395187678E+04 0.  0.
        5    1    3    3  502    0 -0.49807223257E+03  0.88391293274E+03  0.20970479821E+03  0.10360387126E+04  0.46999998093E+01 0. -1.
       -5    1    3    3    0  502  0.49807223257E+03 -0.88391293274E+03  0.35592563653E+01  0.10145998126E+04  0.46999998093E+01 0.  1.
</event>
<event>
 5   0  0.8577422E-05  0.2018037E+04  0.7818609E-02  0.8598234E-01
       -1   -1    0    0    0  501  0.00000000000E+00  0.00000000000E+00  0.11359806005E+04  0.11359806005E+04  0.50400001928E-02 0.  1.
        1   -1    0    0  501    0  0.00000000000E+00  0.00000000000E+00 -0.89624628417E+03  0.89624628418E+03  0.50400001928E-02 0. -1.
    10030    2    1    2    0    0  0.00000000000E+00  0.00000000000E+00  0.23973431636E+03  0.20322268847E+04  0.20180370583E+04 0.  0.
        2    1    3    3  502    0  0.52018176575E+03 -0.82424285590E+03 -0.14302986142E+03  0.98510044980E+03  0.25500000920E-02 0.  1.
       -2    1    3    3    0  502 -0.52018176575E+03  0.82424285590E+03  0.38276417778E+03  0.10471264349E+04  0.25500000920E-02 0. -1.
</event>
<event>
 5   0  0.1834645E-04  0.1959181E+04  0.7818609E-02  0.8625946E-01
       -2   -1    0    0    0  501  0.00000000000E+00  0.00000000000E+00  0.10173554833E+04  0.10173554833E+04  0.25500000920E-02 0.  1.
        2   -1    0    0  501    0  0.00000000000E+00  0.00000000000E+00 -0.94322752054E+03  0.94322752054E+03  0.25500000920E-02 0. -1.
    10030    2    1    2    0    0  0.00000000000E+00  0.00000000000E+00  0.74127962783E+02  0.19605830039E+04  0.19591811453E+04 0.  0.
        1    1    3    3  502    0 -0.87574656485E+03  0.38499363653E+03  0.24803594933E+03  0.98826817119E+03  0.50400001928E-02 0.  1.
       -1    1    3    3    0  502  0.87574656485E+03 -0.38499363653E+03 -0.17390798654E+03  0.97231483267E+03  0.50400001928E-02 0. -1.
</event>
<event>
 5   0  0.1893687E-04  0.2010691E+04  0.7818609E-02  0.8601639E-01
       -2   -1    0    0    0  501  0.00000000000E+00  0.00000000000E+00  0.67780365881E+03  0.67780365882E+03  0.25500000920E-02 0. -1.
        2   -1    0    0  501    0  0.00000000000E+00  0.00000000000E+00 -0.14911681246E+04  0.14911681246E+04  0.25500000920E-02 0.  1.
    10030    2    1    2    0    0  0.00000000000E+00  0.00000000000E+00 -0.81336446578E+03  0.21689717834E+04  0.20106906383E+04 0.  0.
        4    1    3    3  502    0  0.58462780100E+03 -0.28818942905E+02 -0.12883978586E+04  0.14151292704E+04  0.12699999809E+01 0.  1.
       -4    1    3    3    0  502 -0.58462780100E+03  0.28818942905E+02  0.47503339280E+03  0.75384251296E+03  0.12699999809E+01 0. -1.
</event>
<event>
 5   0  0.1812865E-04  0.1964892E+04  0.7818609E-02  0.8623213E-01
        2   -1    0    0  501    0  0.00000000000E+00  0.00000000000E+00  0.66880670859E+03  0.66880670859E+03  0.25500000920E-02 0. -1.
       -2   -1    0    0    0  501  0.00000000000E+00  0.00000000000E+00 -0.14431674548E+04  0.14431674548E+04  0.25500000920E-02 0.  1.
    10030    2    1    2    0    0  0.00000000000E+00  0.00000000000E+00 -0.77436074622E+03  0.21119741634E+04  0.19648919313E+04 0.  0.
        3    1    3    3  502    0  0.62227893089E+03 -0.65979437005E+03 -0.79312910154E+03  0.12048292246E+04  0.10100000352E+00 0.  1.
       -3    1    3    3    0  502 -0.62227893089E+03  0.65979437005E+03  0.18768355327E+02  0.90714493878E+03  0.10100000352E+00 0. -1.
</event>
<event>
 5   0  0.8861350E-05  0.2005613E+04  0.7818609E-02  0.8604001E-01
        1   -1    0    0  501    0  0.00000000000E+00  0.00000000000E+00  0.11827600829E+04  0.11827600830E+04  0.50400001928E-02 0. -1.
       -1   -1    0    0    0  501  0.00000000000E+00  0.00000000000E+00 -0.85023270138E+03  0.85023270139E+03  0.50400001928E-02 0.  1.
    10030    2    1    2    0    0  0.00000000000E+00  0.00000000000E+00  0.33252738156E+03  0.20329927843E+04  0.20056134228E+04 0.  0.
        1    1    3    3  502    0  0.78898720575E+03  0.54865730843E+03 -0.12417112488E+03  0.96899129058E+03  0.50400001928E-02 0.  1.
       -1    1    3    3    0  502 -0.78898720575E+03 -0.54865730843E+03  0.45669850644E+03  0.10640014938E+04  0.50400001928E-02 0. -1.
</event>
<event>
 5   0  0.1782172E-04  0.2004056E+04  0.7818609E-02  0.8604727E-01
       -2   -1    0    0    0  501  0.00000000000E+00  0.00000000000E+00  0.91356020596E+03  0.91356020597E+03  0.25500000920E-02 0.  1.
        2   -1    0    0  501    0  0.00000000000E+00  0.00000000000E+00 -0.10990631300E+04  0.10990631300E+04  0.25500000920E-02 0. -1.
    10030    2    1    2    0    0  0.00000000000E+00  0.00000000000E+00 -0.18550292399E+03  0.20126233359E+04  0.20040562261E+04 0.  0.
        2    1    3    3  502    0  0.33589526682E+03  0.83708963588E+03  0.34559542938E+03  0.96590935889E+03  0.25500000920E-02 0.  1.
       -2    1    3    3    0  502 -0.33589526682E+03 -0.83708963588E+03 -0.53109835336E+03  0.10467139770E+04  0.25500000920E-02 0. -1.
</event>
<event>
 5   0  0.8861350E-05  0.2001606E+04  0.7818609E-02  0.8605870E-01
        1   -1    0    0  501    0  0.00000000000E+00  0.00000000000E+00  0.10712910674E+04  0.10712910674E+04  0.50400001928E-02 0.  1.
       -1   -1    0    0    0  501  0.00000000000E+00  0.00000000000E+00 -0.93495279571E+03  0.93495279572E+03  0.50400001928E-02 0. -1.
    10030    2    1    2    0    0  0.00000000000E+00  0.00000000000E+00  0.13633827171E+03  0.20062438631E+04  0.20016059338E+04 0.  0.
        1    1    3    3  502    0  0.60532928723E+03 -0.74145714398E+03  0.36112078539E+03  0.10230300406E+04  0.50400001928E-02 0.  1.
       -1    1    3    3    0  502 -0.60532928723E+03  0.74145714398E+03 -0.22478251368E+03  0.98321382253E+03  0.50400001928E-02 0. -1.
</event>
<event>
 5   0  0.8577422E-05  0.1987939E+04  0.7818609E-02  0.8612280E-01
       -1   -1    0    0    0  501  0.00000000000E+00  0.00000000000E+00  0.69259985856E+03  0.69259985858E+03  0.50400001928E-02 0.  1.
        1   -1    0    0  501    0  0.00000000000E+00  0.00000000000E+00 -0.14264733574E+04  0.14264733574E+04  0.50400001928E-02 0. -1.
    10030    2    1    2    0    0  0.00000000000E+00  0.00000000000E+00 -0.73387349885E+03  0.21190732160E+04  0.19879388779E+04 0.  0.
        2    1    3    3  502    0  0.70222452706E+03 -0.70206910240E+03 -0.41406801023E+03  0.10758590187E+04  0.25500000920E-02 0.  1.
       -2    1    3    3    0  502 -0.70222452706E+03  0.70206910240E+03 -0.31980548863E+03  0.10432141973E+04  0.25500000920E-02 0. -1.
</event>
<event>
 5   0  0.1807498E-04  0.1998687E+04  0.7818609E-02  0.8607235E-01
        2   -1    0    0  501    0  0.00000000000E+00  0.00000000000E+00  0.11488246335E+04  0.11488246335E+04  0.25500000920E-02 0.  1.
       -2   -1    0    0    0  501  0.00000000000E+00  0.00000000000E+00 -0.86931272899E+03  0.86931272899E+03  0.25500000920E-02 0. -1.
    10030    2    1    2    0    0  0.00000000000E+00  0.00000000000E+00  0.27951190455E+03  0.20181373625E+04  0.19986874466E+04 0.  0.
        5    1    3    3  502    0 -0.75933661437E+03  0.51770185752E+03 -0.25656646895E+03  0.95417804952E+03  0.46999998093E+01 0. -1.
       -5    1    3    3    0  502  0.75933661437E+03 -0.51770185752E+03  0.53607837350E+03  0.10639593130E+04  0.46999998093E+01 0.  1.
</event>
<event>
 5   0  0.8861350E-05  0.2007922E+04  0.7818609E-02  0.8602926E-01
        1   -1    0    0  501    0  0.00000000000E+00  0.00000000000E+00  0.94057094544E+03  0.94057094545E+03  0.50400001928E-02 0.  1.
       -1   -1    0    0    0  501  0.00000000000E+00  0.00000000000E+00 -0.10716230901E+04  0.10716230901E+04  0.50400001928E-02 0. -1.
    10030    2    1    2    0    0  0.00000000000E+00  0.00000000000E+00 -0.13105214462E+03  0.20121940355E+04  0.20079218541E+04 0.  0.
        1    1    3    3  502    0 -0.99533313651E+03 -0.11937990366E+03 -0.10656229217E+02  0.10025234009E+04  0.50400001928E-02 0.  1.
       -1    1    3    3    0  502  0.99533313651E+03  0.11937990366E+03 -0.12039591541E+03  0.10096706347E+04  0.50400001928E-02 0. -1.
</event>
<event>
 5   0  0.1893687E-04  0.1979105E+04  0.7818609E-02  0.8616452E-01
        2   -1    0    0  501    0  0.00000000000E+00  0.00000000000E+00  0.12443553768E+04  0.12443553768E+04  0.25500000920E-02 0. -1.
       -2   -1    0    0    0  501  0.00000000000E+00  0.00000000000E+00 -0.78692521474E+03  0.78692521475E+03  0.25500000920E-02 0.  1.
    10030    2    1    2    0    0  0.00000000000E+00  0.00000000000E+00  0.45743016210E+03  0.20312805916E+04  0.19791054769E+04 0.  0.
        4    1    3    3  502    0 -0.55207184742E+02 -0.83746663221E+03 -0.30933295408E+03  0.89447564678E+03  0.12699999809E+01 0.  1.
       -4    1    3    3    0  502  0.55207184742E+02  0.83746663221E+03  0.76676311617E+03  0.11368049448E+04  0.12699999809E+01 0. -1.
</event>
<event>
 5   0  0.6531625E-05  0.1974490E+04  0.7818609E-02  0.8618641E-01
       -3   -1    0    0    0  501  0.00000000000E+00  0.00000000000E+00  0.12247319897E+04  0.12247319939E+04  0.10100000352E+00 0. -1.
        3   -1    0    0  501    0  0.00000000000E+00  0.00000000000E+00 -0.79580904298E+03  0.79580904939E+03  0.10100000352E+00 0.  1.
    10030    2    1    2    0    0  0.00000000000E+00  0.00000000000E+00  0.42892294676E+03  0.20205410433E+04  0.19744901148E+04 0.  0.
        4    1    3    3  502    0  0.73873165395E+03 -0.17048101334E+03 -0.43263390801E+03  0.87290431533E+03  0.12699999809E+01 0.  1.
       -4    1    3    3    0  502 -0.73873165395E+03  0.17048101334E+03  0.86155685478E+03  0.11476367280E+04  0.12699999809E+01 0. -1.
</event>
<event>
 5   0  0.1812865E-04  0.1986298E+04  0.7818609E-02  0.8613054E-01
        2   -1    0    0  501    0  0.00000000000E+00  0.00000000000E+00  0.28931532258E+04  0.28931532258E+04  0.25500000920E-02 0.  1.
       -2   -1    0    0    0  501  0.00000000000E+00  0.00000000000E+00 -0.34092380707E+03  0.34092380708E+03  0.25500000920E-02 0. -1.
    10030    2    1    2    0    0  0.00000000000E+00  0.00000000000E+00  0.25522294187E+04  0.32340770329E+04  0.19862978751E+04 0.  0.
        3    1    3    3  502    0  0.56783366294E+03 -0.47543738669E+03  0.23535174949E+04  0.24672900896E+04  0.10100000352E+00 0.  1.
       -3    1    3    3    0  502 -0.56783366294E+03  0.47543738669E+03  0.19871192381E+03  0.76678694322E+03  0.10100000352E+00 0. -1.
</event>
<event>
 5   0  0.1812865E-04  0.1993837E+04  0.7818609E-02  0.8609507E-01
        2   -1    0    0  501    0  0.00000000000E+00  0.00000000000E+00  0.10742758945E+04  0.10742758945E+04  0.25500000920E-02 0.  1.
       -2   -1    0    0    0  501  0.00000000000E+00  0.00000000000E+00 -0.92513173455E+03  0.92513173455E+03  0.25500000920E-02 0. -1.
    10030    2    1    2    0    0  0.00000000000E+00  0.00000000000E+00  0.14914415994E+03  0.19994076290E+04  0.19938372267E+04 0.  0.
        3    1    3    3  502    0 -0.29850226138E+03  0.94226862249E+03  0.20483092169E+03  0.10094203652E+04  0.10100000352E+00 0. -1.
       -3    1    3    3    0  502  0.29850226138E+03 -0.94226862249E+03 -0.55686761745E+02  0.98998726386E+03  0.10100000352E+00 0.  1.
</event>
<event>
 5   0  0.8765057E-05  0.1896123E+04  0.7818609E-02  0.8656788E-01
        1   -1    0    0  501    0  0.00000000000E+00  0.00000000000E+00  0.20907137274E+04  0.20907137274E+04  0.50400001928E-02 0.  1.
       -1   -1    0    0    0  501  0.00000000000E+00  0.00000000000E+00 -0.42991109834E+03  0.42991109837E+03  0.50400001928E-02 0. -1.
    10030    2    1    2    0    0  0.00000000000E+00  0.00000000000E+00  0.16608026290E+04  0.25206248258E+04  0.18961234505E+04 0.  0.
        3    1    3    3  502    0  0.40693377978E+03 -0.23787922119E+03 -0.26310234589E+03  0.53981893225E+03  0.10100000352E+00 0. -1.
       -3    1    3    3    0  502 -0.40693377978E+03  0.23787922119E+03  0.19239049749E+04  0.19808058935E+04  0.10100000352E+00 0.  1.
</event>
<event>
 5   0  0.1782172E-04  0.2030279E+04  0.7818609E-02  0.8592594E-01
        2   -1    0    0  501    0  0.00000000000E+00  0.00000000000E+00  0.95530586812E+03  0.95530586813E+03  0.25500000920E-02 0. -1.
       -2   -1    0    0    0  501  0.00000000000E+00  0.00000000000E+00 -0.10787205108E+04  0.10787205108E+04  0.25500000920E-02 0.  1.
    10030    2    1    2    0    0  0.00000000000E+00  0.00000000000E+00 -0.12341464264E+03  0.20340263789E+04  0.20302788321E+04 0.  0.
        2    1    3    3  502    0  0.33015850437E+02 -0.43469036283E+03 -0.98016681323E+03  0.10727407607E+04  0.25500000920E-02 0.  1.
       -2    1    3    3    0  502 -0.33015850437E+02  0.43469036283E+03  0.85675217059E+03  0.96128561819E+03  0.25500000920E-02 0. -1.
</event>
<event>
 5   0  0.1893687E-04  0.1909582E+04  0.7818609E-02  0.8650101E-01
        2   -1    0    0  501    0  0.00000000000E+00  0.00000000000E+00  0.98168828761E+03  0.98168828761E+03  0.25500000920E-02 0.  1.
       -2   -1    0    0    0  501  0.00000000000E+00  0.00000000000E+00 -0.92863104366E+03  0.92863104366E+03  0.25500000920E-02 0. -1.
    10030    2    1    2    0    0  0.00000000000E+00  0.00000000000E+00  0.53057243952E+02  0.19103193313E+04  0.19095823827E+04 0.  0.
        4    1    3    3  502    0  0.32253071657E+03  0.80847497626E+03 -0.36600878624E+03  0.94425732450E+03  0.12699999809E+01 0. -1.
       -4    1    3    3    0  502 -0.32253071657E+03 -0.80847497626E+03  0.41906603019E+03  0.96606200677E+03  0.12699999809E+01 0.  1.
</event>
<event>
 5   0  0.1893687E-04  0.1974658E+04  0.7818609E-02  0.8618561E-01
        2   -1    0    0  501    0  0.00000000000E+00  0.00000000000E+00  0.12541619616E+04  0.12541619616E+04  0.25500000920E-02 0. -1.
       -2   -1    0    0    0  501  0.00000000000E+00  0.00000000000E+00 -0.77726724882E+03  0.77726724883E+03  0.25500000920E-02 0.  1.
    10030    2    1    2    0    0  0.00000000000E+00  0.00000000000E+00  0.47689471280E+03  0.20314292105E+04  0.19746584692E+04 0.  0.
        4    1    3    3  502    0  0.44627704851E+03  0.87790578528E+03  0.16617351812E+03  0.99874772734E+03  0.12699999809E+01 0.  1.
       -4    1    3    3    0  502 -0.44627704851E+03 -0.87790578528E+03  0.31072119468E+03  0.10326814831E+04  0.12699999809E+01 0. -1.
</event>
<event>
 5   0  0.8958919E-05  0.2054640E+04  0.7818609E-02  0.8581492E-01
       -1   -1    0    0    0  501  0.00000000000E+00  0.00000000000E+00  0.92320097924E+03  0.92320097925E+03  0.50400001928E-02 0. -1.
        1   -1    0    0  501    0  0.00000000000E+00  0.00000000000E+00 -0.11431812001E+04  0.11431812001E+04  0.50400001928E-02 0.  1.
    10030    2    1    2    0    0  0.00000000000E+00  0.00000000000E+00 -0.21998022085E+03  0.20663821794E+04  0.20546396311E+04 0.  0.
        4    1    3    3  502    0 -0.31349215988E+03  0.90494980158E+03 -0.48383069191E+03  0.10729889231E+04  0.12699999809E+01 0. -1.
       -4    1    3    3    0  502  0.31349215988E+03 -0.90494980158E+03  0.26385047105E+03  0.99339325630E+03  0.12699999809E+01 0.  1.
</event>
<event>
 5   0  0.8765057E-05  0.1697940E+04  0.7818609E-02  0.8762540E-01
       -1   -1    0    0    0  501  0.00000000000E+00  0.00000000000E+00  0.16264798757E+04  0.16264798757E+04  0.50400001928E-02 0. -1.
        1   -1    0    0  501    0  0.00000000000E+00  0.00000000000E+00 -0.44313515517E+03  0.44313515519E+03  0.50400001928E-02 0.  1.
    10030    2    1    2    0    0  0.00000000000E+00  0.00000000000E+00  0.11833447205E+04  0.20696150309E+04  0.16979404137E+04 0.  0.
        3    1    3    3  502    0 -0.13483994490E+02  0.69483600964E+03 -0.26841532786E+01  0.69497202338E+03  0.10100000352E+00 0.  1.
       -3    1    3    3    0  502  0.13483994490E+02 -0.69483600964E+03  0.11860288738E+04  0.13746430075E+04  0.10100000352E+00 0. -1.
</event>
<event>
 5   0  0.8861350E-05  0.1980000E+04  0.7818609E-02  0.8616029E-01
       -1   -1    0    0    0  501  0.00000000000E+00  0.00000000000E+00  0.49723065231E+03  0.49723065233E+03  0.50400001928E-02 0.  1.
        1   -1    0    0  501    0  0.00000000000E+00  0.00000000000E+00 -0.19711164830E+04  0.19711164830E+04  0.50400001928E-02 0. -1.
    10030    2    1    2    0    0  0.00000000000E+00  0.00000000000E+00 -0.14738858306E+04  0.24683471353E+04  0.19799995299E+04 0.  0.
        1    1    3    3  502    0 -0.19808765925E+03  0.55142385900E+03  0.25786706453E+03  0.64015811798E+03  0.50400001928E-02 0.  1.
       -1    1    3    3    0  502  0.19808765925E+03 -0.55142385900E+03 -0.17317528952E+04  0.18281890173E+04  0.50400001928E-02 0. -1.
</event>
<event>
 5   0  0.8958919E-05  0.1999349E+04  0.7818609E-02  0.8606925E-01
       -1   -1    0    0    0  501  0.00000000000E+00  0.00000000000E+00  0.10684259087E+04  0.10684259087E+04  0.50400001928E-02 0. -1.
        1   -1    0    0  501    0  0.00000000000E+00  0.00000000000E+00 -0.93534730215E+03  0.93534730216E+03  0.50400001928E-02 0.  1.
    10030    2    1    2    0    0  0.00000000000E+00  0.00000000000E+00  0.13307860656E+03  0.20037732109E+04  0.19993491854E+04 0.  0.
        4    1    3    3  502    0  0.65272350191E+02 -0.90792930234E+03 -0.34759602714E+03  0.97438221902E+03  0.12699999809E+01 0.  1.
       -4    1    3    3    0  502 -0.65272350191E+02  0.90792930234E+03  0.48067463369E+03  0.10293909919E+04  0.12699999809E+01 0. -1.
</event>
<event>
 5   0  0.8861350E-05  0.2208327E+04  0.7818609E-02  0.8514970E-01
       -1   -1    0    0    0  501  0.00000000000E+00  0.00000000000E+00  0.90490040612E+03  0.90490040613E+03  0.50400001928E-02 0.  1.
        1   -1    0    0  501    0  0.00000000000E+00  0.00000000000E+00 -0.13473055371E+04  0.13473055371E+04  0.50400001928E-02 0. -1.
    10030    2    1    2    0    0  0.00000000000E+00  0.00000000000E+00 -0.44240513099E+03  0.22522059432E+04  0.22083272653E+04 0.  0.
        1    1    3    3  502    0  0.53816815128E+03 -0.93154100641E+03 -0.47470474614E+03  0.11758988909E+04  0.50400001928E-02 0.  1.
       -1    1    3    3    0  502 -0.53816815128E+03  0.93154100641E+03  0.32299615148E+02  0.10763070523E+04  0.50400001928E-02 0. -1.
</event>
<event>
 5   0  0.1782172E-04  0.1961728E+04  0.7818609E-02  0.8624726E-01
        2   -1    0    0  501    0  0.00000000000E+00  0.00000000000E+00  0.90879350243E+03  0.90879350244E+03  0.25500000920E-02 0. -1.
       -2   -1    0    0    0  501  0.00000000000E+00  0.00000000000E+00 -0.10586495197E+04  0.10586495197E+04  0.25500000920E-02 0.  1.
    10030    2    1    2    0    0  0.00000000000E+00  0.00000000000E+00 -0.14985601731E+03  0.19674430222E+04  0.19617276110E+04 0.  0.
        2    1    3    3  502    0 -0.76318282894E+03  0.14302519984E+03  0.52614235588E+03  0.93793923941E+03  0.25500000920E-02 0. -1.
       -2    1    3    3    0  502  0.76318282894E+03 -0.14302519984E+03 -0.67599837319E+03  0.10295037828E+04  0.25500000920E-02 0.  1.
</event>
<event>
 5   0  0.8958919E-05  0.2001696E+04  0.7818609E-02  0.8605828E-01
       -1   -1    0    0    0  501  0.00000000000E+00  0.00000000000E+00  0.46218183563E+03  0.46218183566E+03  0.50400001928E-02 0.  1.
        1   -1    0    0  501    0  0.00000000000E+00  0.00000000000E+00 -0.21673226295E+04  0.21673226295E+04  0.50400001928E-02 0. -1.
    10030    2    1    2    0    0  0.00000000000E+00  0.00000000000E+00 -0.17051407939E+04  0.26295044652E+04  0.20016964319E+04 0.  0.
        4    1    3    3  502    0  0.67979176442E+03 -0.38917416087E+03 -0.16709596580E+04  0.18454487698E+04  0.12699999809E+01 0. -1.
       -4    1    3    3    0  502 -0.67979176442E+03  0.38917416087E+03 -0.34181135882E+02  0.78405569536E+03  0.12699999809E+01 0.  1.
</event>
<event>
 5   0  0.1782172E-04  0.2004871E+04  0.7818609E-02  0.8604347E-01
       -2   -1    0    0    0  501  0.00000000000E+00  0.00000000000E+00  0.10801481954E+04  0.10801481954E+04  0.25500000920E-02 0. -1.
        2   -1    0    0  501    0  0.00000000000E+00  0.00000000000E+00 -0.93031415046E+03  0.93031415047E+03  0.25500000920E-02 0.  1.
    10030    2    1    2    0    0  0.00000000000E+00  0.00000000000E+00  0.14983404497E+03  0.20104623459E+04  0.20048712186E+04 0.  0.
        2    1    3    3  502    0 -0.10370964798E+03  0.81743347580E+03  0.64740663984E+03  0.10478971971E+04  0.25500000920E-02 0. -1.
       -2    1    3    3    0  502  0.10370964798E+03 -0.81743347580E+03 -0.49757259488E+03  0.96256514877E+03  0.25500000920E-02 0.  1.
</event>
<event>
 5   0  0.8861350E-05  0.2028453E+04  0.7818609E-02  0.8593432E-01
       -1   -1    0    0    0  501  0.00000000000E+00  0.00000000000E+00  0.14403010696E+04  0.14403010696E+04  0.50400001928E-02 0. -1.
        1   -1    0    0  501    0  0.00000000000E+00  0.00000000000E+00 -0.71419501982E+03  0.71419501984E+03  0.50400001928E-02 0.  1.
    10030    2    1    2    0    0  0.00000000000E+00  0.00000000000E+00  0.72610604980E+03  0.21544960895E+04  0.20284534513E+04 0.  0.
        1    1    3    3  502    0  0.29398799780E+03 -0.57112316866E+03 -0.47060313836E+03  0.79629010447E+03  0.50400001928E-02 0.  1.
       -1    1    3    3    0  502 -0.29398799780E+03  0.57112316866E+03  0.11967091882E+04  0.13582059850E+04  0.50400001928E-02 0. -1.
</event>
<event>
 5   0  0.8765057E-05  0.2041360E+04  0.7818609E-02  0.8587524E-01
       -1   -1    0    0    0  501  0.00000000000E+00  0.00000000000E+00  0.58189142224E+03  0.58189142226E+03  0.50400001928E-02 0. -1.
        1   -1    0    0  501    0  0.00000000000E+00  0.00000000000E+00 -0.17903464770E+04  0.17903464770E+04  0.50400001928E-02 0.  1.
    10030    2    1    2    0    0  0.00000000000E+00  0.00000000000E+00 -0.12084550547E+04  0.23722378992E+04  0.20413596036E+04 0.  0.
        3    1    3    3  502    0  0.42357063570E+03 -0.48595986510E+03  0.31537796690E+03  0.71765754098E+03  0.10100000352E+00 0. -1.
       -3    1    3    3    0  502 -0.42357063570E+03  0.48595986510E+03 -0.15238330216E+04  0.16545803583E+04  0.10100000352E+00 0.  1.
</event>
<event>
 5   0  0.1782172E-04  0.1995067E+04  0.7818609E-02  0.8608930E-01
        2   -1    0    0  501    0  0.00000000000E+00  0.00000000000E+00  0.64318204496E+03  0.64318204497E+03  0.25500000920E-02 0.  1.
       -2   -1    0    0    0  501  0.00000000000E+00  0.00000000000E+00 -0.15471098985E+04  0.15471098985E+04  0.25500000920E-02 0. -1.
    10030    2    1    2    0    0  0.00000000000E+00  0.00000000000E+00 -0.90392785354E+03  0.21902919435E+04  0.19950672252E+04 0.  0.
        2    1    3    3  502    0  0.41914938396E+03  0.85072632820E+03 -0.11242381827E+03  0.95501864196E+03  0.25500000920E-02 0.  1.
       -2    1    3    3    0  502 -0.41914938396E+03 -0.85072632820E+03 -0.79150403527E+03  0.12352733015E+04  0.25500000920E-02 0. -1.
</event>
<event>
 5   0  0.1812865E-04  0.1979559E+04  0.7818609E-02  0.8616238E-01
        2   -1    0    0  501    0  0.00000000000E+00  0.00000000000E+00  0.16094097396E+04  0.16094097397E+04  0.25500000920E-02 0. -1.
       -2   -1    0    0    0  501  0.00000000000E+00  0.00000000000E+00 -0.60870973758E+03  0.60870973759E+03  0.25500000920E-02 0.  1.
    10030    2    1    2    0    0  0.00000000000E+00  0.00000000000E+00  0.10007000021E+04  0.22181194772E+04  0.19795589209E+04 0.  0.
        3    1    3    3  502    0  0.33629884546E+03 -0.34766795673E+03  0.14679517980E+04  0.15455912826E+04  0.10100000352E+00 0. -1.
       -3    1    3    3    0  502 -0.33629884546E+03  0.34766795673E+03 -0.46725179589E+03  0.67252819462E+03  0.10100000352E+00 0.  1.
</event>
<event>
 5   0  0.1807498E-04  0.2010527E+04  0.7818609E-02  0.8601715E-01
        2   -1    0    0  501    0  0.00000000000E+00  0.00000000000E+00  0.15157525575E+04  0.15157525575E+04  0.25500000920E-02 0.  1.
       -2   -1    0    0    0  501  0.00000000000E+00  0.00000000000E+00 -0.66670162371E+03  0.66670162371E+03  0.25500000920E-02 0. -1.
    10030    2    1    2    0    0  0.00000000000E+00  0.00000000000E+00  0.84905093378E+03  0.21824541812E+04  0.20105269869E+04 0.  0.
        5    1    3    3  502    0 -0.68981293929E+03  0.50244603889E+03 -0.15216596664E+03  0.86687397274E+03  0.46999998093E+01 0. -1.
       -5    1    3    3    0  502  0.68981293929E+03 -0.50244603889E+03  0.10012169004E+04  0.13155802085E+04  0.46999998093E+01 0.  1.
</event>
<event>
 5   0  0.8958919E-05  0.2067764E+04  0.7818609E-02  0.8575578E-01
       -1   -1    0    0    0  501  0.00000000000E+00  0.00000000000E+00  0.50799968472E+03  0.50799968475E+03  0.50400001928E-02 0. -1.
        1   -1    0    0  501    0  0.00000000000E+00  0.00000000000E+00 -0.21041587717E+04  0.21041587717E+04  0.50400001928E-02 0.  1.
    10030    2    1    2    0    0  0.00000000000E+00  0.00000000000E+00 -0.15961590870E+04  0.26121584564E+04  0.20677640027E+04 0.  0.
        4    1    3    3  502    0  0.36402905648E+03  0.24267717108E+03 -0.19814544663E+04  0.20291803217E+04  0.12699999809E+01 0.  1.
       -4    1    3    3    0  502 -0.36402905648E+03 -0.24267717108E+03  0.38529537931E+03  0.58297813470E+03  0.12699999809E+01 0. -1.
</event>
<event>
 5   0  0.8861350E-05  0.2012738E+04  0.7818609E-02  0.8600688E-01
        1   -1    0    0  501    0  0.00000000000E+00  0.00000000000E+00  0.11766726721E+04  0.11766726721E+04  0.50400001928E-02 0. -1.
       -1   -1    0    0    0  501  0.00000000000E+00  0.00000000000E+00 -0.86071422815E+03  0.86071422817E+03  0.50400001928E-02 0.  1.
    10030    2    1    2    0    0  0.00000000000E+00  0.00000000000E+00  0.31595844396E+03  0.20373869003E+04  0.20127383444E+04 0.  0.
        1    1    3    3  502    0  0.44029096512E+03  0.12395082595E+03  0.10653714720E+04  0.11594120556E+04  0.50400001928E-02 0. -1.
       -1    1    3    3    0  502 -0.44029096512E+03 -0.12395082595E+03 -0.74941302808E+03  0.87797484469E+03  0.50400001928E-02 0.  1.
</event>
<event>
 5   0  0.8765057E-05  0.2000328E+04  0.7818609E-02  0.8606467E-01
        1   -1    0    0  501    0  0.00000000000E+00  0.00000000000E+00  0.13375585041E+04  0.13375585041E+04  0.50400001928E-02 0. -1.
       -1   -1    0    0    0  501  0.00000000000E+00  0.00000000000E+00 -0.74787635916E+03  0.74787635917E+03  0.50400001928E-02 0.  1.
    10030    2    1    2    0    0  0.00000000000E+00  0.00000000000E+00  0.58968214497E+03  0.20854348633E+04  0.20003283573E+04 0.  0.
        3    1    3    3  502    0 -0.13460948929E+03 -0.99064760034E+03  0.32480392079E+03  0.10511897925E+04  0.10100000352E+00 0. -1.
       -3    1    3    3    0  502  0.13460948929E+03  0.99064760034E+03  0.26487822419E+03  0.10342450708E+04  0.10100000352E+00 0.  1.
</event>
<event>
 5   0  0.1812865E-04  0.1614484E+04  0.7818609E-02  0.8811699E-01
        2   -1    0    0  501    0  0.00000000000E+00  0.00000000000E+00  0.13618284487E+04  0.13618284487E+04  0.25500000920E-02 0.  1.
       -2   -1    0    0    0  501  0.00000000000E+00  0.00000000000E+00 -0.47850340600E+03  0.47850340601E+03  0.25500000920E-02 0. -1.
    10030    2    1    2    0    0  0.00000000000E+00  0.00000000000E+00  0.88332504270E+03  0.18403318547E+04  0.16144838817E+04 0.  0.
        3    1    3    3  502    0 -0.44103244192E+01  0.77991689855E+03  0.67899413099E+03  0.10340806834E+04  0.10100000352E+00 0.  1.
       -3    1    3    3    0  502  0.44103244192E+01 -0.77991689855E+03  0.20433091171E+03  0.80625117134E+03  0.10100000352E+00 0. -1.
</event>
<event>
 5   0  0.1782172E-04  0.2047651E+04  0.7818609E-02  0.8584661E-01
        2   -1    0    0  501    0  0.00000000000E+00  0.00000000000E+00  0.18239098098E+04  0.18239098098E+04  0.25500000920E-02 0. -1.
       -2   -1    0    0    0  501  0.00000000000E+00  0.00000000000E+00 -0.57470946528E+03  0.57470946529E+03  0.25500000920E-02 0.  1.
    10030    2    1    2    0    0  0.00000000000E+00  0.00000000000E+00  0.12492003445E+04  0.23986192750E+04  0.20476505869E+04 0.  0.
        2    1    3    3  502    0 -0.63844018297E+03  0.30611071580E+03 -0.24168891388E+03  0.74814648877E+03  0.25500000920E-02 0.  1.
       -2    1    3    3    0  502  0.63844018297E+03 -0.30611071580E+03  0.14908892584E+04  0.16504727863E+04  0.25500000920E-02 0. -1.
</event>
<event>
 5   0  0.8577422E-05  0.1938308E+04  0.7818609E-02  0.8636019E-01
        1   -1    0    0  501    0  0.00000000000E+00  0.00000000000E+00  0.28443465822E+04  0.28443465822E+04  0.50400001928E-02 0.  1.
       -1   -1    0    0    0  501  0.00000000000E+00  0.00000000000E+00 -0.33021987854E+03  0.33021987858E+03  0.50400001928E-02 0. -1.
    10030    2    1    2    0    0  0.00000000000E+00  0.00000000000E+00  0.25141267037E+04  0.31745664608E+04  0.19383083170E+04 0.  0.
        2    1    3    3  502    0 -0.30587161636E+03  0.78410733516E+03  0.47010298112E+03  0.96404282665E+03  0.25500000920E-02 0. -1.
       -2    1    3    3    0  502  0.30587161636E+03 -0.78410733516E+03  0.20440237226E+04  0.22105236342E+04  0.25500000920E-02 0.  1.
</event>
<event>
 5   0  0.8577422E-05  0.1993473E+04  0.7818609E-02  0.8609678E-01
       -1   -1    0    0    0  501  0.00000000000E+00  0.00000000000E+00  0.52222059707E+03  0.52222059710E+03  0.50400001928E-02 0.  1.
        1   -1    0    0  501    0  0.00000000000E+00  0.00000000000E+00 -0.19024218377E+04  0.19024218377E+04  0.50400001928E-02 0. -1.
    10030    2    1    2    0    0  0.00000000000E+00  0.00000000000E+00 -0.13802012407E+04  0.24246424348E+04  0.19934732183E+04 0.  0.
        2    1    3    3  502    0  0.13213096185E+03 -0.25434606089E+03  0.47101623613E+03  0.55136812066E+03  0.25500000920E-02 0.  1.
       -2    1    3    3    0  502 -0.13213096185E+03  0.25434606089E+03 -0.18512174768E+04  0.18732743142E+04  0.25500000920E-02 0. -1.
</event>
<event>
 5   0  0.1834645E-04  0.2125714E+04  0.7818609E-02  0.8550000E-01
        2   -1    0    0  501    0  0.00000000000E+00  0.00000000000E+00  0.23438712522E+04  0.23438712522E+04  0.25500000920E-02 0.  1.
       -2   -1    0    0    0  501  0.00000000000E+00  0.00000000000E+00 -0.48196532897E+03  0.48196532897E+03  0.25500000920E-02 0. -1.
    10030    2    1    2    0    0  0.00000000000E+00  0.00000000000E+00  0.18619059233E+04  0.28258365812E+04  0.21257136958E+04 0.  0.
        1    1    3    3  502    0 -0.66703839315E+03  0.33294593338E+01  0.20309630753E+04  0.21377002401E+04  0.50400001928E-02 0.  1.
       -1    1    3    3    0  502  0.66703839315E+03 -0.33294593338E+01 -0.16905715206E+03  0.68813634109E+03  0.50400001928E-02 0. -1.
</event>
<event>
 5   0  0.8765057E-05  0.1991047E+04  0.7818609E-02  0.8610818E-01
        1   -1    0    0  501    0  0.00000000000E+00  0.00000000000E+00  0.62160210922E+03  0.62160210924E+03  0.50400001928E-02 0.  1.
       -1   -1    0    0    0  501  0.00000000000E+00  0.00000000000E+00 -0.15943753259E+04  0.15943753259E+04  0.50400001928E-02 0. -1.
    10030    2    1    2    0    0  0.00000000000E+00  0.00000000000E+00 -0.97277321670E+03  0.22159774352E+04  0.19910470266E+04 0.  0.
        3    1    3    3  502    0 -0.67583269112E+03 -0.66299760133E+03 -0.14379505140E+03  0.95759734375E+03  0.10100000352E+00 0.  1.
       -3    1    3    3    0  502  0.67583269112E+03  0.66299760133E+03 -0.82897816530E+03  0.12583800914E+04  0.10100000352E+00 0. -1.
</event>
<event>
 5   0  0.1834645E-04  0.2145043E+04  0.7818609E-02  0.8541657E-01
       -2   -1    0    0    0  501  0.00000000000E+00  0.00000000000E+00  0.87414635498E+03  0.87414635499E+03  0.25500000920E-02 0. -1.
        2   -1    0    0  501    0  0.00000000000E+00  0.00000000000E+00 -0.13159145620E+04  0.13159145620E+04  0.25500000920E-02 0.  1.
    10030    2    1    2    0    0  0.00000000000E+00  0.00000000000E+00 -0.44176820702E+03  0.21900609170E+04  0.21450425803E+04 0.  0.
        1    1    3    3  502    0 -0.83783744450E+03  0.58499146247E+03 -0.55347421145E+03  0.11621188826E+04  0.50400001928E-02 0.  1.
       -1    1    3    3    0  502  0.83783744450E+03 -0.58499146247E+03  0.11170600443E+03  0.10279420344E+04  0.50400001928E-02 0. -1.
</event>
<event>
 5   0  0.8577422E-05  0.2016795E+04  0.7818609E-02  0.8598808E-01
        1   -1    0    0  501    0  0.00000000000E+00  0.00000000000E+00  0.12125347240E+04  0.12125347240E+04  0.50400001928E-02 0. -1.
       -1   -1    0    0    0  501  0.00000000000E+00  0.00000000000E+00 -0.83862799289E+03  0.83862799290E+03  0.50400001928E-02 0.  1.
    10030    2    1    2    0    0  0.00000000000E+00  0.00000000000E+00  0.37390673108E+03  0.20511627169E+04  0.20167950435E+04 0.  0.
        2    1    3    3  502    0  0.80602388279E+03 -0.35319628589E+03  0.68772944137E+03  0.11168678975E+04  0.25500000920E-02 0. -1.
       -2    1    3    3    0  502 -0.80602388279E+03  0.35319628589E+03 -0.31382271028E+03  0.93429481936E+03  0.25500000920E-02 0.  1.
</event>
<event>
 5   0  0.8958919E-05  0.2012048E+04  0.7818609E-02  0.8601009E-01
       -1   -1    0    0    0  501  0.00000000000E+00  0.00000000000E+00  0.80748752746E+03  0.80748752748E+03  0.50400001928E-02 0. -1.
        1   -1    0    0  501    0  0.00000000000E+00  0.00000000000E+00 -0.12533742845E+04  0.12533742845E+04  0.50400001928E-02 0.  1.
    10030    2    1    2    0    0  0.00000000000E+00  0.00000000000E+00 -0.44588675703E+03  0.20608618120E+04  0.20120478145E+04 0.  0.
        4    1    3    3  502    0  0.56451406008E+03  0.71642683625E+03  0.21178139732E+03  0.93637412869E+03  0.12699999809E+01 0. -1.
       -4    1    3    3    0  502 -0.56451406008E+03 -0.71642683625E+03 -0.65766815434E+03  0.11244876833E+04  0.12699999809E+01 0.  1.
</event>
<event>
 5   0  0.1893687E-04  0.1832429E+04  0.7818609E-02  0.8689241E-01
        2   -1    0    0  501    0  0.00000000000E+00  0.00000000000E+00  0.12966260742E+04  0.12966260742E+04  0.25500000920E-02 0. -1.
       -2   -1    0    0    0  501  0.00000000000E+00  0.00000000000E+00 -0.64741058417E+03  0.64741058417E+03  0.25500000920E-02 0.  1.
    10030    2    1    2    0    0  0.00000000000E+00  0.00000000000E+00  0.64921549007E+03  0.19440366584E+04  0.18324294739E+04 0.  0.
        4    1    3    3  502    0 -0.75428544725E+03 -0.44072579343E+03  0.61758336175E+03  0.10698582067E+04  0.12699999809E+01 0. -1.
       -4    1    3    3    0  502  0.75428544725E+03  0.44072579343E+03  0.31632128319E+02  0.87417845167E+03  0.12699999809E+01 0.  1.
</event>
<event>
 5   0  0.1782172E-04  0.2044578E+04  0.7818609E-02  0.8586058E-01
        2   -1    0    0  501    0  0.00000000000E+00  0.00000000000E+00  0.11272966681E+04  0.11272966681E+04  0.25500000920E-02 0. -1.
       -2   -1    0    0    0  501  0.00000000000E+00  0.00000000000E+00 -0.92706311868E+03  0.92706311868E+03  0.25500000920E-02 0.  1.
    10030    2    1    2    0    0  0.00000000000E+00  0.00000000000E+00  0.20023354940E+03  0.20543597868E+04  0.20445783573E+04 0.  0.
        2    1    3    3  502    0 -0.68001556480E+03 -0.72500784539E+03  0.34004276208E+03  0.10505649072E+04  0.25500000920E-02 0. -1.
       -2    1    3    3    0  502  0.68001556480E+03  0.72500784539E+03 -0.13980921267E+03  0.10037948795E+04  0.25500000920E-02 0.  1.
</event>
<event>
 5   0  0.8881384E-05  0.2044497E+04  0.7818609E-02  0.8586095E-01
        1   -1    0    0  501    0  0.00000000000E+00  0.00000000000E+00  0.12372034730E+04  0.12372034730E+04  0.50400001928E-02 0. -1.
       -1   -1    0    0    0  501  0.00000000000E+00  0.00000000000E+00 -0.84464060550E+03  0.84464060551E+03  0.50400001928E-02 0.  1.
    10030    2    1    2    0    0  0.00000000000E+00  0.00000000000E+00  0.39256286749E+03  0.20818440785E+04  0.20444972884E+04 0.  0.
        5    1    3    3  502    0 -0.53599934131E+02  0.38983077059E+03  0.11569823148E+04  0.12220765727E+04  0.46999998093E+01 0. -1.
       -5    1    3    3    0  502  0.53599934131E+02 -0.38983077059E+03 -0.76441944734E+03  0.85976750585E+03  0.46999998093E+01 0.  1.
</event>
<event>
 5   0  0.1807498E-04  0.1977800E+04  0.7818609E-02  0.8617071E-01
       -2   -1    0    0    0  501  0.00000000000E+00  0.00000000000E+00  0.64592372801E+03  0.64592372802E+03  0.25500000920E-02 0.  1.
        2   -1    0    0  501    0  0.00000000000E+00  0.00000000000E+00 -0.15139914513E+04  0.15139914513E+04  0.25500000920E-02 0. -1.
    10030    2    1    2    0    0  0.00000000000E+00  0.00000000000E+00 -0.86806772331E+03  0.21599151793E+04  0.19777997901E+04 0.  0.
        5    1    3    3  502    0 -0.19291923762E+03 -0.13192727212E+03 -0.14833846145E+04  0.15016905946E+04  0.46999998093E+01 0. -1.
       -5    1    3    3    0  502  0.19291923762E+03  0.13192727212E+03  0.61531689119E+03  0.65822458474E+03  0.46999998093E+01 0.  1.
</event>
<event>
 5   0  0.1782172E-04  0.1998008E+04  0.7818609E-02  0.8607553E-01
       -2   -1    0    0    0  501  0.00000000000E+00  0.00000000000E+00  0.78149160490E+03  0.78149160491E+03  0.25500000920E-02 0. -1.
        2   -1    0    0  501    0  0.00000000000E+00  0.00000000000E+00 -0.12770562511E+04  0.12770562511E+04  0.25500000920E-02 0.  1.
    10030    2    1    2    0    0  0.00000000000E+00  0.00000000000E+00 -0.49556464624E+03  0.20585478561E+04  0.19980077470E+04 0.  0.
        2    1    3    3  502    0  0.39012880479E+03 -0.87821238729E+03 -0.52909628507E+03  0.10969960622E+04  0.25500000920E-02 0. -1.
       -2    1    3    3    0  502 -0.39012880479E+03  0.87821238729E+03  0.33531638829E+02  0.96155179389E+03  0.25500000920E-02 0.  1.
</event>
<event>
 5   0  0.6531625E-05  0.1989496E+04  0.7818609E-02  0.8611548E-01
       -4   -1    0    0    0  501  0.00000000000E+00  0.00000000000E+00  0.51582740223E+03  0.51582896564E+03  0.12699999809E+01 0.  1.
        4   -1    0    0  501    0  0.00000000000E+00  0.00000000000E+00 -0.19183178950E+04  0.19183183154E+04  0.12699999809E+01 0. -1.
    10030    2    1    2    0    0  0.00000000000E+00  0.00000000000E+00 -0.14024904927E+04  0.24341472810E+04  0.19894957661E+04 0.  0.
        4    1    3    3  502    0  0.30661696927E+03 -0.78525265785E+03 -0.13473712462E+04  0.15893541426E+04  0.12699999809E+01 0. -1.
       -4    1    3    3    0  502 -0.30661696927E+03  0.78525265785E+03 -0.55119246539E+02  0.84479313843E+03  0.12699999809E+01 0.  1.
</event>
<event>
 5   0  0.8765057E-05  0.1986193E+04  0.7818609E-02  0.8613103E-01
        1   -1    0    0  501    0  0.00000000000E+00  0.00000000000E+00  0.88186712113E+03  0.88186712115E+03  0.50400001928E-02 0. -1.
       -1   -1    0    0    0  501  0.00000000000E+00  0.00000000000E+00 -0.11183551445E+04  0.11183551445E+04  0.50400001928E-02 0.  1.
    10030    2    1    2    0    0  0.00000000000E+00  0.00000000000E+00 -0.23648802339E+03  0.20002222657E+04  0.19861929732E+04 0.  0.
        3    1    3    3  502    0  0.27283549388E+03 -0.84372722183E+03 -0.56853289637E+03  0.10533491805E+04  0.10100000352E+00 0.  1.
       -3    1    3    3    0  502 -0.27283549388E+03  0.84372722183E+03  0.33204487298E+03  0.94687308519E+03  0.10100000352E+00 0. -1.
</event>
<event>
 5   0  0.1834645E-04  0.2382660E+04  0.7818609E-02  0.8446024E-01
       -2   -1    0    0    0  501  0.00000000000E+00  0.00000000000E+00  0.10794311306E+04  0.10794311306E+04  0.25500000920E-02 0.  1.
        2   -1    0    0  501    0  0.00000000000E+00  0.00000000000E+00 -0.13148293687E+04  0.13148293687E+04  0.25500000920E-02 0. -1.
    10030    2    1    2    0    0  0.00000000000E+00  0.00000000000E+00 -0.23539823802E+03  0.23942604993E+04  0.23826604895E+04 0.  0.
        1    1    3    3  502    0  0.47285720872E+03 -0.10592722690E+04  0.15494463833E+03  0.11703245365E+04  0.50400001928E-02 0. -1.
       -1    1    3    3    0  502 -0.47285720872E+03  0.10592722690E+04 -0.39034287636E+03  0.12239359628E+04  0.50400001928E-02 0.  1.
</event>
<event>
 5   0  0.8765057E-05  0.2006224E+04  0.7818609E-02  0.8603716E-01
        1   -1    0    0  501    0  0.00000000000E+00  0.00000000000E+00  0.11113017018E+04  0.11113017019E+04  0.50400001928E-02 0. -1.
       -1   -1    0    0    0  501  0.00000000000E+00  0.00000000000E+00 -0.90545516943E+03  0.90545516944E+03  0.50400001928E-02 0.  1.
    10030    2    1    2    0    0  0.00000000000E+00  0.00000000000E+00  0.20584653241E+03  0.20167568713E+04  0.20062241856E+04 0.  0.
        3    1    3    3  502    0 -0.48938480543E+03  0.33278301770E+03  0.91710864845E+03  0.10914807868E+04  0.10100000352E+00 0. -1.
       -3    1    3    3    0  502  0.48938480543E+03 -0.33278301770E+03 -0.71126211604E+03  0.92527608451E+03  0.10100000352E+00 0.  1.
</event>
<event>
 5   0  0.1782172E-04  0.2021409E+04  0.7818609E-02  0.8596676E-01
        2   -1    0    0  501    0  0.00000000000E+00  0.00000000000E+00  0.18516584506E+04  0.18516584506E+04  0.25500000920E-02 0. -1.
       -2   -1    0    0    0  501  0.00000000000E+00  0.00000000000E+00 -0.55168023226E+03  0.55168023227E+03  0.25500000920E-02 0.  1.
    10030    2    1    2    0    0  0.00000000000E+00  0.00000000000E+00  0.12999782183E+04  0.24033386828E+04  0.20214087801E+04 0.  0.
        2    1    3    3  502    0  0.90860738387E+03 -0.32151408081E+03  0.28822090141E+03  0.10059870626E+04  0.25500000920E-02 0.  1.
       -2    1    3    3    0  502 -0.90860738387E+03  0.32151408081E+03  0.10117573169E+04  0.13973516202E+04  0.25500000920E-02 0. -1.
</event>
<event>
 5   0  0.1812865E-04  0.1981973E+04  0.7818609E-02  0.8615095E-01
       -2   -1    0    0    0  501  0.00000000000E+00  0.00000000000E+00  0.15933618582E+04  0.15933618582E+04  0.25500000920E-02 0.  1.
        2   -1    0    0  501    0  0.00000000000E+00  0.00000000000E+00 -0.61634130334E+03  0.61634130334E+03  0.25500000920E-02 0. -1.
    10030    2    1    2    0    0  0.00000000000E+00  0.00000000000E+00  0.97702055490E+03  0.22097031616E+04  0.19819734856E+04 0.  0.
        3    1    3    3  502    0  0.26949930216E+03 -0.56351734279E+03 -0.36921928279E+03  0.72560633850E+03  0.10100000352E+00 0. -1.
       -3    1    3    3    0  502 -0.26949930216E+03  0.56351734279E+03  0.13462398377E+04  0.14840968231E+04  0.10100000352E+00 0.  1.
</event>
<event>
 5   0  0.1834645E-04  0.1988754E+04  0.7818609E-02  0.8611897E-01
        2   -1    0    0  501    0  0.00000000000E+00  0.00000000000E+00  0.31254428149E+04  0.31254428149E+04  0.25500000920E-02 0. -1.
       -2   -1    0    0    0  501  0.00000000000E+00  0.00000000000E+00 -0.31636642751E+03  0.31636642752E+03  0.25500000920E-02 0.  1.
    10030    2    1    2    0    0  0.00000000000E+00  0.00000000000E+00  0.28090763874E+04  0.34418092425E+04  0.19887535571E+04 0.  0.
        1    1    3    3  502    0 -0.26579208834E+03  0.81061684384E+03  0.52032005310E+03  0.99923873995E+03  0.50400001928E-02 0.  1.
       -1    1    3    3    0  502  0.26579208834E+03 -0.81061684384E+03  0.22887563343E+04  0.24425705025E+04  0.50400001928E-02 0. -1.
</event>
<event>
 5   0  0.1807498E-04  0.2008484E+04  0.7818609E-02  0.8602664E-01
        2   -1    0    0  501    0  0.00000000000E+00  0.00000000000E+00  0.90365896732E+03  0.90365896733E+03  0.25500000920E-02 0.  1.
       -2   -1    0    0    0  501  0.00000000000E+00  0.00000000000E+00 -0.11160204692E+04  0.11160204692E+04  0.25500000920E-02 0. -1.
    10030    2    1    2    0    0  0.00000000000E+00  0.00000000000E+00 -0.21236150192E+03  0.20196794366E+04  0.20084839106E+04 0.  0.
        5    1    3    3  502    0 -0.54945412419E+03 -0.40381025730E+03  0.63516491892E+03  0.93189008081E+03  0.46999998093E+01 0.  1.
       -5    1    3    3    0  502  0.54945412419E+03  0.40381025730E+03 -0.84752642084E+03  0.10877893558E+04  0.46999998093E+01 0. -1.
</event>
<event>
 5   0  0.8958919E-05  0.1942947E+04  0.7818609E-02  0.8633770E-01
        1   -1    0    0  501    0  0.00000000000E+00  0.00000000000E+00  0.98341932317E+03  0.98341932318E+03  0.50400001928E-02 0.  1.
       -1   -1    0    0    0  501  0.00000000000E+00  0.00000000000E+00 -0.95967230696E+03  0.95967230697E+03  0.50400001928E-02 0. -1.
    10030    2    1    2    0    0  0.00000000000E+00  0.00000000000E+00  0.23747016210E+02  0.19430916302E+04  0.19429465156E+04 0.  0.
        4    1    3    3  502    0 -0.34111856887E+02 -0.37557043027E+03 -0.88348208954E+03  0.96060344697E+03  0.12699999809E+01 0. -1.
       -4    1    3    3    0  502  0.34111856887E+02  0.37557043027E+03  0.90722910575E+03  0.98248818319E+03  0.12699999809E+01 0.  1.
</event>
<event>
 5   0  0.8881384E-05  0.1936562E+04  0.7818609E-02  0.8636868E-01
        1   -1    0    0  501    0  0.00000000000E+00  0.00000000000E+00  0.15253528580E+04  0.15253528580E+04  0.50400001928E-02 0. -1.
       -1   -1    0    0    0  501  0.00000000000E+00  0.00000000000E+00 -0.61465650525E+03  0.61465650527E+03  0.50400001928E-02 0.  1.
    10030    2    1    2    0    0  0.00000000000E+00  0.00000000000E+00  0.91069635272E+03  0.21400093633E+04  0.19365619608E+04 0.  0.
        5    1    3    3  502    0  0.79294423760E+03  0.48591749337E+03  0.15745494213E+03  0.94323407652E+03  0.46999998093E+01 0.  1.
       -5    1    3    3    0  502 -0.79294423760E+03 -0.48591749337E+03  0.75324141060E+03  0.11967752867E+04  0.46999998093E+01 0. -1.
</event>
<event>
 5   0  0.1893687E-04  0.1978482E+04  0.7818609E-02  0.8616747E-01
       -2   -1    0    0    0  501  0.00000000000E+00  0.00000000000E+00  0.92777739284E+03  0.92777739285E+03  0.25500000920E-02 0. -1.
        2   -1    0    0  501    0  0.00000000000E+00  0.00000000000E+00 -0.10547768315E+04  0.10547768315E+04  0.25500000920E-02 0.  1.
    10030    2    1    2    0    0  0.00000000000E+00  0.00000000000E+00 -0.12699943867E+03  0.19825542244E+04  0.19784823464E+04 0.  0.
        4    1    3    3  502    0  0.82253770427E+03  0.18109460401E+03 -0.58344423797E+03  0.10245839752E+04  0.12699999809E+01 0.  1.
       -4    1    3    3    0  502 -0.82253770427E+03 -0.18109460401E+03  0.45644479930E+03  0.95797024915E+03  0.12699999809E+01 0. -1.
</event>
<event>
 5   0  0.8958919E-05  0.1993773E+04  0.7818609E-02  0.8609537E-01
        1   -1    0    0  501    0  0.00000000000E+00  0.00000000000E+00  0.21459460892E+04  0.21459460892E+04  0.50400001928E-02 0.  1.
       -1   -1    0    0    0  501  0.00000000000E+00  0.00000000000E+00 -0.46309788273E+03  0.46309788276E+03  0.50400001928E-02 0. -1.
    10030    2    1    2    0    0  0.00000000000E+00  0.00000000000E+00  0.16828482064E+04  0.26090439719E+04  0.19937733978E+04 0.  0.
        4    1    3    3  502    0 -0.71076934107E+03  0.37020474534E+03  0.16172978216E+04  0.18049649488E+04  0.12699999809E+01 0.  1.
       -4    1    3    3    0  502  0.71076934107E+03 -0.37020474534E+03  0.65550384871E+02  0.80407902319E+03  0.12699999809E+01 0. -1.
</event>
<event>
 5   0  0.8861350E-05  0.1960994E+04  0.7818609E-02  0.8625077E-01
        1   -1    0    0  501    0  0.00000000000E+00  0.00000000000E+00  0.12584496295E+04  0.12584496295E+04  0.50400001928E-02 0.  1.
       -1   -1    0    0    0  501  0.00000000000E+00  0.00000000000E+00 -0.76393579122E+03  0.76393579124E+03  0.50400001928E-02 0. -1.
    10030    2    1    2    0    0  0.00000000000E+00  0.00000000000E+00  0.49451383827E+03  0.20223854207E+04  0.19609943533E+04 0.  0.
        1    1    3    3  502    0 -0.48859860337E+02 -0.34489360500E+03  0.11924847222E+04  0.12423198853E+04  0.50400001928E-02 0.  1.
       -1    1    3    3    0  502  0.48859860337E+02  0.34489360500E+03 -0.69797088393E+03  0.78006553543E+03  0.50400001928E-02 0. -1.
</event>
<event>
 5   0  0.1834645E-04  0.2034345E+04  0.7818609E-02  0.8590730E-01
        2   -1    0    0  501    0  0.00000000000E+00  0.00000000000E+00  0.13249065489E+04  0.13249065489E+04  0.25500000920E-02 0.  1.
       -2   -1    0    0    0  501  0.00000000000E+00  0.00000000000E+00 -0.78091521285E+03  0.78091521286E+03  0.25500000920E-02 0. -1.
    10030    2    1    2    0    0  0.00000000000E+00  0.00000000000E+00  0.54399133603E+03  0.21058217617E+04  0.20343447885E+04 0.  0.
        1    1    3    3  502    0 -0.51700147822E+03 -0.87346879254E+03  0.34066984053E+03  0.10706512972E+04  0.50400001928E-02 0.  1.
       -1    1    3    3    0  502  0.51700147822E+03  0.87346879254E+03  0.20332149550E+03  0.10351704645E+04  0.50400001928E-02 0. -1.
</event>
<event>
 5   0  0.8881384E-05  0.2029442E+04  0.7818609E-02  0.8592978E-01
       -1   -1    0    0    0  501  0.00000000000E+00  0.00000000000E+00  0.10078374250E+04  0.10078374250E+04  0.50400001928E-02 0.  1.
        1   -1    0    0  501    0  0.00000000000E+00  0.00000000000E+00 -0.10216519969E+04  0.10216519969E+04  0.50400001928E-02 0. -1.
    10030    2    1    2    0    0  0.00000000000E+00  0.00000000000E+00 -0.13814571906E+02  0.20294894219E+04  0.20294424040E+04 0.  0.
        5    1    3    3  502    0  0.25298686685E+03 -0.28111537509E+03 -0.94852817628E+03  0.10211542489E+04  0.46999998093E+01 0. -1.
       -5    1    3    3    0  502 -0.25298686685E+03  0.28111537509E+03  0.93471360438E+03  0.10083351730E+04  0.46999998093E+01 0.  1.
</event>
<event>
 5   0  0.1893687E-04  0.2050799E+04  0.7818609E-02  0.8583232E-01
        2   -1    0    0  501    0  0.00000000000E+00  0.00000000000E+00  0.10313876931E+04  0.10313876931E+04  0.25500000920E-02 0. -1.
       -2   -1    0    0    0  501  0.00000000000E+00  0.00000000000E+00 -0.10194456426E+04  0.10194456426E+04  0.25500000920E-02 0.  1.
    10030    2    1    2    0    0  0.00000000000E+00  0.00000000000E+00  0.11942050499E+02  0.20508333356E+04  0.20507985659E+04 0.  0.
        4    1    3    3  502    0 -0.35566407778E+03  0.22478905616E+03  0.94108848896E+03  0.10308618787E+04  0.12699999809E+01 0. -1.
       -4    1    3    3    0  502  0.35566407778E+03 -0.22478905616E+03 -0.92914643846E+03  0.10199714570E+04  0.12699999809E+01 0.  1.
</event>
<event>
 5   0  0.1834645E-04  0.1953656E+04  0.7818609E-02  0.8628600E-01
        2   -1    0    0  501    0  0.00000000000E+00  0.00000000000E+00  0.28387767728E+04  0.28387767728E+04  0.25500000920E-02 0. -1.
       -2   -1    0    0    0  501  0.00000000000E+00  0.00000000000E+00 -0.33612805853E+03  0.33612805854E+03  0.25500000920E-02 0.  1.
    10030    2    1    2    0    0  0.00000000000E+00  0.00000000000E+00  0.25026487143E+04  0.31749048313E+04  0.19536555738E+04 0.  0.
        1    1    3    3  502    0 -0.95401303734E+03 -0.11999940363E+03  0.15311633250E+04  0.18080381246E+04  0.50400001928E-02 0. -1.
       -1    1    3    3    0  502  0.95401303734E+03  0.11999940363E+03  0.97148538927E+03  0.13668667067E+04  0.50400001928E-02 0.  1.
</event>
<event>
 5   0  0.1812865E-04  0.2048801E+04  0.7818609E-02  0.8584138E-01
       -2   -1    0    0    0  501  0.00000000000E+00  0.00000000000E+00  0.12731219600E+04  0.12731219600E+04  0.25500000920E-02 0. -1.
        2   -1    0    0  501    0  0.00000000000E+00  0.00000000000E+00 -0.82427038293E+03  0.82427038294E+03  0.25500000920E-02 0.  1.
    10030    2    1    2    0    0  0.00000000000E+00  0.00000000000E+00  0.44885157707E+03  0.20973923429E+04  0.20488013330E+04 0.  0.
        3    1    3    3  502    0 -0.76362120228E+03  0.65065931282E+03  0.12336389151E+02  0.10033080677E+04  0.10100000352E+00 0.  1.
       -3    1    3    3    0  502  0.76362120228E+03 -0.65065931282E+03  0.43651518791E+03  0.10940842753E+04  0.10100000352E+00 0. -1.
</event>
<event>
 5   0  0.1782172E-04  0.1999672E+04  0.7818609E-02  0.8606774E-01
       -2   -1    0    0    0  501  0.00000000000E+00  0.00000000000E+00  0.10376827617E+04  0.10376827617E+04  0.25500000920E-02 0. -1.
        2   -1    0    0  501    0  0.00000000000E+00  0.00000000000E+00 -0.96336936726E+03  0.96336936726E+03  0.25500000920E-02 0.  1.
    10030    2    1    2    0    0  0.00000000000E+00  0.00000000000E+00  0.74313394458E+02  0.20010521290E+04  0.19996717586E+04 0.  0.
        2    1    3    3  502    0  0.72299342626E+03  0.64651981504E+03  0.28015022411E+03  0.10095501541E+04  0.25500000920E-02 0.  1.
       -2    1    3    3    0  502 -0.72299342626E+03 -0.64651981504E+03 -0.20583682966E+03  0.99150197483E+03  0.25500000920E-02 0. -1.
</event>
<event>
 5   0  0.1834645E-04  0.1997934E+04  0.7818609E-02  0.8607587E-01
        2   -1    0    0  501    0  0.00000000000E+00  0.00000000000E+00  0.18246707521E+04  0.18246707521E+04  0.25500000920E-02 0. -1.
       -2   -1    0    0    0  501  0.00000000000E+00  0.00000000000E+00 -0.54691228447E+03  0.54691228447E+03  0.25500000920E-02 0.  1.
    10030    2    1    2    0    0  0.00000000000E+00  0.00000000000E+00  0.12777584676E+04  0.23715830365E+04  0.19979337821E+04 0.  0.
        1    1    3    3  502    0 -0.49384707608E+03 -0.80119579499E+03  0.10363711044E+04  0.13999516787E+04  0.50400001928E-02 0. -1.
       -1    1    3    3    0  502  0.49384707608E+03  0.80119579499E+03  0.24138736314E+03  0.97163135786E+03  0.50400001928E-02 0.  1.
</event>
<event>
 5   0  0.1807498E-04  0.1985420E+04  0.7818609E-02  0.8613468E-01
        2   -1    0    0  501    0  0.00000000000E+00  0.00000000000E+00  0.14658379459E+04  0.14658379459E+04  0.25500000920E-02 0. -1.
       -2   -1    0    0    0  501  0.00000000000E+00  0.00000000000E+00 -0.67229347755E+03  0.67229347756E+03  0.25500000920E-02 0.  1.
    10030    2    1    2    0    0  0.00000000000E+00  0.00000000000E+00  0.79354446835E+03  0.21381314235E+04  0.19854201472E+04 0.  0.
        5    1    3    3  502    0 -0.61326280544E+03  0.25427329656E+03  0.11915810242E+04  0.13640504408E+04  0.46999998093E+01 0. -1.
       -5    1    3    3    0  502  0.61326280544E+03 -0.25427329656E+03 -0.39803655585E+03  0.77408098263E+03  0.46999998093E+01 0.  1.
</event>
<event>
 5   0  0.1782172E-04  0.1974582E+04  0.7818609E-02  0.8618597E-01
        2   -1    0    0  501    0  0.00000000000E+00  0.00000000000E+00  0.16425888199E+04  0.16425888199E+04  0.25500000920E-02 0. -1.
       -2   -1    0    0    0  501  0.00000000000E+00  0.00000000000E+00 -0.59341907612E+03  0.59341907612E+03  0.25500000920E-02 0.  1.
    10030    2    1    2    0    0  0.00000000000E+00  0.00000000000E+00  0.10491697438E+04  0.22360078960E+04  0.19745820215E+04 0.  0.
        2    1    3    3  502    0 -0.49865894660E+03 -0.16247655961E+03 -0.42263145709E+03  0.67355528799E+03  0.25500000920E-02 0.  1.
       -2    1    3    3    0  502  0.49865894660E+03  0.16247655961E+03  0.14718012009E+04  0.15624526080E+04  0.25500000920E-02 0. -1.
</event>
<event>
 5   0  0.8765057E-05  0.2013209E+04  0.7818609E-02  0.8600470E-01
       -1   -1    0    0    0  501  0.00000000000E+00  0.00000000000E+00  0.65703096690E+03  0.65703096692E+03  0.50400001928E-02 0.  1.
        1   -1    0    0  501    0  0.00000000000E+00  0.00000000000E+00 -0.15421685067E+04  0.15421685067E+04  0.50400001928E-02 0. -1.
    10030    2    1    2    0    0  0.00000000000E+00  0.00000000000E+00 -0.88513753976E+03  0.21991994736E+04  0.20132088467E+04 0.  0.
        3    1    3    3  502    0  0.77837072235E+03  0.62077124737E+03 -0.28041475459E+03  0.10343357133E+04  0.10100000352E+00 0.  1.
       -3    1    3    3    0  502 -0.77837072235E+03 -0.62077124737E+03 -0.60472278517E+03  0.11648637603E+04  0.10100000352E+00 0. -1.
</event>
<event>
 5   0  0.8861350E-05  0.1916331E+04  0.7818609E-02  0.8646770E-01
        1   -1    0    0  501    0  0.00000000000E+00  0.00000000000E+00  0.19963037186E+04  0.19963037186E+04  0.50400001928E-02 0.  1.
       -1   -1    0    0    0  501  0.00000000000E+00  0.00000000000E+00 -0.45989065936E+03  0.45989065939E+03  0.50400001928E-02 0. -1.
    10030    2    1    2    0    0  0.00000000000E+00  0.00000000000E+00  0.15364130593E+04  0.24561943780E+04  0.19163313215E+04 0.  0.
        1    1    3    3  502    0  0.76095907301E+03  0.17250062162E+03  0.55421770608E+02  0.78223190163E+03  0.50400001928E-02 0. -1.
       -1    1    3    3    0  502 -0.76095907301E+03 -0.17250062162E+03  0.14809912887E+04  0.16739624764E+04  0.50400001928E-02 0.  1.
</event>
<event>
 5   0  0.1782172E-04  0.2037591E+04  0.7818609E-02  0.8589245E-01
       -2   -1    0    0    0  501  0.00000000000E+00  0.00000000000E+00  0.12342993409E+04  0.12342993409E+04  0.25500000920E-02 0.  1.
        2   -1    0    0  501    0  0.00000000000E+00  0.00000000000E+00 -0.84091778315E+03  0.84091778315E+03  0.25500000920E-02 0. -1.
    10030    2    1    2    0    0  0.00000000000E+00  0.00000000000E+00  0.39338155771E+03  0.20752171240E+04  0.20375909947E+04 0.  0.
        2    1    3    3  502    0 -0.58211767268E+03 -0.42827840477E+03  0.92804643786E+03  0.11762455389E+04  0.25500000920E-02 0.  1.
       -2    1    3    3    0  502  0.58211767268E+03  0.42827840477E+03 -0.53466488015E+03  0.89897158516E+03  0.25500000920E-02 0. -1.
</event>
<event>
 5   0  0.1807498E-04  0.1975054E+04  0.7818609E-02  0.8618374E-01
        2   -1    0    0  501    0  0.00000000000E+00  0.00000000000E+00  0.10659418461E+04  0.10659418461E+04  0.25500000920E-02 0. -1.
       -2   -1    0    0    0  501  0.00000000000E+00  0.00000000000E+00 -0.91488029133E+03  0.91488029133E+03  0.25500000920E-02 0.  1.
    10030    2    1    2    0    0  0.00000000000E+00  0.00000000000E+00  0.15106155476E+03  0.19808221374E+04  0.19750536061E+04 0.  0.
        5    1    3    3  502    0  0.93043791138E+03  0.16016374292E+02 -0.25591268672E+03  0.96513451104E+03  0.46999998093E+01 0. -1.
       -5    1    3    3    0  502 -0.93043791138E+03 -0.16016374292E+02  0.40697424148E+03  0.10156876264E+04  0.46999998093E+01 0.  1.
</event>
<event>
 5   0  0.1807498E-04  0.2043357E+04  0.7818609E-02  0.8586614E-01
        2   -1    0    0  501    0  0.00000000000E+00  0.00000000000E+00  0.24517831096E+04  0.24517831096E+04  0.25500000920E-02 0. -1.
       -2   -1    0    0    0  501  0.00000000000E+00  0.00000000000E+00 -0.42574215782E+03  0.42574215783E+03  0.25500000920E-02 0.  1.
    10030    2    1    2    0    0  0.00000000000E+00  0.00000000000E+00  0.20260409517E+04  0.28775252674E+04  0.20433574642E+04 0.  0.
        5    1    3    3  502    0  0.41787786174E+03  0.53641824703E+03 -0.60788027310E+02  0.68270324252E+03  0.46999998093E+01 0.  1.
       -5    1    3    3    0  502 -0.41787786174E+03 -0.53641824703E+03  0.20868289791E+04  0.21948220249E+04  0.46999998093E+01 0. -1.
</event>
<event>
 5   0  0.8958919E-05  0.1991307E+04  0.7818609E-02  0.8610696E-01
        1   -1    0    0  501    0  0.00000000000E+00  0.00000000000E+00  0.65706871545E+03  0.65706871547E+03  0.50400001928E-02 0.  1.
       -1   -1    0    0    0  501  0.00000000000E+00  0.00000000000E+00 -0.15087100590E+04  0.15087100590E+04  0.50400001928E-02 0. -1.
    10030    2    1    2    0    0  0.00000000000E+00  0.00000000000E+00 -0.85164134353E+03  0.21657787745E+04  0.19913072897E+04 0.  0.
        4    1    3    3  502    0  0.68641229857E+03 -0.56345151143E+03 -0.91547177892E+03  0.12754331187E+04  0.12699999809E+01 0. -1.
       -4    1    3    3    0  502 -0.68641229857E+03  0.56345151143E+03  0.63830435390E+02  0.89034565577E+03  0.12699999809E+01 0.  1.
</event>
<event>
 5   0  0.8881384E-05  0.1991682E+04  0.7818609E-02  0.8610520E-01
       -1   -1    0    0    0  501  0.00000000000E+00  0.00000000000E+00  0.82753631913E+03  0.82753631915E+03  0.50400001928E-02 0.  1.
        1   -1    0    0  501    0  0.00000000000E+00  0.00000000000E+00 -0.11983751219E+04  0.11983751219E+04  0.50400001928E-02 0. -1.
    10030    2    1    2    0    0  0.00000000000E+00  0.00000000000E+00 -0.37083880280E+03  0.20259114411E+04  0.19916816386E+04 0.  0.
        5    1    3    3  502    0  0.47471775904E+03 -0.77334707927E+03 -0.60265704465E+03  0.10893301883E+04  0.46999998093E+01 0. -1.
       -5    1    3    3    0  502 -0.47471775904E+03  0.77334707927E+03  0.23181824185E+03  0.93658125276E+03  0.46999998093E+01 0.  1.
</event>
<event>
 5   0  0.1834645E-04  0.2049291E+04  0.7818609E-02  0.8583916E-01
        2   -1    0    0  501    0  0.00000000000E+00  0.00000000000E+00  0.17511083706E+04  0.17511083706E+04  0.25500000920E-02 0.  1.
       -2   -1    0    0    0  501  0.00000000000E+00  0.00000000000E+00 -0.59956196904E+03  0.59956196905E+03  0.25500000920E-02 0. -1.
    10030    2    1    2    0    0  0.00000000000E+00  0.00000000000E+00  0.11515464016E+04  0.23506703397E+04  0.20492905921E+04 0.  0.
        1    1    3    3  502    0  0.57316904060E+02  0.24748939615E+03  0.17144121405E+04  0.17331316212E+04  0.50400001928E-02 0.  1.
       -1    1    3    3    0  502 -0.57316904060E+02 -0.24748939615E+03 -0.56286573897E+03  0.61753871848E+03  0.50400001928E-02 0. -1.
</event>
<event>
 5   0  0.1893687E-04  0.2091284E+04  0.7818609E-02  0.8565093E-01
        2   -1    0    0  501    0  0.00000000000E+00  0.00000000000E+00  0.13644309658E+04  0.13644309658E+04  0.25500000920E-02 0. -1.
       -2   -1    0    0    0  501  0.00000000000E+00  0.00000000000E+00 -0.80133535812E+03  0.80133535812E+03  0.25500000920E-02 0.  1.
    10030    2    1    2    0    0  0.00000000000E+00  0.00000000000E+00  0.56309560766E+03  0.21657663239E+04  0.20912836026E+04 0.  0.
        4    1    3    3  502    0  0.95266583186E+02  0.10208518284E+04  0.49416703059E+03  0.11381638039E+04  0.12699999809E+01 0. -1.
       -4    1    3    3    0  502 -0.95266583186E+02 -0.10208518284E+04  0.68928577072E+02  0.10276025200E+04  0.12699999809E+01 0.  1.
</event>
<event>
 5   0  0.1782172E-04  0.2010327E+04  0.7818609E-02  0.8601808E-01
       -2   -1    0    0    0  501  0.00000000000E+00  0.00000000000E+00  0.85885326187E+03  0.85885326187E+03  0.25500000920E-02 0. -1.
        2   -1    0    0  501    0  0.00000000000E+00  0.00000000000E+00 -0.11763984922E+04  0.11763984922E+04  0.25500000920E-02 0.  1.
    10030    2    1    2    0    0  0.00000000000E+00  0.00000000000E+00 -0.31754523029E+03  0.20352517540E+04  0.20103270204E+04 0.  0.
        2    1    3    3  502    0 -0.22595428030E+03  0.71762648070E+03 -0.83360319601E+03  0.11229146855E+04  0.25500000920E-02 0. -1.
       -2    1    3    3    0  502  0.22595428030E+03 -0.71762648070E+03  0.51605796571E+03  0.91233706851E+03  0.25500000920E-02 0.  1.
</event>
<event>
 5   0  0.1782172E-04  0.2017957E+04  0.7818609E-02  0.8598271E-01
       -2   -1    0    0    0  501  0.00000000000E+00  0.00000000000E+00  0.10153148816E+04  0.10153148816E+04  0.25500000920E-02 0.  1.
        2   -1    0    0  501    0  0.00000000000E+00  0.00000000000E+00 -0.10026814977E+04  0.10026814977E+04  0.25500000920E-02 0. -1.
    10030    2    1    2    0    0  0.00000000000E+00  0.00000000000E+00  0.12633383943E+02  0.20179963793E+04  0.20179568342E+04 0.  0.
        2    1    3    3  502    0  0.15688365523E+03  0.97538033591E+03 -0.19876820169E+03  0.10077142844E+04  0.25500000920E-02 0. -1.
       -2    1    3    3    0  502 -0.15688365523E+03 -0.97538033591E+03  0.21140158564E+03  0.10102820950E+04  0.25500000920E-02 0.  1.
</event>
<event>
 5   0  0.8577422E-05  0.1994131E+04  0.7818609E-02  0.8609369E-01
        1   -1    0    0  501    0  0.00000000000E+00  0.00000000000E+00  0.59768295952E+03  0.59768295954E+03  0.50400001928E-02 0. -1.
       -1   -1    0    0    0  501  0.00000000000E+00  0.00000000000E+00 -0.16633228487E+04  0.16633228487E+04  0.50400001928E-02 0.  1.
    10030    2    1    2    0    0  0.00000000000E+00  0.00000000000E+00 -0.10656398892E+04  0.22610058083E+04  0.19941311119E+04 0.  0.
        2    1    3    3  502    0 -0.59116575545E+03 -0.70210542764E+03 -0.97444746950E+03  0.13386473967E+04  0.25500000920E-02 0.  1.
       -2    1    3    3    0  502  0.59116575545E+03  0.70210542764E+03 -0.91192419711E+02  0.92235841155E+03  0.25500000920E-02 0. -1.
</event>
<event>
 5   0  0.8765057E-05  0.1968639E+04  0.7818609E-02  0.8621425E-01
       -1   -1    0    0    0  501  0.00000000000E+00  0.00000000000E+00  0.94706232909E+03  0.94706232910E+03  0.50400001928E-02 0. -1.
        1   -1    0    0  501    0  0.00000000000E+00  0.00000000000E+00 -0.10230428016E+04  0.10230428016E+04  0.50400001928E-02 0.  1.
    10030    2    1    2    0    0  0.00000000000E+00  0.00000000000E+00 -0.75980472464E+02  0.19701051307E+04  0.19686394270E+04 0.  0.
        3    1    3    3  502    0  0.52350198972E+02  0.29112662868E+03 -0.97751296373E+03  0.10212868655E+04  0.10100000352E+00 0.  1.
       -3    1    3    3    0  502 -0.52350198972E+02 -0.29112662868E+03  0.90153249126E+03  0.94881826514E+03  0.10100000352E+00 0. -1.
</event>
<event>
 5   0  0.1807498E-04  0.1990329E+04  0.7818609E-02  0.8611156E-01
        2   -1    0    0  501    0  0.00000000000E+00  0.00000000000E+00  0.18074227627E+04  0.18074227627E+04  0.25500000920E-02 0.  1.
       -2   -1    0    0    0  501  0.00000000000E+00  0.00000000000E+00 -0.54793602528E+03  0.54793602529E+03  0.25500000920E-02 0. -1.
    10030    2    1    2    0    0  0.00000000000E+00  0.00000000000E+00  0.12594867375E+04  0.23553587880E+04  0.19903286609E+04 0.  0.
        5    1    3    3  502    0  0.36209159120E+03 -0.21127752623E+03  0.16978129108E+04  0.17488108198E+04  0.46999998093E+01 0.  1.
       -5    1    3    3    0  502 -0.36209159120E+03  0.21127752623E+03 -0.43832617333E+03  0.60654796820E+03  0.46999998093E+01 0. -1.
</event>
<event>
 5   0  0.1834645E-04  0.2002698E+04  0.7818609E-02  0.8605360E-01
        2   -1    0    0  501    0  0.00000000000E+00  0.00000000000E+00  0.14740704161E+04  0.14740704161E+04  0.25500000920E-02 0. -1.
       -2   -1    0    0    0  501  0.00000000000E+00  0.00000000000E+00 -0.68022540173E+03  0.68022540174E+03  0.25500000920E-02 0.  1.
    10030    2    1    2    0    0  0.00000000000E+00  0.00000000000E+00  0.79384501440E+03  0.21542958179E+04  0.20026983208E+04 0.  0.
        1    1    3    3  502    0  0.45390768170E+03  0.56698298944E+02  0.13551099591E+04  0.14302342053E+04  0.50400001928E-02 0. -1.
       -1    1    3    3    0  502 -0.45390768170E+03 -0.56698298944E+02 -0.56126494473E+03  0.72406161258E+03  0.50400001928E-02 0.  1.
</event>
<event>
 5   0  0.8958919E-05  0.1935561E+04  0.7818609E-02  0.8637355E-01
        1   -1    0    0  501    0  0.00000000000E+00  0.00000000000E+00  0.12378217425E+04  0.12378217425E+04  0.50400001928E-02 0. -1.
       -1   -1    0    0    0  501  0.00000000000E+00  0.00000000000E+00 -0.75665124790E+03  0.75665124791E+03  0.50400001928E-02 0.  1.
    10030    2    1    2    0    0  0.00000000000E+00  0.00000000000E+00  0.48117049457E+03  0.19944729904E+04  0.19355612790E+04 0.  0.
        4    1    3    3  502    0 -0.70428104690E+02 -0.64467496924E+03  0.98080296285E+03  0.11758154612E+04  0.12699999809E+01 0. -1.
       -4    1    3    3    0  502  0.70428104690E+02  0.64467496924E+03 -0.49963246828E+03  0.81865752922E+03  0.12699999809E+01 0.  1.
</event>
<event>
 5   0  0.8765057E-05  0.2005112E+04  0.7818609E-02  0.8604234E-01
       -1   -1    0    0    0  501  0.00000000000E+00  0.00000000000E+00  0.92419852542E+03  0.92419852543E+03  0.50400001928E-02 0. -1.
        1   -1    0    0  501    0  0.00000000000E+00  0.00000000000E+00 -0.10875574045E+04  0.10875574045E+04  0.50400001928E-02 0.  1.
    10030    2    1    2    0    0  0.00000000000E+00  0.00000000000E+00 -0.16335887904E+03  0.20117559299E+04  0.20051124153E+04 0.  0.
        3    1    3    3  502    0 -0.46469937764E+03  0.14868698087E+03 -0.96040411115E+03  0.10772322854E+04  0.10100000352E+00 0.  1.
       -3    1    3    3    0  502  0.46469937764E+03 -0.14868698087E+03  0.79704523211E+03  0.93452364447E+03  0.10100000352E+00 0. -1.
</event>
<event>
 5   0  0.1807498E-04  0.1986015E+04  0.7818609E-02  0.8613187E-01
       -2   -1    0    0    0  501  0.00000000000E+00  0.00000000000E+00  0.11155014004E+04  0.11155014004E+04  0.25500000920E-02 0.  1.
        2   -1    0    0  501    0  0.00000000000E+00  0.00000000000E+00 -0.88396467727E+03  0.88396467727E+03  0.25500000920E-02 0. -1.
    10030    2    1    2    0    0  0.00000000000E+00  0.00000000000E+00  0.23153672317E+03  0.19994660777E+04  0.19860149400E+04 0.  0.
        5    1    3    3  502    0  0.92410311805E+03 -0.21113507503E+02  0.48103328412E+03  0.10420304522E+04  0.46999998093E+01 0.  1.
       -5    1    3    3    0  502 -0.92410311805E+03  0.21113507503E+02 -0.24949656095E+03  0.95743562546E+03  0.46999998093E+01 0. -1.
</event>
<event>
 5   0  0.1807498E-04  0.1936183E+04  0.7818609E-02  0.8637052E-01
        2   -1    0    0  501    0  0.00000000000E+00  0.00000000000E+00  0.22903004091E+04  0.22903004091E+04  0.25500000920E-02 0. -1.
       -2   -1    0    0    0  501  0.00000000000E+00  0.00000000000E+00 -0.40920452158E+03  0.40920452158E+03  0.25500000920E-02 0.  1.
    10030    2    1    2    0    0  0.00000000000E+00  0.00000000000E+00  0.18810958875E+04  0.26995049307E+04  0.19361831351E+04 0.  0.
        5    1    3    3  502    0 -0.87275302164E+03  0.30484297211E+03  0.13411395123E+04  0.16288966682E+04  0.46999998093E+01 0.  1.
       -5    1    3    3    0  502  0.87275302164E+03 -0.30484297211E+03  0.53995637523E+03  0.10706082624E+04  0.46999998093E+01 0. -1.
</event>
<event>
 5   0  0.1782172E-04  0.1956285E+04  0.7818609E-02  0.8627336E-01
       -2   -1    0    0    0  501  0.00000000000E+00  0.00000000000E+00  0.49975663055E+03  0.49975663055E+03  0.25500000920E-02 0.  1.
        2   -1    0    0  501    0  0.00000000000E+00  0.00000000000E+00 -0.19144573627E+04  0.19144573627E+04  0.25500000920E-02 0. -1.
    10030    2    1    2    0    0  0.00000000000E+00  0.00000000000E+00 -0.14147007322E+04  0.24142139933E+04  0.19562850109E+04 0.  0.
        2    1    3    3  502    0  0.87509338937E+03  0.30222226080E+03 -0.10968901634E+04  0.14353726922E+04  0.25500000920E-02 0. -1.
       -2    1    3    3    0  502 -0.87509338937E+03 -0.30222226080E+03 -0.31781056883E+03  0.97884130108E+03  0.25500000920E-02 0.  1.
</event>
<event>
 5   0  0.1893687E-04  0.1688560E+04  0.7818609E-02  0.8767916E-01
       -2   -1    0    0    0  501  0.00000000000E+00  0.00000000000E+00  0.47011067152E+03  0.47011067153E+03  0.25500000920E-02 0. -1.
        2   -1    0    0  501    0  0.00000000000E+00  0.00000000000E+00 -0.15162578329E+04  0.15162578329E+04  0.25500000920E-02 0.  1.
    10030    2    1    2    0    0  0.00000000000E+00  0.00000000000E+00 -0.10461471614E+04  0.19863685044E+04  0.16885603194E+04 0.  0.
        4    1    3    3  502    0 -0.87135440563E+02 -0.53163830714E+03 -0.12877811667E+04  0.13959275844E+04  0.12699999809E+01 0.  1.
       -4    1    3    3    0  502  0.87135440563E+02  0.53163830714E+03  0.24163400534E+03  0.59044092004E+03  0.12699999809E+01 0. -1.
</event>
<event>
 5   0  0.8861350E-05  0.1591207E+04  0.7818609E-02  0.8825968E-01
        1   -1    0    0  501    0  0.00000000000E+00  0.00000000000E+00  0.12758662793E+04  0.12758662793E+04  0.50400001928E-02 0. -1.
       -1   -1    0    0    0  501  0.00000000000E+00  0.00000000000E+00 -0.49612145518E+03  0.49612145521E+03  0.50400001928E-02 0.  1.
    10030    2    1    2    0    0  0.00000000000E+00  0.00000000000E+00  0.77974482414E+03  0.17719877345E+04  0.15912066304E+04 0.  0.
        1    1    3    3  502    0 -0.50465360928E+03  0.24139011978E+03  0.10198663704E+04  0.11632161745E+04  0.50400001928E-02 0. -1.
       -1    1    3    3    0  502  0.50465360928E+03 -0.24139011978E+03 -0.24012154622E+03  0.60877156000E+03  0.50400001928E-02 0.  1.
</event>
<event>
 5   0  0.8861350E-05  0.2029323E+04  0.7818609E-02  0.8593033E-01
        1   -1    0    0  501    0  0.00000000000E+00  0.00000000000E+00  0.69534875779E+03  0.69534875780E+03  0.50400001928E-02 0. -1.
       -1   -1    0    0    0  501  0.00000000000E+00  0.00000000000E+00 -0.14806060260E+04  0.14806060260E+04  0.50400001928E-02 0.  1.
    10030    2    1    2    0    0  0.00000000000E+00  0.00000000000E+00 -0.78525726824E+03  0.21759547838E+04  0.20293226072E+04 0.  0.
        1    1    3    3  502    0  0.55602939151E+03 -0.27686556089E+03 -0.12529196039E+04  0.13984386854E+04  0.50400001928E-02 0.  1.
       -1    1    3    3    0  502 -0.55602939151E+03  0.27686556089E+03  0.46766233568E+03  0.77751609840E+03  0.50400001928E-02 0. -1.
</event>
<event>
 5   0  0.8881384E-05  0.1961692E+04  0.7818609E-02  0.8624743E-01
        1   -1    0    0  501    0  0.00000000000E+00  0.00000000000E+00  0.20247744680E+04  0.20247744680E+04  0.50400001928E-02 0. -1.
       -1   -1    0    0    0  501  0.00000000000E+00  0.00000000000E+00 -0.47514374312E+03  0.47514374315E+03  0.50400001928E-02 0.  1.
    10030    2    1    2    0    0  0.00000000000E+00  0.00000000000E+00  0.15496307249E+04  0.24999182112E+04  0.19616920449E+04 0.  0.
        5    1    3    3  502    0  0.52446058283E+03  0.11389653723E+03  0.18210442118E+04  0.18984876707E+04  0.46999998093E+01 0. -1.
       -5    1    3    3    0  502 -0.52446058283E+03 -0.11389653723E+03 -0.27141348697E+03  0.60143054050E+03  0.46999998093E+01 0.  1.
</event>
<event>
 5   0  0.1834645E-04  0.2005504E+04  0.7818609E-02  0.8604052E-01
       -2   -1    0    0    0  501  0.00000000000E+00  0.00000000000E+00  0.42654268556E+03  0.42654268557E+03  0.25500000920E-02 0.  1.
        2   -1    0    0  501    0  0.00000000000E+00  0.00000000000E+00 -0.23573528473E+04  0.23573528473E+04  0.25500000920E-02 0. -1.
    10030    2    1    2    0    0  0.00000000000E+00  0.00000000000E+00 -0.19308101617E+04  0.27838955328E+04  0.20055040407E+04 0.  0.
        1    1    3    3  502    0  0.97298777096E+03 -0.88982927710E+02 -0.65226475004E+03  0.11747648565E+04  0.50400001928E-02 0.  1.
       -1    1    3    3    0  502 -0.97298777096E+03  0.88982927710E+02 -0.12785454117E+04  0.16091306764E+04  0.50400001928E-02 0. -1.
</event>
<event>
 5   0  0.1893687E-04  0.1928255E+04  0.7818609E-02  0.8640919E-01
        2   -1    0    0  501    0  0.00000000000E+00  0.00000000000E+00  0.93870205797E+03  0.93870205797E+03  0.25500000920E-02 0.  1.
       -2   -1    0    0    0  501  0.00000000000E+00  0.00000000000E+00 -0.99024143707E+03  0.99024143707E+03  0.25500000920E-02 0. -1.
    10030    2    1    2    0    0  0.00000000000E+00  0.00000000000E+00 -0.51539379105E+02  0.19289434950E+04  0.19282548326E+04 0.  0.
        4    1    3    3  502    0  0.94805249176E+03 -0.12422503819E+03 -0.14952593622E+03  0.96777838669E+03  0.12699999809E+01 0. -1.
       -4    1    3    3    0  502 -0.94805249176E+03  0.12422503819E+03  0.97986557119E+02  0.96116510835E+03  0.12699999809E+01 0.  1.
</event>
<event>
 5   0  0.8958919E-05  0.2021084E+04  0.7818609E-02  0.8596826E-01
       -1   -1    0    0    0  501  0.00000000000E+00  0.00000000000E+00  0.88353605732E+03  0.88353605733E+03  0.50400001928E-02 0.  1.
        1   -1    0    0  501    0  0.00000000000E+00  0.00000000000E+00 -0.11558044848E+04  0.11558044848E+04  0.50400001928E-02 0. -1.
    10030    2    1    2    0    0  0.00000000000E+00  0.00000000000E+00 -0.27226842746E+03  0.20393405421E+04  0.20210838058E+04 0.  0.
        4    1    3    3  502    0  0.47102780588E+02 -0.10044347290E+04 -0.34800315715E+02  0.10061413775E+04  0.12699999809E+01 0. -1.
       -4    1    3    3    0  502 -0.47102780588E+02  0.10044347290E+04 -0.23746811174E+03  0.10331991646E+04  0.12699999809E+01 0.  1.
</event>
<event>
 5   0  0.8881384E-05  0.2012874E+04  0.7818609E-02  0.8600625E-01
        1   -1    0    0  501    0  0.00000000000E+00  0.00000000000E+00  0.15503112900E+04  0.15503112900E+04  0.50400001928E-02 0. -1.
       -1   -1    0    0    0  501  0.00000000000E+00  0.00000000000E+00 -0.65336259020E+03  0.65336259022E+03  0.50400001928E-02 0.  1.
    10030    2    1    2    0    0  0.00000000000E+00  0.00000000000E+00  0.89694869980E+03  0.22036738802E+04  0.20128739653E+04 0.  0.
        5    1    3    3  502    0 -0.33893011370E+03 -0.22092473365E+03  0.14573526707E+04  0.15124748781E+04  0.46999998093E+01 0. -1.
       -5    1    3    3    0  502  0.33893011370E+03  0.22092473365E+03 -0.56040397095E+03  0.69119900215E+03  0.46999998093E+01 0.  1.
</event>
<event>
 5   0  0.1834645E-04  0.2001689E+04  0.7818609E-02  0.8605831E-01
       -2   -1    0    0    0  501  0.00000000000E+00  0.00000000000E+00  0.15316508741E+04  0.15316508741E+04  0.25500000920E-02 0. -1.
        2   -1    0    0  501    0  0.00000000000E+00  0.00000000000E+00 -0.65399362351E+03  0.65399362351E+03  0.25500000920E-02 0.  1.
    10030    2    1    2    0    0  0.00000000000E+00  0.00000000000E+00  0.87765725055E+03  0.21856444976E+04  0.20016891917E+04 0.  0.
        1    1    3    3  502    0 -0.96850016077E+03  0.17693089938E+03  0.63534879375E+03  0.11717359747E+04  0.50400001928E-02 0.  1.
       -1    1    3    3    0  502  0.96850016077E+03 -0.17693089938E+03  0.24230845680E+03  0.10139085229E+04  0.50400001928E-02 0. -1.
</event>
<event>
 5   0  0.8765057E-05  0.1984605E+04  0.7818609E-02  0.8613852E-01
       -1   -1    0    0    0  501  0.00000000000E+00  0.00000000000E+00  0.69320376494E+03  0.69320376496E+03  0.50400001928E-02 0. -1.
        1   -1    0    0  501    0  0.00000000000E+00  0.00000000000E+00 -0.14204547340E+04  0.14204547341E+04  0.50400001928E-02 0.  1.
    10030    2    1    2    0    0  0.00000000000E+00  0.00000000000E+00 -0.72725096911E+03  0.21136584990E+04  0.19846053206E+04 0.  0.
        3    1    3    3  502    0  0.85790734549E+03  0.47063940168E+03 -0.53913891587E+03  0.11172185286E+04  0.10100000352E+00 0. -1.
       -3    1    3    3    0  502 -0.85790734549E+03 -0.47063940168E+03 -0.18811205324E+03  0.99643997041E+03  0.10100000352E+00 0.  1.
</event>
<event>
 5   0  0.1782172E-04  0.2094100E+04  0.7818609E-02  0.8563847E-01
       -2   -1    0    0    0  501  0.00000000000E+00  0.00000000000E+00  0.73110274663E+03  0.73110274663E+03  0.25500000920E-02 0.  1.
        2   -1    0    0  501    0  0.00000000000E+00  0.00000000000E+00 -0.14995337601E+04  0.14995337601E+04  0.25500000920E-02 0. -1.
    10030    2    1    2    0    0  0.00000000000E+00  0.00000000000E+00 -0.76843101350E+03  0.22306365068E+04  0.20940995685E+04 0.  0.
        2    1    3    3  502    0  0.46688400695E+03 -0.10335503284E+03 -0.13764260600E+04  0.14571244413E+04  0.25500000920E-02 0. -1.
       -2    1    3    3    0  502 -0.46688400695E+03  0.10335503284E+03  0.60799504654E+03  0.77351206544E+03  0.25500000920E-02 0.  1.
</event>
<event>
 5   0  0.1782172E-04  0.1989478E+04  0.7818609E-02  0.8611556E-01
       -2   -1    0    0    0  501  0.00000000000E+00  0.00000000000E+00  0.39972524325E+03  0.39972524326E+03  0.25500000920E-02 0.  1.
        2   -1    0    0  501    0  0.00000000000E+00  0.00000000000E+00 -0.24754656178E+04  0.24754656178E+04  0.25500000920E-02 0. -1.
    10030    2    1    2    0    0  0.00000000000E+00  0.00000000000E+00 -0.20757403745E+04  0.28751908610E+04  0.19894784203E+04 0.  0.
        2    1    3    3  502    0 -0.83126068417E+03 -0.53605409278E+03 -0.88521331523E+03  0.13273849965E+04  0.25500000920E-02 0.  1.
       -2    1    3    3    0  502  0.83126068417E+03  0.53605409278E+03 -0.11905270593E+04  0.15478058646E+04  0.25500000920E-02 0. -1.
</event>
<event>
 5   0  0.1893687E-04  0.2014002E+04  0.7818609E-02  0.8600102E-01
       -2   -1    0    0    0  501  0.00000000000E+00  0.00000000000E+00  0.50422334268E+03  0.50422334269E+03  0.25500000920E-02 0. -1.
        2   -1    0    0  501    0  0.00000000000E+00  0.00000000000E+00 -0.20111152162E+04  0.20111152162E+04  0.25500000920E-02 0.  1.
    10030    2    1    2    0    0  0.00000000000E+00  0.00000000000E+00 -0.15068918735E+04  0.25153385589E+04  0.20140022213E+04 0.  0.
        4    1    3    3  502    0 -0.51376496216E+03  0.81005926315E+03 -0.11361538109E+04  0.14869423462E+04  0.12699999809E+01 0. -1.
       -4    1    3    3    0  502  0.51376496216E+03 -0.81005926315E+03 -0.37073806259E+03  0.10283962126E+04  0.12699999809E+01 0.  1.
</event>
<event>
 5   0  0.1807498E-04  0.2139342E+04  0.7818609E-02  0.8544108E-01
        2   -1    0    0  501    0  0.00000000000E+00  0.00000000000E+00  0.13576212344E+04  0.13576212344E+04  0.25500000920E-02 0. -1.
       -2   -1    0    0    0  501  0.00000000000E+00  0.00000000000E+00 -0.84279507385E+03  0.84279507385E+03  0.25500000920E-02 0.  1.
    10030    2    1    2    0    0  0.00000000000E+00  0.00000000000E+00  0.51482616051E+03  0.22004163082E+04  0.21393424116E+04 0.  0.
        5    1    3    3  502    0  0.36604873106E+03 -0.97908639649E+03  0.49099212083E+03  0.11548580857E+04  0.46999998093E+01 0. -1.
       -5    1    3    3    0  502 -0.36604873106E+03  0.97908639649E+03  0.23834039689E+02  0.10455582226E+04  0.46999998093E+01 0.  1.
</event>
<event>
 5   0  0.1834645E-04  0.1998306E+04  0.7818609E-02  0.8607413E-01
       -2   -1    0    0    0  501  0.00000000000E+00  0.00000000000E+00  0.55918290969E+03  0.55918290970E+03  0.25500000920E-02 0. -1.
        2   -1    0    0  501    0  0.00000000000E+00  0.00000000000E+00 -0.17852953173E+04  0.17852953173E+04  0.25500000920E-02 0.  1.
    10030    2    1    2    0    0  0.00000000000E+00  0.00000000000E+00 -0.12261124076E+04  0.23444782270E+04  0.19983059127E+04 0.  0.
        1    1    3    3  502    0  0.62555577272E+03 -0.10966250336E+03  0.29190171576E+03  0.69896530752E+03  0.50400001928E-02 0. -1.
       -1    1    3    3    0  502 -0.62555577272E+03  0.10966250336E+03 -0.15180141234E+04  0.16455129195E+04  0.50400001928E-02 0.  1.
</event>
<event>
 5   0  0.1807498E-04  0.1987444E+04  0.7818609E-02  0.8612514E-01
       -2   -1    0    0    0  501  0.00000000000E+00  0.00000000000E+00  0.14096885337E+04  0.14096885337E+04  0.25500000920E-02 0. -1.
        2   -1    0    0  501    0  0.00000000000E+00  0.00000000000E+00 -0.70049766413E+03  0.70049766413E+03  0.25500000920E-02 0.  1.
    10030    2    1    2    0    0  0.00000000000E+00  0.00000000000E+00  0.70919086953E+03  0.21101861978E+04  0.19874441124E+04 0.  0.
        5    1    3    3  502    0 -0.41328883765E+03  0.87888094305E+03  0.57787312762E+03  0.11301322122E+04  0.46999998093E+01 0. -1.
       -5    1    3    3    0  502  0.41328883765E+03 -0.87888094305E+03  0.13131774191E+03  0.98005398562E+03  0.46999998093E+01 0.  1.
</event>
<event>
 5   0  0.8958919E-05  0.1950335E+04  0.7818609E-02  0.8630199E-01
        1   -1    0    0  501    0  0.00000000000E+00  0.00000000000E+00  0.14738476929E+04  0.14738476929E+04  0.50400001928E-02 0. -1.
       -1   -1    0    0    0  501  0.00000000000E+00  0.00000000000E+00 -0.64521689308E+03  0.64521689310E+03  0.50400001928E-02 0.  1.
    10030    2    1    2    0    0  0.00000000000E+00  0.00000000000E+00  0.82863079980E+03  0.21190645860E+04  0.19503347705E+04 0.  0.
        4    1    3    3  502    0 -0.45969385371E+03 -0.15838607219E+03 -0.50412270158E+03  0.70038981870E+03  0.12699999809E+01 0.  1.
       -4    1    3    3    0  502  0.45969385371E+03  0.15838607219E+03  0.13327535014E+04  0.14186747673E+04  0.12699999809E+01 0. -1.
</event>
<event>
 5   0  0.8881384E-05  0.2060696E+04  0.7818609E-02  0.8578758E-01
        1   -1    0    0  501    0  0.00000000000E+00  0.00000000000E+00  0.11798972775E+04  0.11798972775E+04  0.50400001928E-02 0. -1.
       -1   -1    0    0    0  501  0.00000000000E+00  0.00000000000E+00 -0.89975338146E+03  0.89975338148E+03  0.50400001928E-02 0.  1.
    10030    2    1    2    0    0  0.00000000000E+00  0.00000000000E+00  0.28014389602E+03  0.20796506590E+04  0.20606955770E+04 0.  0.
        5    1    3    3  502    0 -0.40192452241E+03 -0.93289118394E+03 -0.34040930865E+02  0.10163710729E+04  0.46999998093E+01 0.  1.
       -5    1    3    3    0  502  0.40192452241E+03  0.93289118394E+03  0.31418482688E+03  0.10632795861E+04  0.46999998093E+01 0. -1.
</event>
<event>
 5   0  0.1893687E-04  0.2020186E+04  0.7818609E-02  0.8597241E-01
       -2   -1    0    0    0  501  0.00000000000E+00  0.00000000000E+00  0.65346999476E+03  0.65346999477E+03  0.25500000920E-02 0. -1.
        2   -1    0    0  501    0  0.00000000000E+00  0.00000000000E+00 -0.15613385123E+04  0.15613385123E+04  0.25500000920E-02 0.  1.
    10030    2    1    2    0    0  0.00000000000E+00  0.00000000000E+00 -0.90786851757E+03  0.22148085071E+04  0.20201860008E+04 0.  0.
        4    1    3    3  502    0  0.31664079890E+03  0.92271770138E+03 -0.74111835588E+03  0.12251234151E+04  0.12699999809E+01 0.  1.
       -4    1    3    3    0  502 -0.31664079890E+03 -0.92271770138E+03 -0.16675016169E+03  0.98968509198E+03  0.12699999809E+01 0. -1.
</event>
<event>
 5   0  0.1782172E-04  0.2003047E+04  0.7818609E-02  0.8605197E-01
        2   -1    0    0  501    0  0.00000000000E+00  0.00000000000E+00  0.11840960924E+04  0.11840960924E+04  0.25500000920E-02 0. -1.
       -2   -1    0    0    0  501  0.00000000000E+00  0.00000000000E+00 -0.84710124654E+03  0.84710124654E+03  0.25500000920E-02 0.  1.
    10030    2    1    2    0    0  0.00000000000E+00  0.00000000000E+00  0.33699484583E+03  0.20311973389E+04  0.20030469549E+04 0.  0.
        2    1    3    3  502    0  0.58727911830E+03 -0.19159678604E+03 -0.63089808524E+03  0.88297139545E+03  0.25500000920E-02 0.  1.
       -2    1    3    3    0  502 -0.58727911830E+03  0.19159678604E+03  0.96789293106E+03  0.11482259435E+04  0.25500000920E-02 0. -1.
</event>
<event>
 5   0  0.8881384E-05  0.2020751E+04  0.7818609E-02  0.8596980E-01
       -1   -1    0    0    0  501  0.00000000000E+00  0.00000000000E+00  0.39898962017E+03  0.39898962020E+03  0.50400001928E-02 0. -1.
        1   -1    0    0  501    0  0.00000000000E+00  0.00000000000E+00 -0.25586087894E+04  0.25586087894E+04  0.50400001928E-02 0.  1.
    10030    2    1    2    0    0  0.00000000000E+00  0.00000000000E+00 -0.21596191692E+04  0.29575984096E+04  0.20207507012E+04 0.  0.
        5    1    3    3  502    0  0.34981850919E+03  0.78913486979E+03 -0.31126684347E+03  0.91761428167E+03  0.46999998093E+01 0. -1.
       -5    1    3    3    0  502 -0.34981850919E+03 -0.78913486979E+03 -0.18483523257E+04  0.20399841279E+04  0.46999998093E+01 0.  1.
</event>
<event>
 5   0  0.8577422E-05  0.2035795E+04  0.7818609E-02  0.8590066E-01
       -1   -1    0    0    0  501  0.00000000000E+00  0.00000000000E+00  0.56423593492E+03  0.56423593494E+03  0.50400001928E-02 0.  1.
        1   -1    0    0  501    0  0.00000000000E+00  0.00000000000E+00 -0.18363163498E+04  0.18363163498E+04  0.50400001928E-02 0. -1.
    10030    2    1    2    0    0  0.00000000000E+00  0.00000000000E+00 -0.12720804149E+04  0.24005522847E+04  0.20357953458E+04 0.  0.
        2    1    3    3  502    0  0.17682034996E+03  0.67538086782E+03 -0.15095119380E+04  0.16631389129E+04  0.25500000920E-02 0. -1.
       -2    1    3    3    0  502 -0.17682034996E+03 -0.67538086782E+03  0.23743152310E+03  0.73741337182E+03  0.25500000920E-02 0.  1.
</event>
<event>
 5   0  0.1807498E-04  0.1891569E+04  0.7818609E-02  0.8659064E-01
       -2   -1    0    0    0  501  0.00000000000E+00  0.00000000000E+00  0.75373826075E+03  0.75373826076E+03  0.25500000920E-02 0. -1.
        2   -1    0    0  501    0  0.00000000000E+00  0.00000000000E+00 -0.11867625312E+04  0.11867625312E+04  0.25500000920E-02 0.  1.
    10030    2    1    2    0    0  0.00000000000E+00  0.00000000000E+00 -0.43302427048E+03  0.19405007920E+04  0.18915690061E+04 0.  0.
        5    1    3    3  502    0 -0.91587389708E+03 -0.20439034577E+03 -0.95625715094E+02  0.94327449672E+03  0.46999998093E+01 0. -1.
       -5    1    3    3    0  502  0.91587389708E+03  0.20439034577E+03 -0.33739855538E+03  0.99722629526E+03  0.46999998093E+01 0.  1.
</event>
<event>
 5   0  0.8577422E-05  0.2005060E+04  0.7818609E-02  0.8604259E-01
       -1   -1    0    0    0  501  0.00000000000E+00  0.00000000000E+00  0.68261383192E+03  0.68261383193E+03  0.50400001928E-02 0. -1.
        1   -1    0    0  501    0  0.00000000000E+00  0.00000000000E+00 -0.14723793752E+04  0.14723793752E+04  0.50400001928E-02 0.  1.
    10030    2    1    2    0    0  0.00000000000E+00  0.00000000000E+00 -0.78976554325E+03  0.21549932071E+04  0.20050601261E+04 0.  0.
        2    1    3    3  502    0 -0.33497497905E+03 -0.45556392540E+03  0.49486138617E+03  0.75142166475E+03  0.25500000920E-02 0. -1.
       -2    1    3    3    0  502  0.33497497905E+03  0.45556392540E+03 -0.12846269294E+04  0.14035715424E+04  0.25500000920E-02 0.  1.
</event>
<event>
 5   0  0.8765057E-05  0.1979945E+04  0.7818609E-02  0.8616055E-01
       -1   -1    0    0    0  501  0.00000000000E+00  0.00000000000E+00  0.71614702373E+03  0.71614702375E+03  0.50400001928E-02 0.  1.
        1   -1    0    0  501    0  0.00000000000E+00  0.00000000000E+00 -0.13684981862E+04  0.13684981862E+04  0.50400001928E-02 0. -1.
    10030    2    1    2    0    0  0.00000000000E+00  0.00000000000E+00 -0.65235116244E+03  0.20846452099E+04  0.19799453558E+04 0.  0.
        3    1    3    3  502    0  0.60251718445E+03  0.27642357564E+03  0.44796629413E+03  0.80006922301E+03  0.10100000352E+00 0.  1.
       -3    1    3    3    0  502 -0.60251718445E+03 -0.27642357564E+03 -0.11003174566E+04  0.12845759869E+04  0.10100000352E+00 0. -1.
</event>
<event>
 5   0  0.8861350E-05  0.1714865E+04  0.7818609E-02  0.8752931E-01
        1   -1    0    0  501    0  0.00000000000E+00  0.00000000000E+00  0.10754896006E+04  0.10754896006E+04  0.50400001928E-02 0. -1.
       -1   -1    0    0    0  501  0.00000000000E+00  0.00000000000E+00 -0.68358702521E+03  0.68358702523E+03  0.50400001928E-02 0.  1.
    10030    2    1    2    0    0  0.00000000000E+00  0.00000000000E+00  0.39190257541E+03  0.17590766259E+04  0.17148652854E+04 0.  0.
        1    1    3    3  502    0 -0.83108910401E+03 -0.96493963558E+02  0.35781861764E+01  0.83667973996E+03  0.50400001928E-02 0.  1.
       -1    1    3    3    0  502  0.83108910401E+03  0.96493963558E+02  0.38832438924E+03  0.92239688590E+03  0.50400001928E-02 0. -1.
</event>
<event>
 5   0  0.1834645E-04  0.1994829E+04  0.7818609E-02  0.8609042E-01
        2   -1    0    0  501    0  0.00000000000E+00  0.00000000000E+00  0.12175990557E+04  0.12175990557E+04  0.25500000920E-02 0. -1.
       -2   -1    0    0    0  501  0.00000000000E+00  0.00000000000E+00 -0.81704701700E+03  0.81704701700E+03  0.25500000920E-02 0.  1.
    10030    2    1    2    0    0  0.00000000000E+00  0.00000000000E+00  0.40055203866E+03  0.20346460727E+04  0.19948289915E+04 0.  0.
        1    1    3    3  502    0  0.51020213832E+03 -0.84945348872E+03  0.31638236574E+03  0.10401803944E+04  0.50400001928E-02 0.  1.
       -1    1    3    3    0  502 -0.51020213832E+03  0.84945348872E+03  0.84169672924E+02  0.99446567830E+03  0.50400001928E-02 0. -1.
</event>
<event>
 5   0  0.1812865E-04  0.1849584E+04  0.7818609E-02  0.8680367E-01
        2   -1    0    0  501    0  0.00000000000E+00  0.00000000000E+00  0.14798304633E+04  0.14798304633E+04  0.25500000920E-02 0.  1.
       -2   -1    0    0    0  501  0.00000000000E+00  0.00000000000E+00 -0.57793110580E+03  0.57793110580E+03  0.25500000920E-02 0. -1.
    10030    2    1    2    0    0  0.00000000000E+00  0.00000000000E+00  0.90189935747E+03  0.20577615691E+04  0.18495837975E+04 0.  0.
        3    1    3    3  502    0  0.34549228929E+03 -0.41118117943E+03 -0.38665276927E+03  0.66176677044E+03  0.10100000352E+00 0. -1.
       -3    1    3    3    0  502 -0.34549228929E+03  0.41118117943E+03  0.12885521267E+04  0.13959947986E+04  0.10100000352E+00 0.  1.
</event>
<event>
 5   0  0.1807498E-04  0.2023179E+04  0.7818609E-02  0.8595860E-01
        2   -1    0    0  501    0  0.00000000000E+00  0.00000000000E+00  0.21366506934E+04  0.21366506934E+04  0.25500000920E-02 0.  1.
       -2   -1    0    0    0  501  0.00000000000E+00  0.00000000000E+00 -0.47893336324E+03  0.47893336325E+03  0.25500000920E-02 0. -1.
    10030    2    1    2    0    0  0.00000000000E+00  0.00000000000E+00  0.16577173302E+04  0.26155840567E+04  0.20231789863E+04 0.  0.
        5    1    3    3  502    0 -0.11036376173E+03  0.54813387745E+03  0.19187053435E+04  0.19985202507E+04  0.46999998093E+01 0.  1.
       -5    1    3    3    0  502  0.11036376173E+03 -0.54813387745E+03 -0.26098801330E+03  0.61706380594E+03  0.46999998093E+01 0. -1.
</event>
<event>
 5   0  0.1893687E-04  0.1826415E+04  0.7818609E-02  0.8692377E-01
       -2   -1    0    0    0  501  0.00000000000E+00  0.00000000000E+00  0.11167850559E+04  0.11167850559E+04  0.25500000920E-02 0.  1.
        2   -1    0    0  501    0  0.00000000000E+00  0.00000000000E+00 -0.74674021999E+03  0.74674022000E+03  0.25500000920E-02 0. -1.
    10030    2    1    2    0    0  0.00000000000E+00  0.00000000000E+00  0.37004483591E+03  0.18635252759E+04  0.18264154164E+04 0.  0.
        4    1    3    3  502    0 -0.20850559598E+03  0.34182154783E+03  0.10224484984E+04  0.10980524117E+04  0.12699999809E+01 0.  1.
       -4    1    3    3    0  502  0.20850559598E+03 -0.34182154783E+03 -0.65240366247E+03  0.76547286420E+03  0.12699999809E+01 0. -1.
</event>
<event>
 5   0  0.1834645E-04  0.2033009E+04  0.7818609E-02  0.8591342E-01
       -2   -1    0    0    0  501  0.00000000000E+00  0.00000000000E+00  0.91702573293E+03  0.91702573293E+03  0.25500000920E-02 0. -1.
        2   -1    0    0  501    0  0.00000000000E+00  0.00000000000E+00 -0.11267742745E+04  0.11267742745E+04  0.25500000920E-02 0.  1.
    10030    2    1    2    0    0  0.00000000000E+00  0.00000000000E+00 -0.20974854155E+03  0.20438000074E+04  0.20330086128E+04 0.  0.
        1    1    3    3  502    0 -0.57832781626E+03  0.40929493034E+03 -0.83764360847E+03  0.10971017354E+04  0.50400001928E-02 0.  1.
       -1    1    3    3    0  502  0.57832781626E+03 -0.40929493034E+03  0.62789506692E+03  0.94669827197E+03  0.50400001928E-02 0. -1.
</event>
<event>
 5   0  0.8577422E-05  0.2023800E+04  0.7818609E-02  0.8595574E-01
       -1   -1    0    0    0  501  0.00000000000E+00  0.00000000000E+00  0.74048090567E+03  0.74048090569E+03  0.50400001928E-02 0.  1.
        1   -1    0    0  501    0  0.00000000000E+00  0.00000000000E+00 -0.13828059118E+04  0.13828059119E+04  0.50400001928E-02 0. -1.
    10030    2    1    2    0    0  0.00000000000E+00  0.00000000000E+00 -0.64232500617E+03  0.21232868175E+04  0.20237997668E+04 0.  0.
        2    1    3    3  502    0  0.80525529800E+03 -0.46150627351E+03 -0.74411426557E+03  0.11895924410E+04  0.25500000920E-02 0. -1.
       -2    1    3    3    0  502 -0.80525529800E+03  0.46150627351E+03  0.10178925940E+03  0.93369437654E+03  0.25500000920E-02 0.  1.
</event>
<event>
 5   0  0.8765057E-05  0.2166233E+04  0.7818609E-02  0.8532616E-01
        1   -1    0    0  501    0  0.00000000000E+00  0.00000000000E+00  0.11960059873E+04  0.11960059873E+04  0.50400001928E-02 0.  1.
       -1   -1    0    0    0  501  0.00000000000E+00  0.00000000000E+00 -0.98088243116E+03  0.98088243117E+03  0.50400001928E-02 0. -1.
    10030    2    1    2    0    0  0.00000000000E+00  0.00000000000E+00  0.21512355610E+03  0.21768884184E+04  0.21662329150E+04 0.  0.
        3    1    3    3  502    0 -0.10885636991E+03 -0.10334660613E+04 -0.19929155800E+03  0.10581204773E+04  0.10100000352E+00 0. -1.
       -3    1    3    3    0  502  0.10885636991E+03  0.10334660613E+04  0.41441511410E+03  0.11187679412E+04  0.10100000352E+00 0.  1.
</event>
<event>
 5   0  0.1812865E-04  0.1651752E+04  0.7818609E-02  0.8789371E-01
       -2   -1    0    0    0  501  0.00000000000E+00  0.00000000000E+00  0.35024190844E+03  0.35024190845E+03  0.25500000920E-02 0. -1.
        2   -1    0    0  501    0  0.00000000000E+00  0.00000000000E+00 -0.19474293003E+04  0.19474293003E+04  0.25500000920E-02 0.  1.
    10030    2    1    2    0    0  0.00000000000E+00  0.00000000000E+00 -0.15971873919E+04  0.22976712088E+04  0.16517522268E+04 0.  0.
        3    1    3    3  502    0 -0.79089756659E+02  0.66471430424E+03 -0.12573473267E+03  0.68110904345E+03  0.10100000352E+00 0. -1.
       -3    1    3    3    0  502  0.79089756659E+02 -0.66471430424E+03 -0.14714526592E+04  0.16165621653E+04  0.10100000352E+00 0.  1.
</event>
<event>
 5   0  0.1812865E-04  0.2014527E+04  0.7818609E-02  0.8599859E-01
       -2   -1    0    0    0  501  0.00000000000E+00  0.00000000000E+00  0.88356287247E+03  0.88356287248E+03  0.25500000920E-02 0.  1.
        2   -1    0    0  501    0  0.00000000000E+00  0.00000000000E+00 -0.11482819691E+04  0.11482819691E+04  0.25500000920E-02 0. -1.
    10030    2    1    2    0    0  0.00000000000E+00  0.00000000000E+00 -0.26471909667E+03  0.20318448416E+04  0.20145265598E+04 0.  0.
        3    1    3    3  502    0  0.19384615004E+02  0.19238817179E+03 -0.11293870184E+04  0.11458202387E+04  0.10100000352E+00 0. -1.
       -3    1    3    3    0  502 -0.19384615004E+02 -0.19238817179E+03  0.86466792171E+03  0.88602460292E+03  0.10100000352E+00 0.  1.
</event>
<event>
 5   0  0.8577422E-05  0.1984304E+04  0.7818609E-02  0.8613994E-01
        1   -1    0    0  501    0  0.00000000000E+00  0.00000000000E+00  0.13212100886E+04  0.13212100886E+04  0.50400001928E-02 0. -1.
       -1   -1    0    0    0  501  0.00000000000E+00  0.00000000000E+00 -0.74504870616E+03  0.74504870618E+03  0.50400001928E-02 0.  1.
    10030    2    1    2    0    0  0.00000000000E+00  0.00000000000E+00  0.57616138240E+03  0.20662587947E+04  0.19843042781E+04 0.  0.
        2    1    3    3  502    0 -0.36679292758E+03  0.85561018484E+03  0.64541555814E+03  0.11327696513E+04  0.25500000920E-02 0. -1.
       -2    1    3    3    0  502  0.36679292758E+03 -0.85561018484E+03 -0.69254175743E+02  0.93348914348E+03  0.25500000920E-02 0.  1.
</event>
<event>
 5   0  0.8861350E-05  0.1993416E+04  0.7818609E-02  0.8609705E-01
        1   -1    0    0  501    0  0.00000000000E+00  0.00000000000E+00  0.11730543356E+04  0.11730543356E+04  0.50400001928E-02 0.  1.
       -1   -1    0    0    0  501  0.00000000000E+00  0.00000000000E+00 -0.84687196346E+03  0.84687196348E+03  0.50400001928E-02 0. -1.
    10030    2    1    2    0    0  0.00000000000E+00  0.00000000000E+00  0.32618237215E+03  0.20199262991E+04  0.19934159912E+04 0.  0.
        1    1    3    3  502    0  0.12368063785E+03 -0.80836499953E+03 -0.41429002839E+03  0.91672629519E+03  0.50400001928E-02 0. -1.
       -1    1    3    3    0  502 -0.12368063785E+03  0.80836499953E+03  0.74047240053E+03  0.11032000039E+04  0.50400001928E-02 0.  1.
</event>
<event>
 5   0  0.1807498E-04  0.1996482E+04  0.7818609E-02  0.8608267E-01
        2   -1    0    0  501    0  0.00000000000E+00  0.00000000000E+00  0.19556994792E+04  0.19556994792E+04  0.25500000920E-02 0.  1.
       -2   -1    0    0    0  501  0.00000000000E+00  0.00000000000E+00 -0.50952889972E+03  0.50952889972E+03  0.25500000920E-02 0. -1.
    10030    2    1    2    0    0  0.00000000000E+00  0.00000000000E+00  0.14461705795E+04  0.24652283789E+04  0.19964823103E+04 0.  0.
        5    1    3    3  502    0  0.86090109967E+03 -0.22408265932E+03  0.12822941827E+04  0.15606614632E+04  0.46999998093E+01 0.  1.
       -5    1    3    3    0  502 -0.86090109967E+03  0.22408265932E+03  0.16387639676E+03  0.90456691573E+03  0.46999998093E+01 0. -1.
</event>
<event>
 5   0  0.8958919E-05  0.2011855E+04  0.7818609E-02  0.8601098E-01
        1   -1    0    0  501    0  0.00000000000E+00  0.00000000000E+00  0.18416089738E+04  0.18416089738E+04  0.50400001928E-02 0. -1.
       -1   -1    0    0    0  501  0.00000000000E+00  0.00000000000E+00 -0.54945978817E+03  0.54945978820E+03  0.50400001928E-02 0.  1.
    10030    2    1    2    0    0  0.00000000000E+00  0.00000000000E+00  0.12921491856E+04  0.23910687620E+04  0.20118549418E+04 0.  0.
        4    1    3    3  502    0  0.10461400349E+03 -0.17068435555E+03 -0.52554427526E+03  0.56238388767E+03  0.12699999809E+01 0.  1.
       -4    1    3    3    0  502 -0.10461400349E+03  0.17068435555E+03  0.18176934609E+04  0.18286848743E+04  0.12699999809E+01 0. -1.
</event>
<event>
 5   0  0.8861350E-05  0.2007124E+04  0.7818609E-02  0.8603297E-01
        1   -1    0    0  501    0  0.00000000000E+00  0.00000000000E+00  0.79215805252E+03  0.79215805254E+03  0.50400001928E-02 0. -1.
       -1   -1    0    0    0  501  0.00000000000E+00  0.00000000000E+00 -0.12713829185E+04  0.12713829185E+04  0.50400001928E-02 0.  1.
    10030    2    1    2    0    0  0.00000000000E+00  0.00000000000E+00 -0.47922486598E+03  0.20635409711E+04  0.20071235306E+04 0.  0.
        1    1    3    3  502    0  0.63950963320E+03 -0.36842532206E+03  0.45952139588E+03  0.86940767318E+03  0.50400001928E-02 0. -1.
       -1    1    3    3    0  502 -0.63950963320E+03  0.36842532206E+03 -0.93874626186E+03  0.11941332979E+04  0.50400001928E-02 0.  1.
</event>
<event>
 5   0  0.1893687E-04  0.1982860E+04  0.7818609E-02  0.8614676E-01
        2   -1    0    0  501    0  0.00000000000E+00  0.00000000000E+00  0.12812596608E+04  0.12812596608E+04  0.25500000920E-02 0.  1.
       -2   -1    0    0    0  501  0.00000000000E+00  0.00000000000E+00 -0.76716181972E+03  0.76716181973E+03  0.25500000920E-02 0. -1.
    10030    2    1    2    0    0  0.00000000000E+00  0.00000000000E+00  0.51409784108E+03  0.20484214805E+04  0.19828600484E+04 0.  0.
        4    1    3    3  502    0 -0.31792706881E+03 -0.70737133138E+03  0.89511135881E+03  0.11843469843E+04  0.12699999809E+01 0.  1.
       -4    1    3    3    0  502  0.31792706881E+03  0.70737133138E+03 -0.38101351772E+03  0.86407449629E+03  0.12699999809E+01 0. -1.
</event>
<event>
 5   0  0.8765057E-05  0.1945844E+04  0.7818609E-02  0.8632367E-01
       -1   -1    0    0    0  501  0.00000000000E+00  0.00000000000E+00  0.74754629328E+03  0.74754629330E+03  0.50400001928E-02 0.  1.
        1   -1    0    0  501    0  0.00000000000E+00  0.00000000000E+00 -0.12662457176E+04  0.12662457176E+04  0.50400001928E-02 0. -1.
    10030    2    1    2    0    0  0.00000000000E+00  0.00000000000E+00 -0.51869942433E+03  0.20137920109E+04  0.19458440766E+04 0.  0.
        3    1    3    3  502    0  0.90922609324E+03 -0.18755621812E+03  0.41859624040E+02  0.92931246732E+03  0.10100000352E+00 0.  1.
       -3    1    3    3    0  502 -0.90922609324E+03  0.18755621812E+03 -0.56055904837E+03  0.10844795436E+04  0.10100000352E+00 0. -1.
</event>
<event>
 5   0  0.8861350E-05  0.2015908E+04  0.7818609E-02  0.8599219E-01
       -1   -1    0    0    0  501  0.00000000000E+00  0.00000000000E+00  0.16096284187E+04  0.16096284187E+04  0.50400001928E-02 0. -1.
        1   -1    0    0  501    0  0.00000000000E+00  0.00000000000E+00 -0.63118342639E+03  0.63118342641E+03  0.50400001928E-02 0.  1.
    10030    2    1    2    0    0  0.00000000000E+00  0.00000000000E+00  0.97844499227E+03  0.22408118451E+04  0.20159075182E+04 0.  0.
        1    1    3    3  502    0 -0.17737704243E+03 -0.95970349914E+03  0.20916692792E+03  0.99812034605E+03  0.50400001928E-02 0. -1.
       -1    1    3    3    0  502  0.17737704243E+03  0.95970349914E+03  0.76927806434E+03  0.12426914990E+04  0.50400001928E-02 0.  1.
</event>
<event>
 5   0  0.8861350E-05  0.2005937E+04  0.7818609E-02  0.8603850E-01
       -1   -1    0    0    0  501  0.00000000000E+00  0.00000000000E+00  0.44915607842E+03  0.44915607844E+03  0.50400001928E-02 0. -1.
        1   -1    0    0  501    0  0.00000000000E+00  0.00000000000E+00 -0.22396357808E+04  0.22396357808E+04  0.50400001928E-02 0.  1.
    10030    2    1    2    0    0  0.00000000000E+00  0.00000000000E+00 -0.17904797024E+04  0.26887918593E+04  0.20059372118E+04 0.  0.
        1    1    3    3  502    0  0.64472811529E+03 -0.49525881552E+03 -0.10793423989E+03  0.82012525700E+03  0.50400001928E-02 0. -1.
       -1    1    3    3    0  502 -0.64472811529E+03  0.49525881552E+03 -0.16825454625E+04  0.18686666023E+04  0.50400001928E-02 0.  1.
</event>
<event>
 5   0  0.8881384E-05  0.1952561E+04  0.7818609E-02  0.8629127E-01
       -1   -1    0    0    0  501  0.00000000000E+00  0.00000000000E+00  0.58742648642E+03  0.58742648644E+03  0.50400001928E-02 0.  1.
        1   -1    0    0  501    0  0.00000000000E+00  0.00000000000E+00 -0.16225407247E+04  0.16225407247E+04  0.50400001928E-02 0. -1.
    10030    2    1    2    0    0  0.00000000000E+00  0.00000000000E+00 -0.10351142383E+04  0.22099672111E+04  0.19525607770E+04 0.  0.
        5    1    3    3  502    0 -0.95754049664E+03 -0.18338590085E+03 -0.45998805200E+03  0.10780191507E+04  0.46999998093E+01 0. -1.
       -5    1    3    3    0  502  0.95754049664E+03  0.18338590085E+03 -0.57512618625E+03  0.11319480604E+04  0.46999998093E+01 0.  1.
</event>
<event>
 5   0  0.8881384E-05  0.1978280E+04  0.7818609E-02  0.8616843E-01
       -1   -1    0    0    0  501  0.00000000000E+00  0.00000000000E+00  0.49448279760E+03  0.49448279763E+03  0.50400001928E-02 0.  1.
        1   -1    0    0  501    0  0.00000000000E+00  0.00000000000E+00 -0.19786281788E+04  0.19786281788E+04  0.50400001928E-02 0. -1.
    10030    2    1    2    0    0  0.00000000000E+00  0.00000000000E+00 -0.14841453812E+04  0.24731109765E+04  0.19782796540E+04 0.  0.
        5    1    3    3  502    0 -0.12198791997E+03 -0.22197051208E+03  0.45324162792E+03  0.51923214859E+03  0.46999998093E+01 0.  1.
       -5    1    3    3    0  502  0.12198791997E+03  0.22197051208E+03 -0.19373870091E+04  0.19538788279E+04  0.46999998093E+01 0. -1.
</event>
<event>
 5   0  0.8577422E-05  0.1994387E+04  0.7818609E-02  0.8609250E-01
        1   -1    0    0  501    0  0.00000000000E+00  0.00000000000E+00  0.94990417822E+03  0.94990417823E+03  0.50400001928E-02 0.  1.
       -1   -1    0    0    0  501  0.00000000000E+00  0.00000000000E+00 -0.10468368094E+04  0.10468368094E+04  0.50400001928E-02 0. -1.
    10030    2    1    2    0    0  0.00000000000E+00  0.00000000000E+00 -0.96932631192E+02  0.19967409877E+04  0.19943867821E+04 0.  0.
        2    1    3    3  502    0  0.72264479143E+02 -0.82588601820E+03 -0.60327276158E+03  0.10253038061E+04  0.25500000920E-02 0. -1.
       -2    1    3    3    0  502 -0.72264479143E+02  0.82588601820E+03  0.50634013039E+03  0.97143718152E+03  0.25500000920E-02 0.  1.
</event>
<event>
 5   0  0.8577422E-05  0.2021264E+04  0.7818609E-02  0.8596743E-01
        1   -1    0    0  501    0  0.00000000000E+00  0.00000000000E+00  0.85530410744E+03  0.85530410745E+03  0.50400001928E-02 0. -1.
       -1   -1    0    0    0  501  0.00000000000E+00  0.00000000000E+00 -0.11941683420E+04  0.11941683420E+04  0.50400001928E-02 0.  1.
    10030    2    1    2    0    0  0.00000000000E+00  0.00000000000E+00 -0.33886423454E+03  0.20494724494E+04  0.20212640480E+04 0.  0.
        2    1    3    3  502    0  0.87268720230E+03 -0.44457195545E+02 -0.68427580437E+03  0.11098616003E+04  0.25500000920E-02 0.  1.
       -2    1    3    3    0  502 -0.87268720230E+03  0.44457195545E+02  0.34541156983E+03  0.93961084917E+03  0.25500000920E-02 0. -1.
</event>
<event>
 5   0  0.8577422E-05  0.1998449E+04  0.7818609E-02  0.8607346E-01
        1   -1    0    0  501    0  0.00000000000E+00  0.00000000000E+00  0.66637117581E+03  0.66637117583E+03  0.50400001928E-02 0. -1.
       -1   -1    0    0    0  501  0.00000000000E+00  0.00000000000E+00 -0.14983383151E+04  0.14983383151E+04  0.50400001928E-02 0.  1.
    10030    2    1    2    0    0  0.00000000000E+00  0.00000000000E+00 -0.83196713930E+03  0.21647094910E+04  0.19984488633E+04 0.  0.
        2    1    3    3  502    0 -0.48151710567E+03 -0.81296032302E+03 -0.76812395549E+03  0.12176935661E+04  0.25500000920E-02 0.  1.
       -2    1    3    3    0  502  0.48151710567E+03  0.81296032302E+03 -0.63843183811E+02  0.94701592488E+03  0.25500000920E-02 0. -1.
</event>
<event>
 5   0  0.1807498E-04  0.2011359E+04  0.7818609E-02  0.8601328E-01
        2   -1    0    0  501    0  0.00000000000E+00  0.00000000000E+00  0.26797648701E+04  0.26797648701E+04  0.25500000920E-02 0. -1.
       -2   -1    0    0    0  501  0.00000000000E+00  0.00000000000E+00 -0.37741803305E+03  0.37741803305E+03  0.25500000920E-02 0.  1.
    10030    2    1    2    0    0  0.00000000000E+00  0.00000000000E+00  0.23023468370E+04  0.30571829031E+04  0.20113593277E+04 0.  0.
        5    1    3    3  502    0 -0.37881949785E+03  0.90666115510E+02 -0.25808719361E+03  0.46728540097E+03  0.46999998093E+01 0.  1.
       -5    1    3    3    0  502  0.37881949785E+03 -0.90666115510E+02  0.25604340307E+04  0.25898975022E+04  0.46999998093E+01 0. -1.
</event>
<event>
 5   0  0.8861350E-05  0.2011887E+04  0.7818609E-02  0.8601083E-01
       -1   -1    0    0    0  501  0.00000000000E+00  0.00000000000E+00  0.73710486358E+03  0.73710486359E+03  0.50400001928E-02 0. -1.
        1   -1    0    0  501    0  0.00000000000E+00  0.00000000000E+00 -0.13728331557E+04  0.13728331557E+04  0.50400001928E-02 0.  1.
    10030    2    1    2    0    0  0.00000000000E+00  0.00000000000E+00 -0.63572829208E+03  0.21099380193E+04  0.20118866727E+04 0.  0.
        1    1    3    3  502    0 -0.51831032735E+03 -0.19698631359E+03  0.56237017198E+03  0.78975275469E+03  0.50400001928E-02 0. -1.
       -1    1    3    3    0  502  0.51831032735E+03  0.19698631359E+03 -0.11980984641E+04  0.13201852646E+04  0.50400001928E-02 0.  1.
</event>
<event>
 5   0  0.6531625E-05  0.2007718E+04  0.7818609E-02  0.8603021E-01
        3   -1    0    0  501    0  0.00000000000E+00  0.00000000000E+00  0.63888597926E+03  0.63888598724E+03  0.10100000352E+00 0.  1.
       -3   -1    0    0    0  501  0.00000000000E+00  0.00000000000E+00 -0.15773286819E+04  0.15773286852E+04  0.10100000352E+00 0. -1.
    10030    2    1    2    0    0  0.00000000000E+00  0.00000000000E+00 -0.93844270267E+03  0.22162146724E+04  0.20077182990E+04 0.  0.
        3    1    3    3  502    0  0.50940153112E+03  0.37735197441E+03  0.38997249190E+03  0.74428689841E+03  0.10100000352E+00 0.  1.
       -3    1    3    3    0  502 -0.50940153112E+03 -0.37735197441E+03 -0.13284151946E+04  0.14719277740E+04  0.10100000352E+00 0. -1.
</event>
<event>
 5   0  0.1812865E-04  0.2043620E+04  0.7818609E-02  0.8586494E-01
       -2   -1    0    0    0  501  0.00000000000E+00  0.00000000000E+00  0.10445450546E+04  0.10445450546E+04  0.25500000920E-02 0. -1.
        2   -1    0    0  501    0  0.00000000000E+00  0.00000000000E+00 -0.99957010790E+03  0.99957010790E+03  0.25500000920E-02 0.  1.
    10030    2    1    2    0    0  0.00000000000E+00  0.00000000000E+00  0.44974946681E+02  0.20441151625E+04  0.20436203296E+04 0.  0.
        3    1    3    3  502    0 -0.92926144523E+03 -0.31223471611E+03  0.31079093951E+03  0.10284008799E+04  0.10100000352E+00 0.  1.
       -3    1    3    3    0  502  0.92926144523E+03  0.31223471611E+03 -0.26581599283E+03  0.10157142826E+04  0.10100000352E+00 0. -1.
</event>
<event>
 5   0  0.8958919E-05  0.1995101E+04  0.7818609E-02  0.8608915E-01
        1   -1    0    0  501    0  0.00000000000E+00  0.00000000000E+00  0.12190556119E+04  0.12190556119E+04  0.50400001928E-02 0. -1.
       -1   -1    0    0    0  501  0.00000000000E+00  0.00000000000E+00 -0.81629301689E+03  0.81629301690E+03  0.50400001928E-02 0.  1.
    10030    2    1    2    0    0  0.00000000000E+00  0.00000000000E+00  0.40276259500E+03  0.20353486288E+04  0.19951005821E+04 0.  0.
        4    1    3    3  502    0  0.78930200986E+03  0.40969560769E+03  0.66244644339E+03  0.11089116543E+04  0.12699999809E+01 0. -1.
       -4    1    3    3    0  502 -0.78930200986E+03 -0.40969560769E+03 -0.25968384840E+03  0.92643697452E+03  0.12699999809E+01 0.  1.
</event>
<event>
 5   0  0.1893687E-04  0.2021544E+04  0.7818609E-02  0.8596614E-01
       -2   -1    0    0    0  501  0.00000000000E+00  0.00000000000E+00  0.22362113323E+04  0.22362113323E+04  0.25500000920E-02 0.  1.
        2   -1    0    0  501    0  0.00000000000E+00  0.00000000000E+00 -0.45687111195E+03  0.45687111195E+03  0.25500000920E-02 0. -1.
    10030    2    1    2    0    0  0.00000000000E+00  0.00000000000E+00  0.17793402203E+04  0.26930824442E+04  0.20215443185E+04 0.  0.
        4    1    3    3  502    0  0.46452875081E+03  0.10759942341E+03 -0.29762058330E+03  0.56208915730E+03  0.12699999809E+01 0. -1.
       -4    1    3    3    0  502 -0.46452875081E+03 -0.10759942341E+03  0.20769608036E+04  0.21309932869E+04  0.12699999809E+01 0.  1.
</event>
<event>
 5   0  0.1834645E-04  0.1899680E+04  0.7818609E-02  0.8655016E-01
       -2   -1    0    0    0  501  0.00000000000E+00  0.00000000000E+00  0.52255540913E+03  0.52255540914E+03  0.25500000920E-02 0. -1.
        2   -1    0    0  501    0  0.00000000000E+00  0.00000000000E+00 -0.17265084859E+04  0.17265084859E+04  0.25500000920E-02 0.  1.
    10030    2    1    2    0    0  0.00000000000E+00  0.00000000000E+00 -0.12039530768E+04  0.22490638950E+04  0.18996803397E+04 0.  0.
        1    1    3    3  502    0 -0.96867279107E+02  0.73091349195E+03  0.10696988592E+03  0.74502373049E+03  0.50400001928E-02 0. -1.
       -1    1    3    3    0  502  0.96867279107E+02 -0.73091349195E+03 -0.13109229627E+04  0.15040401645E+04  0.50400001928E-02 0.  1.
</event>
<event>
 5   0  0.8765057E-05  0.2000830E+04  0.7818609E-02  0.8606233E-01
        1   -1    0    0  501    0  0.00000000000E+00  0.00000000000E+00  0.12470004299E+04  0.12470004299E+04  0.50400001928E-02 0.  1.
       -1   -1    0    0    0  501  0.00000000000E+00  0.00000000000E+00 -0.80259008599E+03  0.80259008600E+03  0.50400001928E-02 0. -1.
    10030    2    1    2    0    0  0.00000000000E+00  0.00000000000E+00  0.44441034391E+03  0.20495905159E+04  0.20008300100E+04 0.  0.
        3    1    3    3  502    0  0.39505252567E+03 -0.78597834189E+03 -0.26585288228E+03  0.91897019385E+03  0.10100000352E+00 0. -1.
       -3    1    3    3    0  502 -0.39505252567E+03  0.78597834189E+03  0.71026322619E+03  0.11306203221E+04  0.10100000352E+00 0.  1.
</event>
<event>
 5   0  0.1812865E-04  0.2261040E+04  0.7818609E-02  0.8493443E-01
       -2   -1    0    0    0  501  0.00000000000E+00  0.00000000000E+00  0.77485350470E+03  0.77485350470E+03  0.25500000920E-02 0. -1.
        2   -1    0    0  501    0  0.00000000000E+00  0.00000000000E+00 -0.16494420437E+04  0.16494420437E+04  0.25500000920E-02 0.  1.
    10030    2    1    2    0    0  0.00000000000E+00  0.00000000000E+00 -0.87458853901E+03  0.24242955484E+04  0.22610404228E+04 0.  0.
        3    1    3    3  502    0 -0.85369520684E+03  0.61364450606E+03  0.83102873025E+01  0.10513915337E+04  0.10100000352E+00 0. -1.
       -3    1    3    3    0  502  0.85369520684E+03 -0.61364450606E+03 -0.88289882632E+03  0.13729040147E+04  0.10100000352E+00 0.  1.
</event>
<event>
 5   0  0.8958919E-05  0.1921125E+04  0.7818609E-02  0.8644412E-01
       -1   -1    0    0    0  501  0.00000000000E+00  0.00000000000E+00  0.11467345228E+04  0.11467345228E+04  0.50400001928E-02 0.  1.
        1   -1    0    0  501    0  0.00000000000E+00  0.00000000000E+00 -0.80461507836E+03  0.80461507838E+03  0.50400001928E-02 0. -1.
    10030    2    1    2    0    0  0.00000000000E+00  0.00000000000E+00  0.34211944443E+03  0.19513496012E+04  0.19211245539E+04 0.  0.
        4    1    3    3  502    0  0.14298121663E+03 -0.94982814746E+03  0.17900175592E+03  0.97706723389E+03  0.12699999809E+01 0.  1.
       -4    1    3    3    0  502 -0.14298121663E+03  0.94982814746E+03  0.16311768852E+03  0.97428236730E+03  0.12699999809E+01 0. -1.
</event>
<event>
 5   0  0.1782172E-04  0.2017715E+04  0.7818609E-02  0.8598383E-01
       -2   -1    0    0    0  501  0.00000000000E+00  0.00000000000E+00  0.57369061000E+03  0.57369061001E+03  0.25500000920E-02 0.  1.
        2   -1    0    0  501    0  0.00000000000E+00  0.00000000000E+00 -0.17741161424E+04  0.17741161424E+04  0.25500000920E-02 0. -1.
    10030    2    1    2    0    0  0.00000000000E+00  0.00000000000E+00 -0.12004255324E+04  0.23478067524E+04  0.20177153138E+04 0.  0.
        2    1    3    3  502    0  0.24331309831E+03  0.55731318395E+03  0.33646049926E+03  0.69498555120E+03  0.25500000920E-02 0.  1.
       -2    1    3    3    0  502 -0.24331309831E+03 -0.55731318395E+03 -0.15368860316E+04  0.16528212012E+04  0.25500000920E-02 0. -1.
</event>
<event>
 5   0  0.8958919E-05  0.1984567E+04  0.7818609E-02  0.8613870E-01
        1   -1    0    0  501    0  0.00000000000E+00  0.00000000000E+00  0.17526352816E+04  0.17526352816E+04  0.50400001928E-02 0. -1.
       -1   -1    0    0    0  501  0.00000000000E+00  0.00000000000E+00 -0.56179767353E+03  0.56179767356E+03  0.50400001928E-02 0.  1.
    10030    2    1    2    0    0  0.00000000000E+00  0.00000000000E+00  0.11908376081E+04  0.23144329552E+04  0.19845668785E+04 0.  0.
        4    1    3    3  502    0  0.57278651520E+03  0.71167399677E+03  0.10471833241E+04  0.13896613964E+04  0.12699999809E+01 0. -1.
       -4    1    3    3    0  502 -0.57278651520E+03 -0.71167399677E+03  0.14365428404E+03  0.92477155876E+03  0.12699999809E+01 0.  1.
</event>
<event>
 5   0  0.8958919E-05  0.1988300E+04  0.7818609E-02  0.8612110E-01
       -1   -1    0    0    0  501  0.00000000000E+00  0.00000000000E+00  0.77705478723E+03  0.77705478724E+03  0.50400001928E-02 0.  1.
        1   -1    0    0  501    0  0.00000000000E+00  0.00000000000E+00 -0.12718981707E+04  0.12718981707E+04  0.50400001928E-02 0. -1.
    10030    2    1    2    0    0  0.00000000000E+00  0.00000000000E+00 -0.49484338345E+03  0.20489529579E+04  0.19883003419E+04 0.  0.
        4    1    3    3  502    0  0.91934355674E+03 -0.36750871011E+03 -0.15480389262E+03  0.10021083202E+04  0.12699999809E+01 0.  1.
       -4    1    3    3    0  502 -0.91934355674E+03  0.36750871011E+03 -0.34003949083E+03  0.10468446377E+04  0.12699999809E+01 0. -1.
</event>
<event>
 5   0  0.8577422E-05  0.1993218E+04  0.7818609E-02  0.8609798E-01
       -1   -1    0    0    0  501  0.00000000000E+00  0.00000000000E+00  0.87708798517E+03  0.87708798518E+03  0.50400001928E-02 0.  1.
        1   -1    0    0  501    0  0.00000000000E+00  0.00000000000E+00 -0.11324168071E+04  0.11324168071E+04  0.50400001928E-02 0. -1.
    10030    2    1    2    0    0  0.00000000000E+00  0.00000000000E+00 -0.25532882192E+03  0.20095047923E+04  0.19932176757E+04 0.  0.
        2    1    3    3  502    0  0.77131227272E+03  0.34666703620E+03  0.40402385839E+03  0.93719578221E+03  0.25500000920E-02 0.  1.
       -2    1    3    3    0  502 -0.77131227272E+03 -0.34666703620E+03 -0.65935268031E+03  0.10723090101E+04  0.25500000920E-02 0. -1.
</event>
<event>
 5   0  0.1782172E-04  0.2051494E+04  0.7818609E-02  0.8582917E-01
        2   -1    0    0  501    0  0.00000000000E+00  0.00000000000E+00  0.14030818032E+04  0.14030818032E+04  0.25500000920E-02 0.  1.
       -2   -1    0    0    0  501  0.00000000000E+00  0.00000000000E+00 -0.74988961801E+03  0.74988961801E+03  0.25500000920E-02 0. -1.
    10030    2    1    2    0    0  0.00000000000E+00  0.00000000000E+00  0.65319218520E+03  0.21529714212E+04  0.20514935803E+04 0.  0.
        2    1    3    3  502    0 -0.84966232083E+03  0.90036640881E+02 -0.26903796738E+03  0.89577568846E+03  0.25500000920E-02 0. -1.
       -2    1    3    3    0  502  0.84966232083E+03 -0.90036640881E+02  0.92223015258E+03  0.12571957328E+04  0.25500000920E-02 0.  1.
</event>
<event>
 5   0  0.1834645E-04  0.2022790E+04  0.7818609E-02  0.8596039E-01
       -2   -1    0    0    0  501  0.00000000000E+00  0.00000000000E+00  0.57347412100E+03  0.57347412100E+03  0.25500000920E-02 0.  1.
        2   -1    0    0  501    0  0.00000000000E+00  0.00000000000E+00 -0.17837239490E+04  0.17837239490E+04  0.25500000920E-02 0. -1.
    10030    2    1    2    0    0  0.00000000000E+00  0.00000000000E+00 -0.12102498280E+04  0.23571980700E+04  0.20227896814E+04 0.  0.
        1    1    3    3  502    0  0.49581849793E+03 -0.64046343736E+03  0.10072661431E+03  0.81619559441E+03  0.50400001928E-02 0.  1.
       -1    1    3    3    0  502 -0.49581849793E+03  0.64046343736E+03 -0.13109764423E+04  0.15410024756E+04  0.50400001928E-02 0. -1.
</event>
<event>
 5   0  0.6531625E-05  0.2004298E+04  0.7818609E-02  0.8604614E-01
       -4   -1    0    0    0  501  0.00000000000E+00  0.00000000000E+00  0.76602357920E+03  0.76602463198E+03  0.12699999809E+01 0. -1.
        4   -1    0    0  501    0  0.00000000000E+00  0.00000000000E+00 -0.13110578584E+04  0.13110584735E+04  0.12699999809E+01 0.  1.
    10030    2    1    2    0    0  0.00000000000E+00  0.00000000000E+00 -0.54503427923E+03  0.20770831055E+04  0.20042983465E+04 0.  0.
        2    1    3    3  502    0 -0.43516316646E+03 -0.73634598851E+03  0.26868364124E+03  0.89652846877E+03  0.25500000920E-02 0. -1.
       -2    1    3    3    0  502  0.43516316646E+03  0.73634598851E+03 -0.81371792047E+03  0.11805546367E+04  0.25500000920E-02 0.  1.
</event>
<event>
 5   0  0.1834645E-04  0.2007386E+04  0.7818609E-02  0.8603175E-01
        2   -1    0    0  501    0  0.00000000000E+00  0.00000000000E+00  0.16831255904E+04  0.16831255904E+04  0.25500000920E-02 0. -1.
       -2   -1    0    0    0  501  0.00000000000E+00  0.00000000000E+00 -0.59852924452E+03  0.59852924453E+03  0.25500000920E-02 0.  1.
    10030    2    1    2    0    0  0.00000000000E+00  0.00000000000E+00  0.10845963458E+04  0.22816548349E+04  0.20073862489E+04 0.  0.
        1    1    3    3  502    0  0.47911155375E+03  0.54209350627E+03  0.13330417747E+04  0.15167114503E+04  0.50400001928E-02 0. -1.
       -1    1    3    3    0  502 -0.47911155375E+03 -0.54209350627E+03 -0.24844542883E+03  0.76494338458E+03  0.50400001928E-02 0.  1.
</event>
<event>
 5   0  0.8861350E-05  0.2000398E+04  0.7818609E-02  0.8606434E-01
        1   -1    0    0  501    0  0.00000000000E+00  0.00000000000E+00  0.62778801580E+03  0.62778801582E+03  0.50400001928E-02 0.  1.
       -1   -1    0    0    0  501  0.00000000000E+00  0.00000000000E+00 -0.15935287813E+04  0.15935287813E+04  0.50400001928E-02 0. -1.
    10030    2    1    2    0    0  0.00000000000E+00  0.00000000000E+00 -0.96574076546E+03  0.22213167971E+04  0.20003982321E+04 0.  0.
        1    1    3    3  502    0  0.42383892910E+03 -0.34442950807E+03  0.44759864467E+03  0.70612723399E+03  0.50400001928E-02 0.  1.
       -1    1    3    3    0  502 -0.42383892910E+03  0.34442950807E+03 -0.14133394101E+04  0.15151895631E+04  0.50400001928E-02 0. -1.
</event>
<event>
 5   0  0.1807498E-04  0.1975363E+04  0.7818609E-02  0.8618227E-01
       -2   -1    0    0    0  501  0.00000000000E+00  0.00000000000E+00  0.80507703254E+03  0.80507703254E+03  0.25500000920E-02 0.  1.
        2   -1    0    0  501    0  0.00000000000E+00  0.00000000000E+00 -0.12117037341E+04  0.12117037341E+04  0.25500000920E-02 0. -1.
    10030    2    1    2    0    0  0.00000000000E+00  0.00000000000E+00 -0.40662670159E+03  0.20167807667E+04  0.19753631024E+04 0.  0.
        5    1    3    3  502    0 -0.59635398518E+03 -0.35482226906E+03  0.51424267374E+03  0.86371554099E+03  0.46999998093E+01 0.  1.
       -5    1    3    3    0  502  0.59635398518E+03  0.35482226906E+03 -0.92086937532E+03  0.11530652257E+04  0.46999998093E+01 0. -1.
</event>
<event>
 5   0  0.1893687E-04  0.1992603E+04  0.7818609E-02  0.8610087E-01
        2   -1    0    0  501    0  0.00000000000E+00  0.00000000000E+00  0.11431763244E+04  0.11431763244E+04  0.25500000920E-02 0. -1.
       -2   -1    0    0    0  501  0.00000000000E+00  0.00000000000E+00 -0.86829741360E+03  0.86829741360E+03  0.25500000920E-02 0.  1.
    10030    2    1    2    0    0  0.00000000000E+00  0.00000000000E+00  0.27487891078E+03  0.20114737380E+04  0.19926033682E+04 0.  0.
        4    1    3    3  502    0 -0.57601696122E+02  0.99332861631E+03  0.18887032755E+03  0.10127651796E+04  0.12699999809E+01 0. -1.
       -4    1    3    3    0  502  0.57601696122E+02 -0.99332861631E+03  0.86008583223E+02  0.99870855843E+03  0.12699999809E+01 0.  1.
</event>
<event>
 5   0  0.1893687E-04  0.2001186E+04  0.7818609E-02  0.8606066E-01
       -2   -1    0    0    0  501  0.00000000000E+00  0.00000000000E+00  0.85024119281E+03  0.85024119281E+03  0.25500000920E-02 0. -1.
        2   -1    0    0  501    0  0.00000000000E+00  0.00000000000E+00 -0.11775322608E+04  0.11775322609E+04  0.25500000920E-02 0.  1.
    10030    2    1    2    0    0  0.00000000000E+00  0.00000000000E+00 -0.32729106804E+03  0.20277734537E+04  0.20011860823E+04 0.  0.
        4    1    3    3  502    0  0.82828221144E+03  0.90410641979E+02 -0.72504548199E+03  0.11044990131E+04  0.12699999809E+01 0.  1.
       -4    1    3    3    0  502 -0.82828221144E+03 -0.90410641979E+02  0.39775441395E+03  0.92327444061E+03  0.12699999809E+01 0. -1.
</event>
<event>
 5   0  0.8577422E-05  0.1864038E+04  0.7818609E-02  0.8672967E-01
       -1   -1    0    0    0  501  0.00000000000E+00  0.00000000000E+00  0.38214132584E+03  0.38214132587E+03  0.50400001928E-02 0.  1.
        1   -1    0    0  501    0  0.00000000000E+00  0.00000000000E+00 -0.22731368321E+04  0.22731368321E+04  0.50400001928E-02 0. -1.
    10030    2    1    2    0    0  0.00000000000E+00  0.00000000000E+00 -0.18909955063E+04  0.26552781580E+04  0.18640381143E+04 0.  0.
        2    1    3    3  502    0  0.28842502738E+03 -0.34727295190E+03  0.21601575341E+03  0.50045010268E+03  0.25500000920E-02 0.  1.
       -2    1    3    3    0  502 -0.28842502738E+03  0.34727295190E+03 -0.21070112597E+04  0.21548280553E+04  0.25500000920E-02 0. -1.
</event>
<event>
 5   0  0.8765057E-05  0.2028981E+04  0.7818609E-02  0.8593190E-01
        1   -1    0    0  501    0  0.00000000000E+00  0.00000000000E+00  0.90280753395E+03  0.90280753396E+03  0.50400001928E-02 0.  1.
       -1   -1    0    0    0  501  0.00000000000E+00  0.00000000000E+00 -0.11399897477E+04  0.11399897477E+04  0.50400001928E-02 0. -1.
    10030    2    1    2    0    0  0.00000000000E+00  0.00000000000E+00 -0.23718221371E+03  0.20427972816E+04  0.20289813531E+04 0.  0.
        3    1    3    3  502    0 -0.11410329859E+03  0.59978257442E+03 -0.93431332912E+03  0.11161093614E+04  0.10100000352E+00 0. -1.
       -3    1    3    3    0  502  0.11410329859E+03 -0.59978257442E+03  0.69713111541E+03  0.92668792028E+03  0.10100000352E+00 0.  1.
</event>
<event>
 5   0  0.8881384E-05  0.2017222E+04  0.7818609E-02  0.8598611E-01
       -1   -1    0    0    0  501  0.00000000000E+00  0.00000000000E+00  0.84296046236E+03  0.84296046237E+03  0.50400001928E-02 0.  1.
        1   -1    0    0  501    0  0.00000000000E+00  0.00000000000E+00 -0.12068140333E+04  0.12068140333E+04  0.50400001928E-02 0. -1.
    10030    2    1    2    0    0  0.00000000000E+00  0.00000000000E+00 -0.36385357091E+03  0.20497744956E+04  0.20172223630E+04 0.  0.
        5    1    3    3  502    0 -0.37963446914E+03 -0.37040075688E+03 -0.10536488758E+04  0.11796258281E+04  0.46999998093E+01 0. -1.
       -5    1    3    3    0  502  0.37963446914E+03  0.37040075688E+03  0.68979530493E+03  0.87014866751E+03  0.46999998093E+01 0.  1.
</event>
<event>
 5   0  0.1893687E-04  0.1954588E+04  0.7818609E-02  0.8628152E-01
       -2   -1    0    0    0  501  0.00000000000E+00  0.00000000000E+00  0.12557377118E+04  0.12557377118E+04  0.25500000920E-02 0. -1.
        2   -1    0    0  501    0  0.00000000000E+00  0.00000000000E+00 -0.76059130707E+03  0.76059130707E+03  0.25500000920E-02 0.  1.
    10030    2    1    2    0    0  0.00000000000E+00  0.00000000000E+00  0.49514640476E+03  0.20163290189E+04  0.19545876164E+04 0.  0.
        4    1    3    3  502    0 -0.69362229157E+03  0.31073245328E+03 -0.38619050006E+03  0.85253226104E+03  0.12699999809E+01 0.  1.
       -4    1    3    3    0  502  0.69362229157E+03 -0.31073245328E+03  0.88133690482E+03  0.11637967579E+04  0.12699999809E+01 0. -1.
</event>
<event>
 5   0  0.1807498E-04  0.1851542E+04  0.7818609E-02  0.8679360E-01
        2   -1    0    0  501    0  0.00000000000E+00  0.00000000000E+00  0.14687493703E+04  0.14687493703E+04  0.25500000920E-02 0.  1.
       -2   -1    0    0    0  501  0.00000000000E+00  0.00000000000E+00 -0.58352502561E+03  0.58352502561E+03  0.25500000920E-02 0. -1.
    10030    2    1    2    0    0  0.00000000000E+00  0.00000000000E+00  0.88522434469E+03  0.20522743959E+04  0.18515420750E+04 0.  0.
        5    1    3    3  502    0 -0.12436998361E+03 -0.78095768647E+03  0.97611170595E+03  0.12562559267E+04  0.46999998093E+01 0.  1.
       -5    1    3    3    0  502  0.12436998361E+03  0.78095768647E+03 -0.90887361257E+02  0.79601846921E+03  0.46999998093E+01 0. -1.
</event>
<event>
 5   0  0.1834645E-04  0.1974661E+04  0.7818609E-02  0.8618560E-01
        2   -1    0    0  501    0  0.00000000000E+00  0.00000000000E+00  0.17407312488E+04  0.17407312488E+04  0.25500000920E-02 0.  1.
       -2   -1    0    0    0  501  0.00000000000E+00  0.00000000000E+00 -0.56000701322E+03  0.56000701323E+03  0.25500000920E-02 0. -1.
    10030    2    1    2    0    0  0.00000000000E+00  0.00000000000E+00  0.11807242356E+04  0.23007382620E+04  0.19746611937E+04 0.  0.
        1    1    3    3  502    0  0.43837765493E+03  0.60054814349E+03  0.13472386107E+04  0.15387933309E+04  0.50400001928E-02 0.  1.
       -1    1    3    3    0  502 -0.43837765493E+03 -0.60054814349E+03 -0.16651437511E+03  0.76194493117E+03  0.50400001928E-02 0. -1.
</event>
<event>
 5   0  0.1834645E-04  0.2085237E+04  0.7818609E-02  0.8567775E-01
        2   -1    0    0  501    0  0.00000000000E+00  0.00000000000E+00  0.57253271754E+03  0.57253271754E+03  0.25500000920E-02 0. -1.
       -2   -1    0    0    0  501  0.00000000000E+00  0.00000000000E+00 -0.18986744582E+04  0.18986744582E+04  0.25500000920E-02 0.  1.
    10030    2    1    2    0    0  0.00000000000E+00  0.00000000000E+00 -0.13261417406E+04  0.24712071757E+04  0.20852369144E+04 0.  0.
        1    1    3    3  502    0  0.58145954155E+03  0.22284285882E+03 -0.16540973056E+04  0.17674252558E+04  0.50400001928E-02 0.  1.
       -1    1    3    3    0  502 -0.58145954155E+03 -0.22284285882E+03  0.32795556501E+03  0.70378191994E+03  0.50400001928E-02 0. -1.
</event>
<event>
 5   0  0.6531625E-05  0.1684248E+04  0.7818609E-02  0.8770400E-01
       -3   -1    0    0    0  501  0.00000000000E+00  0.00000000000E+00  0.37533851196E+03  0.37533852555E+03  0.10100000352E+00 0. -1.
        3   -1    0    0  501    0  0.00000000000E+00  0.00000000000E+00 -0.18894210473E+04  0.18894210500E+04  0.10100000352E+00 0.  1.
    10030    2    1    2    0    0  0.00000000000E+00  0.00000000000E+00 -0.15140825353E+04  0.22647595755E+04  0.16842476098E+04 0.  0.
        2    1    3    3  502    0  0.42982201549E+03  0.10671391141E+03  0.20610178401E+03  0.48848006025E+03  0.25500000920E-02 0. -1.
       -2    1    3    3    0  502 -0.42982201549E+03 -0.10671391141E+03 -0.17201843193E+04  0.17762795153E+04  0.25500000920E-02 0.  1.
</event>
<event>
 5   0  0.6531625E-05  0.2005124E+04  0.7818609E-02  0.8604229E-01
       -3   -1    0    0    0  501  0.00000000000E+00  0.00000000000E+00  0.68735744903E+03  0.68735745645E+03  0.10100000352E+00 0.  1.
        3   -1    0    0  501    0  0.00000000000E+00  0.00000000000E+00 -0.14623119522E+04  0.14623119556E+04  0.10100000352E+00 0. -1.
    10030    2    1    2    0    0  0.00000000000E+00  0.00000000000E+00 -0.77495450313E+03  0.21496694121E+04  0.20051244598E+04 0.  0.
        4    1    3    3  502    0  0.33300887097E+03 -0.75434052048E+03 -0.99885393406E+03  0.12952356247E+04  0.12699999809E+01 0. -1.
       -4    1    3    3    0  502 -0.33300887097E+03  0.75434052048E+03  0.22389943093E+03  0.85443378740E+03  0.12699999809E+01 0.  1.
</event>
<event>
 5   0  0.1893687E-04  0.2027458E+04  0.7818609E-02  0.8593889E-01
        2   -1    0    0  501    0  0.00000000000E+00  0.00000000000E+00  0.19969486244E+04  0.19969486244E+04  0.25500000920E-02 0. -1.
       -2   -1    0    0    0  501  0.00000000000E+00  0.00000000000E+00 -0.51460862020E+03  0.51460862020E+03  0.25500000920E-02 0.  1.
    10030    2    1    2    0    0  0.00000000000E+00  0.00000000000E+00  0.14823400042E+04  0.25115572446E+04  0.20274584841E+04 0.  0.
        4    1    3    3  502    0 -0.46353954130E+02  0.99534678394E+03  0.51014181114E+03  0.11194240438E+04  0.12699999809E+01 0.  1.
       -4    1    3    3    0  502  0.46353954130E+02 -0.99534678394E+03  0.97219819302E+03  0.13921332008E+04  0.12699999809E+01 0. -1.
</event>
<event>
 5   0  0.8958919E-05  0.1979029E+04  0.7818609E-02  0.8616488E-01
        1   -1    0    0  501    0  0.00000000000E+00  0.00000000000E+00  0.14760119959E+04  0.14760119959E+04  0.50400001928E-02 0.  1.
       -1   -1    0    0    0  501  0.00000000000E+00  0.00000000000E+00 -0.66336813120E+03  0.66336813122E+03  0.50400001928E-02 0. -1.
    10030    2    1    2    0    0  0.00000000000E+00  0.00000000000E+00  0.81264386468E+03  0.21393801271E+04  0.19790293776E+04 0.  0.
        4    1    3    3  502    0 -0.69159818968E+03 -0.70223969879E+03  0.50111405018E+03  0.11056968638E+04  0.12699999809E+01 0. -1.
       -4    1    3    3    0  502  0.69159818968E+03  0.70223969879E+03  0.31152981450E+03  0.10336832633E+04  0.12699999809E+01 0.  1.
</event>
<event>
 5   0  0.1893687E-04  0.1998047E+04  0.7818609E-02  0.8607534E-01
       -2   -1    0    0    0  501  0.00000000000E+00  0.00000000000E+00  0.42567847123E+03  0.42567847124E+03  0.25500000920E-02 0.  1.
        2   -1    0    0  501    0  0.00000000000E+00  0.00000000000E+00 -0.23446050712E+04  0.23446050712E+04  0.25500000920E-02 0. -1.
    10030    2    1    2    0    0  0.00000000000E+00  0.00000000000E+00 -0.19189266000E+04  0.27702835424E+04  0.19980469488E+04 0.  0.
        4    1    3    3  502    0 -0.12601326447E+03  0.29788372676E+03  0.35107386478E+03  0.47735576766E+03  0.12699999809E+01 0.  1.
       -4    1    3    3    0  502  0.12601326447E+03 -0.29788372676E+03 -0.22700004648E+04  0.22929277748E+04  0.12699999809E+01 0. -1.
</event>
<event>
 5   0  0.8765057E-05  0.2001910E+04  0.7818609E-02  0.8605728E-01
        1   -1    0    0  501    0  0.00000000000E+00  0.00000000000E+00  0.14814315457E+04  0.14814315457E+04  0.50400001928E-02 0.  1.
       -1   -1    0    0    0  501  0.00000000000E+00  0.00000000000E+00 -0.67631295320E+03  0.67631295322E+03  0.50400001928E-02 0. -1.
    10030    2    1    2    0    0  0.00000000000E+00  0.00000000000E+00  0.80511859252E+03  0.21577444990E+04  0.20019104312E+04 0.  0.
        3    1    3    3  502    0 -0.11200172524E+02  0.75654475144E+03 -0.30375745672E+03  0.81532447989E+03  0.10100000352E+00 0. -1.
       -3    1    3    3    0  502  0.11200172524E+02 -0.75654475144E+03  0.11088760492E+04  0.13424200191E+04  0.10100000352E+00 0.  1.
</event>
<event>
 5   0  0.8958919E-05  0.1993597E+04  0.7818609E-02  0.8609620E-01
        1   -1    0    0  501    0  0.00000000000E+00  0.00000000000E+00  0.84049650425E+03  0.84049650427E+03  0.50400001928E-02 0.  1.
       -1   -1    0    0    0  501  0.00000000000E+00  0.00000000000E+00 -0.11821668476E+04  0.11821668477E+04  0.50400001928E-02 0. -1.
    10030    2    1    2    0    0  0.00000000000E+00  0.00000000000E+00 -0.34167034340E+03  0.20226633519E+04  0.19935968528E+04 0.  0.
        4    1    3    3  502    0 -0.55869755135E+03  0.70870547369E+03 -0.60032626647E+03  0.10838817470E+04  0.12699999809E+01 0. -1.
       -4    1    3    3    0  502  0.55869755135E+03 -0.70870547369E+03  0.25865592307E+03  0.93878160494E+03  0.12699999809E+01 0.  1.
</event>
<event>
 5   0  0.8577422E-05  0.1989772E+04  0.7818609E-02  0.8611418E-01
       -1   -1    0    0    0  501  0.00000000000E+00  0.00000000000E+00  0.66618541353E+03  0.66618541355E+03  0.50400001928E-02 0.  1.
        1   -1    0    0  501    0  0.00000000000E+00  0.00000000000E+00 -0.14857694360E+04  0.14857694360E+04  0.50400001928E-02 0. -1.
    10030    2    1    2    0    0  0.00000000000E+00  0.00000000000E+00 -0.81958402249E+03  0.21519548496E+04  0.19897717720E+04 0.  0.
        2    1    3    3  502    0 -0.89123787823E+03  0.30262653234E+03 -0.75841729501E+03  0.12087533111E+04  0.25500000920E-02 0. -1.
       -2    1    3    3    0  502  0.89123787823E+03 -0.30262653234E+03 -0.61166727481E+02  0.94320153850E+03  0.25500000920E-02 0.  1.
</event>
<event>
 5   0  0.1834645E-04  0.2014440E+04  0.7818609E-02  0.8599899E-01
        2   -1    0    0  501    0  0.00000000000E+00  0.00000000000E+00  0.74153698351E+03  0.74153698351E+03  0.25500000920E-02 0. -1.
       -2   -1    0    0    0  501  0.00000000000E+00  0.00000000000E+00 -0.13680940726E+04  0.13680940726E+04  0.25500000920E-02 0.  1.
    10030    2    1    2    0    0  0.00000000000E+00  0.00000000000E+00 -0.62655708913E+03  0.21096310562E+04  0.20144402218E+04 0.  0.
        1    1    3    3  502    0  0.37441350684E+03 -0.28477181428E+03  0.61943167224E+03  0.77780206795E+03  0.50400001928E-02 0. -1.
       -1    1    3    3    0  502 -0.37441350684E+03  0.28477181428E+03 -0.12459887614E+04  0.13318289882E+04  0.50400001928E-02 0.  1.
</event>
<event>
 5   0  0.8861350E-05  0.2053559E+04  0.7818609E-02  0.8581981E-01
        1   -1    0    0  501    0  0.00000000000E+00  0.00000000000E+00  0.71689258556E+03  0.71689258557E+03  0.50400001928E-02 0. -1.
       -1   -1    0    0    0  501  0.00000000000E+00  0.00000000000E+00 -0.14706196080E+04  0.14706196080E+04  0.50400001928E-02 0.  1.
    10030    2    1    2    0    0  0.00000000000E+00  0.00000000000E+00 -0.75372702243E+03  0.21875121936E+04  0.20535591476E+04 0.  0.
        1    1    3    3  502    0  0.90676687663E+03  0.44201251988E+03 -0.58086280514E+03  0.11640458903E+04  0.50400001928E-02 0.  1.
       -1    1    3    3    0  502 -0.90676687663E+03 -0.44201251988E+03 -0.17286421729E+03  0.10234663033E+04  0.50400001928E-02 0. -1.
</event>
<event>
 5   0  0.1834645E-04  0.1918480E+04  0.7818609E-02  0.8645712E-01
        2   -1    0    0  501    0  0.00000000000E+00  0.00000000000E+00  0.54497944245E+03  0.54497944245E+03  0.25500000920E-02 0.  1.
       -2   -1    0    0    0  501  0.00000000000E+00  0.00000000000E+00 -0.16883971233E+04  0.16883971233E+04  0.25500000920E-02 0. -1.
    10030    2    1    2    0    0  0.00000000000E+00  0.00000000000E+00 -0.11434176808E+04  0.22333765657E+04  0.19184803600E+04 0.  0.
        1    1    3    3  502    0 -0.20241699479E+03 -0.77352196027E+03 -0.11886284269E+04  0.14325314656E+04  0.50400001928E-02 0. -1.
       -1    1    3    3    0  502  0.20241699479E+03  0.77352196027E+03  0.45210746032E+02  0.80084510012E+03  0.50400001928E-02 0.  1.
</event>
<event>
 5   0  0.1782172E-04  0.1978820E+04  0.7818609E-02  0.8616587E-01
        2   -1    0    0  501    0  0.00000000000E+00  0.00000000000E+00  0.17232601097E+04  0.17232601097E+04  0.25500000920E-02 0.  1.
       -2   -1    0    0    0  501  0.00000000000E+00  0.00000000000E+00 -0.56807013642E+03  0.56807013642E+03  0.25500000920E-02 0. -1.
    10030    2    1    2    0    0  0.00000000000E+00  0.00000000000E+00  0.11551899732E+04  0.22913302461E+04  0.19788204624E+04 0.  0.
        2    1    3    3  502    0 -0.70032928850E+03 -0.69879773395E+03  0.56326191026E+03  0.11384390036E+04  0.25500000920E-02 0. -1.
       -2    1    3    3    0  502  0.70032928850E+03  0.69879773395E+03  0.59192806298E+03  0.11528912425E+04  0.25500000920E-02 0.  1.
</event>
<event>
 5   0  0.1893687E-04  0.2003143E+04  0.7818609E-02  0.8605153E-01
        2   -1    0    0  501    0  0.00000000000E+00  0.00000000000E+00  0.15223749713E+04  0.15223749713E+04  0.25500000920E-02 0. -1.
       -2   -1    0    0    0  501  0.00000000000E+00  0.00000000000E+00 -0.65893471014E+03  0.65893471014E+03  0.25500000920E-02 0.  1.
    10030    2    1    2    0    0  0.00000000000E+00  0.00000000000E+00  0.86344026114E+03  0.21813096814E+04  0.20031432404E+04 0.  0.
        4    1    3    3  502    0  0.24672617701E+03 -0.82873375736E+03  0.98211683900E+03  0.13085215112E+04  0.12699999809E+01 0. -1.
       -4    1    3    3    0  502 -0.24672617701E+03  0.82873375736E+03 -0.11867657786E+03  0.87278817020E+03  0.12699999809E+01 0.  1.
</event>
<event>
 5   0  0.8958919E-05  0.2000235E+04  0.7818609E-02  0.8606511E-01
       -1   -1    0    0    0  501  0.00000000000E+00  0.00000000000E+00  0.86021124688E+03  0.86021124689E+03  0.50400001928E-02 0. -1.
        1   -1    0    0  501    0  0.00000000000E+00  0.00000000000E+00 -0.11627782647E+04  0.11627782647E+04  0.50400001928E-02 0.  1.
    10030    2    1    2    0    0  0.00000000000E+00  0.00000000000E+00 -0.30256701778E+03  0.20229895116E+04  0.20002349271E+04 0.  0.
        4    1    3    3  502    0  0.13478383420E+03 -0.22890087314E+03  0.82387962659E+03  0.86564516039E+03  0.12699999809E+01 0. -1.
       -4    1    3    3    0  502 -0.13478383420E+03  0.22890087314E+03 -0.11264466444E+04  0.11573443512E+04  0.12699999809E+01 0.  1.
</event>
<event>
 5   0  0.8861350E-05  0.2007982E+04  0.7818609E-02  0.8602898E-01
       -1   -1    0    0    0  501  0.00000000000E+00  0.00000000000E+00  0.73417538229E+03  0.73417538231E+03  0.50400001928E-02 0. -1.
        1   -1    0    0  501    0  0.00000000000E+00  0.00000000000E+00 -0.13729661677E+04  0.13729661677E+04  0.50400001928E-02 0.  1.
    10030    2    1    2    0    0  0.00000000000E+00  0.00000000000E+00 -0.63879078537E+03  0.21071415500E+04  0.20079820328E+04 0.  0.
        1    1    3    3  502    0  0.54432127934E+03  0.64376310349E+03 -0.89155571453E+03  0.12270241158E+04  0.50400001928E-02 0.  1.
       -1    1    3    3    0  502 -0.54432127934E+03 -0.64376310349E+03  0.25276492916E+03  0.88011743421E+03  0.50400001928E-02 0. -1.
</event>
<event>
 5   0  0.1893687E-04  0.1987594E+04  0.7818609E-02  0.8612443E-01
       -2   -1    0    0    0  501  0.00000000000E+00  0.00000000000E+00  0.62554858277E+03  0.62554858277E+03  0.25500000920E-02 0.  1.
        2   -1    0    0  501    0  0.00000000000E+00  0.00000000000E+00 -0.15788266848E+04  0.15788266848E+04  0.25500000920E-02 0. -1.
    10030    2    1    2    0    0  0.00000000000E+00  0.00000000000E+00 -0.95327810200E+03  0.22043752675E+04  0.19875943199E+04 0.  0.
        4    1    3    3  502    0  0.95459863443E+03  0.58637604647E+02 -0.77615749793E+03  0.12317138450E+04  0.12699999809E+01 0. -1.
       -4    1    3    3    0  502 -0.95459863443E+03 -0.58637604647E+02 -0.17712060406E+03  0.97266142250E+03  0.12699999809E+01 0.  1.
</event>
<event>
 5   0  0.1807498E-04  0.2017709E+04  0.7818609E-02  0.8598386E-01
        2   -1    0    0  501    0  0.00000000000E+00  0.00000000000E+00  0.18585696607E+04  0.18585696607E+04  0.25500000920E-02 0.  1.
       -2   -1    0    0    0  501  0.00000000000E+00  0.00000000000E+00 -0.54761839792E+03  0.54761839793E+03  0.25500000920E-02 0. -1.
    10030    2    1    2    0    0  0.00000000000E+00  0.00000000000E+00  0.13109512628E+04  0.24061880586E+04  0.20177085419E+04 0.  0.
        5    1    3    3  502    0 -0.12550372552E+03  0.22444075991E+03  0.18188178280E+04  0.18369118709E+04  0.46999998093E+01 0.  1.
       -5    1    3    3    0  502  0.12550372552E+03 -0.22444075991E+03 -0.50786656526E+03  0.56927618775E+03  0.46999998093E+01 0. -1.
</event>
<event>
 5   0  0.8577422E-05  0.2013203E+04  0.7818609E-02  0.8600473E-01
        1   -1    0    0  501    0  0.00000000000E+00  0.00000000000E+00  0.16952089757E+04  0.16952089757E+04  0.50400001928E-02 0.  1.
       -1   -1    0    0    0  501  0.00000000000E+00  0.00000000000E+00 -0.59771183613E+03  0.59771183615E+03  0.50400001928E-02 0. -1.
    10030    2    1    2    0    0  0.00000000000E+00  0.00000000000E+00  0.10974971395E+04  0.22929208118E+04  0.20132028904E+04 0.  0.
        2    1    3    3  502    0  0.22169793422E+03 -0.91546880979E+03  0.14444293316E+03  0.95294117168E+03  0.25500000920E-02 0. -1.
       -2    1    3    3    0  502 -0.22169793422E+03  0.91546880979E+03  0.95305420638E+03  0.13399796402E+04  0.25500000920E-02 0.  1.
</event>
<event>
 5   0  0.8765057E-05  0.1830915E+04  0.7818609E-02  0.8690030E-01
       -1   -1    0    0    0  501  0.00000000000E+00  0.00000000000E+00  0.58864953707E+03  0.58864953709E+03  0.50400001928E-02 0.  1.
        1   -1    0    0  501    0  0.00000000000E+00  0.00000000000E+00 -0.14237035624E+04  0.14237035624E+04  0.50400001928E-02 0. -1.
    10030    2    1    2    0    0  0.00000000000E+00  0.00000000000E+00 -0.83505402537E+03  0.20123530995E+04  0.18309150095E+04 0.  0.
        3    1    3    3  502    0  0.50960263883E+03  0.73840127796E+03 -0.21746982217E+03  0.92316002434E+03  0.10100000352E+00 0. -1.
       -3    1    3    3    0  502 -0.50960263883E+03 -0.73840127796E+03 -0.61758420320E+03  0.10891930752E+04  0.10100000352E+00 0.  1.
</event>
<event>
 5   0  0.1782172E-04  0.1953980E+04  0.7818609E-02  0.8628444E-01
        2   -1    0    0  501    0  0.00000000000E+00  0.00000000000E+00  0.15213216380E+04  0.15213216380E+04  0.25500000920E-02 0. -1.
       -2   -1    0    0    0  501  0.00000000000E+00  0.00000000000E+00 -0.62742133017E+03  0.62742133017E+03  0.25500000920E-02 0.  1.
    10030    2    1    2    0    0  0.00000000000E+00  0.00000000000E+00  0.89390030787E+03  0.21487429682E+04  0.19539801900E+04 0.  0.
        2    1    3    3  502    0  0.75208788388E+03  0.26274525358E+03  0.10688631166E+04  0.13330940009E+04  0.25500000920E-02 0. -1.
       -2    1    3    3    0  502 -0.75208788388E+03 -0.26274525358E+03 -0.17496280872E+03  0.81564896726E+03  0.25500000920E-02 0.  1.
</event>
<event>
 5   0  0.1893687E-04  0.2018658E+04  0.7818609E-02  0.8597947E-01
        2   -1    0    0  501    0  0.00000000000E+00  0.00000000000E+00  0.14073339361E+04  0.14073339361E+04  0.25500000920E-02 0. -1.
       -2   -1    0    0    0  501  0.00000000000E+00  0.00000000000E+00 -0.72388278352E+03  0.72388278353E+03  0.25500000920E-02 0.  1.
    10030    2    1    2    0    0  0.00000000000E+00  0.00000000000E+00  0.68345115258E+03  0.21312167196E+04  0.20186577788E+04 0.  0.
        4    1    3    3  502    0 -0.59320199406E+02  0.26226149331E+03 -0.68537316388E+03  0.73623227557E+03  0.12699999809E+01 0.  1.
       -4    1    3    3    0  502  0.59320199406E+02 -0.26226149331E+03  0.13688243165E+04  0.13949844441E+04  0.12699999809E+01 0. -1.
</event>
<event>
 5   0  0.8861350E-05  0.2008372E+04  0.7818609E-02  0.8602716E-01
        1   -1    0    0  501    0  0.00000000000E+00  0.00000000000E+00  0.62622022662E+03  0.62622022664E+03  0.50400001928E-02 0.  1.
       -1   -1    0    0    0  501  0.00000000000E+00  0.00000000000E+00 -0.16102795768E+04  0.16102795768E+04  0.50400001928E-02 0. -1.
    10030    2    1    2    0    0  0.00000000000E+00  0.00000000000E+00 -0.98405935021E+03  0.22364998035E+04  0.20083721185E+04 0.  0.
        1    1    3    3  502    0 -0.36408227217E+03 -0.43780201368E+03 -0.14131248688E+04  0.15235315550E+04  0.50400001928E-02 0. -1.
       -1    1    3    3    0  502  0.36408227217E+03  0.43780201368E+03  0.42906551861E+03  0.71296824850E+03  0.50400001928E-02 0.  1.
</event>
<event>
 5   0  0.8861350E-05  0.1997051E+04  0.7818609E-02  0.8608000E-01
        1   -1    0    0  501    0  0.00000000000E+00  0.00000000000E+00  0.72866042050E+03  0.72866042051E+03  0.50400001928E-02 0. -1.
       -1   -1    0    0    0  501  0.00000000000E+00  0.00000000000E+00 -0.13683378003E+04  0.13683378003E+04  0.50400001928E-02 0.  1.
    10030    2    1    2    0    0  0.00000000000E+00  0.00000000000E+00 -0.63967737979E+03  0.20969982208E+04  0.19970514234E+04 0.  0.
        1    1    3    3  502    0 -0.29185140211E+03 -0.49356144162E+03  0.53855382252E+03  0.78665135692E+03  0.50400001928E-02 0. -1.
       -1    1    3    3    0  502  0.29185140211E+03  0.49356144162E+03 -0.11782312023E+04  0.13103468639E+04  0.50400001928E-02 0.  1.
</event>
<event>
 5   0  0.1812865E-04  0.2013064E+04  0.7818609E-02  0.8600537E-01
        2   -1    0    0  501    0  0.00000000000E+00  0.00000000000E+00  0.21772921805E+04  0.21772921805E+04  0.25500000920E-02 0. -1.
       -2   -1    0    0    0  501  0.00000000000E+00  0.00000000000E+00 -0.46530585578E+03  0.46530585579E+03  0.25500000920E-02 0.  1.
    10030    2    1    2    0    0  0.00000000000E+00  0.00000000000E+00  0.17119863247E+04  0.26425980363E+04  0.20130641334E+04 0.  0.
        3    1    3    3  502    0 -0.31372464511E+03  0.94581457342E+03  0.10421892492E+04  0.14419246865E+04  0.10100000352E+00 0.  1.
       -3    1    3    3    0  502  0.31372464511E+03 -0.94581457342E+03  0.66979707548E+03  0.12006733497E+04  0.10100000352E+00 0. -1.
</event>
<event>
 5   0  0.8958919E-05  0.2032680E+04  0.7818609E-02  0.8591492E-01
       -1   -1    0    0    0  501  0.00000000000E+00  0.00000000000E+00  0.12850953077E+04  0.12850953077E+04  0.50400001928E-02 0.  1.
        1   -1    0    0  501    0  0.00000000000E+00  0.00000000000E+00 -0.80378995063E+03  0.80378995065E+03  0.50400001928E-02 0. -1.
    10030    2    1    2    0    0  0.00000000000E+00  0.00000000000E+00  0.48130535709E+03  0.20888852584E+04  0.20326797032E+04 0.  0.
        4    1    3    3  502    0 -0.88400276441E+03 -0.44026542381E+03  0.48739711131E+03  0.11012956406E+04  0.12699999809E+01 0.  1.
       -4    1    3    3    0  502  0.88400276441E+03  0.44026542381E+03 -0.60917542134E+01  0.98758961783E+03  0.12699999809E+01 0. -1.
</event>
<event>
 5   0  0.8861350E-05  0.1974602E+04  0.7818609E-02  0.8618588E-01
       -1   -1    0    0    0  501  0.00000000000E+00  0.00000000000E+00  0.54694861796E+03  0.54694861799E+03  0.50400001928E-02 0. -1.
        1   -1    0    0  501    0  0.00000000000E+00  0.00000000000E+00 -0.17821845862E+04  0.17821845862E+04  0.50400001928E-02 0.  1.
    10030    2    1    2    0    0  0.00000000000E+00  0.00000000000E+00 -0.12352359682E+04  0.23291332042E+04  0.19746021335E+04 0.  0.
        1    1    3    3  502    0  0.11217485881E+02  0.95360457561E+03 -0.91898178534E+03  0.13243923287E+04  0.50400001928E-02 0. -1.
       -1    1    3    3    0  502 -0.11217485881E+02 -0.95360457561E+03 -0.31625418291E+03  0.10047408755E+04  0.50400001928E-02 0.  1.
</event>
<event>
 5   0  0.8861350E-05  0.2218283E+04  0.7818609E-02  0.8510857E-01
       -1   -1    0    0    0  501  0.00000000000E+00  0.00000000000E+00  0.16354518515E+04  0.16354518515E+04  0.50400001928E-02 0. -1.
        1   -1    0    0  501    0  0.00000000000E+00  0.00000000000E+00 -0.75220466397E+03  0.75220466398E+03  0.50400001928E-02 0.  1.
    10030    2    1    2    0    0  0.00000000000E+00  0.00000000000E+00  0.88324718757E+03  0.23876565155E+04  0.22182826785E+04 0.  0.
        1    1    3    3  502    0  0.79315510594E+03  0.77530553863E+03  0.44259238194E+03  0.11941866340E+04  0.50400001928E-02 0. -1.
       -1    1    3    3    0  502 -0.79315510594E+03 -0.77530553863E+03  0.44065480563E+03  0.11934698815E+04  0.50400001928E-02 0.  1.
</event>
<event>
 5   0  0.8765057E-05  0.1900242E+04  0.7818609E-02  0.8654736E-01
       -1   -1    0    0    0  501  0.00000000000E+00  0.00000000000E+00  0.30826274613E+03  0.30826274617E+03  0.50400001928E-02 0.  1.
        1   -1    0    0  501    0  0.00000000000E+00  0.00000000000E+00 -0.29284431107E+04  0.29284431107E+04  0.50400001928E-02 0. -1.
    10030    2    1    2    0    0  0.00000000000E+00  0.00000000000E+00 -0.26201803645E+04  0.32367058568E+04  0.19002420006E+04 0.  0.
        3    1    3    3  502    0  0.26713909577E+03 -0.64565547223E+03 -0.24067054634E+04  0.25060856895E+04  0.10100000352E+00 0. -1.
       -3    1    3    3    0  502 -0.26713909577E+03  0.64565547223E+03 -0.21347490112E+03  0.73062016734E+03  0.10100000352E+00 0.  1.
</event>
<event>
 5   0  0.1807498E-04  0.1969829E+04  0.7818609E-02  0.8620858E-01
        2   -1    0    0  501    0  0.00000000000E+00  0.00000000000E+00  0.99232898234E+03  0.99232898234E+03  0.25500000920E-02 0.  1.
       -2   -1    0    0    0  501  0.00000000000E+00  0.00000000000E+00 -0.97755504560E+03  0.97755504560E+03  0.25500000920E-02 0. -1.
    10030    2    1    2    0    0  0.00000000000E+00  0.00000000000E+00  0.14773936743E+02  0.19698840279E+04  0.19698286256E+04 0.  0.
        5    1    3    3  502    0 -0.49061318913E+03  0.45708015536E+03 -0.71402818103E+03  0.97953147120E+03  0.46999998093E+01 0. -1.
       -5    1    3    3    0  502  0.49061318913E+03 -0.45708015536E+03  0.72880211777E+03  0.99035255674E+03  0.46999998093E+01 0.  1.
</event>
<event>
 5   0  0.8958919E-05  0.2019209E+04  0.7818609E-02  0.8597692E-01
       -1   -1    0    0    0  501  0.00000000000E+00  0.00000000000E+00  0.54130447869E+03  0.54130447872E+03  0.50400001928E-02 0. -1.
        1   -1    0    0  501    0  0.00000000000E+00  0.00000000000E+00 -0.18830457705E+04  0.18830457705E+04  0.50400001928E-02 0.  1.
    10030    2    1    2    0    0  0.00000000000E+00  0.00000000000E+00 -0.13417412918E+04  0.24243502492E+04  0.20192088641E+04 0.  0.
        4    1    3    3  502    0 -0.41066214826E+03 -0.52204463410E+03  0.24203350236E+03  0.70693410526E+03  0.12699999809E+01 0. -1.
       -4    1    3    3    0  502  0.41066214826E+03  0.52204463410E+03 -0.15837747942E+04  0.17174161440E+04  0.12699999809E+01 0.  1.
</event>
<event>
 5   0  0.8861350E-05  0.1778556E+04  0.7818609E-02  0.8717787E-01
        1   -1    0    0  501    0  0.00000000000E+00  0.00000000000E+00  0.14883689814E+04  0.14883689814E+04  0.50400001928E-02 0. -1.
       -1   -1    0    0    0  501  0.00000000000E+00  0.00000000000E+00 -0.53133019798E+03  0.53133019801E+03  0.50400001928E-02 0.  1.
    10030    2    1    2    0    0  0.00000000000E+00  0.00000000000E+00  0.95703878346E+03  0.20196991795E+04  0.17785560274E+04 0.  0.
        1    1    3    3  502    0 -0.49549220915E+03  0.68902580721E+03  0.17690209862E+03  0.86692758916E+03  0.50400001928E-02 0. -1.
       -1    1    3    3    0  502  0.49549220915E+03 -0.68902580721E+03  0.78013668483E+03  0.11527715903E+04  0.50400001928E-02 0.  1.
</event>
<event>
 5   0  0.8765057E-05  0.1990108E+04  0.7818609E-02  0.8611259E-01
       -1   -1    0    0    0  501  0.00000000000E+00  0.00000000000E+00  0.45467442951E+03  0.45467442954E+03  0.50400001928E-02 0.  1.
        1   -1    0    0  501    0  0.00000000000E+00  0.00000000000E+00 -0.21776735968E+04  0.21776735968E+04  0.50400001928E-02 0. -1.
    10030    2    1    2    0    0  0.00000000000E+00  0.00000000000E+00 -0.17229991673E+04  0.26323480263E+04  0.19901080376E+04 0.  0.
        3    1    3    3  502    0 -0.95967241366E+03 -0.58683199694E+01 -0.51373109324E+03  0.10885427071E+04  0.10100000352E+00 0.  1.
       -3    1    3    3    0  502  0.95967241366E+03  0.58683199694E+01 -0.12092680740E+04  0.15438053193E+04  0.10100000352E+00 0. -1.
</event>
<event>
 5   0  0.1807498E-04  0.2065943E+04  0.7818609E-02  0.8576396E-01
        2   -1    0    0  501    0  0.00000000000E+00  0.00000000000E+00  0.86420270421E+03  0.86420270421E+03  0.25500000920E-02 0. -1.
       -2   -1    0    0    0  501  0.00000000000E+00  0.00000000000E+00 -0.12346985738E+04  0.12346985738E+04  0.25500000920E-02 0.  1.
    10030    2    1    2    0    0  0.00000000000E+00  0.00000000000E+00 -0.37049586961E+03  0.20989012780E+04  0.20659427353E+04 0.  0.
        5    1    3    3  502    0  0.93043434112E+03  0.31894193260E+03  0.13534245317E+03  0.99286035732E+03  0.46999998093E+01 0. -1.
       -5    1    3    3    0  502 -0.93043434112E+03 -0.31894193260E+03 -0.50583832278E+03  0.11060409207E+04  0.46999998093E+01 0.  1.
</event>
<event>
 5   0  0.1893687E-04  0.2003059E+04  0.7818609E-02  0.8605192E-01
        2   -1    0    0  501    0  0.00000000000E+00  0.00000000000E+00  0.10009831369E+04  0.10009831369E+04  0.25500000920E-02 0.  1.
       -2   -1    0    0    0  501  0.00000000000E+00  0.00000000000E+00 -0.10020764695E+04  0.10020764695E+04  0.25500000920E-02 0. -1.
    10030    2    1    2    0    0  0.00000000000E+00  0.00000000000E+00 -0.10933325954E+01  0.20030596063E+04  0.20030593079E+04 0.  0.
        4    1    3    3  502    0 -0.13522000268E+03  0.11974054060E+03 -0.98565482169E+03  0.10020675060E+04  0.12699999809E+01 0. -1.
       -4    1    3    3    0  502  0.13522000268E+03 -0.11974054060E+03  0.98456148910E+03  0.10009921003E+04  0.12699999809E+01 0.  1.
</event>
<event>
 5   0  0.8881384E-05  0.1981914E+04  0.7818609E-02  0.8615124E-01
       -1   -1    0    0    0  501  0.00000000000E+00  0.00000000000E+00  0.98773017247E+03  0.98773017248E+03  0.50400001928E-02 0.  1.
        1   -1    0    0  501    0  0.00000000000E+00  0.00000000000E+00 -0.99419405180E+03  0.99419405181E+03  0.50400001928E-02 0. -1.
    10030    2    1    2    0    0  0.00000000000E+00  0.00000000000E+00 -0.64638793306E+01  0.19819242243E+04  0.19819136836E+04 0.  0.
        5    1    3    3  502    0 -0.41001198183E+03  0.88468100117E+03 -0.17987679558E+03  0.99153822450E+03  0.46999998093E+01 0. -1.
       -5    1    3    3    0  502  0.41001198183E+03 -0.88468100117E+03  0.17341291625E+03  0.99038599979E+03  0.46999998093E+01 0.  1.
</event>
<event>
 5   0  0.1893687E-04  0.2024958E+04  0.7818609E-02  0.8595040E-01
       -2   -1    0    0    0  501  0.00000000000E+00  0.00000000000E+00  0.13349123268E+04  0.13349123268E+04  0.25500000920E-02 0.  1.
        2   -1    0    0  501    0  0.00000000000E+00  0.00000000000E+00 -0.76792611601E+03  0.76792611601E+03  0.25500000920E-02 0. -1.
    10030    2    1    2    0    0  0.00000000000E+00  0.00000000000E+00  0.56698621076E+03  0.21028384428E+04  0.20249583090E+04 0.  0.
        4    1    3    3  502    0 -0.89861675387E+03 -0.46199516759E+03  0.21650783788E+03  0.10333580512E+04  0.12699999809E+01 0.  1.
       -4    1    3    3    0  502  0.89861675387E+03  0.46199516759E+03  0.35047837288E+03  0.10694803916E+04  0.12699999809E+01 0. -1.
</event>
<event>
 5   0  0.8765057E-05  0.2006198E+04  0.7818609E-02  0.8603728E-01
       -1   -1    0    0    0  501  0.00000000000E+00  0.00000000000E+00  0.10423153001E+04  0.10423153001E+04  0.50400001928E-02 0. -1.
        1   -1    0    0  501    0  0.00000000000E+00  0.00000000000E+00 -0.96535866267E+03  0.96535866268E+03  0.50400001928E-02 0.  1.
    10030    2    1    2    0    0  0.00000000000E+00  0.00000000000E+00  0.76956637394E+02  0.20076739628E+04  0.20061984988E+04 0.  0.
        3    1    3    3  502    0  0.88064634488E+03  0.29785448032E+03  0.41552167655E+03  0.10182895217E+04  0.10100000352E+00 0.  1.
       -3    1    3    3    0  502 -0.88064634488E+03 -0.29785448032E+03 -0.33856503916E+03  0.98938444102E+03  0.10100000352E+00 0. -1.
</event>
<event>
 5   0  0.1782172E-04  0.2022093E+04  0.7818609E-02  0.8596361E-01
       -2   -1    0    0    0  501  0.00000000000E+00  0.00000000000E+00  0.67264198829E+03  0.67264198830E+03  0.25500000920E-02 0. -1.
        2   -1    0    0  501    0  0.00000000000E+00  0.00000000000E+00 -0.15197015048E+04  0.15197015048E+04  0.25500000920E-02 0.  1.
    10030    2    1    2    0    0  0.00000000000E+00  0.00000000000E+00 -0.84705951649E+03  0.21923434931E+04  0.20220930164E+04 0.  0.
        2    1    3    3  502    0 -0.12126595236E+03 -0.39597768562E+03 -0.14235264585E+04  0.14825421871E+04  0.25500000920E-02 0.  1.
       -2    1    3    3    0  502  0.12126595236E+03  0.39597768562E+03  0.57646694198E+03  0.70980130593E+03  0.25500000920E-02 0. -1.
</event>
<event>
 5   0  0.1834645E-04  0.2021095E+04  0.7818609E-02  0.8596821E-01
       -2   -1    0    0    0  501  0.00000000000E+00  0.00000000000E+00  0.10737116149E+04  0.10737116149E+04  0.25500000920E-02 0. -1.
        2   -1    0    0  501    0  0.00000000000E+00  0.00000000000E+00 -0.95109919165E+03  0.95109919165E+03  0.25500000920E-02 0.  1.
    10030    2    1    2    0    0  0.00000000000E+00  0.00000000000E+00  0.12261242330E+03  0.20248108066E+04  0.20210949993E+04 0.  0.
        1    1    3    3  502    0  0.17063591065E+03 -0.98309533512E+03 -0.99029261654E+02  0.10026962883E+04  0.50400001928E-02 0.  1.
       -1    1    3    3    0  502 -0.17063591065E+03  0.98309533512E+03  0.22164168495E+03  0.10221145183E+04  0.50400001928E-02 0. -1.
</event>
<event>
 5   0  0.8958919E-05  0.2015241E+04  0.7818609E-02  0.8599528E-01
       -1   -1    0    0    0  501  0.00000000000E+00  0.00000000000E+00  0.51439289224E+03  0.51439289226E+03  0.50400001928E-02 0. -1.
        1   -1    0    0  501    0  0.00000000000E+00  0.00000000000E+00 -0.19737813388E+04  0.19737813388E+04  0.50400001928E-02 0.  1.
    10030    2    1    2    0    0  0.00000000000E+00  0.00000000000E+00 -0.14593884466E+04  0.24881742311E+04  0.20152410194E+04 0.  0.
        4    1    3    3  502    0 -0.85884162347E+02  0.48736353235E+03 -0.18134000705E+04  0.18797129383E+04  0.12699999809E+01 0.  1.
       -4    1    3    3    0  502  0.85884162347E+02 -0.48736353235E+03  0.35401162391E+03  0.60846129275E+03  0.12699999809E+01 0. -1.
</event>
<event>
 5   0  0.1834645E-04  0.1999434E+04  0.7818609E-02  0.8606885E-01
       -2   -1    0    0    0  501  0.00000000000E+00  0.00000000000E+00  0.86910335893E+03  0.86910335894E+03  0.25500000920E-02 0.  1.
        2   -1    0    0  501    0  0.00000000000E+00  0.00000000000E+00 -0.11499596233E+04  0.11499596233E+04  0.25500000920E-02 0. -1.
    10030    2    1    2    0    0  0.00000000000E+00  0.00000000000E+00 -0.28085626438E+03  0.20190629822E+04  0.19994336911E+04 0.  0.
        1    1    3    3  502    0 -0.38811842786E+03 -0.72369456761E+03  0.43531308054E+03  0.92944457572E+03  0.50400001928E-02 0.  1.
       -1    1    3    3    0  502  0.38811842786E+03  0.72369456761E+03 -0.71616934492E+03  0.10896184065E+04  0.50400001928E-02 0. -1.
</event>
<event>
 5   0  0.8577422E-05  0.1995898E+04  0.7818609E-02  0.8608541E-01
        1   -1    0    0  501    0  0.00000000000E+00  0.00000000000E+00  0.61467125930E+03  0.61467125933E+03  0.50400001928E-02 0.  1.
       -1   -1    0    0    0  501  0.00000000000E+00  0.00000000000E+00 -0.16202186746E+04  0.16202186746E+04  0.50400001928E-02 0. -1.
    10030    2    1    2    0    0  0.00000000000E+00  0.00000000000E+00 -0.10055474153E+04  0.22348899340E+04  0.19958976458E+04 0.  0.
        2    1    3    3  502    0  0.32886264930E+02  0.34474480339E+03  0.54523002354E+03  0.64591505978E+03  0.25500000920E-02 0.  1.
       -2    1    3    3    0  502 -0.32886264930E+02 -0.34474480339E+03 -0.15507774389E+04  0.15889748742E+04  0.25500000920E-02 0. -1.
</event>
<event>
 5   0  0.1893687E-04  0.1965875E+04  0.7818609E-02  0.8622743E-01
        2   -1    0    0  501    0  0.00000000000E+00  0.00000000000E+00  0.13900835957E+04  0.13900835957E+04  0.25500000920E-02 0.  1.
       -2   -1    0    0    0  501  0.00000000000E+00  0.00000000000E+00 -0.69504189696E+03  0.69504189696E+03  0.25500000920E-02 0. -1.
    10030    2    1    2    0    0  0.00000000000E+00  0.00000000000E+00  0.69504169875E+03  0.20851254927E+04  0.19658752140E+04 0.  0.
        4    1    3    3  502    0 -0.85533611533E+03 -0.66917588534E+02  0.85629166402E+03  0.12121529856E+04  0.12699999809E+01 0.  1.
       -4    1    3    3    0  502  0.85533611533E+03  0.66917588534E+02 -0.16124996526E+03  0.87297250703E+03  0.12699999809E+01 0. -1.
</event>
<event>
 5   0  0.1812865E-04  0.1996628E+04  0.7818609E-02  0.8608199E-01
       -2   -1    0    0    0  501  0.00000000000E+00  0.00000000000E+00  0.63733498492E+03  0.63733498492E+03  0.25500000920E-02 0. -1.
        2   -1    0    0  501    0  0.00000000000E+00  0.00000000000E+00 -0.15637470209E+04  0.15637470209E+04  0.25500000920E-02 0.  1.
    10030    2    1    2    0    0  0.00000000000E+00  0.00000000000E+00 -0.92641203598E+03  0.22010820058E+04  0.19966278411E+04 0.  0.
        3    1    3    3  502    0  0.37173621946E+03 -0.91032418396E+03 -0.65335874697E+03  0.11805742667E+04  0.10100000352E+00 0.  1.
       -3    1    3    3    0  502 -0.37173621946E+03  0.91032418396E+03 -0.27305328901E+03  0.10205077391E+04  0.10100000352E+00 0. -1.
</event>
<event>
 5   0  0.8577422E-05  0.2016932E+04  0.7818609E-02  0.8598745E-01
       -1   -1    0    0    0  501  0.00000000000E+00  0.00000000000E+00  0.56744849255E+03  0.56744849257E+03  0.50400001928E-02 0. -1.
        1   -1    0    0  501    0  0.00000000000E+00  0.00000000000E+00 -0.17922395927E+04  0.17922395927E+04  0.50400001928E-02 0.  1.
    10030    2    1    2    0    0  0.00000000000E+00  0.00000000000E+00 -0.12247911001E+04  0.23596880853E+04  0.20169319822E+04 0.  0.
        2    1    3    3  502    0 -0.94449157036E+03  0.32481530667E+03 -0.44929767456E+03  0.10951884360E+04  0.25500000920E-02 0.  1.
       -2    1    3    3    0  502  0.94449157036E+03 -0.32481530667E+03 -0.77549342557E+03  0.12644996493E+04  0.25500000920E-02 0. -1.
</event>
<event>
 5   0  0.8958919E-05  0.2033575E+04  0.7818609E-02  0.8591082E-01
       -1   -1    0    0    0  501  0.00000000000E+00  0.00000000000E+00  0.10890891470E+04  0.10890891470E+04  0.50400001928E-02 0. -1.
        1   -1    0    0  501    0  0.00000000000E+00  0.00000000000E+00 -0.94928548093E+03  0.94928548094E+03  0.50400001928E-02 0.  1.
    10030    2    1    2    0    0  0.00000000000E+00  0.00000000000E+00  0.13980366605E+03  0.20383746279E+04  0.20335746996E+04 0.  0.
        4    1    3    3  502    0  0.54566807952E+03  0.44012988203E+03 -0.66830572111E+03  0.96855671792E+03  0.12699999809E+01 0.  1.
       -4    1    3    3    0  502 -0.54566807952E+03 -0.44012988203E+03  0.80810938716E+03  0.10698179100E+04  0.12699999809E+01 0. -1.
</event>
<event>
 5   0  0.8765057E-05  0.2003647E+04  0.7818609E-02  0.8604918E-01
        1   -1    0    0  501    0  0.00000000000E+00  0.00000000000E+00  0.14481248607E+04  0.14481248607E+04  0.50400001928E-02 0. -1.
       -1   -1    0    0    0  501  0.00000000000E+00  0.00000000000E+00 -0.69306879796E+03  0.69306879798E+03  0.50400001928E-02 0.  1.
    10030    2    1    2    0    0  0.00000000000E+00  0.00000000000E+00  0.75505606275E+03  0.21411936587E+04  0.20036468317E+04 0.  0.
        3    1    3    3  502    0 -0.50507078342E+03 -0.70414662533E+03  0.91476289362E+03  0.12600437008E+04  0.10100000352E+00 0.  1.
       -3    1    3    3    0  502  0.50507078342E+03  0.70414662533E+03 -0.15970683087E+03  0.88114995787E+03  0.10100000352E+00 0. -1.
</event>
<event>
 5   0  0.8765057E-05  0.2013437E+04  0.7818609E-02  0.8600364E-01
        1   -1    0    0  501    0  0.00000000000E+00  0.00000000000E+00  0.17322016220E+04  0.17322016220E+04  0.50400001928E-02 0. -1.
       -1   -1    0    0    0  501  0.00000000000E+00  0.00000000000E+00 -0.58508309075E+03  0.58508309077E+03  0.50400001928E-02 0.  1.
    10030    2    1    2    0    0  0.00000000000E+00  0.00000000000E+00  0.11471185313E+04  0.23172847128E+04  0.20134367423E+04 0.  0.
        3    1    3    3  502    0  0.23310089278E+03  0.72590964688E+03 -0.18307203648E+03  0.78408942244E+03  0.10100000352E+00 0.  1.
       -3    1    3    3    0  502 -0.23310089278E+03 -0.72590964688E+03  0.13301905677E+04  0.15331952903E+04  0.10100000352E+00 0. -1.
</event>
<event>
 5   0  0.1812865E-04  0.2048939E+04  0.7818609E-02  0.8584076E-01
        2   -1    0    0  501    0  0.00000000000E+00  0.00000000000E+00  0.88665170482E+03  0.88665170483E+03  0.25500000920E-02 0. -1.
       -2   -1    0    0    0  501  0.00000000000E+00  0.00000000000E+00 -0.11837093964E+04  0.11837093964E+04  0.25500000920E-02 0.  1.
    10030    2    1    2    0    0  0.00000000000E+00  0.00000000000E+00 -0.29705769155E+03  0.20703611012E+04  0.20489391932E+04 0.  0.
        3    1    3    3  502    0  0.64981524976E+03  0.59794678855E+02  0.64947656328E+03  0.92068185541E+03  0.10100000352E+00 0. -1.
       -3    1    3    3    0  502 -0.64981524976E+03 -0.59794678855E+02 -0.94653425483E+03  0.11496792458E+04  0.10100000352E+00 0.  1.
</event>
<event>
 5   0  0.1807498E-04  0.1961752E+04  0.7818609E-02  0.8624715E-01
       -2   -1    0    0    0  501  0.00000000000E+00  0.00000000000E+00  0.55308789695E+03  0.55308789695E+03  0.25500000920E-02 0.  1.
        2   -1    0    0  501    0  0.00000000000E+00  0.00000000000E+00 -0.17395387857E+04  0.17395387857E+04  0.25500000920E-02 0. -1.
    10030    2    1    2    0    0  0.00000000000E+00  0.00000000000E+00 -0.11864508888E+04  0.22926266827E+04  0.19617521236E+04 0.  0.
        5    1    3    3  502    0 -0.46242367781E+03 -0.82913966572E+03 -0.30509018393E+03  0.99720126023E+03  0.46999998093E+01 0.  1.
       -5    1    3    3    0  502  0.46242367781E+03  0.82913966572E+03 -0.88136070482E+03  0.12954254224E+04  0.46999998093E+01 0. -1.
</event>
<event>
 5   0  0.1782172E-04  0.1980649E+04  0.7818609E-02  0.8615722E-01
       -2   -1    0    0    0  501  0.00000000000E+00  0.00000000000E+00  0.53113858895E+03  0.53113858896E+03  0.25500000920E-02 0. -1.
        2   -1    0    0  501    0  0.00000000000E+00  0.00000000000E+00 -0.18464912019E+04  0.18464912019E+04  0.25500000920E-02 0.  1.
    10030    2    1    2    0    0  0.00000000000E+00  0.00000000000E+00 -0.13153526130E+04  0.23776297909E+04  0.19806491174E+04 0.  0.
        2    1    3    3  502    0  0.78544115979E+03 -0.36747956759E+03 -0.83494783547E+02  0.87116613052E+03  0.25500000920E-02 0. -1.
       -2    1    3    3    0  502 -0.78544115979E+03  0.36747956759E+03 -0.12318578294E+04  0.15064636604E+04  0.25500000920E-02 0.  1.
</event>
<event>
 5   0  0.8861350E-05  0.2003823E+04  0.7818609E-02  0.8604835E-01
       -1   -1    0    0    0  501  0.00000000000E+00  0.00000000000E+00  0.11293898290E+04  0.11293898290E+04  0.50400001928E-02 0. -1.
        1   -1    0    0  501    0  0.00000000000E+00  0.00000000000E+00 -0.88882254367E+03  0.88882254368E+03  0.50400001928E-02 0.  1.
    10030    2    1    2    0    0  0.00000000000E+00  0.00000000000E+00  0.24056728535E+03  0.20182123727E+04  0.20038234859E+04 0.  0.
        1    1    3    3  502    0  0.39723476397E+03 -0.54569741895E+02 -0.80448917053E+03  0.89887493010E+03  0.50400001928E-02 0.  1.
       -1    1    3    3    0  502 -0.39723476397E+03  0.54569741895E+02  0.10450564559E+04  0.11193374426E+04  0.50400001928E-02 0. -1.
</event>
<event>
 5   0  0.1782172E-04  0.2006613E+04  0.7818609E-02  0.8603535E-01
       -2   -1    0    0    0  501  0.00000000000E+00  0.00000000000E+00  0.15293743588E+04  0.15293743588E+04  0.25500000920E-02 0.  1.
        2   -1    0    0  501    0  0.00000000000E+00  0.00000000000E+00 -0.65819328162E+03  0.65819328162E+03  0.25500000920E-02 0. -1.
    10030    2    1    2    0    0  0.00000000000E+00  0.00000000000E+00  0.87118107720E+03  0.21875676404E+04  0.20066129951E+04 0.  0.
        2    1    3    3  502    0  0.44027985825E+03  0.80502297647E+03  0.87804157049E+03  0.12699863565E+04  0.25500000920E-02 0.  1.
       -2    1    3    3    0  502 -0.44027985825E+03 -0.80502297647E+03 -0.68604932859E+01  0.91758128392E+03  0.25500000920E-02 0. -1.
</event>
<event>
 5   0  0.8861350E-05  0.2006573E+04  0.7818609E-02  0.8603554E-01
       -1   -1    0    0    0  501  0.00000000000E+00  0.00000000000E+00  0.59134945633E+03  0.59134945635E+03  0.50400001928E-02 0. -1.
        1   -1    0    0  501    0  0.00000000000E+00  0.00000000000E+00 -0.17021803167E+04  0.17021803167E+04  0.50400001928E-02 0.  1.
    10030    2    1    2    0    0  0.00000000000E+00  0.00000000000E+00 -0.11108308604E+04  0.22935297731E+04  0.20065726051E+04 0.  0.
        1    1    3    3  502    0  0.76887665810E+03 -0.17913027289E+02 -0.12918281367E+04  0.15034334460E+04  0.50400001928E-02 0.  1.
       -1    1    3    3    0  502 -0.76887665810E+03  0.17913027289E+02  0.18099727631E+03  0.79009632702E+03  0.50400001928E-02 0. -1.
</event>
<event>
 5   0  0.8881384E-05  0.1994519E+04  0.7818609E-02  0.8609188E-01
        1   -1    0    0  501    0  0.00000000000E+00  0.00000000000E+00  0.16420366990E+04  0.16420366990E+04  0.50400001928E-02 0. -1.
       -1   -1    0    0    0  501  0.00000000000E+00  0.00000000000E+00 -0.60566633151E+03  0.60566633153E+03  0.50400001928E-02 0.  1.
    10030    2    1    2    0    0  0.00000000000E+00  0.00000000000E+00  0.10363703675E+04  0.22477030305E+04  0.19945188329E+04 0.  0.
        5    1    3    3  502    0 -0.90874584637E+03  0.16840187258E+03  0.96032125748E+02  0.92920528580E+03  0.46999998093E+01 0.  1.
       -5    1    3    3    0  502  0.90874584637E+03 -0.16840187258E+03  0.94033824171E+03  0.13184977447E+04  0.46999998093E+01 0. -1.
</event>
<event>
 5   0  0.1893687E-04  0.1939545E+04  0.7818609E-02  0.8635419E-01
       -2   -1    0    0    0  501  0.00000000000E+00  0.00000000000E+00  0.49074961907E+03  0.49074961907E+03  0.25500000920E-02 0. -1.
        2   -1    0    0  501    0  0.00000000000E+00  0.00000000000E+00 -0.19163722904E+04  0.19163722904E+04  0.25500000920E-02 0.  1.
    10030    2    1    2    0    0  0.00000000000E+00  0.00000000000E+00 -0.14256226713E+04  0.24071219094E+04  0.19395452781E+04 0.  0.
        4    1    3    3  502    0 -0.10195303060E+03  0.92015646278E+03 -0.10711685437E+04  0.14157987140E+04  0.12699999809E+01 0. -1.
       -4    1    3    3    0  502  0.10195303060E+03 -0.92015646278E+03 -0.35445412755E+03  0.99132319547E+03  0.12699999809E+01 0.  1.
</event>
<event>
 5   0  0.8765057E-05  0.2003669E+04  0.7818609E-02  0.8604907E-01
        1   -1    0    0  501    0  0.00000000000E+00  0.00000000000E+00  0.10814835040E+04  0.10814835040E+04  0.50400001928E-02 0. -1.
       -1   -1    0    0    0  501  0.00000000000E+00  0.00000000000E+00 -0.92805182812E+03  0.92805182813E+03  0.50400001928E-02 0.  1.
    10030    2    1    2    0    0  0.00000000000E+00  0.00000000000E+00  0.15343167584E+03  0.20095353321E+04  0.20036693769E+04 0.  0.
        3    1    3    3  502    0 -0.35171471484E+03 -0.25347839345E+03 -0.82909948054E+03  0.93560701976E+03  0.10100000352E+00 0.  1.
       -3    1    3    3    0  502  0.35171471484E+03  0.25347839345E+03  0.98253115638E+03  0.10739283123E+04  0.10100000352E+00 0. -1.
</event>
<event>
 5   0  0.6531625E-05  0.1882421E+04  0.7818609E-02  0.8663656E-01
       -3   -1    0    0    0  501  0.00000000000E+00  0.00000000000E+00  0.88509269654E+03  0.88509270230E+03  0.10100000352E+00 0.  1.
        3   -1    0    0  501    0  0.00000000000E+00  0.00000000000E+00 -0.10008862053E+04  0.10008862104E+04  0.10100000352E+00 0. -1.
    10030    2    1    2    0    0  0.00000000000E+00  0.00000000000E+00 -0.11579350876E+03  0.18859789127E+04  0.18824208675E+04 0.  0.
        3    1    3    3  502    0  0.85705021744E+03 -0.34403884919E+03  0.12404844165E+03  0.93181856122E+03  0.10100000352E+00 0. -1.
       -3    1    3    3    0  502 -0.85705021744E+03  0.34403884919E+03 -0.23984195041E+03  0.95416035148E+03  0.10100000352E+00 0.  1.
</event>
<event>
 5   0  0.8861350E-05  0.2027250E+04  0.7818609E-02  0.8593986E-01
        1   -1    0    0  501    0  0.00000000000E+00  0.00000000000E+00  0.97424751676E+03  0.97424751678E+03  0.50400001928E-02 0. -1.
       -1   -1    0    0    0  501  0.00000000000E+00  0.00000000000E+00 -0.10545936477E+04  0.10545936478E+04  0.50400001928E-02 0.  1.
    10030    2    1    2    0    0  0.00000000000E+00  0.00000000000E+00 -0.80346130983E+02  0.20288411645E+04  0.20272496073E+04 0.  0.
        1    1    3    3  502    0  0.66136656752E+02  0.72330857429E+03  0.66740809769E+03  0.98639896588E+03  0.50400001928E-02 0. -1.
       -1    1    3    3    0  502 -0.66136656752E+02 -0.72330857429E+03 -0.74775422867E+03  0.10424421987E+04  0.50400001928E-02 0.  1.
</event>
<event>
 5   0  0.8577422E-05  0.1918171E+04  0.7818609E-02  0.8645864E-01
       -1   -1    0    0    0  501  0.00000000000E+00  0.00000000000E+00  0.13305082446E+04  0.13305082446E+04  0.50400001928E-02 0. -1.
        1   -1    0    0  501    0  0.00000000000E+00  0.00000000000E+00 -0.69134868020E+03  0.69134868022E+03  0.50400001928E-02 0.  1.
    10030    2    1    2    0    0  0.00000000000E+00  0.00000000000E+00  0.63915956440E+03  0.20218569248E+04  0.19181711278E+04 0.  0.
        2    1    3    3  502    0  0.90541655987E+03  0.30158051376E+03  0.21894563858E+03  0.97911549157E+03  0.25500000920E-02 0.  1.
       -2    1    3    3    0  502 -0.90541655987E+03 -0.30158051376E+03  0.42021392582E+03  0.10427414333E+04  0.25500000920E-02 0. -1.
</event>
<event>
 5   0  0.8958919E-05  0.2009078E+04  0.7818609E-02  0.8602388E-01
        1   -1    0    0  501    0  0.00000000000E+00  0.00000000000E+00  0.87946666625E+03  0.87946666627E+03  0.50400001928E-02 0.  1.
       -1   -1    0    0    0  501  0.00000000000E+00  0.00000000000E+00 -0.11473978662E+04  0.11473978662E+04  0.50400001928E-02 0. -1.
    10030    2    1    2    0    0  0.00000000000E+00  0.00000000000E+00 -0.26793119996E+03  0.20268645325E+04  0.20090775757E+04 0.  0.
        4    1    3    3  502    0  0.72273340575E+02  0.66636340788E+03 -0.88880965600E+03  0.11132150936E+04  0.12699999809E+01 0. -1.
       -4    1    3    3    0  502 -0.72273340575E+02 -0.66636340788E+03  0.62087845604E+03  0.91364943889E+03  0.12699999809E+01 0.  1.
</event>
<event>
 5   0  0.6531625E-05  0.1954578E+04  0.7818609E-02  0.8628157E-01
        3   -1    0    0  501    0  0.00000000000E+00  0.00000000000E+00  0.20285897997E+04  0.20285898022E+04  0.10100000352E+00 0.  1.
       -3   -1    0    0    0  501  0.00000000000E+00  0.00000000000E+00 -0.47081645243E+03  0.47081646326E+03  0.10100000352E+00 0. -1.
    10030    2    1    2    0    0  0.00000000000E+00  0.00000000000E+00  0.15577733472E+04  0.24994062654E+04  0.19545776726E+04 0.  0.
        2    1    3    3  502    0 -0.24481989654E+03  0.94134021453E+03  0.90043666413E+03  0.13254600588E+04  0.25500000920E-02 0. -1.
       -2    1    3    3    0  502  0.24481989654E+03 -0.94134021453E+03  0.65733668311E+03  0.11739462067E+04  0.25500000920E-02 0.  1.
</event>
<event>
 5   0  0.1834645E-04  0.2014740E+04  0.7818609E-02  0.8599760E-01
       -2   -1    0    0    0  501  0.00000000000E+00  0.00000000000E+00  0.66385957044E+03  0.66385957044E+03  0.25500000920E-02 0.  1.
        2   -1    0    0  501    0  0.00000000000E+00  0.00000000000E+00 -0.15286283410E+04  0.15286283410E+04  0.25500000920E-02 0. -1.
    10030    2    1    2    0    0  0.00000000000E+00  0.00000000000E+00 -0.86476877057E+03  0.21924879115E+04  0.20147402352E+04 0.  0.
        1    1    3    3  502    0 -0.12155712092E+03 -0.99951827858E+03 -0.39828926202E+03  0.10827960376E+04  0.50400001928E-02 0. -1.
       -1    1    3    3    0  502  0.12155712092E+03  0.99951827858E+03 -0.46647950856E+03  0.11096918738E+04  0.50400001928E-02 0.  1.
</event>
<event>
 5   0  0.8577422E-05  0.2016027E+04  0.7818609E-02  0.8599164E-01
       -1   -1    0    0    0  501  0.00000000000E+00  0.00000000000E+00  0.67306360546E+03  0.67306360548E+03  0.50400001928E-02 0.  1.
        1   -1    0    0  501    0  0.00000000000E+00  0.00000000000E+00 -0.15096503933E+04  0.15096503933E+04  0.50400001928E-02 0. -1.
    10030    2    1    2    0    0  0.00000000000E+00  0.00000000000E+00 -0.83658678783E+03  0.21827139988E+04  0.20160265244E+04 0.  0.
        2    1    3    3  502    0  0.83795867064E+03  0.14092897084E+01 -0.10248983388E+04  0.13238554772E+04  0.25500000920E-02 0. -1.
       -2    1    3    3    0  502 -0.83795867064E+03 -0.14092897084E+01  0.18831155094E+03  0.85885852154E+03  0.25500000920E-02 0.  1.
</event>
<event>
 5   0  0.1812865E-04  0.2009274E+04  0.7818609E-02  0.8602297E-01
       -2   -1    0    0    0  501  0.00000000000E+00  0.00000000000E+00  0.15258187155E+04  0.15258187155E+04  0.25500000920E-02 0.  1.
        2   -1    0    0  501    0  0.00000000000E+00  0.00000000000E+00 -0.66147815385E+03  0.66147815386E+03  0.25500000920E-02 0. -1.
    10030    2    1    2    0    0  0.00000000000E+00  0.00000000000E+00  0.86434056160E+03  0.21872968693E+04  0.20092742441E+04 0.  0.
        3    1    3    3  502    0 -0.93441711006E+03 -0.17799705160E+03  0.80302260188E+02  0.95460292748E+03  0.10100000352E+00 0. -1.
       -3    1    3    3    0  502  0.93441711006E+03  0.17799705160E+03  0.78403830142E+03  0.12326939418E+04  0.10100000352E+00 0.  1.
</event>
<event>
 5   0  0.8958919E-05  0.2097448E+04  0.7818609E-02  0.8562369E-01
        1   -1    0    0  501    0  0.00000000000E+00  0.00000000000E+00  0.19203109078E+04  0.19203109078E+04  0.50400001928E-02 0.  1.
       -1   -1    0    0    0  501  0.00000000000E+00  0.00000000000E+00 -0.57273101268E+03  0.57273101270E+03  0.50400001928E-02 0. -1.
    10030    2    1    2    0    0  0.00000000000E+00  0.00000000000E+00  0.13475798951E+04  0.24930419205E+04  0.20974476021E+04 0.  0.
        4    1    3    3  502    0  0.72733804060E+03  0.54141757153E+03  0.13001154779E+04  0.15850727052E+04  0.12699999809E+01 0.  1.
       -4    1    3    3    0  502 -0.72733804060E+03 -0.54141757153E+03  0.47464417209E+02  0.90796921527E+03  0.12699999809E+01 0. -1.
</event>
<event>
 5   0  0.1834645E-04  0.2023773E+04  0.7818609E-02  0.8595586E-01
        2   -1    0    0  501    0  0.00000000000E+00  0.00000000000E+00  0.12004092818E+04  0.12004092818E+04  0.25500000920E-02 0.  1.
       -2   -1    0    0    0  501  0.00000000000E+00  0.00000000000E+00 -0.85297069312E+03  0.85297069313E+03  0.25500000920E-02 0. -1.
    10030    2    1    2    0    0  0.00000000000E+00  0.00000000000E+00  0.34743858865E+03  0.20533799749E+04  0.20237726524E+04 0.  0.
        1    1    3    3  502    0  0.29168210613E+03  0.88699680665E+03 -0.22195008705E+03  0.95974143769E+03  0.50400001928E-02 0.  1.
       -1    1    3    3    0  502 -0.29168210613E+03 -0.88699680665E+03  0.56938867570E+03  0.10936385372E+04  0.50400001928E-02 0. -1.
</event>
<event>
 5   0  0.8765057E-05  0.1768329E+04  0.7818609E-02  0.8723326E-01
        1   -1    0    0  501    0  0.00000000000E+00  0.00000000000E+00  0.24092314262E+04  0.24092314262E+04  0.50400001928E-02 0. -1.
       -1   -1    0    0    0  501  0.00000000000E+00  0.00000000000E+00 -0.32447969689E+03  0.32447969693E+03  0.50400001928E-02 0.  1.
    10030    2    1    2    0    0  0.00000000000E+00  0.00000000000E+00  0.20847517293E+04  0.27337111232E+04  0.17683287963E+04 0.  0.
        3    1    3    3  502    0 -0.39995828810E+03  0.74032143806E+03  0.14620727490E+04  0.16869200329E+04  0.10100000352E+00 0.  1.
       -3    1    3    3    0  502  0.39995828810E+03 -0.74032143806E+03  0.62267898031E+03  0.10467910902E+04  0.10100000352E+00 0. -1.
</event>
<event>
 5   0  0.1893687E-04  0.1936916E+04  0.7818609E-02  0.8636696E-01
        2   -1    0    0  501    0  0.00000000000E+00  0.00000000000E+00  0.17616197918E+04  0.17616197919E+04  0.25500000920E-02 0. -1.
       -2   -1    0    0    0  501  0.00000000000E+00  0.00000000000E+00 -0.53241410613E+03  0.53241410614E+03  0.25500000920E-02 0.  1.
    10030    2    1    2    0    0  0.00000000000E+00  0.00000000000E+00  0.12292056857E+04  0.22940338980E+04  0.19369163398E+04 0.  0.
        4    1    3    3  502    0  0.16042209130E+02 -0.43446946877E+03  0.16395407628E+04  0.16962065315E+04  0.12699999809E+01 0. -1.
       -4    1    3    3    0  502 -0.16042209130E+02  0.43446946877E+03 -0.41033507706E+03  0.59782736650E+03  0.12699999809E+01 0.  1.
</event>
<event>
 5   0  0.1782172E-04  0.2015518E+04  0.7818609E-02  0.8599400E-01
        2   -1    0    0  501    0  0.00000000000E+00  0.00000000000E+00  0.18067148348E+04  0.18067148348E+04  0.25500000920E-02 0.  1.
       -2   -1    0    0    0  501  0.00000000000E+00  0.00000000000E+00 -0.56211315918E+03  0.56211315919E+03  0.25500000920E-02 0. -1.
    10030    2    1    2    0    0  0.00000000000E+00  0.00000000000E+00  0.12446016757E+04  0.23688279940E+04  0.20155179816E+04 0.  0.
        2    1    3    3  502    0  0.63718917894E+03 -0.73559397642E+03  0.31476491095E+03  0.10228320962E+04  0.25500000920E-02 0. -1.
       -2    1    3    3    0  502 -0.63718917894E+03  0.73559397642E+03  0.92983676471E+03  0.13459958978E+04  0.25500000920E-02 0.  1.
</event>
<event>
 5   0  0.1807498E-04  0.1953904E+04  0.7818609E-02  0.8628481E-01
        2   -1    0    0  501    0  0.00000000000E+00  0.00000000000E+00  0.89761182971E+03  0.89761182972E+03  0.25500000920E-02 0.  1.
       -2   -1    0    0    0  501  0.00000000000E+00  0.00000000000E+00 -0.10633049832E+04  0.10633049832E+04  0.25500000920E-02 0. -1.
    10030    2    1    2    0    0  0.00000000000E+00  0.00000000000E+00 -0.16569315348E+03  0.19609168129E+04  0.19539039194E+04 0.  0.
        5    1    3    3  502    0 -0.85479990959E+03 -0.12636217465E+03 -0.54029255725E+03  0.10191115847E+04  0.46999998093E+01 0. -1.
       -5    1    3    3    0  502  0.85479990959E+03  0.12636217465E+03  0.37459940377E+03  0.94180522823E+03  0.46999998093E+01 0.  1.
</event>
<event>
 5   0  0.1782172E-04  0.1938843E+04  0.7818609E-02  0.8635760E-01
        2   -1    0    0  501    0  0.00000000000E+00  0.00000000000E+00  0.85681358369E+03  0.85681358369E+03  0.25500000920E-02 0.  1.
       -2   -1    0    0    0  501  0.00000000000E+00  0.00000000000E+00 -0.10968293554E+04  0.10968293554E+04  0.25500000920E-02 0. -1.
    10030    2    1    2    0    0  0.00000000000E+00  0.00000000000E+00 -0.24001577176E+03  0.19536429391E+04  0.19388432538E+04 0.  0.
        2    1    3    3  502    0 -0.59915701858E+03  0.76067376434E+03 -0.16688809278E+03  0.98258096063E+03  0.25500000920E-02 0.  1.
       -2    1    3    3    0  502  0.59915701858E+03 -0.76067376434E+03 -0.73127678978E+02  0.97106197851E+03  0.25500000920E-02 0. -1.
</event>
<event>
 5   0  0.1812865E-04  0.2002482E+04  0.7818609E-02  0.8605461E-01
        2   -1    0    0  501    0  0.00000000000E+00  0.00000000000E+00  0.14229568109E+04  0.14229568109E+04  0.25500000920E-02 0. -1.
       -2   -1    0    0    0  501  0.00000000000E+00  0.00000000000E+00 -0.70450758871E+03  0.70450758871E+03  0.25500000920E-02 0.  1.
    10030    2    1    2    0    0  0.00000000000E+00  0.00000000000E+00  0.71844922219E+03  0.21274643996E+04  0.20024823312E+04 0.  0.
        3    1    3    3  502    0  0.24250260943E+03  0.66680890880E+03 -0.39129536411E+03  0.81028001864E+03  0.10100000352E+00 0.  1.
       -3    1    3    3    0  502 -0.24250260943E+03 -0.66680890880E+03  0.11097445863E+04  0.13171843810E+04  0.10100000352E+00 0. -1.
</event>
<event>
 5   0  0.1812865E-04  0.1899294E+04  0.7818609E-02  0.8655208E-01
       -2   -1    0    0    0  501  0.00000000000E+00  0.00000000000E+00  0.91216605292E+03  0.91216605292E+03  0.25500000920E-02 0.  1.
        2   -1    0    0  501    0  0.00000000000E+00  0.00000000000E+00 -0.98866759099E+03  0.98866759099E+03  0.25500000920E-02 0. -1.
    10030    2    1    2    0    0  0.00000000000E+00  0.00000000000E+00 -0.76501538069E+02  0.19008336439E+04  0.18992935677E+04 0.  0.
        3    1    3    3  502    0  0.57953118109E+03 -0.49674528117E+03  0.52720005535E+03  0.92765951339E+03  0.10100000352E+00 0. -1.
       -3    1    3    3    0  502 -0.57953118109E+03  0.49674528117E+03 -0.60370159342E+03  0.97317413052E+03  0.10100000352E+00 0.  1.
</event>
<event>
 5   0  0.1782172E-04  0.2014256E+04  0.7818609E-02  0.8599985E-01
       -2   -1    0    0    0  501  0.00000000000E+00  0.00000000000E+00  0.53663000682E+03  0.53663000683E+03  0.25500000920E-02 0.  1.
        2   -1    0    0  501    0  0.00000000000E+00  0.00000000000E+00 -0.18901412219E+04  0.18901412219E+04  0.25500000920E-02 0. -1.
    10030    2    1    2    0    0  0.00000000000E+00  0.00000000000E+00 -0.13535112151E+04  0.24267712287E+04  0.20142556906E+04 0.  0.
        2    1    3    3  502    0 -0.82434895133E+02 -0.17095567658E+03 -0.18684008044E+04  0.18780156871E+04  0.25500000920E-02 0. -1.
       -2    1    3    3    0  502  0.82434895133E+02  0.17095567658E+03  0.51488958928E+03  0.54875554161E+03  0.25500000920E-02 0.  1.
</event>
<event>
 5   0  0.6531625E-05  0.1988605E+04  0.7818609E-02  0.8611967E-01
        4   -1    0    0  501    0  0.00000000000E+00  0.00000000000E+00  0.72419772898E+03  0.72419884255E+03  0.12699999809E+01 0.  1.
       -4   -1    0    0    0  501  0.00000000000E+00  0.00000000000E+00 -0.13651461819E+04  0.13651467727E+04  0.12699999809E+01 0. -1.
    10030    2    1    2    0    0  0.00000000000E+00  0.00000000000E+00 -0.64094845297E+03  0.20893456152E+04  0.19886050841E+04 0.  0.
        2    1    3    3  502    0  0.78408293394E+03  0.48376357338E+03 -0.71334803056E+03  0.11651946854E+04  0.25500000920E-02 0. -1.
       -2    1    3    3    0  502 -0.78408293394E+03 -0.48376357338E+03  0.72399577593E+02  0.92415092981E+03  0.25500000920E-02 0.  1.
</event>
<event>
 5   0  0.1812865E-04  0.1942692E+04  0.7818609E-02  0.8633893E-01
        2   -1    0    0  501    0  0.00000000000E+00  0.00000000000E+00  0.10648753781E+04  0.10648753781E+04  0.25500000920E-02 0.  1.
       -2   -1    0    0    0  501  0.00000000000E+00  0.00000000000E+00 -0.88603139257E+03  0.88603139258E+03  0.25500000920E-02 0. -1.
    10030    2    1    2    0    0  0.00000000000E+00  0.00000000000E+00  0.17884398552E+03  0.19509067707E+04  0.19426919614E+04 0.  0.
        3    1    3    3  502    0 -0.37795463237E+03 -0.21637542090E+02 -0.80889687445E+03  0.89310248631E+03  0.10100000352E+00 0. -1.
       -3    1    3    3    0  502  0.37795463237E+03  0.21637542090E+02  0.98774085997E+03  0.10578042844E+04  0.10100000352E+00 0.  1.
</event>
<event>
 5   0  0.8958919E-05  0.2125033E+04  0.7818609E-02  0.8550296E-01
       -1   -1    0    0    0  501  0.00000000000E+00  0.00000000000E+00  0.56673031796E+03  0.56673031798E+03  0.50400001928E-02 0. -1.
        1   -1    0    0  501    0  0.00000000000E+00  0.00000000000E+00 -0.19920251044E+04  0.19920251044E+04  0.50400001928E-02 0.  1.
    10030    2    1    2    0    0  0.00000000000E+00  0.00000000000E+00 -0.14252947865E+04  0.25587554224E+04  0.21250327253E+04 0.  0.
        4    1    3    3  502    0 -0.10051060070E+04  0.18709224863E+03 -0.36429386859E+03  0.10853355381E+04  0.12699999809E+01 0. -1.
       -4    1    3    3    0  502  0.10051060070E+04 -0.18709224863E+03 -0.10610009179E+04  0.14734198843E+04  0.12699999809E+01 0.  1.
</event>
<event>
 5   0  0.1834645E-04  0.1955557E+04  0.7818609E-02  0.8627686E-01
       -2   -1    0    0    0  501  0.00000000000E+00  0.00000000000E+00  0.54942261094E+03  0.54942261094E+03  0.25500000920E-02 0. -1.
        2   -1    0    0  501    0  0.00000000000E+00  0.00000000000E+00 -0.17401005211E+04  0.17401005211E+04  0.25500000920E-02 0.  1.
    10030    2    1    2    0    0  0.00000000000E+00  0.00000000000E+00 -0.11906779102E+04  0.22895231321E+04  0.19555567715E+04 0.  0.
        1    1    3    3  502    0  0.41730495607E+03  0.57131810304E+03  0.19483028381E+03  0.73383011708E+03  0.50400001928E-02 0. -1.
       -1    1    3    3    0  502 -0.41730495607E+03 -0.57131810304E+03 -0.13855081940E+04  0.15556930150E+04  0.50400001928E-02 0.  1.
</event>
<event>
 5   0  0.1782172E-04  0.2012605E+04  0.7818609E-02  0.8600750E-01
        2   -1    0    0  501    0  0.00000000000E+00  0.00000000000E+00  0.12173042582E+04  0.12173042582E+04  0.25500000920E-02 0. -1.
       -2   -1    0    0    0  501  0.00000000000E+00  0.00000000000E+00 -0.83187452459E+03  0.83187452460E+03  0.25500000920E-02 0.  1.
    10030    2    1    2    0    0  0.00000000000E+00  0.00000000000E+00  0.38542973360E+03  0.20491787828E+04  0.20126046816E+04 0.  0.
        2    1    3    3  502    0 -0.36999674683E+00 -0.46881379977E+03 -0.71389208914E+03  0.85406582340E+03  0.25500000920E-02 0.  1.
       -2    1    3    3    0  502  0.36999674683E+00  0.46881379977E+03  0.10993218227E+04  0.11951129594E+04  0.25500000920E-02 0. -1.
</event>
<event>
 5   0  0.8577422E-05  0.1883834E+04  0.7818609E-02  0.8662945E-01
        1   -1    0    0  501    0  0.00000000000E+00  0.00000000000E+00  0.86734333488E+03  0.86734333489E+03  0.50400001928E-02 0.  1.
       -1   -1    0    0    0  501  0.00000000000E+00  0.00000000000E+00 -0.10229023651E+04  0.10229023651E+04  0.50400001928E-02 0. -1.
    10030    2    1    2    0    0  0.00000000000E+00  0.00000000000E+00 -0.15555903022E+03  0.18902457000E+04  0.18838339084E+04 0.  0.
        2    1    3    3  502    0 -0.73294537049E+03 -0.51028850862E+03 -0.37813806794E+03  0.96984105738E+03  0.25500000920E-02 0. -1.
       -2    1    3    3    0  502  0.73294537049E+03  0.51028850862E+03  0.22257903772E+03  0.92040464263E+03  0.25500000920E-02 0.  1.
</event>
<event>
 5   0  0.1807498E-04  0.2006848E+04  0.7818609E-02  0.8603426E-01
        2   -1    0    0  501    0  0.00000000000E+00  0.00000000000E+00  0.13369809503E+04  0.13369809503E+04  0.25500000920E-02 0. -1.
       -2   -1    0    0    0  501  0.00000000000E+00  0.00000000000E+00 -0.75308474920E+03  0.75308474921E+03  0.25500000920E-02 0.  1.
    10030    2    1    2    0    0  0.00000000000E+00  0.00000000000E+00  0.58389620112E+03  0.20900656995E+04  0.20068482391E+04 0.  0.
        5    1    3    3  502    0 -0.24137002339E+03  0.88748435211E+03 -0.12587339160E+03  0.92830714967E+03  0.46999998093E+01 0.  1.
       -5    1    3    3    0  502  0.24137002339E+03 -0.88748435211E+03  0.70976959272E+03  0.11617585499E+04  0.46999998093E+01 0. -1.
</event>
<event>
 5   0  0.8765057E-05  0.1988046E+04  0.7818609E-02  0.8612230E-01
        1   -1    0    0  501    0  0.00000000000E+00  0.00000000000E+00  0.11813355614E+04  0.11813355614E+04  0.50400001928E-02 0.  1.
       -1   -1    0    0    0  501  0.00000000000E+00  0.00000000000E+00 -0.83641030626E+03  0.83641030627E+03  0.50400001928E-02 0. -1.
    10030    2    1    2    0    0  0.00000000000E+00  0.00000000000E+00  0.34492525515E+03  0.20177458677E+04  0.19880455113E+04 0.  0.
        3    1    3    3  502    0  0.11046288667E+03 -0.75297467623E+03 -0.47654995378E+03  0.89792693524E+03  0.10100000352E+00 0. -1.
       -3    1    3    3    0  502 -0.11046288667E+03  0.75297467623E+03  0.82147520893E+03  0.11198189324E+04  0.10100000352E+00 0.  1.
</event>
<event>
 5   0  0.8765057E-05  0.1780125E+04  0.7818609E-02  0.8716941E-01
        1   -1    0    0  501    0  0.00000000000E+00  0.00000000000E+00  0.75496246294E+03  0.75496246296E+03  0.50400001928E-02 0.  1.
       -1   -1    0    0    0  501  0.00000000000E+00  0.00000000000E+00 -0.10493387689E+04  0.10493387689E+04  0.50400001928E-02 0. -1.
    10030    2    1    2    0    0  0.00000000000E+00  0.00000000000E+00 -0.29437630598E+03  0.18043012319E+04  0.17801251433E+04 0.  0.
        3    1    3    3  502    0  0.76924306217E+03 -0.21710868043E+02  0.30610490578E+03  0.82819470780E+03  0.10100000352E+00 0.  1.
       -3    1    3    3    0  502 -0.76924306217E+03  0.21710868043E+02 -0.60048121176E+03  0.97610652408E+03  0.10100000352E+00 0. -1.
</event>
<event>
 5   0  0.8958919E-05  0.1980054E+04  0.7818609E-02  0.8616003E-01
        1   -1    0    0  501    0  0.00000000000E+00  0.00000000000E+00  0.10247904937E+04  0.10247904937E+04  0.50400001928E-02 0. -1.
       -1   -1    0    0    0  501  0.00000000000E+00  0.00000000000E+00 -0.95644239063E+03  0.95644239064E+03  0.50400001928E-02 0.  1.
    10030    2    1    2    0    0  0.00000000000E+00  0.00000000000E+00  0.68348103048E+02  0.19812328843E+04  0.19800536050E+04 0.  0.
        4    1    3    3  502    0 -0.35031056953E+03 -0.17249410967E+03 -0.87613684896E+03  0.95921275221E+03  0.12699999809E+01 0.  1.
       -4    1    3    3    0  502  0.35031056953E+03  0.17249410967E+03  0.94448495200E+03  0.10220201321E+04  0.12699999809E+01 0. -1.
</event>
<event>
 5   0  0.1893687E-04  0.1991179E+04  0.7818609E-02  0.8610756E-01
        2   -1    0    0  501    0  0.00000000000E+00  0.00000000000E+00  0.16652083997E+04  0.16652083997E+04  0.25500000920E-02 0.  1.
       -2   -1    0    0    0  501  0.00000000000E+00  0.00000000000E+00 -0.59524005715E+03  0.59524005716E+03  0.25500000920E-02 0. -1.
    10030    2    1    2    0    0  0.00000000000E+00  0.00000000000E+00  0.10699683426E+04  0.22604484569E+04  0.19911792918E+04 0.  0.
        4    1    3    3  502    0 -0.51268381342E+03  0.32079367065E+03 -0.36281336196E+03  0.70525769772E+03  0.12699999809E+01 0. -1.
       -4    1    3    3    0  502  0.51268381342E+03 -0.32079367065E+03  0.14327817045E+04  0.15551907592E+04  0.12699999809E+01 0.  1.
</event>
<event>
 5   0  0.1782172E-04  0.2017051E+04  0.7818609E-02  0.8598690E-01
       -2   -1    0    0    0  501  0.00000000000E+00  0.00000000000E+00  0.41211699222E+03  0.41211699223E+03  0.25500000920E-02 0.  1.
        2   -1    0    0  501    0  0.00000000000E+00  0.00000000000E+00 -0.24680457578E+04  0.24680457578E+04  0.25500000920E-02 0. -1.
    10030    2    1    2    0    0  0.00000000000E+00  0.00000000000E+00 -0.20559287656E+04  0.28801627500E+04  0.20170509110E+04 0.  0.
        2    1    3    3  502    0  0.55573883352E+03  0.67687271175E+03 -0.17420914371E+04  0.19498422742E+04  0.25500000920E-02 0. -1.
       -2    1    3    3    0  502 -0.55573883352E+03 -0.67687271175E+03 -0.31383732845E+03  0.93032047582E+03  0.25500000920E-02 0.  1.
</event>
<event>
 5   0  0.1893687E-04  0.1923091E+04  0.7818609E-02  0.8643447E-01
       -2   -1    0    0    0  501  0.00000000000E+00  0.00000000000E+00  0.45966990237E+03  0.45966990238E+03  0.25500000920E-02 0. -1.
        2   -1    0    0  501    0  0.00000000000E+00  0.00000000000E+00 -0.20113779070E+04  0.20113779070E+04  0.25500000920E-02 0.  1.
    10030    2    1    2    0    0  0.00000000000E+00  0.00000000000E+00 -0.15517080046E+04  0.24710478093E+04  0.19230911431E+04 0.  0.
        4    1    3    3  502    0  0.13060117387E+03  0.20817868969E+03 -0.19703417167E+04  0.19856090065E+04  0.12699999809E+01 0.  1.
       -4    1    3    3    0  502 -0.13060117387E+03 -0.20817868969E+03  0.41863371210E+03  0.48543880280E+03  0.12699999809E+01 0. -1.
</event>
<event>
 5   0  0.1834645E-04  0.1997252E+04  0.7818609E-02  0.8607907E-01
        2   -1    0    0  501    0  0.00000000000E+00  0.00000000000E+00  0.11710966268E+04  0.11710966268E+04  0.25500000920E-02 0.  1.
       -2   -1    0    0    0  501  0.00000000000E+00  0.00000000000E+00 -0.85155523391E+03  0.85155523391E+03  0.25500000920E-02 0. -1.
    10030    2    1    2    0    0  0.00000000000E+00  0.00000000000E+00  0.31954139293E+03  0.20226518608E+04  0.19972515735E+04 0.  0.
        1    1    3    3  502    0  0.48816760877E+03 -0.21635611489E+03 -0.69484290399E+03  0.87631286876E+03  0.50400001928E-02 0. -1.
       -1    1    3    3    0  502 -0.48816760877E+03  0.21635611489E+03  0.10143842969E+04  0.11463389920E+04  0.50400001928E-02 0.  1.
</event>
<event>
 5   0  0.1812865E-04  0.1999539E+04  0.7818609E-02  0.8606836E-01
       -2   -1    0    0    0  501  0.00000000000E+00  0.00000000000E+00  0.42839550466E+03  0.42839550467E+03  0.25500000920E-02 0. -1.
        2   -1    0    0  501    0  0.00000000000E+00  0.00000000000E+00 -0.23332152833E+04  0.23332152833E+04  0.25500000920E-02 0.  1.
    10030    2    1    2    0    0  0.00000000000E+00  0.00000000000E+00 -0.19048197786E+04  0.27616107880E+04  0.19995388856E+04 0.  0.
        3    1    3    3  502    0  0.66569452520E+03  0.26757741957E+02 -0.19819483070E+04  0.20909290470E+04  0.10100000352E+00 0.  1.
       -3    1    3    3    0  502 -0.66569452520E+03 -0.26757741957E+02  0.77128528348E+02  0.67068174101E+03  0.10100000352E+00 0. -1.
</event>
<event>
 5   0  0.8861350E-05  0.1947412E+04  0.7818609E-02  0.8631610E-01
        1   -1    0    0  501    0  0.00000000000E+00  0.00000000000E+00  0.66346731369E+03  0.66346731371E+03  0.50400001928E-02 0. -1.
       -1   -1    0    0    0  501  0.00000000000E+00  0.00000000000E+00 -0.14290124367E+04  0.14290124367E+04  0.50400001928E-02 0.  1.
    10030    2    1    2    0    0  0.00000000000E+00  0.00000000000E+00 -0.76554512304E+03  0.20924797505E+04  0.19474116593E+04 0.  0.
        1    1    3    3  502    0 -0.49199124684E+03  0.31077214178E+03  0.45606731993E+03  0.73934573199E+03  0.50400001928E-02 0. -1.
       -1    1    3    3    0  502  0.49199124684E+03 -0.31077214178E+03 -0.12216124430E+04  0.13531340185E+04  0.50400001928E-02 0.  1.
</event>
<event>
 5   0  0.1782172E-04  0.1975441E+04  0.7818609E-02  0.8618189E-01
       -2   -1    0    0    0  501  0.00000000000E+00  0.00000000000E+00  0.86036088885E+03  0.86036088885E+03  0.25500000920E-02 0.  1.
        2   -1    0    0  501    0  0.00000000000E+00  0.00000000000E+00 -0.11339336996E+04  0.11339336996E+04  0.25500000920E-02 0. -1.
    10030    2    1    2    0    0  0.00000000000E+00  0.00000000000E+00 -0.27357281079E+03  0.19942945885E+04  0.19754414248E+04 0.  0.
        2    1    3    3  502    0 -0.17285481861E+03 -0.68211236069E+03 -0.83653654025E+03  0.10931374315E+04  0.25500000920E-02 0. -1.
       -2    1    3    3    0  502  0.17285481861E+03  0.68211236069E+03  0.56296372947E+03  0.90115715701E+03  0.25500000920E-02 0.  1.
</event>
<event>
 5   0  0.8577422E-05  0.1939653E+04  0.7818609E-02  0.8635366E-01
       -1   -1    0    0    0  501  0.00000000000E+00  0.00000000000E+00  0.60479287620E+03  0.60479287622E+03  0.50400001928E-02 0.  1.
        1   -1    0    0  501    0  0.00000000000E+00  0.00000000000E+00 -0.15551834665E+04  0.15551834665E+04  0.50400001928E-02 0. -1.
    10030    2    1    2    0    0  0.00000000000E+00  0.00000000000E+00 -0.95039059030E+03  0.21599763427E+04  0.19396534554E+04 0.  0.
        2    1    3    3  502    0 -0.90037681303E+03  0.17202748263E+03 -0.82785678892E+03  0.12351593918E+04  0.25500000920E-02 0. -1.
       -2    1    3    3    0  502  0.90037681303E+03 -0.17202748263E+03 -0.12253380139E+03  0.92481695092E+03  0.25500000920E-02 0.  1.
</event>
<event>
 5   0  0.1782172E-04  0.2025506E+04  0.7818609E-02  0.8594788E-01
        2   -1    0    0  501    0  0.00000000000E+00  0.00000000000E+00  0.15647214149E+04  0.15647214149E+04  0.25500000920E-02 0. -1.
       -2   -1    0    0    0  501  0.00000000000E+00  0.00000000000E+00 -0.65549578261E+03  0.65549578262E+03  0.25500000920E-02 0.  1.
    10030    2    1    2    0    0  0.00000000000E+00  0.00000000000E+00  0.90922563225E+03  0.22202171975E+04  0.20255056538E+04 0.  0.
        2    1    3    3  502    0 -0.98263654849E+03 -0.23257641644E+03  0.36969343273E+03  0.10753323254E+04  0.25500000920E-02 0.  1.
       -2    1    3    3    0  502  0.98263654849E+03  0.23257641644E+03  0.53953219952E+03  0.11448848720E+04  0.25500000920E-02 0. -1.
</event>
<event>
 5   0  0.1893687E-04  0.1963189E+04  0.7818609E-02  0.8624027E-01
        2   -1    0    0  501    0  0.00000000000E+00  0.00000000000E+00  0.12983403441E+04  0.12983403441E+04  0.25500000920E-02 0. -1.
       -2   -1    0    0    0  501  0.00000000000E+00  0.00000000000E+00 -0.74212228567E+03  0.74212228567E+03  0.25500000920E-02 0.  1.
    10030    2    1    2    0    0  0.00000000000E+00  0.00000000000E+00  0.55621805840E+03  0.20404626297E+04  0.19631885327E+04 0.  0.
        4    1    3    3  502    0 -0.97521004794E+03 -0.40884495012E+02  0.16999788618E+03  0.99076085597E+03  0.12699999809E+01 0.  1.
       -4    1    3    3    0  502  0.97521004794E+03  0.40884495012E+02  0.38622017223E+03  0.10497017738E+04  0.12699999809E+01 0. -1.
</event>
<event>
 5   0  0.8861350E-05  0.1976275E+04  0.7818609E-02  0.8617794E-01
        1   -1    0    0  501    0  0.00000000000E+00  0.00000000000E+00  0.12831868090E+04  0.12831868091E+04  0.50400001928E-02 0. -1.
       -1   -1    0    0    0  501  0.00000000000E+00  0.00000000000E+00 -0.76093040086E+03  0.76093040088E+03  0.50400001928E-02 0.  1.
    10030    2    1    2    0    0  0.00000000000E+00  0.00000000000E+00  0.52225640819E+03  0.20441172099E+04  0.19762751357E+04 0.  0.
        1    1    3    3  502    0 -0.67317427370E+03 -0.20164014457E+03 -0.45740877397E+03  0.83847786924E+03  0.50400001928E-02 0.  1.
       -1    1    3    3    0  502  0.67317427370E+03  0.20164014457E+03  0.97966518216E+03  0.12056393407E+04  0.50400001928E-02 0. -1.
</event>
<event>
 5   0  0.8765057E-05  0.2013843E+04  0.7818609E-02  0.8600176E-01
       -1   -1    0    0    0  501  0.00000000000E+00  0.00000000000E+00  0.19168254556E+04  0.19168254556E+04  0.50400001928E-02 0.  1.
        1   -1    0    0  501    0  0.00000000000E+00  0.00000000000E+00 -0.52894297784E+03  0.52894297786E+03  0.50400001928E-02 0. -1.
    10030    2    1    2    0    0  0.00000000000E+00  0.00000000000E+00  0.13878824777E+04  0.24457684334E+04  0.20138434542E+04 0.  0.
        3    1    3    3  502    0  0.41239500187E+03  0.28072989229E+03  0.17561842383E+04  0.18256675489E+04  0.10100000352E+00 0.  1.
       -3    1    3    3    0  502 -0.41239500187E+03 -0.28072989229E+03 -0.36830176056E+03  0.62010088456E+03  0.10100000352E+00 0. -1.
</event>
<event>
 5   0  0.1812865E-04  0.1998719E+04  0.7818609E-02  0.8607220E-01
       -2   -1    0    0    0  501  0.00000000000E+00  0.00000000000E+00  0.58168794121E+03  0.58168794121E+03  0.25500000920E-02 0.  1.
        2   -1    0    0  501    0  0.00000000000E+00  0.00000000000E+00 -0.17169339227E+04  0.17169339227E+04  0.25500000920E-02 0. -1.
    10030    2    1    2    0    0  0.00000000000E+00  0.00000000000E+00 -0.11352459815E+04  0.22986218639E+04  0.19987193487E+04 0.  0.
        3    1    3    3  502    0  0.93041684780E+03 -0.28362568403E+03 -0.30386142251E+03  0.10190440685E+04  0.10100000352E+00 0. -1.
       -3    1    3    3    0  502 -0.93041684780E+03  0.28362568403E+03 -0.83138455898E+03  0.12795777954E+04  0.10100000352E+00 0.  1.
</event>
<event>
 5   0  0.8881384E-05  0.2048019E+04  0.7818609E-02  0.8584493E-01
       -1   -1    0    0    0  501  0.00000000000E+00  0.00000000000E+00  0.13930919149E+04  0.13930919149E+04  0.50400001928E-02 0.  1.
        1   -1    0    0  501    0  0.00000000000E+00  0.00000000000E+00 -0.75271118383E+03  0.75271118384E+03  0.50400001928E-02 0. -1.
    10030    2    1    2    0    0  0.00000000000E+00  0.00000000000E+00  0.64038073106E+03  0.21458030987E+04  0.20480193988E+04 0.  0.
        5    1    3    3  502    0 -0.90885497640E+03 -0.26943243867E+03 -0.85549083943E+02  0.95181507810E+03  0.46999998093E+01 0. -1.
       -5    1    3    3    0  502  0.90885497640E+03  0.26943243867E+03  0.72592981500E+03  0.11939880206E+04  0.46999998093E+01 0.  1.
</event>
<event>
 5   0  0.8958919E-05  0.2012711E+04  0.7818609E-02  0.8600701E-01
        1   -1    0    0  501    0  0.00000000000E+00  0.00000000000E+00  0.11249647189E+04  0.11249647189E+04  0.50400001928E-02 0.  1.
       -1   -1    0    0    0  501  0.00000000000E+00  0.00000000000E+00 -0.90025191294E+03  0.90025191295E+03  0.50400001928E-02 0. -1.
    10030    2    1    2    0    0  0.00000000000E+00  0.00000000000E+00  0.22471280594E+03  0.20252166318E+04  0.20127112462E+04 0.  0.
        4    1    3    3  502    0 -0.62490630565E+03 -0.57691712470E+03 -0.42895335254E+03  0.95254598376E+03  0.12699999809E+01 0. -1.
       -4    1    3    3    0  502  0.62490630565E+03  0.57691712470E+03  0.65366615848E+03  0.10726706481E+04  0.12699999809E+01 0.  1.
</event>
<event>
 5   0  0.1893687E-04  0.1964926E+04  0.7818609E-02  0.8623197E-01
       -2   -1    0    0    0  501  0.00000000000E+00  0.00000000000E+00  0.66672551891E+03  0.66672551891E+03  0.25500000920E-02 0.  1.
        2   -1    0    0  501    0  0.00000000000E+00  0.00000000000E+00 -0.14477221964E+04  0.14477221964E+04  0.25500000920E-02 0. -1.
    10030    2    1    2    0    0  0.00000000000E+00  0.00000000000E+00 -0.78099667748E+03  0.21144477153E+04  0.19649257824E+04 0.  0.
        4    1    3    3  502    0 -0.35921828708E+03 -0.28223065392E+03  0.54548192149E+03  0.71150829886E+03  0.12699999809E+01 0.  1.
       -4    1    3    3    0  502  0.35921828708E+03  0.28223065392E+03 -0.13264785990E+04  0.14029394164E+04  0.12699999809E+01 0. -1.
</event>
<event>
 5   0  0.1834645E-04  0.1947008E+04  0.7818609E-02  0.8631805E-01
        2   -1    0    0  501    0  0.00000000000E+00  0.00000000000E+00  0.25765356960E+04  0.25765356960E+04  0.25500000920E-02 0. -1.
       -2   -1    0    0    0  501  0.00000000000E+00  0.00000000000E+00 -0.36782350809E+03  0.36782350810E+03  0.25500000920E-02 0.  1.
    10030    2    1    2    0    0  0.00000000000E+00  0.00000000000E+00  0.22087121879E+04  0.29443592041E+04  0.19470083702E+04 0.  0.
        1    1    3    3  502    0  0.75948001731E+03 -0.49678026299E+03  0.16371093799E+04  0.18718246841E+04  0.50400001928E-02 0. -1.
       -1    1    3    3    0  502 -0.75948001731E+03  0.49678026299E+03  0.57160280804E+03  0.10725345200E+04  0.50400001928E-02 0.  1.
</event>
<event>
 5   0  0.8577422E-05  0.2015217E+04  0.7818609E-02  0.8599539E-01
        1   -1    0    0  501    0  0.00000000000E+00  0.00000000000E+00  0.57146321369E+03  0.57146321372E+03  0.50400001928E-02 0.  1.
       -1   -1    0    0    0  501  0.00000000000E+00  0.00000000000E+00 -0.17766231127E+04  0.17766231128E+04  0.50400001928E-02 0. -1.
    10030    2    1    2    0    0  0.00000000000E+00  0.00000000000E+00 -0.12051598991E+04  0.23480863265E+04  0.20152168653E+04 0.  0.
        2    1    3    3  502    0 -0.90593674972E+03 -0.99134694249E+02 -0.11033702370E+04  0.14310747576E+04  0.25500000920E-02 0. -1.
       -2    1    3    3    0  502  0.90593674972E+03  0.99134694249E+02 -0.10178966210E+03  0.91701156885E+03  0.25500000920E-02 0.  1.
</event>
<event>
 5   0  0.1782172E-04  0.1995873E+04  0.7818609E-02  0.8608553E-01
       -2   -1    0    0    0  501  0.00000000000E+00  0.00000000000E+00  0.13460557058E+04  0.13460557058E+04  0.25500000920E-02 0.  1.
        2   -1    0    0  501    0  0.00000000000E+00  0.00000000000E+00 -0.73984847038E+03  0.73984847038E+03  0.25500000920E-02 0. -1.
    10030    2    1    2    0    0  0.00000000000E+00  0.00000000000E+00  0.60620723544E+03  0.20859041762E+04  0.19958729970E+04 0.  0.
        2    1    3    3  502    0 -0.32007227040E+03  0.76553433597E+03 -0.27633179094E+03  0.87455607969E+03  0.25500000920E-02 0. -1.
       -2    1    3    3    0  502  0.32007227040E+03 -0.76553433597E+03  0.88253902638E+03  0.12113480965E+04  0.25500000920E-02 0.  1.
</event>
<event>
 5   0  0.1834645E-04  0.1996718E+04  0.7818609E-02  0.8608157E-01
       -2   -1    0    0    0  501  0.00000000000E+00  0.00000000000E+00  0.78133302982E+03  0.78133302982E+03  0.25500000920E-02 0.  1.
        2   -1    0    0  501    0  0.00000000000E+00  0.00000000000E+00 -0.12756665319E+04  0.12756665319E+04  0.25500000920E-02 0. -1.
    10030    2    1    2    0    0  0.00000000000E+00  0.00000000000E+00 -0.49433350208E+03  0.20569995617E+04  0.19967177030E+04 0.  0.
        1    1    3    3  502    0 -0.23916780629E+02  0.69913594375E+03 -0.98096132221E+03  0.12048436396E+04  0.50400001928E-02 0. -1.
       -1    1    3    3    0  502  0.23916780629E+02 -0.69913594375E+03  0.48662782012E+03  0.85215592211E+03  0.50400001928E-02 0.  1.
</event>
<event>
 5   0  0.1812865E-04  0.1786938E+04  0.7818609E-02  0.8713277E-01
        2   -1    0    0  501    0  0.00000000000E+00  0.00000000000E+00  0.95348459145E+03  0.95348459145E+03  0.25500000920E-02 0. -1.
       -2   -1    0    0    0  501  0.00000000000E+00  0.00000000000E+00 -0.83723078328E+03  0.83723078329E+03  0.25500000920E-02 0.  1.
    10030    2    1    2    0    0  0.00000000000E+00  0.00000000000E+00  0.11625380816E+03  0.17907153747E+04  0.17869377732E+04 0.  0.
        3    1    3    3  502    0 -0.63306593720E+03  0.21291457024E+02  0.68958663244E+03  0.93635225253E+03  0.10100000352E+00 0. -1.
       -3    1    3    3    0  502  0.63306593720E+03 -0.21291457024E+02 -0.57333282428E+03  0.85436312220E+03  0.10100000352E+00 0.  1.
</event>
<event>
 5   0  0.1782172E-04  0.2014234E+04  0.7818609E-02  0.8599994E-01
        2   -1    0    0  501    0  0.00000000000E+00  0.00000000000E+00  0.53296325112E+03  0.53296325112E+03  0.25500000920E-02 0.  1.
       -2   -1    0    0    0  501  0.00000000000E+00  0.00000000000E+00 -0.19031051222E+04  0.19031051222E+04  0.25500000920E-02 0. -1.
    10030    2    1    2    0    0  0.00000000000E+00  0.00000000000E+00 -0.13701418710E+04  0.24360683733E+04  0.20142344383E+04 0.  0.
        2    1    3    3  502    0 -0.48606788754E+03  0.70629155572E+03 -0.13240961333E+04  0.15774474075E+04  0.25500000920E-02 0. -1.
       -2    1    3    3    0  502  0.48606788754E+03 -0.70629155572E+03 -0.46045737699E+02  0.85862096582E+03  0.25500000920E-02 0.  1.
</event>
<event>
 5   0  0.8881384E-05  0.1975490E+04  0.7818609E-02  0.8618166E-01
        1   -1    0    0  501    0  0.00000000000E+00  0.00000000000E+00  0.90121684671E+03  0.90121684672E+03  0.50400001928E-02 0.  1.
       -1   -1    0    0    0  501  0.00000000000E+00  0.00000000000E+00 -0.10825810583E+04  0.10825810583E+04  0.50400001928E-02 0. -1.
    10030    2    1    2    0    0  0.00000000000E+00  0.00000000000E+00 -0.18136421155E+03  0.19837979050E+04  0.19754901039E+04 0.  0.
        5    1    3    3  502    0  0.94378183170E+03 -0.48404895195E+02 -0.37920732872E+03  0.10182767148E+04  0.46999998093E+01 0.  1.
       -5    1    3    3    0  502 -0.94378183170E+03  0.48404895195E+02  0.19784311717E+03  0.96552119020E+03  0.46999998093E+01 0. -1.
</event>
<event>
 5   0  0.1893687E-04  0.1988530E+04  0.7818609E-02  0.8612002E-01
       -2   -1    0    0    0  501  0.00000000000E+00  0.00000000000E+00  0.49377538158E+03  0.49377538159E+03  0.25500000920E-02 0. -1.
        2   -1    0    0  501    0  0.00000000000E+00  0.00000000000E+00 -0.20020507673E+04  0.20020507673E+04  0.25500000920E-02 0.  1.
    10030    2    1    2    0    0  0.00000000000E+00  0.00000000000E+00 -0.15082753857E+04  0.24958261489E+04  0.19885304942E+04 0.  0.
        4    1    3    3  502    0  0.32532842294E+03 -0.38493468903E+03 -0.18298405070E+04  0.18979808196E+04  0.12699999809E+01 0.  1.
       -4    1    3    3    0  502 -0.32532842294E+03  0.38493468903E+03  0.32156512130E+03  0.59784532927E+03  0.12699999809E+01 0. -1.
</event>
<event>
 5   0  0.8765057E-05  0.1965629E+04  0.7818609E-02  0.8622861E-01
        1   -1    0    0  501    0  0.00000000000E+00  0.00000000000E+00  0.17933478456E+04  0.17933478456E+04  0.50400001928E-02 0. -1.
       -1   -1    0    0    0  501  0.00000000000E+00  0.00000000000E+00 -0.53861532966E+03  0.53861532968E+03  0.50400001928E-02 0.  1.
    10030    2    1    2    0    0  0.00000000000E+00  0.00000000000E+00  0.12547325160E+04  0.23319631753E+04  0.19656293049E+04 0.  0.
        3    1    3    3  502    0  0.74031563589E+03 -0.36625792072E+03  0.12592822187E+04  0.15059893166E+04  0.10100000352E+00 0.  1.
       -3    1    3    3    0  502 -0.74031563589E+03  0.36625792072E+03 -0.45497027550E+01  0.82597385868E+03  0.10100000352E+00 0. -1.
</event>
<event>
 5   0  0.8765057E-05  0.2004857E+04  0.7818609E-02  0.8604353E-01
       -1   -1    0    0    0  501  0.00000000000E+00  0.00000000000E+00  0.55457710430E+03  0.55457710432E+03  0.50400001928E-02 0.  1.
        1   -1    0    0  501    0  0.00000000000E+00  0.00000000000E+00 -0.18119448663E+04  0.18119448663E+04  0.50400001928E-02 0. -1.
    10030    2    1    2    0    0  0.00000000000E+00  0.00000000000E+00 -0.12573677620E+04  0.23665219706E+04  0.20048572389E+04 0.  0.
        3    1    3    3  502    0 -0.11363207185E+03  0.51558990119E+03  0.37716021048E+03  0.64884129688E+03  0.10100000352E+00 0.  1.
       -3    1    3    3    0  502  0.11363207185E+03 -0.51558990119E+03 -0.16345279725E+04  0.17176806737E+04  0.10100000352E+00 0. -1.
</event>
<event>
 5   0  0.1812865E-04  0.1997034E+04  0.7818609E-02  0.8608009E-01
        2   -1    0    0  501    0  0.00000000000E+00  0.00000000000E+00  0.81081662922E+03  0.81081662922E+03  0.25500000920E-02 0.  1.
       -2   -1    0    0    0  501  0.00000000000E+00  0.00000000000E+00 -0.12296685973E+04  0.12296685973E+04  0.25500000920E-02 0. -1.
    10030    2    1    2    0    0  0.00000000000E+00  0.00000000000E+00 -0.41885196812E+03  0.20404852266E+04  0.19970335472E+04 0.  0.
        3    1    3    3  502    0 -0.70188106703E+03  0.68519956734E+03 -0.40030685623E+03  0.10594248764E+04  0.10100000352E+00 0. -1.
       -3    1    3    3    0  502  0.70188106703E+03 -0.68519956734E+03 -0.18545111890E+02  0.98106035019E+03  0.10100000352E+00 0.  1.
</event>
<event>
 5   0  0.6531625E-05  0.2002182E+04  0.7818609E-02  0.8605601E-01
        3   -1    0    0  501    0  0.00000000000E+00  0.00000000000E+00  0.74766984763E+03  0.74766985446E+03  0.10100000352E+00 0.  1.
       -3   -1    0    0    0  501  0.00000000000E+00  0.00000000000E+00 -0.13404090190E+04  0.13404090228E+04  0.10100000352E+00 0. -1.
    10030    2    1    2    0    0  0.00000000000E+00  0.00000000000E+00 -0.59273917132E+03  0.20880788772E+04  0.20021822275E+04 0.  0.
        3    1    3    3  502    0  0.35235252128E+03  0.24094710926E+03 -0.12407430218E+04  0.13121170166E+04  0.10100000352E+00 0. -1.
       -3    1    3    3    0  502 -0.35235252128E+03 -0.24094710926E+03  0.64800385051E+03  0.77596186066E+03  0.10100000352E+00 0.  1.
</event>
<event>
 5   0  0.8765057E-05  0.1951822E+04  0.7818609E-02  0.8629483E-01
       -1   -1    0    0    0  501  0.00000000000E+00  0.00000000000E+00  0.13863739034E+04  0.13863739034E+04  0.50400001928E-02 0.  1.
        1   -1    0    0  501    0  0.00000000000E+00  0.00000000000E+00 -0.68697346599E+03  0.68697346601E+03  0.50400001928E-02 0. -1.
    10030    2    1    2    0    0  0.00000000000E+00  0.00000000000E+00  0.69940043744E+03  0.20733473694E+04  0.19518218009E+04 0.  0.
        3    1    3    3  502    0 -0.39036092319E+03  0.25569633748E+03  0.12601775439E+04  0.13438041969E+04  0.10100000352E+00 0.  1.
       -3    1    3    3    0  502  0.39036092319E+03 -0.25569633748E+03 -0.56077710641E+03  0.72954317256E+03  0.10100000352E+00 0. -1.
</event>
<event>
 5   0  0.8958919E-05  0.1873749E+04  0.7818609E-02  0.8668034E-01
        1   -1    0    0  501    0  0.00000000000E+00  0.00000000000E+00  0.12967523292E+04  0.12967523292E+04  0.50400001928E-02 0. -1.
       -1   -1    0    0    0  501  0.00000000000E+00  0.00000000000E+00 -0.67687117183E+03  0.67687117185E+03  0.50400001928E-02 0.  1.
    10030    2    1    2    0    0  0.00000000000E+00  0.00000000000E+00  0.61988115735E+03  0.19736235010E+04  0.18737494695E+04 0.  0.
        4    1    3    3  502    0  0.21992656569E+01  0.61046543547E+03  0.10584963684E+04  0.12219202345E+04  0.12699999809E+01 0. -1.
       -4    1    3    3    0  502 -0.21992656569E+01 -0.61046543547E+03 -0.43861521104E+03  0.75170326654E+03  0.12699999809E+01 0.  1.
</event>
<event>
 5   0  0.8881384E-05  0.1582736E+04  0.7818609E-02  0.8831225E-01
       -1   -1    0    0    0  501  0.00000000000E+00  0.00000000000E+00  0.32967700004E+03  0.32967700008E+03  0.50400001928E-02 0. -1.
        1   -1    0    0  501    0  0.00000000000E+00  0.00000000000E+00 -0.18996275296E+04  0.18996275296E+04  0.50400001928E-02 0.  1.
    10030    2    1    2    0    0  0.00000000000E+00  0.00000000000E+00 -0.15699505295E+04  0.22293045296E+04  0.15827362449E+04 0.  0.
        5    1    3    3  502    0 -0.69624598064E+03 -0.17716805084E+03 -0.31762388737E+03  0.78552785286E+03  0.46999998093E+01 0. -1.
       -5    1    3    3    0  502  0.69624598064E+03  0.17716805084E+03 -0.12523266421E+04  0.14437766768E+04  0.46999998093E+01 0.  1.
</event>
<event>
 5   0  0.8958919E-05  0.1432621E+04  0.7818609E-02  0.8930538E-01
        1   -1    0    0  501    0  0.00000000000E+00  0.00000000000E+00  0.51575630247E+03  0.51575630249E+03  0.50400001928E-02 0.  1.
       -1   -1    0    0    0  501  0.00000000000E+00  0.00000000000E+00 -0.99485139597E+03  0.99485139598E+03  0.50400001928E-02 0. -1.
    10030    2    1    2    0    0  0.00000000000E+00  0.00000000000E+00 -0.47909509350E+03  0.15106076985E+04  0.14326212026E+04 0.  0.
        4    1    3    3  502    0  0.18836095496E+03 -0.36549790874E+03 -0.85801794092E+03  0.95145413473E+03  0.12699999809E+01 0. -1.
       -4    1    3    3    0  502 -0.18836095496E+03  0.36549790874E+03  0.37892284742E+03  0.55915356374E+03  0.12699999809E+01 0.  1.
</event>
<event>
 5   0  0.1812865E-04  0.1998196E+04  0.7818609E-02  0.8607464E-01
       -2   -1    0    0    0  501  0.00000000000E+00  0.00000000000E+00  0.12795137358E+04  0.12795137358E+04  0.25500000920E-02 0. -1.
        2   -1    0    0  501    0  0.00000000000E+00  0.00000000000E+00 -0.78013789880E+03  0.78013789881E+03  0.25500000920E-02 0.  1.
    10030    2    1    2    0    0  0.00000000000E+00  0.00000000000E+00  0.49937583702E+03  0.20596516346E+04  0.19981963441E+04 0.  0.
        3    1    3    3  502    0  0.27904961229E+01 -0.46724948208E+03  0.11599489714E+04  0.12505244867E+04  0.10100000352E+00 0. -1.
       -3    1    3    3    0  502 -0.27904961229E+01  0.46724948208E+03 -0.66057313441E+03  0.80912714791E+03  0.10100000352E+00 0.  1.
</event>
<event>
 5   0  0.8861350E-05  0.1943281E+04  0.7818609E-02  0.8633607E-01
       -1   -1    0    0    0  501  0.00000000000E+00  0.00000000000E+00  0.36140035486E+03  0.36140035489E+03  0.50400001928E-02 0. -1.
        1   -1    0    0  501    0  0.00000000000E+00  0.00000000000E+00 -0.26122985237E+04  0.26122985237E+04  0.50400001928E-02 0.  1.
    10030    2    1    2    0    0  0.00000000000E+00  0.00000000000E+00 -0.22508981689E+04  0.29736988786E+04  0.19432813626E+04 0.  0.
        1    1    3    3  502    0  0.23667976031E+03  0.52503103153E+03  0.72070696329E+02  0.58040423698E+03  0.50400001928E-02 0. -1.
       -1    1    3    3    0  502 -0.23667976031E+03 -0.52503103153E+03 -0.23229688652E+04  0.23932946416E+04  0.50400001928E-02 0.  1.
</event>
<event>
 5   0  0.1812865E-04  0.1954029E+04  0.7818609E-02  0.8628421E-01
        2   -1    0    0  501    0  0.00000000000E+00  0.00000000000E+00  0.76648313676E+03  0.76648313677E+03  0.25500000920E-02 0.  1.
       -2   -1    0    0    0  501  0.00000000000E+00  0.00000000000E+00 -0.12453724202E+04  0.12453724202E+04  0.25500000920E-02 0. -1.
    10030    2    1    2    0    0  0.00000000000E+00  0.00000000000E+00 -0.47888928346E+03  0.20118555570E+04  0.19540286171E+04 0.  0.
        3    1    3    3  502    0 -0.22514828117E+03  0.14498593636E+02 -0.12181843380E+04  0.12389007423E+04  0.10100000352E+00 0. -1.
       -3    1    3    3    0  502  0.22514828117E+03 -0.14498593636E+02  0.73929505452E+03  0.77295481470E+03  0.10100000352E+00 0.  1.
</event>
<event>
 5   0  0.1893687E-04  0.2003300E+04  0.7818609E-02  0.8605079E-01
        2   -1    0    0  501    0  0.00000000000E+00  0.00000000000E+00  0.17012440960E+04  0.17012440960E+04  0.25500000920E-02 0.  1.
       -2   -1    0    0    0  501  0.00000000000E+00  0.00000000000E+00 -0.58974654691E+03  0.58974654692E+03  0.25500000920E-02 0. -1.
    10030    2    1    2    0    0  0.00000000000E+00  0.00000000000E+00  0.11114975491E+04  0.22909906429E+04  0.20033001084E+04 0.  0.
        4    1    3    3  502    0 -0.42971771508E+03  0.32350800045E+03 -0.41057417542E+03  0.67667385603E+03  0.12699999809E+01 0. -1.
       -4    1    3    3    0  502  0.42971771508E+03 -0.32350800045E+03  0.15220717245E+04  0.16143167869E+04  0.12699999809E+01 0.  1.
</event>
<event>
 5   0  0.8958919E-05  0.1974284E+04  0.7818609E-02  0.8618739E-01
        1   -1    0    0  501    0  0.00000000000E+00  0.00000000000E+00  0.74234191408E+03  0.74234191409E+03  0.50400001928E-02 0.  1.
       -1   -1    0    0    0  501  0.00000000000E+00  0.00000000000E+00 -0.13126687318E+04  0.13126687318E+04  0.50400001928E-02 0. -1.
    10030    2    1    2    0    0  0.00000000000E+00  0.00000000000E+00 -0.57032681775E+03  0.20550106459E+04  0.19742836868E+04 0.  0.
        4    1    3    3  502    0  0.13409360839E+03 -0.19896343496E+03  0.71152804880E+03  0.75089368182E+03  0.12699999809E+01 0.  1.
       -4    1    3    3    0  502 -0.13409360839E+03  0.19896343496E+03 -0.12818548666E+04  0.13041169641E+04  0.12699999809E+01 0. -1.
</event>
<event>
 5   0  0.8861350E-05  0.1919966E+04  0.7818609E-02  0.8644981E-01
       -1   -1    0    0    0  501  0.00000000000E+00  0.00000000000E+00  0.69891641229E+03  0.69891641231E+03  0.50400001928E-02 0.  1.
        1   -1    0    0  501    0  0.00000000000E+00  0.00000000000E+00 -0.13185656782E+04  0.13185656782E+04  0.50400001928E-02 0. -1.
    10030    2    1    2    0    0  0.00000000000E+00  0.00000000000E+00 -0.61964926588E+03  0.20174820905E+04  0.19199658259E+04 0.  0.
        1    1    3    3  502    0 -0.40974412575E+03 -0.19588699668E+03 -0.11985383622E+04  0.12817004993E+04  0.50400001928E-02 0. -1.
       -1    1    3    3    0  502  0.40974412575E+03  0.19588699668E+03  0.57888909636E+03  0.73578159122E+03  0.50400001928E-02 0.  1.
</event>
<event>
 5   0  0.1782172E-04  0.1984507E+04  0.7818609E-02  0.8613898E-01
       -2   -1    0    0    0  501  0.00000000000E+00  0.00000000000E+00  0.15000080952E+04  0.15000080952E+04  0.25500000920E-02 0. -1.
        2   -1    0    0  501    0  0.00000000000E+00  0.00000000000E+00 -0.65637463498E+03  0.65637463499E+03  0.25500000920E-02 0.  1.
    10030    2    1    2    0    0  0.00000000000E+00  0.00000000000E+00  0.84363346020E+03  0.21563827302E+04  0.19845072597E+04 0.  0.
        2    1    3    3  502    0  0.27602692922E+03 -0.16470395676E+03  0.14418691098E+04  0.14772625998E+04  0.25500000920E-02 0. -1.
       -2    1    3    3    0  502 -0.27602692922E+03  0.16470395676E+03 -0.59823564959E+03  0.67912013037E+03  0.25500000920E-02 0.  1.
</event>
<event>
 5   0  0.1812865E-04  0.2003697E+04  0.7818609E-02  0.8604894E-01
        2   -1    0    0  501    0  0.00000000000E+00  0.00000000000E+00  0.19314057004E+04  0.19314057004E+04  0.25500000920E-02 0. -1.
       -2   -1    0    0    0  501  0.00000000000E+00  0.00000000000E+00 -0.51967327239E+03  0.51967327239E+03  0.25500000920E-02 0.  1.
    10030    2    1    2    0    0  0.00000000000E+00  0.00000000000E+00  0.14117324280E+04  0.24510789728E+04  0.20036965046E+04 0.  0.
        3    1    3    3  502    0  0.46989742311E+03  0.34925961612E+03  0.17003503359E+04  0.17983262059E+04  0.10100000352E+00 0. -1.
       -3    1    3    3    0  502 -0.46989742311E+03 -0.34925961612E+03 -0.28861790793E+03  0.65275276689E+03  0.10100000352E+00 0.  1.
</event>
<event>
 5   0  0.8958919E-05  0.2013509E+04  0.7818609E-02  0.8600331E-01
        1   -1    0    0  501    0  0.00000000000E+00  0.00000000000E+00  0.96467585714E+03  0.96467585715E+03  0.50400001928E-02 0.  1.
       -1   -1    0    0    0  501  0.00000000000E+00  0.00000000000E+00 -0.10506687132E+04  0.10506687132E+04  0.50400001928E-02 0. -1.
    10030    2    1    2    0    0  0.00000000000E+00  0.00000000000E+00 -0.85992856021E+02  0.20153445703E+04  0.20135091174E+04 0.  0.
        4    1    3    3  502    0 -0.43231624459E+02  0.24954747059E+03  0.93226861817E+03  0.96605864354E+03  0.12699999809E+01 0.  1.
       -4    1    3    3    0  502  0.43231624459E+02 -0.24954747059E+03 -0.10182614742E+04  0.10492859268E+04  0.12699999809E+01 0. -1.
</event>
<event>
 5   0  0.8577422E-05  0.2040065E+04  0.7818609E-02  0.8588115E-01
        1   -1    0    0  501    0  0.00000000000E+00  0.00000000000E+00  0.14144805545E+04  0.14144805545E+04  0.50400001928E-02 0. -1.
       -1   -1    0    0    0  501  0.00000000000E+00  0.00000000000E+00 -0.73558204660E+03  0.73558204662E+03  0.50400001928E-02 0.  1.
    10030    2    1    2    0    0  0.00000000000E+00  0.00000000000E+00  0.67889850787E+03  0.21500626011E+04  0.20400651962E+04 0.  0.
        2    1    3    3  502    0  0.64322097721E+03 -0.98102053227E+02 -0.48847020633E+03  0.81360947687E+03  0.25500000920E-02 0.  1.
       -2    1    3    3    0  502 -0.64322097721E+03  0.98102053227E+02  0.11673687142E+04  0.13364531242E+04  0.25500000920E-02 0. -1.
</event>
<event>
 5   0  0.8861350E-05  0.1981693E+04  0.7818609E-02  0.8615228E-01
       -1   -1    0    0    0  501  0.00000000000E+00  0.00000000000E+00  0.66862202132E+03  0.66862202134E+03  0.50400001928E-02 0. -1.
        1   -1    0    0  501    0  0.00000000000E+00  0.00000000000E+00 -0.14683584975E+04  0.14683584975E+04  0.50400001928E-02 0.  1.
    10030    2    1    2    0    0  0.00000000000E+00  0.00000000000E+00 -0.79973647617E+03  0.21369805188E+04  0.19816930404E+04 0.  0.
        1    1    3    3  502    0  0.30962439052E+03 -0.23044167226E+02  0.61481076140E+03  0.68876016813E+03  0.50400001928E-02 0. -1.
       -1    1    3    3    0  502 -0.30962439052E+03  0.23044167226E+02 -0.14145472376E+04  0.14482203507E+04  0.50400001928E-02 0.  1.
</event>
<event>
 5   0  0.1782172E-04  0.1988931E+04  0.7818609E-02  0.8611813E-01
       -2   -1    0    0    0  501  0.00000000000E+00  0.00000000000E+00  0.98224969873E+03  0.98224969873E+03  0.25500000920E-02 0. -1.
        2   -1    0    0  501    0  0.00000000000E+00  0.00000000000E+00 -0.10068334498E+04  0.10068334498E+04  0.25500000920E-02 0.  1.
    10030    2    1    2    0    0  0.00000000000E+00  0.00000000000E+00 -0.24583751094E+02  0.19890831486E+04  0.19889312233E+04 0.  0.
        2    1    3    3  502    0 -0.65798452434E+03 -0.52968685984E+03  0.51258156758E+03  0.98805448595E+03  0.25500000920E-02 0.  1.
       -2    1    3    3    0  502  0.65798452434E+03  0.52968685984E+03 -0.53716531868E+03  0.10010286626E+04  0.25500000920E-02 0. -1.
</event>
<event>
 5   0  0.8881384E-05  0.2023160E+04  0.7818609E-02  0.8595868E-01
       -1   -1    0    0    0  501  0.00000000000E+00  0.00000000000E+00  0.91749446968E+03  0.91749446969E+03  0.50400001928E-02 0. -1.
        1   -1    0    0  501    0  0.00000000000E+00  0.00000000000E+00 -0.11153140066E+04  0.11153140066E+04  0.50400001928E-02 0.  1.
    10030    2    1    2    0    0  0.00000000000E+00  0.00000000000E+00 -0.19781953694E+03  0.20328084763E+04  0.20231603328E+04 0.  0.
        5    1    3    3  502    0  0.71848862024E+03  0.39440515733E+02  0.61545960752E+03  0.94688651388E+03  0.46999998093E+01 0. -1.
       -5    1    3    3    0  502 -0.71848862024E+03 -0.39440515733E+02 -0.81327914446E+03  0.10859219624E+04  0.46999998093E+01 0.  1.
</event>
<event>
 5   0  0.8765057E-05  0.1986330E+04  0.7818609E-02  0.8613038E-01
        1   -1    0    0  501    0  0.00000000000E+00  0.00000000000E+00  0.20657401785E+04  0.20657401785E+04  0.50400001928E-02 0. -1.
       -1   -1    0    0    0  501  0.00000000000E+00  0.00000000000E+00 -0.47749325535E+03  0.47749325538E+03  0.50400001928E-02 0.  1.
    10030    2    1    2    0    0  0.00000000000E+00  0.00000000000E+00  0.15882469231E+04  0.25432334339E+04  0.19863302873E+04 0.  0.
        3    1    3    3  502    0  0.18110274212E+03 -0.91806791809E+02 -0.45063531848E+03  0.49426601207E+03  0.10100000352E+00 0.  1.
       -3    1    3    3    0  502 -0.18110274212E+03  0.91806791809E+02  0.20388822416E+04  0.20489674218E+04  0.10100000352E+00 0. -1.
</event>
<event>
 5   0  0.1812865E-04  0.2015811E+04  0.7818609E-02  0.8599264E-01
        2   -1    0    0  501    0  0.00000000000E+00  0.00000000000E+00  0.17318520067E+04  0.17318520067E+04  0.25500000920E-02 0.  1.
       -2   -1    0    0    0  501  0.00000000000E+00  0.00000000000E+00 -0.58658210833E+03  0.58658210834E+03  0.25500000920E-02 0. -1.
    10030    2    1    2    0    0  0.00000000000E+00  0.00000000000E+00  0.11452698984E+04  0.23184341151E+04  0.20158109053E+04 0.  0.
        3    1    3    3  502    0 -0.72120509990E+03  0.62887540803E+03  0.20847500307E+03  0.97932778581E+03  0.10100000352E+00 0. -1.
       -3    1    3    3    0  502  0.72120509990E+03 -0.62887540803E+03  0.93679489534E+03  0.13391063293E+04  0.10100000352E+00 0.  1.
</event>
<event>
 5   0  0.1812865E-04  0.2113930E+04  0.7818609E-02  0.8555132E-01
       -2   -1    0    0    0  501  0.00000000000E+00  0.00000000000E+00  0.91217327298E+03  0.91217327299E+03  0.25500000920E-02 0.  1.
        2   -1    0    0  501    0  0.00000000000E+00  0.00000000000E+00 -0.12247394254E+04  0.12247394254E+04  0.25500000920E-02 0. -1.
    10030    2    1    2    0    0  0.00000000000E+00  0.00000000000E+00 -0.31256615242E+03  0.21369126984E+04  0.21139295828E+04 0.  0.
        3    1    3    3  502    0 -0.44012641636E+03  0.20742004625E+03  0.79223628631E+03  0.92971645221E+03  0.10100000352E+00 0.  1.
       -3    1    3    3    0  502  0.44012641636E+03 -0.20742004625E+03 -0.11048024387E+04  0.12071962462E+04  0.10100000352E+00 0. -1.
</event>
<event>
 5   0  0.8861350E-05  0.1988886E+04  0.7818609E-02  0.8611835E-01
       -1   -1    0    0    0  501  0.00000000000E+00  0.00000000000E+00  0.54941244675E+03  0.54941244677E+03  0.50400001928E-02 0.  1.
        1   -1    0    0  501    0  0.00000000000E+00  0.00000000000E+00 -0.17999532892E+04  0.17999532892E+04  0.50400001928E-02 0. -1.
    10030    2    1    2    0    0  0.00000000000E+00  0.00000000000E+00 -0.12505408424E+04  0.23493657360E+04  0.19888858597E+04 0.  0.
        1    1    3    3  502    0  0.70102958925E+03 -0.53110019219E+03 -0.11735101663E+04  0.14665046913E+04  0.50400001928E-02 0. -1.
       -1    1    3    3    0  502 -0.70102958925E+03  0.53110019219E+03 -0.77030676167E+02  0.88286104470E+03  0.50400001928E-02 0.  1.
</event>
<event>
 5   0  0.1834645E-04  0.1989653E+04  0.7818609E-02  0.8611473E-01
        2   -1    0    0  501    0  0.00000000000E+00  0.00000000000E+00  0.13367287209E+04  0.13367287209E+04  0.25500000920E-02 0. -1.
       -2   -1    0    0    0  501  0.00000000000E+00  0.00000000000E+00 -0.74037460038E+03  0.74037460039E+03  0.25500000920E-02 0.  1.
    10030    2    1    2    0    0  0.00000000000E+00  0.00000000000E+00  0.59635412054E+03  0.20771033213E+04  0.19896532287E+04 0.  0.
        1    1    3    3  502    0  0.74513215697E+03 -0.64895671584E+03  0.17772267237E+03  0.10039681761E+04  0.50400001928E-02 0. -1.
       -1    1    3    3    0  502 -0.74513215697E+03  0.64895671584E+03  0.41863144817E+03  0.10731351452E+04  0.50400001928E-02 0.  1.
</event>
<event>
 5   0  0.8577422E-05  0.1997710E+04  0.7818609E-02  0.8607692E-01
       -1   -1    0    0    0  501  0.00000000000E+00  0.00000000000E+00  0.16616389850E+04  0.16616389850E+04  0.50400001928E-02 0.  1.
        1   -1    0    0  501    0  0.00000000000E+00  0.00000000000E+00 -0.60043822158E+03  0.60043822160E+03  0.50400001928E-02 0. -1.
    10030    2    1    2    0    0  0.00000000000E+00  0.00000000000E+00  0.10612007634E+04  0.22620772066E+04  0.19977102463E+04 0.  0.
        2    1    3    3  502    0  0.94264380874E+03  0.28604539993E+03  0.71773475000E+03  0.12188283277E+04  0.25500000920E-02 0.  1.
       -2    1    3    3    0  502 -0.94264380874E+03 -0.28604539993E+03  0.34346601341E+03  0.10432488789E+04  0.25500000920E-02 0. -1.
</event>
<event>
 5   0  0.8861350E-05  0.1998231E+04  0.7818609E-02  0.8607448E-01
       -1   -1    0    0    0  501  0.00000000000E+00  0.00000000000E+00  0.64003525921E+03  0.64003525923E+03  0.50400001928E-02 0.  1.
        1   -1    0    0  501    0  0.00000000000E+00  0.00000000000E+00 -0.15596509949E+04  0.15596509949E+04  0.50400001928E-02 0. -1.
    10030    2    1    2    0    0  0.00000000000E+00  0.00000000000E+00 -0.91961573571E+03  0.21996862542E+04  0.19982308464E+04 0.  0.
        1    1    3    3  502    0  0.95997730076E+02  0.14027727434E+03 -0.15436169346E+04  0.15529476871E+04  0.50400001928E-02 0. -1.
       -1    1    3    3    0  502 -0.95997730076E+02 -0.14027727434E+03  0.62400119892E+03  0.64673856709E+03  0.50400001928E-02 0.  1.
</event>
<event>
 5   0  0.6531625E-05  0.1987990E+04  0.7818609E-02  0.8612256E-01
        4   -1    0    0  501    0  0.00000000000E+00  0.00000000000E+00  0.12137317203E+04  0.12137323848E+04  0.12699999809E+01 0.  1.
       -4   -1    0    0    0  501  0.00000000000E+00  0.00000000000E+00 -0.81403864725E+03  0.81403963793E+03  0.12699999809E+01 0. -1.
    10030    2    1    2    0    0  0.00000000000E+00  0.00000000000E+00  0.39969307307E+03  0.20277720227E+04  0.19879901467E+04 0.  0.
        1    1    3    3  502    0  0.15971341786E+03 -0.93783017039E+03  0.49369543363E+03  0.10718064123E+04  0.50400001928E-02 0.  1.
       -1    1    3    3    0  502 -0.15971341786E+03  0.93783017039E+03 -0.94002360551E+02  0.95596561034E+03  0.50400001928E-02 0. -1.
</event>
<event>
 5   0  0.1834645E-04  0.1674488E+04  0.7818609E-02  0.8776050E-01
       -2   -1    0    0    0  501  0.00000000000E+00  0.00000000000E+00  0.73096604430E+03  0.73096604431E+03  0.25500000920E-02 0.  1.
        2   -1    0    0  501    0  0.00000000000E+00  0.00000000000E+00 -0.95897412982E+03  0.95897412983E+03  0.25500000920E-02 0. -1.
    10030    2    1    2    0    0  0.00000000000E+00  0.00000000000E+00 -0.22800808552E+03  0.16899401741E+04  0.16744880128E+04 0.  0.
        1    1    3    3  502    0 -0.27906958362E+03 -0.28976618875E+03  0.62702861113E+03  0.74498936627E+03  0.50400001928E-02 0.  1.
       -1    1    3    3    0  502  0.27906958362E+03  0.28976618875E+03 -0.85503669665E+03  0.94495080787E+03  0.50400001928E-02 0. -1.
</event>
<event>
 5   0  0.8577422E-05  0.2013332E+04  0.7818609E-02  0.8600413E-01
       -1   -1    0    0    0  501  0.00000000000E+00  0.00000000000E+00  0.48943641975E+03  0.48943641977E+03  0.50400001928E-02 0.  1.
        1   -1    0    0  501    0  0.00000000000E+00  0.00000000000E+00 -0.20704959780E+04  0.20704959780E+04  0.50400001928E-02 0. -1.
    10030    2    1    2    0    0  0.00000000000E+00  0.00000000000E+00 -0.15810595582E+04  0.25599323977E+04  0.20133317050E+04 0.  0.
        2    1    3    3  502    0  0.21204707626E+03 -0.86539954463E+03 -0.13862279622E+04  0.16478799402E+04  0.25500000920E-02 0. -1.
       -2    1    3    3    0  502 -0.21204707626E+03  0.86539954463E+03 -0.19483159605E+03  0.91205245749E+03  0.25500000920E-02 0.  1.
</event>
<event>
 5   0  0.8577422E-05  0.2009706E+04  0.7818609E-02  0.8602096E-01
        1   -1    0    0  501    0  0.00000000000E+00  0.00000000000E+00  0.61126758142E+03  0.61126758144E+03  0.50400001928E-02 0. -1.
       -1   -1    0    0    0  501  0.00000000000E+00  0.00000000000E+00 -0.16518624403E+04  0.16518624404E+04  0.50400001928E-02 0.  1.
    10030    2    1    2    0    0  0.00000000000E+00  0.00000000000E+00 -0.10405948589E+04  0.22631300218E+04  0.20097064052E+04 0.  0.
        2    1    3    3  502    0 -0.23920231645E+03 -0.88036483606E+03 -0.45903282336E+02  0.91343697325E+03  0.25500000920E-02 0. -1.
       -2    1    3    3    0  502  0.23920231645E+03  0.88036483606E+03 -0.99469157658E+03  0.13496930485E+04  0.25500000920E-02 0.  1.
</event>
<event>
 5   0  0.1782172E-04  0.1978761E+04  0.7818609E-02  0.8616615E-01
       -2   -1    0    0    0  501  0.00000000000E+00  0.00000000000E+00  0.40498606714E+03  0.40498606714E+03  0.25500000920E-02 0.  1.
        2   -1    0    0  501    0  0.00000000000E+00  0.00000000000E+00 -0.24170552562E+04  0.24170552562E+04  0.25500000920E-02 0. -1.
    10030    2    1    2    0    0  0.00000000000E+00  0.00000000000E+00 -0.20120691891E+04  0.28220413233E+04  0.19787609277E+04 0.  0.
        2    1    3    3  502    0  0.58126539664E+03  0.79999750760E+03 -0.10513190956E+04  0.14433077683E+04  0.25500000920E-02 0. -1.
       -2    1    3    3    0  502 -0.58126539664E+03 -0.79999750760E+03 -0.96075009351E+03  0.13787335550E+04  0.25500000920E-02 0.  1.
</event>
<event>
 5   0  0.8765057E-05  0.1998869E+04  0.7818609E-02  0.8607149E-01
        1   -1    0    0  501    0  0.00000000000E+00  0.00000000000E+00  0.13901483250E+04  0.13901483250E+04  0.50400001928E-02 0. -1.
       -1   -1    0    0    0  501  0.00000000000E+00  0.00000000000E+00 -0.71853464882E+03  0.71853464884E+03  0.50400001928E-02 0.  1.
    10030    2    1    2    0    0  0.00000000000E+00  0.00000000000E+00  0.67161367621E+03  0.21086829739E+04  0.19988694190E+04 0.  0.
        3    1    3    3  502    0  0.17141675122E+03 -0.51786971798E+03  0.12192484517E+04  0.13357168654E+04  0.10100000352E+00 0. -1.
       -3    1    3    3    0  502 -0.17141675122E+03  0.51786971798E+03 -0.54763477545E+03  0.77296610850E+03  0.10100000352E+00 0.  1.
</event>
<event>
 5   0  0.1807498E-04  0.2027701E+04  0.7818609E-02  0.8593778E-01
        2   -1    0    0  501    0  0.00000000000E+00  0.00000000000E+00  0.15906586191E+04  0.15906586191E+04  0.25500000920E-02 0.  1.
       -2   -1    0    0    0  501  0.00000000000E+00  0.00000000000E+00 -0.64620601027E+03  0.64620601027E+03  0.25500000920E-02 0. -1.
    10030    2    1    2    0    0  0.00000000000E+00  0.00000000000E+00  0.94445260879E+03  0.22368646293E+04  0.20277013191E+04 0.  0.
        5    1    3    3  502    0  0.58700039271E+03  0.20646530862E+03  0.13552130037E+04  0.14912483898E+04  0.46999998093E+01 0.  1.
       -5    1    3    3    0  502 -0.58700039271E+03 -0.20646530862E+03 -0.41076039486E+03  0.74561623956E+03  0.46999998093E+01 0. -1.
</event>
<event>
 5   0  0.8765057E-05  0.1995335E+04  0.7818609E-02  0.8608805E-01
       -1   -1    0    0    0  501  0.00000000000E+00  0.00000000000E+00  0.61468981423E+03  0.61468981425E+03  0.50400001928E-02 0. -1.
        1   -1    0    0  501    0  0.00000000000E+00  0.00000000000E+00 -0.16192557745E+04  0.16192557745E+04  0.50400001928E-02 0.  1.
    10030    2    1    2    0    0  0.00000000000E+00  0.00000000000E+00 -0.10045659602E+04  0.22339455887E+04  0.19953345897E+04 0.  0.
        3    1    3    3  502    0  0.83108944403E+03 -0.33383161086E+03 -0.10191780514E+02  0.89568805450E+03  0.10100000352E+00 0. -1.
       -3    1    3    3    0  502 -0.83108944403E+03  0.33383161086E+03 -0.99437417971E+03  0.13382575342E+04  0.10100000352E+00 0.  1.
</event>
<event>
 5   0  0.1782172E-04  0.2004672E+04  0.7818609E-02  0.8604439E-01
        2   -1    0    0  501    0  0.00000000000E+00  0.00000000000E+00  0.11137525741E+04  0.11137525741E+04  0.25500000920E-02 0. -1.
       -2   -1    0    0    0  501  0.00000000000E+00  0.00000000000E+00 -0.90206538905E+03  0.90206538905E+03  0.25500000920E-02 0.  1.
    10030    2    1    2    0    0  0.00000000000E+00  0.00000000000E+00  0.21168718503E+03  0.20158179631E+04  0.20046721917E+04 0.  0.
        2    1    3    3  502    0 -0.19503525256E+03 -0.42154613669E+03  0.99900369444E+03  0.11017024447E+04  0.25500000920E-02 0. -1.
       -2    1    3    3    0  502  0.19503525256E+03  0.42154613669E+03 -0.78731650940E+03  0.91411551846E+03  0.25500000920E-02 0.  1.
</event>
<event>
 5   0  0.1782172E-04  0.2020008E+04  0.7818609E-02  0.8597323E-01
        2   -1    0    0  501    0  0.00000000000E+00  0.00000000000E+00  0.11973840776E+04  0.11973840776E+04  0.25500000920E-02 0.  1.
       -2   -1    0    0    0  501  0.00000000000E+00  0.00000000000E+00 -0.85194729397E+03  0.85194729397E+03  0.25500000920E-02 0. -1.
    10030    2    1    2    0    0  0.00000000000E+00  0.00000000000E+00  0.34543678365E+03  0.20493313716E+04  0.20200080443E+04 0.  0.
        2    1    3    3  502    0  0.29529636552E+03  0.85647322344E+03  0.62569947007E+03  0.11010205052E+04  0.25500000920E-02 0.  1.
       -2    1    3    3    0  502 -0.29529636552E+03 -0.85647322344E+03 -0.28026268642E+03  0.94831086642E+03  0.25500000920E-02 0. -1.
</event>
<event>
 5   0  0.8861350E-05  0.1945360E+04  0.7818609E-02  0.8632601E-01
        1   -1    0    0  501    0  0.00000000000E+00  0.00000000000E+00  0.15036844112E+04  0.15036844112E+04  0.50400001928E-02 0. -1.
       -1   -1    0    0    0  501  0.00000000000E+00  0.00000000000E+00 -0.62919216158E+03  0.62919216160E+03  0.50400001928E-02 0.  1.
    10030    2    1    2    0    0  0.00000000000E+00  0.00000000000E+00  0.87449224960E+03  0.21328765728E+04  0.19453600644E+04 0.  0.
        1    1    3    3  502    0 -0.36871221871E+03 -0.59754707608E+03 -0.30076086671E+03  0.76385097194E+03  0.50400001928E-02 0.  1.
       -1    1    3    3    0  502  0.36871221871E+03  0.59754707608E+03  0.11752531163E+04  0.13690256009E+04  0.50400001928E-02 0. -1.
</event>
<event>
 5   0  0.1812865E-04  0.2044323E+04  0.7818609E-02  0.8586174E-01
       -2   -1    0    0    0  501  0.00000000000E+00  0.00000000000E+00  0.39404545085E+03  0.39404545086E+03  0.25500000920E-02 0.  1.
        2   -1    0    0  501    0  0.00000000000E+00  0.00000000000E+00 -0.26515070256E+04  0.26515070256E+04  0.25500000920E-02 0. -1.
    10030    2    1    2    0    0  0.00000000000E+00  0.00000000000E+00 -0.22574615748E+04  0.30455524765E+04  0.20443231460E+04 0.  0.
        3    1    3    3  502    0 -0.15442415626E+02 -0.92731289176E+03 -0.48853808063E+03  0.10482447872E+04  0.10100000352E+00 0.  1.
       -3    1    3    3    0  502  0.15442415626E+02  0.92731289176E+03 -0.17689234942E+04  0.19973076893E+04  0.10100000352E+00 0. -1.
</event>
<event>
 5   0  0.1782172E-04  0.1994578E+04  0.7818609E-02  0.8609160E-01
        2   -1    0    0  501    0  0.00000000000E+00  0.00000000000E+00  0.14708791935E+04  0.14708791935E+04  0.25500000920E-02 0. -1.
       -2   -1    0    0    0  501  0.00000000000E+00  0.00000000000E+00 -0.67618398648E+03  0.67618398648E+03  0.25500000920E-02 0.  1.
    10030    2    1    2    0    0  0.00000000000E+00  0.00000000000E+00  0.79469520704E+03  0.21470631800E+04  0.19945776061E+04 0.  0.
        2    1    3    3  502    0 -0.98238869164E+03 -0.17010125906E+03  0.37180652834E+03  0.10640780396E+04  0.25500000920E-02 0. -1.
       -2    1    3    3    0  502  0.98238869164E+03  0.17010125906E+03  0.42288867870E+03  0.10829851404E+04  0.25500000920E-02 0.  1.
</event>
<event>
 5   0  0.8765057E-05  0.1980313E+04  0.7818609E-02  0.8615881E-01
       -1   -1    0    0    0  501  0.00000000000E+00  0.00000000000E+00  0.45146624212E+03  0.45146624215E+03  0.50400001928E-02 0. -1.
        1   -1    0    0  501    0  0.00000000000E+00  0.00000000000E+00 -0.21716119853E+04  0.21716119853E+04  0.50400001928E-02 0.  1.
    10030    2    1    2    0    0  0.00000000000E+00  0.00000000000E+00 -0.17201457432E+04  0.26230782275E+04  0.19803126040E+04 0.  0.
        3    1    3    3  502    0 -0.30881766585E+03 -0.20149959997E+03  0.35712629399E+03  0.51333190003E+03  0.10100000352E+00 0. -1.
       -3    1    3    3    0  502  0.30881766585E+03  0.20149959997E+03 -0.20772720372E+04  0.21097463275E+04  0.10100000352E+00 0.  1.
</event>
<event>
 5   0  0.8765057E-05  0.2005359E+04  0.7818609E-02  0.8604119E-01
       -1   -1    0    0    0  501  0.00000000000E+00  0.00000000000E+00  0.11005937230E+04  0.11005937231E+04  0.50400001928E-02 0.  1.
        1   -1    0    0  501    0  0.00000000000E+00  0.00000000000E+00 -0.91347595642E+03  0.91347595644E+03  0.50400001928E-02 0. -1.
    10030    2    1    2    0    0  0.00000000000E+00  0.00000000000E+00  0.18711776662E+03  0.20140696795E+04  0.20053587248E+04 0.  0.
        3    1    3    3  502    0 -0.27869037042E+03  0.94962893563E+03  0.25520038968E+03  0.10220521939E+04  0.10100000352E+00 0.  1.
       -3    1    3    3    0  502  0.27869037042E+03 -0.94962893563E+03 -0.68082623057E+02  0.99201748559E+03  0.10100000352E+00 0. -1.
</event>
<event>
 5   0  0.8958919E-05  0.1927921E+04  0.7818609E-02  0.8641082E-01
       -1   -1    0    0    0  501  0.00000000000E+00  0.00000000000E+00  0.12395078061E+04  0.12395078061E+04  0.50400001928E-02 0.  1.
        1   -1    0    0  501    0  0.00000000000E+00  0.00000000000E+00 -0.74966875329E+03  0.74966875331E+03  0.50400001928E-02 0. -1.
    10030    2    1    2    0    0  0.00000000000E+00  0.00000000000E+00  0.48983905283E+03  0.19891765594E+04  0.19279214421E+04 0.  0.
        4    1    3    3  502    0  0.19705020124E+02  0.44337450467E+03 -0.63798454063E+03  0.77717123351E+03  0.12699999809E+01 0. -1.
       -4    1    3    3    0  502 -0.19705020124E+02 -0.44337450467E+03  0.11278235935E+04  0.12120053259E+04  0.12699999809E+01 0.  1.
</event>
<event>
 5   0  0.1812865E-04  0.2002454E+04  0.7818609E-02  0.8605474E-01
       -2   -1    0    0    0  501  0.00000000000E+00  0.00000000000E+00  0.16040695987E+04  0.16040695987E+04  0.25500000920E-02 0. -1.
        2   -1    0    0  501    0  0.00000000000E+00  0.00000000000E+00 -0.62494486093E+03  0.62494486094E+03  0.25500000920E-02 0.  1.
    10030    2    1    2    0    0  0.00000000000E+00  0.00000000000E+00  0.97912473777E+03  0.22290144596E+04  0.20024535473E+04 0.  0.
        3    1    3    3  502    0 -0.45527671549E+03 -0.81853165100E+03  0.95717669163E+02  0.94150562067E+03  0.10100000352E+00 0.  1.
       -3    1    3    3    0  502  0.45527671549E+03  0.81853165100E+03  0.88340706861E+03  0.12875088390E+04  0.10100000352E+00 0. -1.
</event>
<event>
 5   0  0.1782172E-04  0.1997036E+04  0.7818609E-02  0.8608008E-01
       -2   -1    0    0    0  501  0.00000000000E+00  0.00000000000E+00  0.17060140424E+04  0.17060140425E+04  0.25500000920E-02 0. -1.
        2   -1    0    0  501    0  0.00000000000E+00  0.00000000000E+00 -0.58442573047E+03  0.58442573048E+03  0.25500000920E-02 0.  1.
    10030    2    1    2    0    0  0.00000000000E+00  0.00000000000E+00  0.11215883120E+04  0.22904397729E+04  0.19970363071E+04 0.  0.
        2    1    3    3  502    0  0.53079665572E+03 -0.70221683793E+03  0.11014117946E+04  0.14099508922E+04  0.25500000920E-02 0. -1.
       -2    1    3    3    0  502 -0.53079665572E+03  0.70221683793E+03  0.20176517389E+02  0.88048888071E+03  0.25500000920E-02 0.  1.
</event>
<event>
 5   0  0.1893687E-04  0.1833910E+04  0.7818609E-02  0.8688472E-01
        2   -1    0    0  501    0  0.00000000000E+00  0.00000000000E+00  0.10976741832E+04  0.10976741832E+04  0.25500000920E-02 0. -1.
       -2   -1    0    0    0  501  0.00000000000E+00  0.00000000000E+00 -0.76598885878E+03  0.76598885878E+03  0.25500000920E-02 0.  1.
    10030    2    1    2    0    0  0.00000000000E+00  0.00000000000E+00  0.33168532439E+03  0.18636630420E+04  0.18339096978E+04 0.  0.
        4    1    3    3  502    0 -0.31740403790E+03  0.85893997011E+03  0.11730388017E+03  0.92319283399E+03  0.12699999809E+01 0.  1.
       -4    1    3    3    0  502  0.31740403790E+03 -0.85893997011E+03  0.21438144422E+03  0.94047020796E+03  0.12699999809E+01 0. -1.
</event>
<event>
 5   0  0.8577422E-05  0.2014763E+04  0.7818609E-02  0.8599750E-01
        1   -1    0    0  501    0  0.00000000000E+00  0.00000000000E+00  0.89754848669E+03  0.89754848671E+03  0.50400001928E-02 0.  1.
       -1   -1    0    0    0  501  0.00000000000E+00  0.00000000000E+00 -0.11306546141E+04  0.11306546141E+04  0.50400001928E-02 0. -1.
    10030    2    1    2    0    0  0.00000000000E+00  0.00000000000E+00 -0.23310612742E+03  0.20282031008E+04  0.20147628524E+04 0.  0.
        2    1    3    3  502    0 -0.20409631038E+03  0.97588495114E+03  0.28668051554E+02  0.99741094789E+03  0.25500000920E-02 0. -1.
       -2    1    3    3    0  502  0.20409631038E+03 -0.97588495114E+03 -0.26177417897E+03  0.10307921529E+04  0.25500000920E-02 0.  1.
</event>
<event>
 5   0  0.6531625E-05  0.1993789E+04  0.7818609E-02  0.8609530E-01
       -3   -1    0    0    0  501  0.00000000000E+00  0.00000000000E+00  0.10991436343E+04  0.10991436389E+04  0.10100000352E+00 0.  1.
        3   -1    0    0  501    0  0.00000000000E+00  0.00000000000E+00 -0.90415753848E+03  0.90415754412E+03  0.10100000352E+00 0. -1.
    10030    2    1    2    0    0  0.00000000000E+00  0.00000000000E+00  0.19498609578E+03  0.20033011830E+04  0.19937893701E+04 0.  0.
        5    1    3    3  502    0  0.12265779720E+03 -0.50646180305E+03 -0.75640154070E+03  0.91853898880E+03  0.46999998093E+01 0. -1.
       -5    1    3    3    0  502 -0.12265779720E+03  0.50646180305E+03  0.95138763648E+03  0.10847621942E+04  0.46999998093E+01 0.  1.
</event>
<event>
 5   0  0.1812865E-04  0.1999595E+04  0.7818609E-02  0.8606810E-01
       -2   -1    0    0    0  501  0.00000000000E+00  0.00000000000E+00  0.60176762916E+03  0.60176762917E+03  0.25500000920E-02 0. -1.
        2   -1    0    0  501    0  0.00000000000E+00  0.00000000000E+00 -0.16610977502E+04  0.16610977502E+04  0.25500000920E-02 0.  1.
    10030    2    1    2    0    0  0.00000000000E+00  0.00000000000E+00 -0.10593301210E+04  0.22628653793E+04  0.19995948139E+04 0.  0.
        3    1    3    3  502    0  0.51047644903E+03  0.27097785704E+03  0.39357944299E+03  0.69922814028E+03  0.10100000352E+00 0. -1.
       -3    1    3    3    0  502 -0.51047644903E+03 -0.27097785704E+03 -0.14529095640E+04  0.15636372390E+04  0.10100000352E+00 0.  1.
</event>
<event>
 5   0  0.1782172E-04  0.1973158E+04  0.7818609E-02  0.8619274E-01
        2   -1    0    0  501    0  0.00000000000E+00  0.00000000000E+00  0.42025150883E+03  0.42025150884E+03  0.25500000920E-02 0.  1.
       -2   -1    0    0    0  501  0.00000000000E+00  0.00000000000E+00 -0.23160849078E+04  0.23160849078E+04  0.25500000920E-02 0. -1.
    10030    2    1    2    0    0  0.00000000000E+00  0.00000000000E+00 -0.18958333990E+04  0.27363364167E+04  0.19731580546E+04 0.  0.
        2    1    3    3  502    0  0.90878649290E+03 -0.18440782715E+03 -0.48083926264E+03  0.10445599709E+04  0.25500000920E-02 0.  1.
       -2    1    3    3    0  502 -0.90878649290E+03  0.18440782715E+03 -0.14149941363E+04  0.16917764457E+04  0.25500000920E-02 0. -1.
</event>
<event>
 5   0  0.8861350E-05  0.1986067E+04  0.7818609E-02  0.8613162E-01
        1   -1    0    0  501    0  0.00000000000E+00  0.00000000000E+00  0.62282653670E+03  0.62282653672E+03  0.50400001928E-02 0.  1.
       -1   -1    0    0    0  501  0.00000000000E+00  0.00000000000E+00 -0.15832914383E+04  0.15832914383E+04  0.50400001928E-02 0. -1.
    10030    2    1    2    0    0  0.00000000000E+00  0.00000000000E+00 -0.96046490164E+03  0.22061179751E+04  0.19860673938E+04 0.  0.
        1    1    3    3  502    0  0.15256853433E+02 -0.77033348674E+03  0.21565289584E+03  0.80009538423E+03  0.50400001928E-02 0.  1.
       -1    1    3    3    0  502 -0.15256853433E+02  0.77033348674E+03 -0.11761177975E+04  0.14060225908E+04  0.50400001928E-02 0. -1.
</event>
<event>
 5   0  0.8765057E-05  0.2018964E+04  0.7818609E-02  0.8597806E-01
       -1   -1    0    0    0  501  0.00000000000E+00  0.00000000000E+00  0.13112816809E+04  0.13112816809E+04  0.50400001928E-02 0. -1.
        1   -1    0    0  501    0  0.00000000000E+00  0.00000000000E+00 -0.77714312630E+03  0.77714312632E+03  0.50400001928E-02 0.  1.
    10030    2    1    2    0    0  0.00000000000E+00  0.00000000000E+00  0.53413855463E+03  0.20884248073E+04  0.20189636401E+04 0.  0.
        3    1    3    3  502    0 -0.59342661448E+02  0.74032532023E+03  0.97429510911E+03  0.12250935071E+04  0.10100000352E+00 0. -1.
       -3    1    3    3    0  502  0.59342661448E+02 -0.74032532023E+03 -0.44015655448E+03  0.86333130019E+03  0.10100000352E+00 0.  1.
</event>
<event>
 5   0  0.8958919E-05  0.1967781E+04  0.7818609E-02  0.8621834E-01
        1   -1    0    0  501    0  0.00000000000E+00  0.00000000000E+00  0.81095678315E+03  0.81095678317E+03  0.50400001928E-02 0.  1.
       -1   -1    0    0    0  501  0.00000000000E+00  0.00000000000E+00 -0.11937021840E+04  0.11937021841E+04  0.50400001928E-02 0. -1.
    10030    2    1    2    0    0  0.00000000000E+00  0.00000000000E+00 -0.38274540089E+03  0.20046589672E+04  0.19677813733E+04 0.  0.
        4    1    3    3  502    0 -0.80001861791E+03  0.55400603294E+03 -0.33930702814E+03  0.10305742796E+04  0.12699999809E+01 0. -1.
       -4    1    3    3    0  502  0.80001861791E+03 -0.55400603294E+03 -0.43438372758E+02  0.97408468763E+03  0.12699999809E+01 0.  1.
</event>
<event>
 5   0  0.8765057E-05  0.2092827E+04  0.7818609E-02  0.8564410E-01
        1   -1    0    0  501    0  0.00000000000E+00  0.00000000000E+00  0.10188640317E+04  0.10188640317E+04  0.50400001928E-02 0.  1.
       -1   -1    0    0    0  501  0.00000000000E+00  0.00000000000E+00 -0.10747081778E+04  0.10747081778E+04  0.50400001928E-02 0. -1.
    10030    2    1    2    0    0  0.00000000000E+00  0.00000000000E+00 -0.55844146068E+02  0.20935722096E+04  0.20928272810E+04 0.  0.
        3    1    3    3  502    0 -0.61945027141E+03  0.61352012313E+03  0.55095126256E+03  0.10313451819E+04  0.10100000352E+00 0.  1.
       -3    1    3    3    0  502  0.61945027141E+03 -0.61352012313E+03 -0.60679540863E+03  0.10622270277E+04  0.10100000352E+00 0. -1.
</event>
<event>
 5   0  0.1812865E-04  0.1851398E+04  0.7818609E-02  0.8679434E-01
        2   -1    0    0  501    0  0.00000000000E+00  0.00000000000E+00  0.19979662219E+04  0.19979662219E+04  0.25500000920E-02 0. -1.
       -2   -1    0    0    0  501  0.00000000000E+00  0.00000000000E+00 -0.42889554138E+03  0.42889554139E+03  0.25500000920E-02 0.  1.
    10030    2    1    2    0    0  0.00000000000E+00  0.00000000000E+00  0.15690706805E+04  0.24268617633E+04  0.18513981791E+04 0.  0.
        3    1    3    3  502    0 -0.37889758434E+03  0.18896966637E+03  0.18635978600E+04  0.19110912873E+04  0.10100000352E+00 0. -1.
       -3    1    3    3    0  502  0.37889758434E+03 -0.18896966637E+03 -0.29452717953E+03  0.51577047599E+03  0.10100000352E+00 0.  1.
</event>
<event>
 5   0  0.8577422E-05  0.2005995E+04  0.7818609E-02  0.8603823E-01
       -1   -1    0    0    0  501  0.00000000000E+00  0.00000000000E+00  0.85113177657E+03  0.85113177659E+03  0.50400001928E-02 0. -1.
        1   -1    0    0  501    0  0.00000000000E+00  0.00000000000E+00 -0.11819597920E+04  0.11819597920E+04  0.50400001928E-02 0.  1.
    10030    2    1    2    0    0  0.00000000000E+00  0.00000000000E+00 -0.33082801546E+03  0.20330915686E+04  0.20059945540E+04 0.  0.
        2    1    3    3  502    0 -0.17496330388E+03 -0.10499851427E+03  0.82987289858E+03  0.85459105630E+03  0.25500000920E-02 0. -1.
       -2    1    3    3    0  502  0.17496330388E+03  0.10499851427E+03 -0.11607009140E+04  0.11785005123E+04  0.25500000920E-02 0.  1.
</event>
<event>
 5   0  0.1834645E-04  0.1981194E+04  0.7818609E-02  0.8615464E-01
        2   -1    0    0  501    0  0.00000000000E+00  0.00000000000E+00  0.54475633209E+03  0.54475633209E+03  0.25500000920E-02 0.  1.
       -2   -1    0    0    0  501  0.00000000000E+00  0.00000000000E+00 -0.18013238121E+04  0.18013238121E+04  0.25500000920E-02 0. -1.
    10030    2    1    2    0    0  0.00000000000E+00  0.00000000000E+00 -0.12565674800E+04  0.23460801442E+04  0.19811941377E+04 0.  0.
        1    1    3    3  502    0  0.41001129953E+03 -0.12592977204E+02  0.43945502352E+03  0.60115602512E+03  0.50400001928E-02 0.  1.
       -1    1    3    3    0  502 -0.41001129953E+03  0.12592977204E+02 -0.16960225036E+04  0.17449241191E+04  0.50400001928E-02 0. -1.
</event>
<event>
 5   0  0.8577422E-05  0.1925806E+04  0.7818609E-02  0.8642116E-01
       -1   -1    0    0    0  501  0.00000000000E+00  0.00000000000E+00  0.55001247913E+03  0.55001247915E+03  0.50400001928E-02 0. -1.
        1   -1    0    0  501    0  0.00000000000E+00  0.00000000000E+00 -0.16857482725E+04  0.16857482725E+04  0.50400001928E-02 0.  1.
    10030    2    1    2    0    0  0.00000000000E+00  0.00000000000E+00 -0.11357357933E+04  0.22357607516E+04  0.19258064145E+04 0.  0.
        2    1    3    3  502    0 -0.63650236086E+03 -0.23237726509E+03  0.22638344999E+03  0.71441158665E+03  0.25500000920E-02 0. -1.
       -2    1    3    3    0  502  0.63650236086E+03  0.23237726509E+03 -0.13621192433E+04  0.15213491650E+04  0.25500000920E-02 0.  1.
</event>
<event>
 5   0  0.8765057E-05  0.2008447E+04  0.7818609E-02  0.8602682E-01
        1   -1    0    0  501    0  0.00000000000E+00  0.00000000000E+00  0.84253872432E+03  0.84253872434E+03  0.50400001928E-02 0. -1.
       -1   -1    0    0    0  501  0.00000000000E+00  0.00000000000E+00 -0.11969356962E+04  0.11969356962E+04  0.50400001928E-02 0.  1.
    10030    2    1    2    0    0  0.00000000000E+00  0.00000000000E+00 -0.35439697189E+03  0.20394744206E+04  0.20084468373E+04 0.  0.
        3    1    3    3  502    0 -0.79193642589E+03 -0.52159409302E+03  0.15842371708E+03  0.96141655117E+03  0.10100000352E+00 0. -1.
       -3    1    3    3    0  502  0.79193642589E+03  0.52159409302E+03 -0.51282068897E+03  0.10780578694E+04  0.10100000352E+00 0.  1.
</event>
<event>
 5   0  0.1834645E-04  0.2045615E+04  0.7818609E-02  0.8585586E-01
        2   -1    0    0  501    0  0.00000000000E+00  0.00000000000E+00  0.13506661075E+04  0.13506661075E+04  0.25500000920E-02 0.  1.
       -2   -1    0    0    0  501  0.00000000000E+00  0.00000000000E+00 -0.77453308785E+03  0.77453308785E+03  0.25500000920E-02 0. -1.
    10030    2    1    2    0    0  0.00000000000E+00  0.00000000000E+00  0.57613301963E+03  0.21251991953E+04  0.20456153997E+04 0.  0.
        1    1    3    3  502    0  0.61762783158E+03  0.25660807120E+03  0.10920093407E+04  0.12805452904E+04  0.50400001928E-02 0.  1.
       -1    1    3    3    0  502 -0.61762783158E+03 -0.25660807120E+03 -0.51587632104E+03  0.84465390497E+03  0.50400001928E-02 0. -1.
</event>
<event>
 5   0  0.8958919E-05  0.2123411E+04  0.7818609E-02  0.8551000E-01
       -1   -1    0    0    0  501  0.00000000000E+00  0.00000000000E+00  0.77204938358E+03  0.77204938360E+03  0.50400001928E-02 0.  1.
        1   -1    0    0  501    0  0.00000000000E+00  0.00000000000E+00 -0.14600341077E+04  0.14600341077E+04  0.50400001928E-02 0. -1.
    10030    2    1    2    0    0  0.00000000000E+00  0.00000000000E+00 -0.68798472412E+03  0.22320834913E+04  0.21234108720E+04 0.  0.
        4    1    3    3  502    0 -0.17174909762E+03  0.59441042560E+01  0.75733140931E+03  0.77658583643E+03  0.12699999809E+01 0.  1.
       -4    1    3    3    0  502  0.17174909762E+03 -0.59441042560E+01 -0.14453161334E+04  0.14554976549E+04  0.12699999809E+01 0. -1.
</event>
<event>
 5   0  0.1782172E-04  0.2194545E+04  0.7818609E-02  0.8520702E-01
       -2   -1    0    0    0  501  0.00000000000E+00  0.00000000000E+00  0.94096817442E+03  0.94096817442E+03  0.25500000920E-02 0. -1.
        2   -1    0    0  501    0  0.00000000000E+00  0.00000000000E+00 -0.12795400261E+04  0.12795400261E+04  0.25500000920E-02 0.  1.
    10030    2    1    2    0    0  0.00000000000E+00  0.00000000000E+00 -0.33857185164E+03  0.22205082005E+04  0.21945445472E+04 0.  0.
        2    1    3    3  502    0 -0.90638534197E+03  0.14526695766E+03 -0.77753823586E+03  0.12029973339E+04  0.25500000920E-02 0.  1.
       -2    1    3    3    0  502  0.90638534197E+03 -0.14526695766E+03  0.43896638423E+03  0.10175108666E+04  0.25500000920E-02 0. -1.
</event>
<event>
 5   0  0.8881384E-05  0.2004496E+04  0.7818609E-02  0.8604521E-01
        1   -1    0    0  501    0  0.00000000000E+00  0.00000000000E+00  0.12572967088E+04  0.12572967089E+04  0.50400001928E-02 0.  1.
       -1   -1    0    0    0  501  0.00000000000E+00  0.00000000000E+00 -0.79893754791E+03  0.79893754793E+03  0.50400001928E-02 0. -1.
    10030    2    1    2    0    0  0.00000000000E+00  0.00000000000E+00  0.45835916093E+03  0.20562342568E+04  0.20044964950E+04 0.  0.
        5    1    3    3  502    0  0.37571771145E+03 -0.92893341826E+03  0.24965383334E+03  0.10326810838E+04  0.46999998093E+01 0. -1.
       -5    1    3    3    0  502 -0.37571771145E+03  0.92893341826E+03  0.20870532759E+03  0.10235531730E+04  0.46999998093E+01 0.  1.
</event>
<event>
 5   0  0.1812865E-04  0.2039294E+04  0.7818609E-02  0.8588467E-01
       -2   -1    0    0    0  501  0.00000000000E+00  0.00000000000E+00  0.10710656227E+04  0.10710656227E+04  0.25500000920E-02 0.  1.
        2   -1    0    0  501    0  0.00000000000E+00  0.00000000000E+00 -0.97069682018E+03  0.97069682018E+03  0.25500000920E-02 0. -1.
    10030    2    1    2    0    0  0.00000000000E+00  0.00000000000E+00  0.10036880256E+03  0.20417624429E+04  0.20392939898E+04 0.  0.
        3    1    3    3  502    0  0.39118365340E+03  0.96451383454E+02 -0.88762033488E+03  0.97478068772E+03  0.10100000352E+00 0. -1.
       -3    1    3    3    0  502 -0.39118365340E+03 -0.96451383454E+02  0.98798913744E+03  0.10669817552E+04  0.10100000352E+00 0.  1.
</event>
<event>
 5   0  0.8577422E-05  0.1967966E+04  0.7818609E-02  0.8621746E-01
        1   -1    0    0  501    0  0.00000000000E+00  0.00000000000E+00  0.11290332924E+04  0.11290332924E+04  0.50400001928E-02 0.  1.
       -1   -1    0    0    0  501  0.00000000000E+00  0.00000000000E+00 -0.85756796981E+03  0.85756796982E+03  0.50400001928E-02 0. -1.
    10030    2    1    2    0    0  0.00000000000E+00  0.00000000000E+00  0.27146532261E+03  0.19866012622E+04  0.19679662481E+04 0.  0.
        2    1    3    3  502    0 -0.37404556409E+03 -0.66812307943E+03  0.75958481900E+03  0.10785488540E+04  0.25500000920E-02 0. -1.
       -2    1    3    3    0  502  0.37404556409E+03  0.66812307943E+03 -0.48811949639E+03  0.90805240821E+03  0.25500000920E-02 0.  1.
</event>
<event>
 5   0  0.1782172E-04  0.2009035E+04  0.7818609E-02  0.8602408E-01
       -2   -1    0    0    0  501  0.00000000000E+00  0.00000000000E+00  0.10788069670E+04  0.10788069670E+04  0.25500000920E-02 0.  1.
        2   -1    0    0  501    0  0.00000000000E+00  0.00000000000E+00 -0.93534344373E+03  0.93534344373E+03  0.25500000920E-02 0. -1.
    10030    2    1    2    0    0  0.00000000000E+00  0.00000000000E+00  0.14346352329E+03  0.20141504108E+04  0.20090346176E+04 0.  0.
        2    1    3    3  502    0  0.13281827371E+03 -0.45153504468E+03 -0.81795709679E+03  0.94370461618E+03  0.25500000920E-02 0. -1.
       -2    1    3    3    0  502 -0.13281827371E+03  0.45153504468E+03  0.96142062008E+03  0.10704457946E+04  0.25500000920E-02 0.  1.
</event>
<event>
 5   0  0.1834645E-04  0.1880745E+04  0.7818609E-02  0.8664501E-01
        2   -1    0    0  501    0  0.00000000000E+00  0.00000000000E+00  0.83451404421E+03  0.83451404421E+03  0.25500000920E-02 0. -1.
       -2   -1    0    0    0  501  0.00000000000E+00  0.00000000000E+00 -0.10596589910E+04  0.10596589910E+04  0.25500000920E-02 0.  1.
    10030    2    1    2    0    0  0.00000000000E+00  0.00000000000E+00 -0.22514494676E+03  0.18941730352E+04  0.18807448631E+04 0.  0.
        1    1    3    3  502    0  0.48959182337E+03 -0.65743729325E+03  0.35156096056E+03  0.89191875027E+03  0.50400001928E-02 0. -1.
       -1    1    3    3    0  502 -0.48959182337E+03  0.65743729325E+03 -0.57670590732E+03  0.10022542849E+04  0.50400001928E-02 0.  1.
</event>
<event>
 5   0  0.8765057E-05  0.2014611E+04  0.7818609E-02  0.8599820E-01
        1   -1    0    0  501    0  0.00000000000E+00  0.00000000000E+00  0.11491330996E+04  0.11491330997E+04  0.50400001928E-02 0.  1.
       -1   -1    0    0    0  501  0.00000000000E+00  0.00000000000E+00 -0.88298265260E+03  0.88298265262E+03  0.50400001928E-02 0. -1.
    10030    2    1    2    0    0  0.00000000000E+00  0.00000000000E+00  0.26615044704E+03  0.20321157523E+04  0.20146112206E+04 0.  0.
        3    1    3    3  502    0 -0.23557131105E+03  0.41703271990E+03 -0.76077015095E+03  0.89898907937E+03  0.10100000352E+00 0. -1.
       -3    1    3    3    0  502  0.23557131105E+03 -0.41703271990E+03  0.10269205980E+04  0.11331266729E+04  0.10100000352E+00 0.  1.
</event>
<event>
 5   0  0.8958919E-05  0.2041178E+04  0.7818609E-02  0.8587607E-01
       -1   -1    0    0    0  501  0.00000000000E+00  0.00000000000E+00  0.64896457115E+03  0.64896457117E+03  0.50400001928E-02 0. -1.
        1   -1    0    0  501    0  0.00000000000E+00  0.00000000000E+00 -0.16050215955E+04  0.16050215955E+04  0.50400001928E-02 0.  1.
    10030    2    1    2    0    0  0.00000000000E+00  0.00000000000E+00 -0.95605702432E+03  0.22539861666E+04  0.20411782396E+04 0.  0.
        4    1    3    3  502    0  0.44554662144E+03  0.91816821404E+03 -0.48628296611E+03  0.11304943154E+04  0.12699999809E+01 0.  1.
       -4    1    3    3    0  502 -0.44554662144E+03 -0.91816821404E+03 -0.46977405821E+03  0.11234918512E+04  0.12699999809E+01 0. -1.
</event>
<event>
 5   0  0.1782172E-04  0.1969847E+04  0.7818609E-02  0.8620849E-01
       -2   -1    0    0    0  501  0.00000000000E+00  0.00000000000E+00  0.74696464626E+03  0.74696464626E+03  0.25500000920E-02 0. -1.
        2   -1    0    0  501    0  0.00000000000E+00  0.00000000000E+00 -0.12986881412E+04  0.12986881412E+04  0.25500000920E-02 0.  1.
    10030    2    1    2    0    0  0.00000000000E+00  0.00000000000E+00 -0.55172349496E+03  0.20456527875E+04  0.19698468245E+04 0.  0.
        2    1    3    3  502    0  0.11771739086E+03 -0.87315926718E+03 -0.73304167088E+03  0.11461302636E+04  0.25500000920E-02 0.  1.
       -2    1    3    3    0  502 -0.11771739086E+03  0.87315926718E+03  0.18131817592E+03  0.89952252384E+03  0.25500000920E-02 0. -1.
</event>
<event>
 5   0  0.1893687E-04  0.2000948E+04  0.7818609E-02  0.8606177E-01
        2   -1    0    0  501    0  0.00000000000E+00  0.00000000000E+00  0.19791462729E+04  0.19791462729E+04  0.25500000920E-02 0. -1.
       -2   -1    0    0    0  501  0.00000000000E+00  0.00000000000E+00 -0.50574760100E+03  0.50574760101E+03  0.25500000920E-02 0.  1.
    10030    2    1    2    0    0  0.00000000000E+00  0.00000000000E+00  0.14733986719E+04  0.24848938739E+04  0.20009482548E+04 0.  0.
        4    1    3    3  502    0 -0.24982198345E+03 -0.94569860808E+03  0.99775548021E+03  0.13972381658E+04  0.12699999809E+01 0.  1.
       -4    1    3    3    0  502  0.24982198345E+03  0.94569860808E+03  0.47564319172E+03  0.10876557082E+04  0.12699999809E+01 0. -1.
</event>
<event>
 5   0  0.1812865E-04  0.1999620E+04  0.7818609E-02  0.8606798E-01
       -2   -1    0    0    0  501  0.00000000000E+00  0.00000000000E+00  0.13478146052E+04  0.13478146052E+04  0.25500000920E-02 0.  1.
        2   -1    0    0  501    0  0.00000000000E+00  0.00000000000E+00 -0.74166011243E+03  0.74166011244E+03  0.25500000920E-02 0. -1.
    10030    2    1    2    0    0  0.00000000000E+00  0.00000000000E+00  0.60615449272E+03  0.20894747176E+04  0.19996202956E+04 0.  0.
        3    1    3    3  502    0 -0.97449765790E+03 -0.19756273610E+03  0.19376477353E+03  0.10130259215E+04  0.10100000352E+00 0. -1.
       -3    1    3    3    0  502  0.97449765790E+03  0.19756273610E+03  0.41238971919E+03  0.10764487961E+04  0.10100000352E+00 0.  1.
</event>
<event>
 5   0  0.1807498E-04  0.1988463E+04  0.7818609E-02  0.8612034E-01
        2   -1    0    0  501    0  0.00000000000E+00  0.00000000000E+00  0.52269258495E+03  0.52269258495E+03  0.25500000920E-02 0. -1.
       -2   -1    0    0    0  501  0.00000000000E+00  0.00000000000E+00 -0.18911615917E+04  0.18911615917E+04  0.25500000920E-02 0.  1.
    10030    2    1    2    0    0  0.00000000000E+00  0.00000000000E+00 -0.13684690068E+04  0.24138541767E+04  0.19884628646E+04 0.  0.
        5    1    3    3  502    0  0.28448270059E+03  0.63304958465E+03  0.17995376066E+03  0.71699904430E+03  0.46999998093E+01 0. -1.
       -5    1    3    3    0  502 -0.28448270059E+03 -0.63304958465E+03 -0.15484227674E+04  0.16968551324E+04  0.46999998093E+01 0.  1.
</event>
<event>
 5   0  0.8958919E-05  0.1977266E+04  0.7818609E-02  0.8617324E-01
       -1   -1    0    0    0  501  0.00000000000E+00  0.00000000000E+00  0.71342007022E+03  0.71342007024E+03  0.50400001928E-02 0.  1.
        1   -1    0    0  501    0  0.00000000000E+00  0.00000000000E+00 -0.13700130911E+04  0.13700130911E+04  0.50400001928E-02 0. -1.
    10030    2    1    2    0    0  0.00000000000E+00  0.00000000000E+00 -0.65659302084E+03  0.20834331613E+04  0.19772656227E+04 0.  0.
        4    1    3    3  502    0  0.66563602693E+03 -0.68713112207E+03 -0.65563584203E+02  0.95891641749E+03  0.12699999809E+01 0.  1.
       -4    1    3    3    0  502 -0.66563602693E+03  0.68713112207E+03 -0.59102943664E+03  0.11245167438E+04  0.12699999809E+01 0. -1.
</event>
<event>
 5   0  0.8881384E-05  0.2002460E+04  0.7818609E-02  0.8605471E-01
       -1   -1    0    0    0  501  0.00000000000E+00  0.00000000000E+00  0.70544511357E+03  0.70544511358E+03  0.50400001928E-02 0.  1.
        1   -1    0    0  501    0  0.00000000000E+00  0.00000000000E+00 -0.14210341859E+04  0.14210341859E+04  0.50400001928E-02 0. -1.
    10030    2    1    2    0    0  0.00000000000E+00  0.00000000000E+00 -0.71558907230E+03  0.21264792995E+04  0.20024601096E+04 0.  0.
        5    1    3    3  502    0  0.90878876353E+02 -0.98263818123E+03 -0.17819661217E+03  0.10028025169E+04  0.46999998093E+01 0.  1.
       -5    1    3    3    0  502 -0.90878876353E+02  0.98263818123E+03 -0.53739246013E+03  0.11236767825E+04  0.46999998093E+01 0. -1.
</event>
<event>
 5   0  0.8861350E-05  0.1928407E+04  0.7818609E-02  0.8640844E-01
       -1   -1    0    0    0  501  0.00000000000E+00  0.00000000000E+00  0.49521731120E+03  0.49521731123E+03  0.50400001928E-02 0.  1.
        1   -1    0    0  501    0  0.00000000000E+00  0.00000000000E+00 -0.18773339967E+04  0.18773339967E+04  0.50400001928E-02 0. -1.
    10030    2    1    2    0    0  0.00000000000E+00  0.00000000000E+00 -0.13821166855E+04  0.23725513080E+04  0.19284069012E+04 0.  0.
        1    1    3    3  502    0  0.32258593408E+03  0.77969450884E+03 -0.12651076866E+04  0.15206849347E+04  0.50400001928E-02 0.  1.
       -1    1    3    3    0  502 -0.32258593408E+03 -0.77969450884E+03 -0.11700899891E+03  0.85186637323E+03  0.50400001928E-02 0. -1.
</event>
<event>
 5   0  0.1893687E-04  0.2011238E+04  0.7818609E-02  0.8601384E-01
        2   -1    0    0  501    0  0.00000000000E+00  0.00000000000E+00  0.11651147358E+04  0.11651147358E+04  0.25500000920E-02 0. -1.
       -2   -1    0    0    0  501  0.00000000000E+00  0.00000000000E+00 -0.86795735422E+03  0.86795735422E+03  0.25500000920E-02 0.  1.
    10030    2    1    2    0    0  0.00000000000E+00  0.00000000000E+00  0.29715738156E+03  0.20330720900E+04  0.20112383284E+04 0.  0.
        4    1    3    3  502    0 -0.60380725878E+03  0.29012599822E+03 -0.60957129910E+03  0.90572351310E+03  0.12699999809E+01 0.  1.
       -4    1    3    3    0  502  0.60380725878E+03 -0.29012599822E+03  0.90672868066E+03  0.11273485769E+04  0.12699999809E+01 0. -1.
</event>
<event>
 5   0  0.1893687E-04  0.1941157E+04  0.7818609E-02  0.8634637E-01
        2   -1    0    0  501    0  0.00000000000E+00  0.00000000000E+00  0.17595789309E+04  0.17595789309E+04  0.25500000920E-02 0.  1.
       -2   -1    0    0    0  501  0.00000000000E+00  0.00000000000E+00 -0.53536830158E+03  0.53536830158E+03  0.25500000920E-02 0. -1.
    10030    2    1    2    0    0  0.00000000000E+00  0.00000000000E+00  0.12242106294E+04  0.22949472325E+04  0.19411571639E+04 0.  0.
        4    1    3    3  502    0 -0.47828878360E+03  0.82475569898E+03  0.39721058559E+03  0.10328407359E+04  0.12699999809E+01 0. -1.
       -4    1    3    3    0  502  0.47828878360E+03 -0.82475569898E+03  0.82700004378E+03  0.12621064966E+04  0.12699999809E+01 0.  1.
</event>
<event>
 5   0  0.6531625E-05  0.2012936E+04  0.7818609E-02  0.8600596E-01
       -3   -1    0    0    0  501  0.00000000000E+00  0.00000000000E+00  0.18628760979E+04  0.18628761007E+04  0.10100000352E+00 0.  1.
        3   -1    0    0  501    0  0.00000000000E+00  0.00000000000E+00 -0.54377086506E+03  0.54377087444E+03  0.10100000352E+00 0. -1.
    10030    2    1    2    0    0  0.00000000000E+00  0.00000000000E+00  0.13191052329E+04  0.24066469751E+04  0.20129359273E+04 0.  0.
        4    1    3    3  502    0  0.12015700414E+03  0.68763384885E+03  0.15264159937E+04  0.16784592382E+04  0.12699999809E+01 0.  1.
       -4    1    3    3    0  502 -0.12015700414E+03 -0.68763384885E+03 -0.20731076079E+03  0.72818773690E+03  0.12699999809E+01 0. -1.
</event>
<event>
 5   0  0.1782172E-04  0.1957742E+04  0.7818609E-02  0.8626636E-01
       -2   -1    0    0    0  501  0.00000000000E+00  0.00000000000E+00  0.12954894445E+04  0.12954894445E+04  0.25500000920E-02 0.  1.
        2   -1    0    0  501    0  0.00000000000E+00  0.00000000000E+00 -0.73963461826E+03  0.73963461827E+03  0.25500000920E-02 0. -1.
    10030    2    1    2    0    0  0.00000000000E+00  0.00000000000E+00  0.55585482626E+03  0.20351240628E+04  0.19577424149E+04 0.  0.
        2    1    3    3  502    0 -0.52709572775E+03 -0.78315693923E+03  0.88043145706E+01  0.94405625554E+03  0.25500000920E-02 0. -1.
       -2    1    3    3    0  502  0.52709572775E+03  0.78315693923E+03  0.54705051169E+03  0.10910678072E+04  0.25500000920E-02 0.  1.
</event>
<event>
 5   0  0.8577422E-05  0.1921261E+04  0.7818609E-02  0.8644345E-01
       -1   -1    0    0    0  501  0.00000000000E+00  0.00000000000E+00  0.34863865417E+03  0.34863865420E+03  0.50400001928E-02 0. -1.
        1   -1    0    0  501    0  0.00000000000E+00  0.00000000000E+00 -0.26468974860E+04  0.26468974860E+04  0.50400001928E-02 0.  1.
    10030    2    1    2    0    0  0.00000000000E+00  0.00000000000E+00 -0.22982588319E+04  0.29955361402E+04  0.19212608124E+04 0.  0.
        2    1    3    3  502    0  0.84493641685E+03  0.20226434553E+03 -0.51010112958E+03  0.10074877550E+04  0.25500000920E-02 0. -1.
       -2    1    3    3    0  502 -0.84493641685E+03 -0.20226434553E+03 -0.17881577023E+04  0.19880483853E+04  0.25500000920E-02 0.  1.
</event>
<event>
 5   0  0.8765057E-05  0.2016911E+04  0.7818609E-02  0.8598755E-01
        1   -1    0    0  501    0  0.00000000000E+00  0.00000000000E+00  0.11447679212E+04  0.11447679212E+04  0.50400001928E-02 0.  1.
       -1   -1    0    0    0  501  0.00000000000E+00  0.00000000000E+00 -0.88837434023E+03  0.88837434024E+03  0.50400001928E-02 0. -1.
    10030    2    1    2    0    0  0.00000000000E+00  0.00000000000E+00  0.25639358099E+03  0.20331422615E+04  0.20169109517E+04 0.  0.
        3    1    3    3  502    0 -0.34057408774E+03 -0.27405201541E+03 -0.78790011596E+03  0.90104484867E+03  0.10100000352E+00 0. -1.
       -3    1    3    3    0  502  0.34057408774E+03  0.27405201541E+03  0.10442936969E+04  0.11320974128E+04  0.10100000352E+00 0.  1.
</event>
<event>
 5   0  0.1807498E-04  0.1991991E+04  0.7818609E-02  0.8610374E-01
        2   -1    0    0  501    0  0.00000000000E+00  0.00000000000E+00  0.14781428777E+04  0.14781428777E+04  0.25500000920E-02 0. -1.
       -2   -1    0    0    0  501  0.00000000000E+00  0.00000000000E+00 -0.67111691286E+03  0.67111691287E+03  0.25500000920E-02 0.  1.
    10030    2    1    2    0    0  0.00000000000E+00  0.00000000000E+00  0.80702596480E+03  0.21492597905E+04  0.19919906474E+04 0.  0.
        5    1    3    3  502    0  0.91748945015E+03 -0.24962727043E+03  0.72337034536E+03  0.11947331969E+04  0.46999998093E+01 0. -1.
       -5    1    3    3    0  502 -0.91748945015E+03  0.24962727043E+03  0.83655619449E+02  0.95452659362E+03  0.46999998093E+01 0.  1.
</event>
<event>
 5   0  0.1834645E-04  0.1493984E+04  0.7818609E-02  0.8888463E-01
        2   -1    0    0  501    0  0.00000000000E+00  0.00000000000E+00  0.50817274902E+03  0.50817274903E+03  0.25500000920E-02 0.  1.
       -2   -1    0    0    0  501  0.00000000000E+00  0.00000000000E+00 -0.10980461620E+04  0.10980461620E+04  0.25500000920E-02 0. -1.
    10030    2    1    2    0    0  0.00000000000E+00  0.00000000000E+00 -0.58987341295E+03  0.16062189110E+04  0.14939841186E+04 0.  0.
        1    1    3    3  502    0  0.51850910642E+03 -0.50297384960E+03 -0.49938781871E+03  0.87819279223E+03  0.50400001928E-02 0. -1.
       -1    1    3    3    0  502 -0.51850910642E+03  0.50297384960E+03 -0.90485594242E+02  0.72802611877E+03  0.50400001928E-02 0.  1.
</event>
<event>
 5   0  0.8958919E-05  0.1510345E+04  0.7818609E-02  0.8877602E-01
        1   -1    0    0  501    0  0.00000000000E+00  0.00000000000E+00  0.13965400936E+04  0.13965400936E+04  0.50400001928E-02 0. -1.
       -1   -1    0    0    0  501  0.00000000000E+00  0.00000000000E+00 -0.40835619021E+03  0.40835619024E+03  0.50400001928E-02 0.  1.
    10030    2    1    2    0    0  0.00000000000E+00  0.00000000000E+00  0.98818390335E+03  0.18048962838E+04  0.15103453805E+04 0.  0.
        4    1    3    3  502    0  0.22501806760E+03 -0.40034889936E+03 -0.22229551796E+03  0.51022473693E+03  0.12699999809E+01 0.  1.
       -4    1    3    3    0  502 -0.22501806760E+03  0.40034889936E+03  0.12104794213E+04  0.12946715469E+04  0.12699999809E+01 0. -1.
</event>
<event>
 5   0  0.8958919E-05  0.2004198E+04  0.7818609E-02  0.8604661E-01
        1   -1    0    0  501    0  0.00000000000E+00  0.00000000000E+00  0.12530783749E+04  0.12530783749E+04  0.50400001928E-02 0.  1.
       -1   -1    0    0    0  501  0.00000000000E+00  0.00000000000E+00 -0.80138806231E+03  0.80138806233E+03  0.50400001928E-02 0. -1.
    10030    2    1    2    0    0  0.00000000000E+00  0.00000000000E+00  0.45169031259E+03  0.20544664372E+04  0.20041976458E+04 0.  0.
        4    1    3    3  502    0 -0.42303718669E+03 -0.72174396109E+03 -0.33964854105E+03  0.90290506203E+03  0.12699999809E+01 0. -1.
       -4    1    3    3    0  502  0.42303718669E+03  0.72174396109E+03  0.79133885364E+03  0.11515613752E+04  0.12699999809E+01 0.  1.
</event>
<event>
 5   0  0.8881384E-05  0.1974304E+04  0.7818609E-02  0.8618729E-01
       -1   -1    0    0    0  501  0.00000000000E+00  0.00000000000E+00  0.52963101095E+03  0.52963101098E+03  0.50400001928E-02 0.  1.
        1   -1    0    0  501    0  0.00000000000E+00  0.00000000000E+00 -0.18399025292E+04  0.18399025292E+04  0.50400001928E-02 0. -1.
    10030    2    1    2    0    0  0.00000000000E+00  0.00000000000E+00 -0.13102715183E+04  0.23695335402E+04  0.19743043703E+04 0.  0.
        5    1    3    3  502    0  0.28301185988E+03  0.93638160335E+03 -0.49617955018E+03  0.10968693887E+04  0.46999998093E+01 0.  1.
       -5    1    3    3    0  502 -0.28301185988E+03 -0.93638160335E+03 -0.81409196807E+03  0.12726641515E+04  0.46999998093E+01 0. -1.
</event>
<event>
 5   0  0.1893687E-04  0.1998385E+04  0.7818609E-02  0.8607376E-01
       -2   -1    0    0    0  501  0.00000000000E+00  0.00000000000E+00  0.12984961152E+04  0.12984961152E+04  0.25500000920E-02 0. -1.
        2   -1    0    0  501    0  0.00000000000E+00  0.00000000000E+00 -0.76887848905E+03  0.76887848906E+03  0.25500000920E-02 0.  1.
    10030    2    1    2    0    0  0.00000000000E+00  0.00000000000E+00  0.52961762620E+03  0.20673746043E+04  0.19983850791E+04 0.  0.
        4    1    3    3  502    0 -0.78421870233E+03 -0.30441770941E+03  0.82260266295E+03  0.11765822831E+04  0.12699999809E+01 0. -1.
       -4    1    3    3    0  502  0.78421870233E+03  0.30441770941E+03 -0.29298503675E+03  0.89079232122E+03  0.12699999809E+01 0.  1.
</event>
<event>
 5   0  0.8881384E-05  0.2032942E+04  0.7818609E-02  0.8591372E-01
        1   -1    0    0  501    0  0.00000000000E+00  0.00000000000E+00  0.14351304583E+04  0.14351304583E+04  0.50400001928E-02 0.  1.
       -1   -1    0    0    0  501  0.00000000000E+00  0.00000000000E+00 -0.71994385677E+03  0.71994385679E+03  0.50400001928E-02 0. -1.
    10030    2    1    2    0    0  0.00000000000E+00  0.00000000000E+00  0.71518660152E+03  0.21550743151E+04  0.20329420623E+04 0.  0.
        5    1    3    3  502    0 -0.10121515204E+04 -0.77954577504E+02  0.41230445654E+03  0.10956936941E+04  0.46999998093E+01 0. -1.
       -5    1    3    3    0  502  0.10121515204E+04  0.77954577504E+02  0.30288214499E+03  0.10593806210E+04  0.46999998093E+01 0.  1.
</event>
<event>
 5   0  0.1812865E-04  0.1962959E+04  0.7818609E-02  0.8624137E-01
       -2   -1    0    0    0  501  0.00000000000E+00  0.00000000000E+00  0.49503547091E+03  0.49503547092E+03  0.25500000920E-02 0.  1.
        2   -1    0    0  501    0  0.00000000000E+00  0.00000000000E+00 -0.19459262108E+04  0.19459262108E+04  0.25500000920E-02 0. -1.
    10030    2    1    2    0    0  0.00000000000E+00  0.00000000000E+00 -0.14508907398E+04  0.24409616817E+04  0.19629594984E+04 0.  0.
        3    1    3    3  502    0 -0.54381175938E+03  0.49399235106E+03 -0.15347243914E+04  0.17015106935E+04  0.10100000352E+00 0. -1.
       -3    1    3    3    0  502  0.54381175938E+03 -0.49399235106E+03  0.83833651524E+02  0.73945098815E+03  0.10100000352E+00 0.  1.
</event>
<event>
 5   0  0.1812865E-04  0.1960100E+04  0.7818609E-02  0.8625506E-01
        2   -1    0    0  501    0  0.00000000000E+00  0.00000000000E+00  0.12509216396E+04  0.12509216396E+04  0.25500000920E-02 0.  1.
       -2   -1    0    0    0  501  0.00000000000E+00  0.00000000000E+00 -0.76783244946E+03  0.76783244947E+03  0.25500000920E-02 0. -1.
    10030    2    1    2    0    0  0.00000000000E+00  0.00000000000E+00  0.48308919015E+03  0.20187540891E+04  0.19601002287E+04 0.  0.
        3    1    3    3  502    0  0.44252056747E+03 -0.11401994055E+03  0.11344792494E+04  0.12230568985E+04  0.10100000352E+00 0.  1.
       -3    1    3    3    0  502 -0.44252056747E+03  0.11401994055E+03 -0.65139005929E+03  0.79569719053E+03  0.10100000352E+00 0. -1.
</event>
<event>
 5   0  0.6531625E-05  0.1982448E+04  0.7818609E-02  0.8614871E-01
       -3   -1    0    0    0  501  0.00000000000E+00  0.00000000000E+00  0.74066368310E+03  0.74066368999E+03  0.10100000352E+00 0. -1.
        3   -1    0    0  501    0  0.00000000000E+00  0.00000000000E+00 -0.13265463930E+04  0.13265463968E+04  0.10100000352E+00 0.  1.
    10030    2    1    2    0    0  0.00000000000E+00  0.00000000000E+00 -0.58588270989E+03  0.20672100868E+04  0.19824477278E+04 0.  0.
        3    1    3    3  502    0  0.91377714765E+03  0.36598257166E+03 -0.41451449957E+03  0.10680609528E+04  0.10100000352E+00 0. -1.
       -3    1    3    3    0  502 -0.91377714765E+03 -0.36598257166E+03 -0.17136821032E+03  0.99914913403E+03  0.10100000352E+00 0.  1.
</event>
<event>
 5   0  0.8881384E-05  0.1998964E+04  0.7818609E-02  0.8607105E-01
       -1   -1    0    0    0  501  0.00000000000E+00  0.00000000000E+00  0.79120475250E+03  0.79120475251E+03  0.50400001928E-02 0. -1.
        1   -1    0    0  501    0  0.00000000000E+00  0.00000000000E+00 -0.12625864583E+04  0.12625864583E+04  0.50400001928E-02 0.  1.
    10030    2    1    2    0    0  0.00000000000E+00  0.00000000000E+00 -0.47138170580E+03  0.20537912108E+04  0.19989641380E+04 0.  0.
        5    1    3    3  502    0 -0.67309605315E+03 -0.41836554133E+03  0.38999011356E+03  0.88329066655E+03  0.46999998093E+01 0. -1.
       -5    1    3    3    0  502  0.67309605315E+03  0.41836554133E+03 -0.86137181937E+03  0.11705005443E+04  0.46999998093E+01 0.  1.
</event>
<event>
 5   0  0.1812865E-04  0.1998839E+04  0.7818609E-02  0.8607164E-01
       -2   -1    0    0    0  501  0.00000000000E+00  0.00000000000E+00  0.45788821824E+03  0.45788821825E+03  0.25500000920E-02 0.  1.
        2   -1    0    0  501    0  0.00000000000E+00  0.00000000000E+00 -0.21814036991E+04  0.21814036991E+04  0.25500000920E-02 0. -1.
    10030    2    1    2    0    0  0.00000000000E+00  0.00000000000E+00 -0.17235154809E+04  0.26392919174E+04  0.19988387159E+04 0.  0.
        3    1    3    3  502    0  0.64719530098E+03 -0.41132480988E+03 -0.15467804762E+02  0.76700007824E+03  0.10100000352E+00 0.  1.
       -3    1    3    3    0  502 -0.64719530098E+03  0.41132480988E+03 -0.17080476761E+04  0.18722918392E+04  0.10100000352E+00 0. -1.
</event>
<event>
 5   0  0.1782172E-04  0.2054621E+04  0.7818609E-02  0.8581501E-01
        2   -1    0    0  501    0  0.00000000000E+00  0.00000000000E+00  0.13047742199E+04  0.13047742199E+04  0.25500000920E-02 0.  1.
       -2   -1    0    0    0  501  0.00000000000E+00  0.00000000000E+00 -0.80885006052E+03  0.80885006052E+03  0.25500000920E-02 0. -1.
    10030    2    1    2    0    0  0.00000000000E+00  0.00000000000E+00  0.49592415938E+03  0.21136242804E+04  0.20546208475E+04 0.  0.
        2    1    3    3  502    0  0.57201158276E+03  0.20084388895E+03 -0.60521077853E+03  0.85663037828E+03  0.25500000920E-02 0. -1.
       -2    1    3    3    0  502 -0.57201158276E+03 -0.20084388895E+03  0.11011349379E+04  0.12569939021E+04  0.25500000920E-02 0.  1.
</event>
<event>
 5   0  0.1834645E-04  0.1932052E+04  0.7818609E-02  0.8639065E-01
        2   -1    0    0  501    0  0.00000000000E+00  0.00000000000E+00  0.14206241259E+04  0.14206241259E+04  0.25500000920E-02 0. -1.
       -2   -1    0    0    0  501  0.00000000000E+00  0.00000000000E+00 -0.65689849977E+03  0.65689849978E+03  0.25500000920E-02 0.  1.
    10030    2    1    2    0    0  0.00000000000E+00  0.00000000000E+00  0.76372562614E+03  0.20775226257E+04  0.19320516112E+04 0.  0.
        1    1    3    3  502    0  0.31219038400E+02  0.60610915312E+03 -0.42629946104E+03  0.74166984863E+03  0.50400001928E-02 0.  1.
       -1    1    3    3    0  502 -0.31219038400E+02 -0.60610915312E+03  0.11900250872E+04  0.13358527771E+04  0.50400001928E-02 0. -1.
</event>
<event>
 5   0  0.8861350E-05  0.1741539E+04  0.7818609E-02  0.8738021E-01
       -1   -1    0    0    0  501  0.00000000000E+00  0.00000000000E+00  0.56895261859E+03  0.56895261861E+03  0.50400001928E-02 0.  1.
        1   -1    0    0  501    0  0.00000000000E+00  0.00000000000E+00 -0.13326934974E+04  0.13326934974E+04  0.50400001928E-02 0. -1.
    10030    2    1    2    0    0  0.00000000000E+00  0.00000000000E+00 -0.76374087879E+03  0.19016461160E+04  0.17415389231E+04 0.  0.
        1    1    3    3  502    0  0.22352450469E+03 -0.78681189049E+02  0.53306726243E+03  0.58336492867E+03  0.50400001928E-02 0.  1.
       -1    1    3    3    0  502 -0.22352450469E+03  0.78681189049E+02 -0.12968081412E+04  0.13182811873E+04  0.50400001928E-02 0. -1.
</event>
<event>
 5   0  0.1893687E-04  0.1998513E+04  0.7818609E-02  0.8607316E-01
        2   -1    0    0  501    0  0.00000000000E+00  0.00000000000E+00  0.64183934113E+03  0.64183934113E+03  0.25500000920E-02 0.  1.
       -2   -1    0    0    0  501  0.00000000000E+00  0.00000000000E+00 -0.15557069796E+04  0.15557069796E+04  0.25500000920E-02 0. -1.
    10030    2    1    2    0    0  0.00000000000E+00  0.00000000000E+00 -0.91386763845E+03  0.21975463207E+04  0.19985133903E+04 0.  0.
        4    1    3    3  502    0  0.78986369366E+03 -0.53540448958E+03 -0.78306892566E+03  0.12343991159E+04  0.12699999809E+01 0. -1.
       -4    1    3    3    0  502 -0.78986369366E+03  0.53540448958E+03 -0.13079871278E+03  0.96314720484E+03  0.12699999809E+01 0.  1.
</event>
<event>
 5   0  0.1893687E-04  0.2003493E+04  0.7818609E-02  0.8604989E-01
       -2   -1    0    0    0  501  0.00000000000E+00  0.00000000000E+00  0.62404655794E+03  0.62404655794E+03  0.25500000920E-02 0.  1.
        2   -1    0    0  501    0  0.00000000000E+00  0.00000000000E+00 -0.16080472461E+04  0.16080472461E+04  0.25500000920E-02 0. -1.
    10030    2    1    2    0    0  0.00000000000E+00  0.00000000000E+00 -0.98400068813E+03  0.22320938040E+04  0.20034932981E+04 0.  0.
        4    1    3    3  502    0  0.88308910736E+03 -0.45600787938E+03 -0.63161981412E+03  0.11775970279E+04  0.12699999809E+01 0. -1.
       -4    1    3    3    0  502 -0.88308910736E+03  0.45600787938E+03 -0.35238087401E+03  0.10544967761E+04  0.12699999809E+01 0.  1.
</event>
<event>
 5   0  0.1807498E-04  0.2004261E+04  0.7818609E-02  0.8604631E-01
       -2   -1    0    0    0  501  0.00000000000E+00  0.00000000000E+00  0.97348519814E+03  0.97348519814E+03  0.25500000920E-02 0.  1.
        2   -1    0    0  501    0  0.00000000000E+00  0.00000000000E+00 -0.10316190134E+04  0.10316190134E+04  0.25500000920E-02 0. -1.
    10030    2    1    2    0    0  0.00000000000E+00  0.00000000000E+00 -0.58133815217E+02  0.20051042115E+04  0.20042613000E+04 0.  0.
        5    1    3    3  502    0 -0.87135970957E+03 -0.49353816430E+03 -0.66446863236E+02  0.10036358596E+04  0.46999998093E+01 0. -1.
       -5    1    3    3    0  502  0.87135970957E+03  0.49353816430E+03  0.83130480188E+01  0.10014683519E+04  0.46999998093E+01 0.  1.
</event>
<event>
 5   0  0.8958919E-05  0.1986990E+04  0.7818609E-02  0.8612728E-01
       -1   -1    0    0    0  501  0.00000000000E+00  0.00000000000E+00  0.69517152445E+03  0.69517152447E+03  0.50400001928E-02 0. -1.
        1   -1    0    0  501    0  0.00000000000E+00  0.00000000000E+00 -0.14198396214E+04  0.14198396214E+04  0.50400001928E-02 0.  1.
    10030    2    1    2    0    0  0.00000000000E+00  0.00000000000E+00 -0.72466809695E+03  0.21150111459E+04  0.19869897575E+04 0.  0.
        4    1    3    3  502    0 -0.60999953625E+03  0.59587378451E+03  0.18028034714E+03  0.87158913357E+03  0.12699999809E+01 0. -1.
       -4    1    3    3    0  502  0.60999953625E+03 -0.59587378451E+03 -0.90494844409E+03  0.12434220123E+04  0.12699999809E+01 0.  1.
</event>
<event>
 5   0  0.8577422E-05  0.2049909E+04  0.7818609E-02  0.8583635E-01
       -1   -1    0    0    0  501  0.00000000000E+00  0.00000000000E+00  0.10081521185E+04  0.10081521185E+04  0.50400001928E-02 0. -1.
        1   -1    0    0  501    0  0.00000000000E+00  0.00000000000E+00 -0.10420372870E+04  0.10420372870E+04  0.50400001928E-02 0.  1.
    10030    2    1    2    0    0  0.00000000000E+00  0.00000000000E+00 -0.33885168497E+02  0.20501894055E+04  0.20499093623E+04 0.  0.
        2    1    3    3  502    0 -0.55418814342E+03  0.42524041739E+03 -0.76709717392E+03  0.10374931253E+04  0.25500000920E-02 0.  1.
       -2    1    3    3    0  502  0.55418814342E+03 -0.42524041739E+03  0.73321200542E+03  0.10126962801E+04  0.25500000920E-02 0. -1.
</event>
<event>
 5   0  0.1812865E-04  0.2018078E+04  0.7818609E-02  0.8598215E-01
       -2   -1    0    0    0  501  0.00000000000E+00  0.00000000000E+00  0.10617851566E+04  0.10617851566E+04  0.25500000920E-02 0.  1.
        2   -1    0    0  501    0  0.00000000000E+00  0.00000000000E+00 -0.95891310666E+03  0.95891310667E+03  0.25500000920E-02 0. -1.
    10030    2    1    2    0    0  0.00000000000E+00  0.00000000000E+00  0.10287204992E+03  0.20206982633E+04  0.20180779996E+04 0.  0.
        3    1    3    3  502    0  0.35415140778E+03 -0.38473373888E+03  0.91552603880E+03  0.10543392279E+04  0.10100000352E+00 0.  1.
       -3    1    3    3    0  502 -0.35415140778E+03  0.38473373888E+03 -0.81265398888E+03  0.96635903540E+03  0.10100000352E+00 0. -1.
</event>
<event>
 5   0  0.1893687E-04  0.1983908E+04  0.7818609E-02  0.8614181E-01
       -2   -1    0    0    0  501  0.00000000000E+00  0.00000000000E+00  0.71475797859E+03  0.71475797859E+03  0.25500000920E-02 0.  1.
        2   -1    0    0  501    0  0.00000000000E+00  0.00000000000E+00 -0.13766521844E+04  0.13766521844E+04  0.25500000920E-02 0. -1.
    10030    2    1    2    0    0  0.00000000000E+00  0.00000000000E+00 -0.66189420580E+03  0.20914101630E+04  0.19839083976E+04 0.  0.
        4    1    3    3  502    0  0.94563816097E+03 -0.28832453766E+03 -0.24524651460E+03  0.10185823660E+04  0.12699999809E+01 0.  1.
       -4    1    3    3    0  502 -0.94563816097E+03  0.28832453766E+03 -0.41664769120E+03  0.10728277970E+04  0.12699999809E+01 0. -1.
</event>
<event>
 5   0  0.1893687E-04  0.1952677E+04  0.7818609E-02  0.8629071E-01
        2   -1    0    0  501    0  0.00000000000E+00  0.00000000000E+00  0.18824522787E+04  0.18824522787E+04  0.25500000920E-02 0.  1.
       -2   -1    0    0    0  501  0.00000000000E+00  0.00000000000E+00 -0.50638010737E+03  0.50638010737E+03  0.25500000920E-02 0. -1.
    10030    2    1    2    0    0  0.00000000000E+00  0.00000000000E+00  0.13760721713E+04  0.23888323860E+04  0.19526765088E+04 0.  0.
        4    1    3    3  502    0 -0.54728936515E+03  0.55956387753E+03 -0.25927456707E+02  0.78314189529E+03  0.12699999809E+01 0. -1.
       -4    1    3    3    0  502  0.54728936515E+03 -0.55956387753E+03  0.14019996280E+04  0.16056904907E+04  0.12699999809E+01 0.  1.
</event>
<event>
 5   0  0.8765057E-05  0.1984969E+04  0.7818609E-02  0.8613680E-01
       -1   -1    0    0    0  501  0.00000000000E+00  0.00000000000E+00  0.74269705048E+03  0.74269705049E+03  0.50400001928E-02 0.  1.
        1   -1    0    0  501    0  0.00000000000E+00  0.00000000000E+00 -0.13262820630E+04  0.13262820630E+04  0.50400001928E-02 0. -1.
    10030    2    1    2    0    0  0.00000000000E+00  0.00000000000E+00 -0.58358501252E+03  0.20689791135E+04  0.19849692958E+04 0.  0.
        3    1    3    3  502    0  0.50157576866E+03  0.88513477852E+02  0.59608857908E+03  0.78405005694E+03  0.10100000352E+00 0.  1.
       -3    1    3    3    0  502 -0.50157576866E+03 -0.88513477852E+02 -0.11796735916E+04  0.12849290566E+04  0.10100000352E+00 0. -1.
</event>
<event>
 5   0  0.8861350E-05  0.1992136E+04  0.7818609E-02  0.8610306E-01
        1   -1    0    0  501    0  0.00000000000E+00  0.00000000000E+00  0.96275067766E+03  0.96275067768E+03  0.50400001928E-02 0.  1.
       -1   -1    0    0    0  501  0.00000000000E+00  0.00000000000E+00 -0.10305379753E+04  0.10305379753E+04  0.50400001928E-02 0. -1.
    10030    2    1    2    0    0  0.00000000000E+00  0.00000000000E+00 -0.67787297650E+02  0.19932886530E+04  0.19921356722E+04 0.  0.
        1    1    3    3  502    0  0.85406249735E+02 -0.98628030661E+03 -0.14399397996E+03  0.10003885930E+04  0.50400001928E-02 0. -1.
       -1    1    3    3    0  502 -0.85406249735E+02  0.98628030661E+03  0.76206682313E+02  0.99290006001E+03  0.50400001928E-02 0.  1.
</event>
<event>
 5   0  0.8577422E-05  0.2016038E+04  0.7818609E-02  0.8599159E-01
        1   -1    0    0  501    0  0.00000000000E+00  0.00000000000E+00  0.20576453889E+04  0.20576453889E+04  0.50400001928E-02 0. -1.
       -1   -1    0    0    0  501  0.00000000000E+00  0.00000000000E+00 -0.49381796985E+03  0.49381796988E+03  0.50400001928E-02 0.  1.
    10030    2    1    2    0    0  0.00000000000E+00  0.00000000000E+00  0.15638274191E+04  0.25514633588E+04  0.20160379646E+04 0.  0.
        2    1    3    3  502    0 -0.15015980769E+03 -0.97929078570E+03  0.10171346861E+04  0.14199018912E+04  0.25500000920E-02 0. -1.
       -2    1    3    3    0  502  0.15015980769E+03  0.97929078570E+03  0.54669273295E+03  0.11315614676E+04  0.25500000920E-02 0.  1.
</event>
<event>
 5   0  0.1834645E-04  0.2322403E+04  0.7818609E-02  0.8469140E-01
        2   -1    0    0  501    0  0.00000000000E+00  0.00000000000E+00  0.20666748592E+04  0.20666748592E+04  0.25500000920E-02 0. -1.
       -2   -1    0    0    0  501  0.00000000000E+00  0.00000000000E+00 -0.65244365645E+03  0.65244365645E+03  0.25500000920E-02 0.  1.
    10030    2    1    2    0    0  0.00000000000E+00  0.00000000000E+00  0.14142312028E+04  0.27191185157E+04  0.23224029813E+04 0.  0.
        1    1    3    3  502    0 -0.25746552447E+03  0.33790537933E+03  0.19724262751E+04  0.20176555584E+04  0.50400001928E-02 0. -1.
       -1    1    3    3    0  502  0.25746552447E+03 -0.33790537933E+03 -0.55819507230E+03  0.70146295728E+03  0.50400001928E-02 0.  1.
</event>
<event>
 5   0  0.1893687E-04  0.2019530E+04  0.7818609E-02  0.8597544E-01
       -2   -1    0    0    0  501  0.00000000000E+00  0.00000000000E+00  0.94992350825E+03  0.94992350825E+03  0.25500000920E-02 0. -1.
        2   -1    0    0  501    0  0.00000000000E+00  0.00000000000E+00 -0.10733760154E+04  0.10733760154E+04  0.25500000920E-02 0.  1.
    10030    2    1    2    0    0  0.00000000000E+00  0.00000000000E+00 -0.12345250710E+03  0.20232995236E+04  0.20195297573E+04 0.  0.
        4    1    3    3  502    0 -0.11999192224E+03 -0.55860063284E+03 -0.89586118323E+03  0.10625448701E+04  0.12699999809E+01 0.  1.
       -4    1    3    3    0  502  0.11999192224E+03  0.55860063284E+03  0.77240867613E+03  0.96075465353E+03  0.12699999809E+01 0. -1.
</event>
<event>
 5   0  0.8881384E-05  0.2026368E+04  0.7818609E-02  0.8594391E-01
        1   -1    0    0  501    0  0.00000000000E+00  0.00000000000E+00  0.85508883696E+03  0.85508883697E+03  0.50400001928E-02 0. -1.
       -1   -1    0    0    0  501  0.00000000000E+00  0.00000000000E+00 -0.12005093767E+04  0.12005093768E+04  0.50400001928E-02 0.  1.
    10030    2    1    2    0    0  0.00000000000E+00  0.00000000000E+00 -0.34542053979E+03  0.20555982137E+04  0.20263683443E+04 0.  0.
        5    1    3    3  502    0 -0.58830994895E+03 -0.72672685868E+03  0.22314883359E+03  0.96127936371E+03  0.46999998093E+01 0. -1.
       -5    1    3    3    0  502  0.58830994895E+03  0.72672685868E+03 -0.56856937338E+03  0.10943188500E+04  0.46999998093E+01 0.  1.
</event>
<event>
 5   0  0.1834645E-04  0.2296901E+04  0.7818609E-02  0.8479144E-01
       -2   -1    0    0    0  501  0.00000000000E+00  0.00000000000E+00  0.72863597421E+03  0.72863597421E+03  0.25500000920E-02 0.  1.
        2   -1    0    0  501    0  0.00000000000E+00  0.00000000000E+00 -0.18101478849E+04  0.18101478849E+04  0.25500000920E-02 0. -1.
    10030    2    1    2    0    0  0.00000000000E+00  0.00000000000E+00 -0.10815119107E+04  0.25387838592E+04  0.22969012757E+04 0.  0.
        1    1    3    3  502    0  0.11175610959E+04 -0.20332371483E+03 -0.72786192064E+03  0.13490983328E+04  0.50400001928E-02 0.  1.
       -1    1    3    3    0  502 -0.11175610959E+04  0.20332371483E+03 -0.35364999009E+03  0.11896855263E+04  0.50400001928E-02 0. -1.
</event>
<event>
 5   0  0.8765057E-05  0.1943153E+04  0.7818609E-02  0.8633670E-01
        1   -1    0    0  501    0  0.00000000000E+00  0.00000000000E+00  0.18221846272E+04  0.18221846273E+04  0.50400001928E-02 0. -1.
       -1   -1    0    0    0  501  0.00000000000E+00  0.00000000000E+00 -0.51803804449E+03  0.51803804452E+03  0.50400001928E-02 0.  1.
    10030    2    1    2    0    0  0.00000000000E+00  0.00000000000E+00  0.13041465828E+04  0.23402226718E+04  0.19431530676E+04 0.  0.
        3    1    3    3  502    0  0.68072203159E+03  0.41631450099E+03  0.13196538486E+04  0.15421370037E+04  0.10100000352E+00 0. -1.
       -3    1    3    3    0  502 -0.68072203159E+03 -0.41631450099E+03 -0.15507265826E+02  0.79808566803E+03  0.10100000352E+00 0.  1.
</event>
<event>
 5   0  0.6531625E-05  0.1962633E+04  0.7818609E-02  0.8624293E-01
        3   -1    0    0  501    0  0.00000000000E+00  0.00000000000E+00  0.87603184483E+03  0.87603185065E+03  0.10100000352E+00 0.  1.
       -3   -1    0    0    0  501  0.00000000000E+00  0.00000000000E+00 -0.10992545050E+04  0.10992545096E+04  0.10100000352E+00 0. -1.
    10030    2    1    2    0    0  0.00000000000E+00  0.00000000000E+00 -0.22322266016E+03  0.19752863603E+04  0.19626328870E+04 0.  0.
        2    1    3    3  502    0  0.91281816543E+03 -0.30588505534E+03 -0.30304619015E+03  0.10092768023E+04  0.25500000920E-02 0. -1.
       -2    1    3    3    0  502 -0.91281816543E+03  0.30588505534E+03  0.79823529987E+02  0.96600955801E+03  0.25500000920E-02 0.  1.
</event>
<event>
 5   0  0.8881384E-05  0.1978732E+04  0.7818609E-02  0.8616629E-01
        1   -1    0    0  501    0  0.00000000000E+00  0.00000000000E+00  0.97269382166E+03  0.97269382167E+03  0.50400001928E-02 0. -1.
       -1   -1    0    0    0  501  0.00000000000E+00  0.00000000000E+00 -0.10063242570E+04  0.10063242570E+04  0.50400001928E-02 0.  1.
    10030    2    1    2    0    0  0.00000000000E+00  0.00000000000E+00 -0.33630435320E+02  0.19790180787E+04  0.19787323087E+04 0.  0.
        5    1    3    3  502    0  0.53587015592E+03  0.12061192615E+03  0.80617617407E+03  0.97552353861E+03  0.46999998093E+01 0. -1.
       -5    1    3    3    0  502 -0.53587015592E+03 -0.12061192615E+03 -0.83980660939E+03  0.10034945401E+04  0.46999998093E+01 0.  1.
</event>
<event>
 5   0  0.1807498E-04  0.2008704E+04  0.7818609E-02  0.8602562E-01
       -2   -1    0    0    0  501  0.00000000000E+00  0.00000000000E+00  0.51500912855E+03  0.51500912856E+03  0.25500000920E-02 0.  1.
        2   -1    0    0  501    0  0.00000000000E+00  0.00000000000E+00 -0.19586497843E+04  0.19586497843E+04  0.25500000920E-02 0. -1.
    10030    2    1    2    0    0  0.00000000000E+00  0.00000000000E+00 -0.14436406557E+04  0.24736589128E+04  0.20087035805E+04 0.  0.
        5    1    3    3  502    0  0.45714351867E+03  0.13189913928E+03  0.36740308817E+03  0.60115280820E+03  0.46999998093E+01 0.  1.
       -5    1    3    3    0  502 -0.45714351867E+03 -0.13189913928E+03 -0.18110437439E+04  0.18725061046E+04  0.46999998093E+01 0. -1.
</event>
<event>
 5   0  0.1807498E-04  0.2083356E+04  0.7818609E-02  0.8568611E-01
        2   -1    0    0  501    0  0.00000000000E+00  0.00000000000E+00  0.74410751178E+03  0.74410751179E+03  0.25500000920E-02 0. -1.
       -2   -1    0    0    0  501  0.00000000000E+00  0.00000000000E+00 -0.14582482793E+04  0.14582482793E+04  0.25500000920E-02 0.  1.
    10030    2    1    2    0    0  0.00000000000E+00  0.00000000000E+00 -0.71414076750E+03  0.22023557911E+04  0.20833564253E+04 0.  0.
        5    1    3    3  502    0 -0.71007813034E+03  0.19471047052E+03 -0.11360088287E+04  0.13537582012E+04  0.46999998093E+01 0.  1.
       -5    1    3    3    0  502  0.71007813034E+03 -0.19471047052E+03  0.42186806117E+03  0.84859758988E+03  0.46999998093E+01 0. -1.
</event>
<event>
 5   0  0.1782172E-04  0.1991874E+04  0.7818609E-02  0.8610429E-01
       -2   -1    0    0    0  501  0.00000000000E+00  0.00000000000E+00  0.40729241865E+03  0.40729241866E+03  0.25500000920E-02 0. -1.
        2   -1    0    0  501    0  0.00000000000E+00  0.00000000000E+00 -0.24353279703E+04  0.24353279703E+04  0.25500000920E-02 0.  1.
    10030    2    1    2    0    0  0.00000000000E+00  0.00000000000E+00 -0.20280355516E+04  0.28426203890E+04  0.19918741117E+04 0.  0.
        2    1    3    3  502    0  0.15054536433E+03 -0.81230763543E+02 -0.24142055675E+04  0.24202584295E+04  0.25500000920E-02 0.  1.
       -2    1    3    3    0  502 -0.15054536433E+03  0.81230763543E+02  0.38617001582E+03  0.42236195945E+03  0.25500000920E-02 0. -1.
</event>
<event>
 5   0  0.8861350E-05  0.1998037E+04  0.7818609E-02  0.8607539E-01
       -1   -1    0    0    0  501  0.00000000000E+00  0.00000000000E+00  0.91245478137E+03  0.91245478138E+03  0.50400001928E-02 0. -1.
        1   -1    0    0  501    0  0.00000000000E+00  0.00000000000E+00 -0.10937947267E+04  0.10937947267E+04  0.50400001928E-02 0.  1.
    10030    2    1    2    0    0  0.00000000000E+00  0.00000000000E+00 -0.18133994533E+03  0.20062495081E+04  0.19980372651E+04 0.  0.
        1    1    3    3  502    0  0.73772158314E+03 -0.34847693948E+03 -0.66955399128E+03  0.10554486529E+04  0.50400001928E-02 0.  1.
       -1    1    3    3    0  502 -0.73772158314E+03  0.34847693948E+03  0.48821404596E+03  0.95080085521E+03  0.50400001928E-02 0. -1.
</event>
<event>
 5   0  0.1807498E-04  0.1743704E+04  0.7818609E-02  0.8736824E-01
        2   -1    0    0  501    0  0.00000000000E+00  0.00000000000E+00  0.69578368379E+03  0.69578368379E+03  0.25500000920E-02 0. -1.
       -2   -1    0    0    0  501  0.00000000000E+00  0.00000000000E+00 -0.10924743246E+04  0.10924743246E+04  0.25500000920E-02 0.  1.
    10030    2    1    2    0    0  0.00000000000E+00  0.00000000000E+00 -0.39669064078E+03  0.17882580084E+04  0.17437038854E+04 0.  0.
        5    1    3    3  502    0 -0.76052936923E+03 -0.37811881905E+03  0.34694353661E+01  0.84936028266E+03  0.46999998093E+01 0. -1.
       -5    1    3    3    0  502  0.76052936923E+03  0.37811881905E+03 -0.40016007614E+03  0.93889772570E+03  0.46999998093E+01 0.  1.
</event>
<event>
 5   0  0.8881384E-05  0.2006370E+04  0.7818609E-02  0.8603648E-01
        1   -1    0    0  501    0  0.00000000000E+00  0.00000000000E+00  0.72687388147E+03  0.72687388149E+03  0.50400001928E-02 0. -1.
       -1   -1    0    0    0  501  0.00000000000E+00  0.00000000000E+00 -0.13845325623E+04  0.13845325623E+04  0.50400001928E-02 0.  1.
    10030    2    1    2    0    0  0.00000000000E+00  0.00000000000E+00 -0.65765868086E+03  0.21114064438E+04  0.20063704121E+04 0.  0.
        5    1    3    3  502    0 -0.84203396317E+03  0.51781091584E+03 -0.14897537256E+03  0.99968249526E+03  0.46999998093E+01 0. -1.
       -5    1    3    3    0  502  0.84203396317E+03 -0.51781091584E+03 -0.50868330830E+03  0.11117239486E+04  0.46999998093E+01 0.  1.
</event>
<event>
 5   0  0.1812865E-04  0.2002473E+04  0.7818609E-02  0.8605465E-01
       -2   -1    0    0    0  501  0.00000000000E+00  0.00000000000E+00  0.51934062823E+03  0.51934062823E+03  0.25500000920E-02 0.  1.
        2   -1    0    0  501    0  0.00000000000E+00  0.00000000000E+00 -0.19302834081E+04  0.19302834081E+04  0.25500000920E-02 0. -1.
    10030    2    1    2    0    0  0.00000000000E+00  0.00000000000E+00 -0.14109427799E+04  0.24496240363E+04  0.20024730688E+04 0.  0.
        3    1    3    3  502    0  0.82766624503E+03  0.56126686710E+03 -0.76568305400E+03  0.12594929371E+04  0.10100000352E+00 0. -1.
       -3    1    3    3    0  502 -0.82766624503E+03 -0.56126686710E+03 -0.64525972587E+03  0.11901310992E+04  0.10100000352E+00 0.  1.
</event>
<event>
 5   0  0.1807498E-04  0.2003595E+04  0.7818609E-02  0.8604942E-01
       -2   -1    0    0    0  501  0.00000000000E+00  0.00000000000E+00  0.57693335295E+03  0.57693335296E+03  0.25500000920E-02 0. -1.
        2   -1    0    0  501    0  0.00000000000E+00  0.00000000000E+00 -0.17395389386E+04  0.17395389386E+04  0.25500000920E-02 0.  1.
    10030    2    1    2    0    0  0.00000000000E+00  0.00000000000E+00 -0.11626055856E+04  0.23164722915E+04  0.20035948018E+04 0.  0.
        5    1    3    3  502    0 -0.57961788694E+03  0.26547345311E+02 -0.15254771990E+04  0.16321042954E+04  0.46999998093E+01 0.  1.
       -5    1    3    3    0  502  0.57961788694E+03 -0.26547345311E+02  0.36287161334E+03  0.68436799616E+03  0.46999998093E+01 0. -1.
</event>
<event>
 5   0  0.8958919E-05  0.1973469E+04  0.7818609E-02  0.8619126E-01
        1   -1    0    0  501    0  0.00000000000E+00  0.00000000000E+00  0.10029809784E+04  0.10029809784E+04  0.50400001928E-02 0. -1.
       -1   -1    0    0    0  501  0.00000000000E+00  0.00000000000E+00 -0.97075072978E+03  0.97075072980E+03  0.50400001928E-02 0.  1.
    10030    2    1    2    0    0  0.00000000000E+00  0.00000000000E+00  0.32230248569E+02  0.19737317082E+04  0.19734685371E+04 0.  0.
        4    1    3    3  502    0  0.81238862920E+03 -0.97399565782E+02 -0.53548443773E+03  0.97785845408E+03  0.12699999809E+01 0.  1.
       -4    1    3    3    0  502 -0.81238862920E+03  0.97399565782E+02  0.56771468630E+03  0.99587325409E+03  0.12699999809E+01 0. -1.
</event>
<event>
 5   0  0.1812865E-04  0.2073218E+04  0.7818609E-02  0.8573134E-01
        2   -1    0    0  501    0  0.00000000000E+00  0.00000000000E+00  0.78903823078E+03  0.78903823079E+03  0.25500000920E-02 0. -1.
       -2   -1    0    0    0  501  0.00000000000E+00  0.00000000000E+00 -0.13618579598E+04  0.13618579598E+04  0.25500000920E-02 0.  1.
    10030    2    1    2    0    0  0.00000000000E+00  0.00000000000E+00 -0.57281972904E+03  0.21508961906E+04  0.20732177842E+04 0.  0.
        3    1    3    3  502    0  0.10308158757E+04  0.10631664926E+03 -0.25948792161E+03  0.10682783304E+04  0.10100000352E+00 0.  1.
       -3    1    3    3    0  502 -0.10308158757E+04 -0.10631664926E+03 -0.31333180743E+03  0.10826178602E+04  0.10100000352E+00 0. -1.
</event>
<event>
 5   0  0.1782172E-04  0.1996724E+04  0.7818609E-02  0.8608154E-01
        2   -1    0    0  501    0  0.00000000000E+00  0.00000000000E+00  0.13117238862E+04  0.13117238862E+04  0.25500000920E-02 0.  1.
       -2   -1    0    0    0  501  0.00000000000E+00  0.00000000000E+00 -0.75986025387E+03  0.75986025387E+03  0.25500000920E-02 0. -1.
    10030    2    1    2    0    0  0.00000000000E+00  0.00000000000E+00  0.55186363232E+03  0.20715841401E+04  0.19967241624E+04 0.  0.
        2    1    3    3  502    0  0.65515435460E+03 -0.69403629290E+03 -0.27989846371E+02  0.95482827552E+03  0.25500000920E-02 0. -1.
       -2    1    3    3    0  502 -0.65515435460E+03  0.69403629290E+03  0.57985347869E+03  0.11167558645E+04  0.25500000920E-02 0.  1.
</event>
<event>
 5   0  0.1893687E-04  0.1935437E+04  0.7818609E-02  0.8637416E-01
        2   -1    0    0  501    0  0.00000000000E+00  0.00000000000E+00  0.14855126739E+04  0.14855126739E+04  0.25500000920E-02 0.  1.
       -2   -1    0    0    0  501  0.00000000000E+00  0.00000000000E+00 -0.63040769775E+03  0.63040769775E+03  0.25500000920E-02 0. -1.
    10030    2    1    2    0    0  0.00000000000E+00  0.00000000000E+00  0.85510497618E+03  0.21159203717E+04  0.19354365138E+04 0.  0.
        4    1    3    3  502    0 -0.61186310845E+03  0.32989360281E+03  0.11635888015E+04  0.13554138720E+04  0.12699999809E+01 0.  1.
       -4    1    3    3    0  502  0.61186310845E+03 -0.32989360281E+03 -0.30848382529E+03  0.76050649966E+03  0.12699999809E+01 0. -1.
</event>
<event>
 5   0  0.1807498E-04  0.2004839E+04  0.7818609E-02  0.8604361E-01
       -2   -1    0    0    0  501  0.00000000000E+00  0.00000000000E+00  0.76724500622E+03  0.76724500622E+03  0.25500000920E-02 0.  1.
        2   -1    0    0  501    0  0.00000000000E+00  0.00000000000E+00 -0.13096796842E+04  0.13096796842E+04  0.25500000920E-02 0. -1.
    10030    2    1    2    0    0  0.00000000000E+00  0.00000000000E+00 -0.54243467797E+03  0.20769246904E+04  0.20048393426E+04 0.  0.
        5    1    3    3  502    0 -0.49183885036E+03  0.51466619141E+03  0.45987410264E+03  0.84752169505E+03  0.46999998093E+01 0.  1.
       -5    1    3    3    0  502  0.49183885036E+03 -0.51466619141E+03 -0.10023087806E+04  0.12294029954E+04  0.46999998093E+01 0. -1.
</event>
<event>
 5   0  0.1834645E-04  0.1678307E+04  0.7818609E-02  0.8773834E-01
       -2   -1    0    0    0  501  0.00000000000E+00  0.00000000000E+00  0.68732951808E+03  0.68732951809E+03  0.25500000920E-02 0. -1.
        2   -1    0    0  501    0  0.00000000000E+00  0.00000000000E+00 -0.10245136043E+04  0.10245136043E+04  0.25500000920E-02 0.  1.
    10030    2    1    2    0    0  0.00000000000E+00  0.00000000000E+00 -0.33718408618E+03  0.17118431224E+04  0.16783068157E+04 0.  0.
        1    1    3    3  502    0  0.15514379739E+03 -0.82283704396E+03 -0.11227975754E+03  0.84482965311E+03  0.50400001928E-02 0.  1.
       -1    1    3    3    0  502 -0.15514379739E+03  0.82283704396E+03 -0.22490432864E+03  0.86701346925E+03  0.50400001928E-02 0. -1.
</event>
<event>
 5   0  0.1834645E-04  0.2001931E+04  0.7818609E-02  0.8605718E-01
        2   -1    0    0  501    0  0.00000000000E+00  0.00000000000E+00  0.12516656350E+04  0.12516656350E+04  0.25500000920E-02 0. -1.
       -2   -1    0    0    0  501  0.00000000000E+00  0.00000000000E+00 -0.80047903252E+03  0.80047903253E+03  0.25500000920E-02 0.  1.
    10030    2    1    2    0    0  0.00000000000E+00  0.00000000000E+00  0.45118660251E+03  0.20521446676E+04  0.20019311642E+04 0.  0.
        1    1    3    3  502    0 -0.19165466708E+03  0.60835446296E+03 -0.56518690580E+03  0.85221059752E+03  0.50400001928E-02 0.  1.
       -1    1    3    3    0  502  0.19165466708E+03 -0.60835446296E+03  0.10163735083E+04  0.11999340700E+04  0.50400001928E-02 0. -1.
</event>
<event>
 5   0  0.8861350E-05  0.2053072E+04  0.7818609E-02  0.8582202E-01
        1   -1    0    0  501    0  0.00000000000E+00  0.00000000000E+00  0.18837502646E+04  0.18837502646E+04  0.50400001928E-02 0.  1.
       -1   -1    0    0    0  501  0.00000000000E+00  0.00000000000E+00 -0.55940343634E+03  0.55940343637E+03  0.50400001928E-02 0. -1.
    10030    2    1    2    0    0  0.00000000000E+00  0.00000000000E+00  0.13243468283E+04  0.24431537010E+04  0.20530722065E+04 0.  0.
        1    1    3    3  502    0  0.36497222917E+03  0.88606502232E+03  0.22419493230E+03  0.98416427467E+03  0.50400001928E-02 0. -1.
       -1    1    3    3    0  502 -0.36497222917E+03 -0.88606502232E+03  0.11001518959E+04  0.14589894263E+04  0.50400001928E-02 0.  1.
</event>
<event>
 5   0  0.8577422E-05  0.1975225E+04  0.7818609E-02  0.8618292E-01
       -1   -1    0    0    0  501  0.00000000000E+00  0.00000000000E+00  0.81951409498E+03  0.81951409500E+03  0.50400001928E-02 0.  1.
        1   -1    0    0  501    0  0.00000000000E+00  0.00000000000E+00 -0.11901915898E+04  0.11901915899E+04  0.50400001928E-02 0. -1.
    10030    2    1    2    0    0  0.00000000000E+00  0.00000000000E+00 -0.37067749486E+03  0.20097056849E+04  0.19752253377E+04 0.  0.
        2    1    3    3  502    0 -0.23469415401E+03  0.70429096194E+03  0.47739308958E+03  0.88261614929E+03  0.25500000920E-02 0.  1.
       -2    1    3    3    0  502  0.23469415401E+03 -0.70429096194E+03 -0.84807058444E+03  0.11270895356E+04  0.25500000920E-02 0. -1.
</event>
<event>
 5   0  0.1834645E-04  0.2013073E+04  0.7818609E-02  0.8600533E-01
       -2   -1    0    0    0  501  0.00000000000E+00  0.00000000000E+00  0.96022285535E+03  0.96022285535E+03  0.25500000920E-02 0.  1.
        2   -1    0    0  501    0  0.00000000000E+00  0.00000000000E+00 -0.10550840615E+04  0.10550840615E+04  0.25500000920E-02 0. -1.
    10030    2    1    2    0    0  0.00000000000E+00  0.00000000000E+00 -0.94861206105E+02  0.20153069168E+04  0.20130731036E+04 0.  0.
        1    1    3    3  502    0 -0.49970741747E+03 -0.54638161866E+03 -0.73000494141E+03  0.10397824728E+04  0.50400001928E-02 0. -1.
       -1    1    3    3    0  502  0.49970741747E+03  0.54638161866E+03  0.63514373531E+03  0.97552444398E+03  0.50400001928E-02 0.  1.
</event>
<event>
 5   0  0.8881384E-05  0.1994859E+04  0.7818609E-02  0.8609028E-01
       -1   -1    0    0    0  501  0.00000000000E+00  0.00000000000E+00  0.46323509244E+03  0.46323509246E+03  0.50400001928E-02 0. -1.
        1   -1    0    0  501    0  0.00000000000E+00  0.00000000000E+00 -0.21476471451E+04  0.21476471451E+04  0.50400001928E-02 0.  1.
    10030    2    1    2    0    0  0.00000000000E+00  0.00000000000E+00 -0.16844120527E+04  0.26108822376E+04  0.19948589161E+04 0.  0.
        5    1    3    3  502    0 -0.55732330362E+03  0.61492535775E+03 -0.15663208744E+04  0.17726041950E+04  0.46999998093E+01 0.  1.
       -5    1    3    3    0  502  0.55732330362E+03 -0.61492535775E+03 -0.11809117826E+03  0.83827804262E+03  0.46999998093E+01 0. -1.
</event>
<event>
 5   0  0.1807498E-04  0.2300792E+04  0.7818609E-02  0.8477609E-01
       -2   -1    0    0    0  501  0.00000000000E+00  0.00000000000E+00  0.53772361991E+03  0.53772361991E+03  0.25500000920E-02 0. -1.
        2   -1    0    0  501    0  0.00000000000E+00  0.00000000000E+00 -0.24611351900E+04  0.24611351900E+04  0.25500000920E-02 0.  1.
    10030    2    1    2    0    0  0.00000000000E+00  0.00000000000E+00 -0.19234115701E+04  0.29988588100E+04  0.23007916233E+04 0.  0.
        5    1    3    3  502    0 -0.71410698951E+02  0.11353801463E+04 -0.11844347088E+04  0.16422835425E+04  0.46999998093E+01 0.  1.
       -5    1    3    3    0  502  0.71410698951E+02 -0.11353801463E+04 -0.73897686134E+03  0.13565752674E+04  0.46999998093E+01 0. -1.
</event>
<event>
 5   0  0.8765057E-05  0.2034156E+04  0.7818609E-02  0.8590816E-01
       -1   -1    0    0    0  501  0.00000000000E+00  0.00000000000E+00  0.79873054918E+03  0.79873054920E+03  0.50400001928E-02 0. -1.
        1   -1    0    0  501    0  0.00000000000E+00  0.00000000000E+00 -0.12951144406E+04  0.12951144406E+04  0.50400001928E-02 0.  1.
    10030    2    1    2    0    0  0.00000000000E+00  0.00000000000E+00 -0.49638389142E+03  0.20938449898E+04  0.20341558135E+04 0.  0.
        3    1    3    3  502    0  0.72112102908E+03 -0.61948563898E+03  0.12389751043E+03  0.95871194776E+03  0.10100000352E+00 0.  1.
       -3    1    3    3    0  502 -0.72112102908E+03  0.61948563898E+03 -0.62028140185E+03  0.11351330421E+04  0.10100000352E+00 0. -1.
</event>
<event>
 5   0  0.1782172E-04  0.2012382E+04  0.7818609E-02  0.8600854E-01
       -2   -1    0    0    0  501  0.00000000000E+00  0.00000000000E+00  0.63986307078E+03  0.63986307079E+03  0.25500000920E-02 0.  1.
        2   -1    0    0  501    0  0.00000000000E+00  0.00000000000E+00 -0.15822446449E+04  0.15822446449E+04  0.25500000920E-02 0. -1.
    10030    2    1    2    0    0  0.00000000000E+00  0.00000000000E+00 -0.94238157416E+03  0.22221077157E+04  0.20123815913E+04 0.  0.
        2    1    3    3  502    0 -0.77767201459E+03  0.55986441592E+03 -0.81009392590E+03  0.12547804969E+04  0.25500000920E-02 0. -1.
       -2    1    3    3    0  502  0.77767201459E+03 -0.55986441592E+03 -0.13228764826E+03  0.96732721888E+03  0.25500000920E-02 0.  1.
</event>
<event>
 5   0  0.8958919E-05  0.2002238E+04  0.7818609E-02  0.8605575E-01
        1   -1    0    0  501    0  0.00000000000E+00  0.00000000000E+00  0.14717957182E+04  0.14717957182E+04  0.50400001928E-02 0.  1.
       -1   -1    0    0    0  501  0.00000000000E+00  0.00000000000E+00 -0.68096375889E+03  0.68096375891E+03  0.50400001928E-02 0. -1.
    10030    2    1    2    0    0  0.00000000000E+00  0.00000000000E+00  0.79083195928E+03  0.21527594771E+04  0.20022382921E+04 0.  0.
        4    1    3    3  502    0 -0.15024202449E+03  0.49380651690E+03  0.13177020640E+04  0.14151882858E+04  0.12699999809E+01 0.  1.
       -4    1    3    3    0  502  0.15024202449E+03 -0.49380651690E+03 -0.52687010469E+03  0.73757119126E+03  0.12699999809E+01 0. -1.
</event>
<event>
 5   0  0.8881384E-05  0.1901685E+04  0.7818609E-02  0.8654018E-01
        1   -1    0    0  501    0  0.00000000000E+00  0.00000000000E+00  0.17771873015E+04  0.17771873015E+04  0.50400001928E-02 0.  1.
       -1   -1    0    0    0  501  0.00000000000E+00  0.00000000000E+00 -0.50872629669E+03  0.50872629671E+03  0.50400001928E-02 0. -1.
    10030    2    1    2    0    0  0.00000000000E+00  0.00000000000E+00  0.12684610048E+04  0.22859135982E+04  0.19016854781E+04 0.  0.
        5    1    3    3  502    0 -0.15124536192E+03  0.58089893099E+03 -0.25216019094E+03  0.65109567609E+03  0.46999998093E+01 0. -1.
       -5    1    3    3    0  502  0.15124536192E+03 -0.58089893099E+03  0.15206211957E+04  0.16348179221E+04  0.46999998093E+01 0.  1.
</event>
<event>
 5   0  0.8861350E-05  0.1571221E+04  0.7818609E-02  0.8838426E-01
       -1   -1    0    0    0  501  0.00000000000E+00  0.00000000000E+00  0.71434606088E+03  0.71434606090E+03  0.50400001928E-02 0. -1.
        1   -1    0    0  501    0  0.00000000000E+00  0.00000000000E+00 -0.86398468347E+03  0.86398468349E+03  0.50400001928E-02 0.  1.
    10030    2    1    2    0    0  0.00000000000E+00  0.00000000000E+00 -0.14963862259E+03  0.15783307444E+04  0.15712212516E+04 0.  0.
        1    1    3    3  502    0  0.21088534838E+03 -0.71028484523E+03  0.18752684890E+03  0.76429281732E+03  0.50400001928E-02 0. -1.
       -1    1    3    3    0  502 -0.21088534838E+03  0.71028484523E+03 -0.33716547149E+03  0.81403792707E+03  0.50400001928E-02 0.  1.
</event>
<event>
 5   0  0.8577422E-05  0.1990672E+04  0.7818609E-02  0.8610994E-01
        1   -1    0    0  501    0  0.00000000000E+00  0.00000000000E+00  0.19020371004E+04  0.19020371004E+04  0.50400001928E-02 0. -1.
       -1   -1    0    0    0  501  0.00000000000E+00  0.00000000000E+00 -0.52085952411E+03  0.52085952414E+03  0.50400001928E-02 0.  1.
    10030    2    1    2    0    0  0.00000000000E+00  0.00000000000E+00  0.13811775763E+04  0.24228966245E+04  0.19906723879E+04 0.  0.
        2    1    3    3  502    0 -0.63303604854E+03  0.30417308604E+03 -0.16784079098E+03  0.72209863325E+03  0.25500000920E-02 0.  1.
       -2    1    3    3    0  502  0.63303604854E+03 -0.30417308604E+03  0.15490183672E+04  0.17007979913E+04  0.25500000920E-02 0. -1.
</event>
<event>
 5   0  0.1812865E-04  0.1995317E+04  0.7818609E-02  0.8608813E-01
        2   -1    0    0  501    0  0.00000000000E+00  0.00000000000E+00  0.12055260521E+04  0.12055260521E+04  0.25500000920E-02 0. -1.
       -2   -1    0    0    0  501  0.00000000000E+00  0.00000000000E+00 -0.82563359264E+03  0.82563359264E+03  0.25500000920E-02 0.  1.
    10030    2    1    2    0    0  0.00000000000E+00  0.00000000000E+00  0.37989245948E+03  0.20311596448E+04  0.19953173236E+04 0.  0.
        3    1    3    3  502    0 -0.96228165825E+03  0.22221878779E+03  0.46144320202E+02  0.98868422054E+03  0.10100000352E+00 0.  1.
       -3    1    3    3    0  502  0.96228165825E+03 -0.22221878779E+03  0.33374813928E+03  0.10424754242E+04  0.10100000352E+00 0. -1.
</event>
<event>
 5   0  0.1834645E-04  0.2017556E+04  0.7818609E-02  0.8598456E-01
       -2   -1    0    0    0  501  0.00000000000E+00  0.00000000000E+00  0.76224374138E+03  0.76224374138E+03  0.25500000920E-02 0.  1.
        2   -1    0    0  501    0  0.00000000000E+00  0.00000000000E+00 -0.13350495432E+04  0.13350495432E+04  0.25500000920E-02 0. -1.
    10030    2    1    2    0    0  0.00000000000E+00  0.00000000000E+00 -0.57280580182E+03  0.20972932846E+04  0.20175561045E+04 0.  0.
        1    1    3    3  502    0  0.22257640471E+03 -0.35617746330E+02  0.73572988684E+03  0.76948511760E+03  0.50400001928E-02 0.  1.
       -1    1    3    3    0  502 -0.22257640471E+03  0.35617746330E+02 -0.13085356887E+04  0.13278081670E+04  0.50400001928E-02 0. -1.
</event>
<event>
 5   0  0.8577422E-05  0.1531970E+04  0.7818609E-02  0.8863467E-01
        1   -1    0    0  501    0  0.00000000000E+00  0.00000000000E+00  0.10991106839E+04  0.10991106839E+04  0.50400001928E-02 0. -1.
       -1   -1    0    0    0  501  0.00000000000E+00  0.00000000000E+00 -0.53382547097E+03  0.53382547099E+03  0.50400001928E-02 0.  1.
    10030    2    1    2    0    0  0.00000000000E+00  0.00000000000E+00  0.56528521290E+03  0.16329361549E+04  0.15319703372E+04 0.  0.
        2    1    3    3  502    0  0.73487200532E+01 -0.45892816391E+03 -0.37101429863E+03  0.59018698148E+03  0.25500000920E-02 0.  1.
       -2    1    3    3    0  502 -0.73487200532E+01  0.45892816391E+03  0.93629951153E+03  0.10427491734E+04  0.25500000920E-02 0. -1.
</event>
<event>
 5   0  0.8958919E-05  0.2030000E+04  0.7818609E-02  0.8592722E-01
        1   -1    0    0  501    0  0.00000000000E+00  0.00000000000E+00  0.12935374434E+04  0.12935374434E+04  0.50400001928E-02 0.  1.
       -1   -1    0    0    0  501  0.00000000000E+00  0.00000000000E+00 -0.79644007937E+03  0.79644007938E+03  0.50400001928E-02 0. -1.
    10030    2    1    2    0    0  0.00000000000E+00  0.00000000000E+00  0.49709736404E+03  0.20899775228E+04  0.20300000632E+04 0.  0.
        4    1    3    3  502    0 -0.78773048599E+02 -0.11126043581E+03 -0.78697116225E+03  0.79869224415E+03  0.12699999809E+01 0. -1.
       -4    1    3    3    0  502  0.78773048599E+02  0.11126043581E+03  0.12840685263E+04  0.12912852786E+04  0.12699999809E+01 0.  1.
</event>
<event>
 5   0  0.8765057E-05  0.1970320E+04  0.7818609E-02  0.8620624E-01
       -1   -1    0    0    0  501  0.00000000000E+00  0.00000000000E+00  0.62324863285E+03  0.62324863287E+03  0.50400001928E-02 0.  1.
        1   -1    0    0  501    0  0.00000000000E+00  0.00000000000E+00 -0.15572284354E+04  0.15572284354E+04  0.50400001928E-02 0. -1.
    10030    2    1    2    0    0  0.00000000000E+00  0.00000000000E+00 -0.93397980256E+03  0.21804770683E+04  0.19703202719E+04 0.  0.
        3    1    3    3  502    0 -0.32669152420E+03 -0.42927846073E+03 -0.13792528090E+04  0.14809948245E+04  0.10100000352E+00 0. -1.
       -3    1    3    3    0  502  0.32669152420E+03  0.42927846073E+03  0.44527300648E+03  0.69948224376E+03  0.10100000352E+00 0.  1.
</event>
<event>
 5   0  0.8958919E-05  0.2114412E+04  0.7818609E-02  0.8554921E-01
        1   -1    0    0  501    0  0.00000000000E+00  0.00000000000E+00  0.13738033769E+04  0.13738033769E+04  0.50400001928E-02 0. -1.
       -1   -1    0    0    0  501  0.00000000000E+00  0.00000000000E+00 -0.81356940272E+03  0.81356940273E+03  0.50400001928E-02 0.  1.
    10030    2    1    2    0    0  0.00000000000E+00  0.00000000000E+00  0.56023397421E+03  0.21873727797E+04  0.21144118736E+04 0.  0.
        4    1    3    3  502    0 -0.11404388785E+03 -0.10432621402E+04  0.14811753389E+03  0.10598784450E+04  0.12699999809E+01 0.  1.
       -4    1    3    3    0  502  0.11404388785E+03  0.10432621402E+04  0.41211644032E+03  0.11274943347E+04  0.12699999809E+01 0. -1.
</event>
<event>
 5   0  0.1782172E-04  0.1928658E+04  0.7818609E-02  0.8640721E-01
        2   -1    0    0  501    0  0.00000000000E+00  0.00000000000E+00  0.20974095507E+04  0.20974095507E+04  0.25500000920E-02 0. -1.
       -2   -1    0    0    0  501  0.00000000000E+00  0.00000000000E+00 -0.44337099329E+03  0.44337099330E+03  0.25500000920E-02 0.  1.
    10030    2    1    2    0    0  0.00000000000E+00  0.00000000000E+00  0.16540385574E+04  0.25407805440E+04  0.19286581406E+04 0.  0.
        2    1    3    3  502    0 -0.67091852050E+03  0.34528780139E+03  0.35958514683E+02  0.75541269630E+03  0.25500000920E-02 0.  1.
       -2    1    3    3    0  502  0.67091852050E+03 -0.34528780139E+03  0.16180800427E+04  0.17853678477E+04  0.25500000920E-02 0. -1.
</event>
<event>
 5   0  0.1834645E-04  0.2014654E+04  0.7818609E-02  0.8599800E-01
        2   -1    0    0  501    0  0.00000000000E+00  0.00000000000E+00  0.17260036123E+04  0.17260036123E+04  0.25500000920E-02 0.  1.
       -2   -1    0    0    0  501  0.00000000000E+00  0.00000000000E+00 -0.58789442372E+03  0.58789442372E+03  0.25500000920E-02 0. -1.
    10030    2    1    2    0    0  0.00000000000E+00  0.00000000000E+00  0.11381091886E+04  0.23138980360E+04  0.20146542125E+04 0.  0.
        1    1    3    3  502    0  0.47602773451E+03  0.69279788165E+03  0.12066061905E+04  0.14705338513E+04  0.50400001928E-02 0.  1.
       -1    1    3    3    0  502 -0.47602773451E+03 -0.69279788165E+03 -0.68497001870E+02  0.84336418476E+03  0.50400001928E-02 0. -1.
</event>
<event>
 5   0  0.8861350E-05  0.2000821E+04  0.7818609E-02  0.8606237E-01
       -1   -1    0    0    0  501  0.00000000000E+00  0.00000000000E+00  0.38954086152E+03  0.38954086156E+03  0.50400001928E-02 0.  1.
        1   -1    0    0  501    0  0.00000000000E+00  0.00000000000E+00 -0.25692328489E+04  0.25692328489E+04  0.50400001928E-02 0. -1.
    10030    2    1    2    0    0  0.00000000000E+00  0.00000000000E+00 -0.21796919874E+04  0.29587737105E+04  0.20008210090E+04 0.  0.
        1    1    3    3  502    0  0.93191234356E+03 -0.19217786922E+03 -0.63302932549E+03  0.11428556674E+04  0.50400001928E-02 0.  1.
       -1    1    3    3    0  502 -0.93191234356E+03  0.19217786922E+03 -0.15466626619E+04  0.18159180431E+04  0.50400001928E-02 0. -1.
</event>
<event>
 5   0  0.1782172E-04  0.1969958E+04  0.7818609E-02  0.8620797E-01
        2   -1    0    0  501    0  0.00000000000E+00  0.00000000000E+00  0.10552355462E+04  0.10552355462E+04  0.25500000920E-02 0. -1.
       -2   -1    0    0    0  501  0.00000000000E+00  0.00000000000E+00 -0.91939983171E+03  0.91939983171E+03  0.25500000920E-02 0.  1.
    10030    2    1    2    0    0  0.00000000000E+00  0.00000000000E+00  0.13583571445E+03  0.19746353779E+04  0.19699577493E+04 0.  0.
        2    1    3    3  502    0 -0.11190276483E+03 -0.35561558391E+03  0.98178367333E+03  0.10501827715E+04  0.25500000920E-02 0. -1.
       -2    1    3    3    0  502  0.11190276483E+03  0.35561558391E+03 -0.84594795889E+03  0.92445260638E+03  0.25500000920E-02 0.  1.
</event>
<event>
 5   0  0.8765057E-05  0.1911893E+04  0.7818609E-02  0.8648959E-01
       -1   -1    0    0    0  501  0.00000000000E+00  0.00000000000E+00  0.79727566282E+03  0.79727566284E+03  0.50400001928E-02 0. -1.
        1   -1    0    0  501    0  0.00000000000E+00  0.00000000000E+00 -0.11461951981E+04  0.11461951981E+04  0.50400001928E-02 0.  1.
    10030    2    1    2    0    0  0.00000000000E+00  0.00000000000E+00 -0.34891953526E+03  0.19434708609E+04  0.19118928174E+04 0.  0.
        3    1    3    3  502    0  0.57402007651E+03  0.75809997039E+03 -0.27415571043E+03  0.98963426431E+03  0.10100000352E+00 0. -1.
       -3    1    3    3    0  502 -0.57402007651E+03 -0.75809997039E+03 -0.74763824833E+02  0.95383659662E+03  0.10100000352E+00 0.  1.
</event>
<event>
 5   0  0.1834645E-04  0.1980090E+04  0.7818609E-02  0.8615986E-01
        2   -1    0    0  501    0  0.00000000000E+00  0.00000000000E+00  0.78020465349E+03  0.78020465350E+03  0.25500000920E-02 0. -1.
       -2   -1    0    0    0  501  0.00000000000E+00  0.00000000000E+00 -0.12563236175E+04  0.12563236175E+04  0.25500000920E-02 0.  1.
    10030    2    1    2    0    0  0.00000000000E+00  0.00000000000E+00 -0.47611896400E+03  0.20365282710E+04  0.19800904350E+04 0.  0.
        1    1    3    3  502    0  0.28095788853E+03  0.76207957816E+03 -0.82031091777E+03  0.11543884183E+04  0.50400001928E-02 0.  1.
       -1    1    3    3    0  502 -0.28095788853E+03 -0.76207957816E+03  0.34419195377E+03  0.88213985265E+03  0.50400001928E-02 0. -1.
</event>
<event>
 5   0  0.8765057E-05  0.1986915E+04  0.7818609E-02  0.8612763E-01
        1   -1    0    0  501    0  0.00000000000E+00  0.00000000000E+00  0.20284350120E+04  0.20284350120E+04  0.50400001928E-02 0. -1.
       -1   -1    0    0    0  501  0.00000000000E+00  0.00000000000E+00 -0.48656122568E+03  0.48656122571E+03  0.50400001928E-02 0.  1.
    10030    2    1    2    0    0  0.00000000000E+00  0.00000000000E+00  0.15418737863E+04  0.25149962377E+04  0.19869150215E+04 0.  0.
        3    1    3    3  502    0  0.45459667898E+03  0.86317945447E+03  0.10084886780E+04  0.14031344679E+04  0.10100000352E+00 0. -1.
       -3    1    3    3    0  502 -0.45459667898E+03 -0.86317945447E+03  0.53338510830E+03  0.11118617698E+04  0.10100000352E+00 0.  1.
</event>
<event>
 5   0  0.1807498E-04  0.2026056E+04  0.7818609E-02  0.8594535E-01
       -2   -1    0    0    0  501  0.00000000000E+00  0.00000000000E+00  0.74398314816E+03  0.74398314816E+03  0.25500000920E-02 0.  1.
        2   -1    0    0  501    0  0.00000000000E+00  0.00000000000E+00 -0.13793671274E+04  0.13793671274E+04  0.25500000920E-02 0. -1.
    10030    2    1    2    0    0  0.00000000000E+00  0.00000000000E+00 -0.63538397926E+03  0.21233502756E+04  0.20260561670E+04 0.  0.
        5    1    3    3  502    0  0.70796351743E+03  0.50016520397E+03 -0.86710540024E+03  0.12260797031E+04  0.46999998093E+01 0. -1.
       -5    1    3    3    0  502 -0.70796351743E+03 -0.50016520397E+03  0.23172142099E+03  0.89727057246E+03  0.46999998093E+01 0.  1.
</event>
<event>
 5   0  0.1834645E-04  0.2014608E+04  0.7818609E-02  0.8599821E-01
        2   -1    0    0  501    0  0.00000000000E+00  0.00000000000E+00  0.23469736143E+04  0.23469736143E+04  0.25500000920E-02 0. -1.
       -2   -1    0    0    0  501  0.00000000000E+00  0.00000000000E+00 -0.43232740578E+03  0.43232740578E+03  0.25500000920E-02 0.  1.
    10030    2    1    2    0    0  0.00000000000E+00  0.00000000000E+00  0.19146462085E+04  0.27793010201E+04  0.20146076681E+04 0.  0.
        1    1    3    3  502    0 -0.74896279606E+02  0.43737626316E+03 -0.29022220451E+03  0.53022294961E+03  0.50400001928E-02 0.  1.
       -1    1    3    3    0  502  0.74896279606E+02 -0.43737626316E+03  0.22048684130E+04  0.22490780705E+04  0.50400001928E-02 0. -1.
</event>
<event>
 5   0  0.8577422E-05  0.2014931E+04  0.7818609E-02  0.8599672E-01
        1   -1    0    0  501    0  0.00000000000E+00  0.00000000000E+00  0.12760702176E+04  0.12760702176E+04  0.50400001928E-02 0.  1.
       -1   -1    0    0    0  501  0.00000000000E+00  0.00000000000E+00 -0.79540003691E+03  0.79540003692E+03  0.50400001928E-02 0. -1.
    10030    2    1    2    0    0  0.00000000000E+00  0.00000000000E+00  0.48067018070E+03  0.20714702545E+04  0.20149305677E+04 0.  0.
        2    1    3    3  502    0 -0.44466969088E+03  0.81553502001E+03  0.64135480118E+03  0.11287889457E+04  0.25500000920E-02 0.  1.
       -2    1    3    3    0  502  0.44466969088E+03 -0.81553502001E+03 -0.16068462048E+03  0.94268130888E+03  0.25500000920E-02 0. -1.
</event>
<event>
 5   0  0.1782172E-04  0.1990211E+04  0.7818609E-02  0.8611211E-01
        2   -1    0    0  501    0  0.00000000000E+00  0.00000000000E+00  0.25238943006E+04  0.25238943006E+04  0.25500000920E-02 0.  1.
       -2   -1    0    0    0  501  0.00000000000E+00  0.00000000000E+00 -0.39234395862E+03  0.39234395863E+03  0.25500000920E-02 0. -1.
    10030    2    1    2    0    0  0.00000000000E+00  0.00000000000E+00  0.21315503420E+04  0.29162382592E+04  0.19902107236E+04 0.  0.
        2    1    3    3  502    0 -0.24457685553E+02  0.33226237362E+03 -0.30819473346E+03  0.45385069907E+03  0.25500000920E-02 0. -1.
       -2    1    3    3    0  502  0.24457685553E+02 -0.33226237362E+03  0.24397450754E+04  0.24623875602E+04  0.25500000920E-02 0.  1.
</event>
<event>
 5   0  0.1834645E-04  0.1935812E+04  0.7818609E-02  0.8637233E-01
       -2   -1    0    0    0  501  0.00000000000E+00  0.00000000000E+00  0.38218432771E+03  0.38218432771E+03  0.25500000920E-02 0.  1.
        2   -1    0    0  501    0  0.00000000000E+00  0.00000000000E+00 -0.24512829709E+04  0.24512829709E+04  0.25500000920E-02 0. -1.
    10030    2    1    2    0    0  0.00000000000E+00  0.00000000000E+00 -0.20690986432E+04  0.28334672986E+04  0.19358119064E+04 0.  0.
        1    1    3    3  502    0  0.53989926765E+03  0.11715470612E+03 -0.21978309573E+04  0.22662032921E+04  0.50400001928E-02 0. -1.
       -1    1    3    3    0  502 -0.53989926765E+03 -0.11715470612E+03  0.12873231408E+03  0.56726400651E+03  0.50400001928E-02 0.  1.
</event>
<event>
 5   0  0.8577422E-05  0.2098978E+04  0.7818609E-02  0.8561694E-01
       -1   -1    0    0    0  501  0.00000000000E+00  0.00000000000E+00  0.82702840769E+03  0.82702840771E+03  0.50400001928E-02 0.  1.
        1   -1    0    0  501    0  0.00000000000E+00  0.00000000000E+00 -0.13317884186E+04  0.13317884186E+04  0.50400001928E-02 0. -1.
    10030    2    1    2    0    0  0.00000000000E+00  0.00000000000E+00 -0.50476001095E+03  0.21588168264E+04  0.20989777086E+04 0.  0.
        2    1    3    3  502    0  0.78514172499E+03 -0.11572333250E+03  0.45391979199E+03  0.91426615138E+03  0.25500000920E-02 0.  1.
       -2    1    3    3    0  502 -0.78514172499E+03  0.11572333250E+03 -0.95867980294E+03  0.12445506750E+04  0.25500000920E-02 0. -1.
</event>
<event>
 5   0  0.8958919E-05  0.1939893E+04  0.7818609E-02  0.8635250E-01
        1   -1    0    0  501    0  0.00000000000E+00  0.00000000000E+00  0.56731805769E+03  0.56731805771E+03  0.50400001928E-02 0. -1.
       -1   -1    0    0    0  501  0.00000000000E+00  0.00000000000E+00 -0.16583217869E+04  0.16583217869E+04  0.50400001928E-02 0.  1.
    10030    2    1    2    0    0  0.00000000000E+00  0.00000000000E+00 -0.10910037292E+04  0.22256398446E+04  0.19398926725E+04 0.  0.
        4    1    3    3  502    0  0.24161889732E+03  0.39121623015E+03  0.43432531320E+03  0.63251080691E+03  0.12699999809E+01 0. -1.
       -4    1    3    3    0  502 -0.24161889732E+03 -0.39121623015E+03 -0.15253290424E+04  0.15931290377E+04  0.12699999809E+01 0.  1.
</event>
<event>
 5   0  0.1807498E-04  0.2000345E+04  0.7818609E-02  0.8606459E-01
        2   -1    0    0  501    0  0.00000000000E+00  0.00000000000E+00  0.92723302136E+03  0.92723302136E+03  0.25500000920E-02 0. -1.
       -2   -1    0    0    0  501  0.00000000000E+00  0.00000000000E+00 -0.10788495287E+04  0.10788495287E+04  0.25500000920E-02 0.  1.
    10030    2    1    2    0    0  0.00000000000E+00  0.00000000000E+00 -0.15161650729E+03  0.20060825500E+04  0.20003448783E+04 0.  0.
        5    1    3    3  502    0  0.55555624225E+03 -0.14125518902E+03 -0.89774867891E+03  0.10651622164E+04  0.46999998093E+01 0.  1.
       -5    1    3    3    0  502 -0.55555624225E+03  0.14125518902E+03  0.74613217162E+03  0.94092033363E+03  0.46999998093E+01 0. -1.
</event>
<event>
 5   0  0.8765057E-05  0.1963038E+04  0.7818609E-02  0.8624099E-01
       -1   -1    0    0    0  501  0.00000000000E+00  0.00000000000E+00  0.73490895828E+03  0.73490895830E+03  0.50400001928E-02 0.  1.
        1   -1    0    0  501    0  0.00000000000E+00  0.00000000000E+00 -0.13108832835E+04  0.13108832835E+04  0.50400001928E-02 0. -1.
    10030    2    1    2    0    0  0.00000000000E+00  0.00000000000E+00 -0.57597432518E+03  0.20457922418E+04  0.19630383270E+04 0.  0.
        3    1    3    3  502    0  0.74247327015E+02 -0.93861477437E+03 -0.57692856103E+03  0.11042449615E+04  0.10100000352E+00 0. -1.
       -3    1    3    3    0  502 -0.74247327015E+02  0.93861477437E+03  0.95423585193E+00  0.94154728028E+03  0.10100000352E+00 0.  1.
</event>
<event>
 5   0  0.8765057E-05  0.2017623E+04  0.7818609E-02  0.8598425E-01
       -1   -1    0    0    0  501  0.00000000000E+00  0.00000000000E+00  0.15440585618E+04  0.15440585618E+04  0.50400001928E-02 0. -1.
        1   -1    0    0  501    0  0.00000000000E+00  0.00000000000E+00 -0.65910763789E+03  0.65910763791E+03  0.50400001928E-02 0.  1.
    10030    2    1    2    0    0  0.00000000000E+00  0.00000000000E+00  0.88495092395E+03  0.22031661998E+04  0.20176231477E+04 0.  0.
        3    1    3    3  502    0 -0.95145473708E+03  0.26822645618E+03  0.66219920170E+03  0.11898400487E+04  0.10100000352E+00 0.  1.
       -3    1    3    3    0  502  0.95145473708E+03 -0.26822645618E+03  0.22275172225E+03  0.10133261511E+04  0.10100000352E+00 0. -1.
</event>
<event>
 5   0  0.1812865E-04  0.1996760E+04  0.7818609E-02  0.8608137E-01
        2   -1    0    0  501    0  0.00000000000E+00  0.00000000000E+00  0.19260855392E+04  0.19260855392E+04  0.25500000920E-02 0. -1.
       -2   -1    0    0    0  501  0.00000000000E+00  0.00000000000E+00 -0.51750691267E+03  0.51750691268E+03  0.25500000920E-02 0.  1.
    10030    2    1    2    0    0  0.00000000000E+00  0.00000000000E+00  0.14085786266E+04  0.24435924519E+04  0.19967599565E+04 0.  0.
        3    1    3    3  502    0 -0.27132320931E+03  0.24966814680E+03  0.18397107741E+04  0.18762958749E+04  0.10100000352E+00 0. -1.
       -3    1    3    3    0  502  0.27132320931E+03 -0.24966814680E+03 -0.43113214757E+03  0.56729657703E+03  0.10100000352E+00 0.  1.
</event>
<event>
 5   0  0.1807498E-04  0.2008479E+04  0.7818609E-02  0.8602667E-01
        2   -1    0    0  501    0  0.00000000000E+00  0.00000000000E+00  0.10514997936E+04  0.10514997936E+04  0.25500000920E-02 0. -1.
       -2   -1    0    0    0  501  0.00000000000E+00  0.00000000000E+00 -0.95910324718E+03  0.95910324719E+03  0.25500000920E-02 0.  1.
    10030    2    1    2    0    0  0.00000000000E+00  0.00000000000E+00  0.92396546454E+02  0.20106030408E+04  0.20084788936E+04 0.  0.
        5    1    3    3  502    0 -0.32117125044E+02 -0.41460256768E+03  0.96124813341E+03  0.10473523107E+04  0.46999998093E+01 0. -1.
       -5    1    3    3    0  502  0.32117125044E+02  0.41460256768E+03 -0.86885158696E+03  0.96325073008E+03  0.46999998093E+01 0.  1.
</event>
<event>
 5   0  0.8881384E-05  0.2001142E+04  0.7818609E-02  0.8606087E-01
        1   -1    0    0  501    0  0.00000000000E+00  0.00000000000E+00  0.16849267124E+04  0.16849267124E+04  0.50400001928E-02 0.  1.
       -1   -1    0    0    0  501  0.00000000000E+00  0.00000000000E+00 -0.59417532087E+03  0.59417532089E+03  0.50400001928E-02 0. -1.
    10030    2    1    2    0    0  0.00000000000E+00  0.00000000000E+00  0.10907513915E+04  0.22791020333E+04  0.20011415443E+04 0.  0.
        5    1    3    3  502    0 -0.51142306456E+03  0.84171766847E+03  0.34460068105E+03  0.10434624592E+04  0.46999998093E+01 0. -1.
       -5    1    3    3    0  502  0.51142306456E+03 -0.84171766847E+03  0.74615071050E+03  0.12356395741E+04  0.46999998093E+01 0.  1.
</event>
<event>
 5   0  0.8577422E-05  0.1984658E+04  0.7818609E-02  0.8613827E-01
       -1   -1    0    0    0  501  0.00000000000E+00  0.00000000000E+00  0.10478296595E+04  0.10478296595E+04  0.50400001928E-02 0. -1.
        1   -1    0    0  501    0  0.00000000000E+00  0.00000000000E+00 -0.93976776775E+03  0.93976776776E+03  0.50400001928E-02 0.  1.
    10030    2    1    2    0    0  0.00000000000E+00  0.00000000000E+00  0.10806189171E+03  0.19875974272E+04  0.19846576935E+04 0.  0.
        2    1    3    3  502    0  0.83562279314E+03 -0.85599139359E+02  0.58313526498E+03  0.10225651091E+04  0.25500000920E-02 0. -1.
       -2    1    3    3    0  502 -0.83562279314E+03  0.85599139359E+02 -0.47507337327E+03  0.96503231814E+03  0.25500000920E-02 0.  1.
</event>
<event>
 5   0  0.1893687E-04  0.2018805E+04  0.7818609E-02  0.8597879E-01
        2   -1    0    0  501    0  0.00000000000E+00  0.00000000000E+00  0.16682068502E+04  0.16682068502E+04  0.25500000920E-02 0.  1.
       -2   -1    0    0    0  501  0.00000000000E+00  0.00000000000E+00 -0.61077178447E+03  0.61077178448E+03  0.25500000920E-02 0. -1.
    10030    2    1    2    0    0  0.00000000000E+00  0.00000000000E+00  0.10574350657E+04  0.22789786346E+04  0.20188052652E+04 0.  0.
        4    1    3    3  502    0 -0.55954937265E+03 -0.10194619208E+03 -0.41266096017E+03  0.70269424892E+03  0.12699999809E+01 0. -1.
       -4    1    3    3    0  502  0.55954937265E+03  0.10194619208E+03  0.14700960259E+04  0.15762843857E+04  0.12699999809E+01 0.  1.
</event>
<event>
 5   0  0.1807498E-04  0.1957410E+04  0.7818609E-02  0.8626796E-01
        2   -1    0    0  501    0  0.00000000000E+00  0.00000000000E+00  0.11714771322E+04  0.11714771322E+04  0.25500000920E-02 0. -1.
       -2   -1    0    0    0  501  0.00000000000E+00  0.00000000000E+00 -0.81765441293E+03  0.81765441294E+03  0.25500000920E-02 0.  1.
    10030    2    1    2    0    0  0.00000000000E+00  0.00000000000E+00  0.35382271929E+03  0.19891315452E+04  0.19574099691E+04 0.  0.
        5    1    3    3  502    0 -0.73496561211E+03 -0.63356547739E+03  0.47323424364E+02  0.97151493124E+03  0.46999998093E+01 0. -1.
       -5    1    3    3    0  502  0.73496561211E+03  0.63356547739E+03  0.30649929493E+03  0.10176166139E+04  0.46999998093E+01 0.  1.
</event>
<event>
 5   0  0.8861350E-05  0.2073494E+04  0.7818609E-02  0.8573010E-01
        1   -1    0    0  501    0  0.00000000000E+00  0.00000000000E+00  0.82623944357E+03  0.82623944358E+03  0.50400001928E-02 0. -1.
       -1   -1    0    0    0  501  0.00000000000E+00  0.00000000000E+00 -0.13008877053E+04  0.13008877053E+04  0.50400001928E-02 0.  1.
    10030    2    1    2    0    0  0.00000000000E+00  0.00000000000E+00 -0.47464826169E+03  0.21271271489E+04  0.20734943779E+04 0.  0.
        1    1    3    3  502    0  0.22330715650E+03 -0.65507313601E+03  0.55456050209E+03  0.88686202431E+03  0.50400001928E-02 0. -1.
       -1    1    3    3    0  502 -0.22330715650E+03  0.65507313601E+03 -0.10292087638E+04  0.12402651245E+04  0.50400001928E-02 0.  1.
</event>
<event>
 5   0  0.1782172E-04  0.2015849E+04  0.7818609E-02  0.8599247E-01
       -2   -1    0    0    0  501  0.00000000000E+00  0.00000000000E+00  0.14914875014E+04  0.14914875014E+04  0.25500000920E-02 0. -1.
        2   -1    0    0  501    0  0.00000000000E+00  0.00000000000E+00 -0.68113978439E+03  0.68113978439E+03  0.25500000920E-02 0.  1.
    10030    2    1    2    0    0  0.00000000000E+00  0.00000000000E+00  0.81034771704E+03  0.21726272858E+04  0.20158486800E+04 0.  0.
        2    1    3    3  502    0 -0.29060674709E+03  0.16092629211E+03  0.14307936130E+04  0.14688498616E+04  0.25500000920E-02 0. -1.
       -2    1    3    3    0  502  0.29060674709E+03 -0.16092629211E+03 -0.62044589598E+03  0.70377742419E+03  0.25500000920E-02 0.  1.
</event>
<event>
 5   0  0.8577422E-05  0.1529514E+04  0.7818609E-02  0.8865060E-01
       -1   -1    0    0    0  501  0.00000000000E+00  0.00000000000E+00  0.53656297624E+03  0.53656297627E+03  0.50400001928E-02 0. -1.
        1   -1    0    0  501    0  0.00000000000E+00  0.00000000000E+00 -0.10899989429E+04  0.10899989429E+04  0.50400001928E-02 0.  1.
    10030    2    1    2    0    0  0.00000000000E+00  0.00000000000E+00 -0.55343596666E+03  0.16265619192E+04  0.15295137488E+04 0.  0.
        2    1    3    3  502    0 -0.12464974776E+03 -0.75271706970E+03 -0.33230837171E+03  0.83219553024E+03  0.25500000920E-02 0. -1.
       -2    1    3    3    0  502  0.12464974776E+03  0.75271706970E+03 -0.22112759495E+03  0.79436638894E+03  0.25500000920E-02 0.  1.
</event>
<event>
 5   0  0.1834645E-04  0.2048061E+04  0.7818609E-02  0.8584474E-01
       -2   -1    0    0    0  501  0.00000000000E+00  0.00000000000E+00  0.11650835153E+04  0.11650835153E+04  0.25500000920E-02 0. -1.
        2   -1    0    0  501    0  0.00000000000E+00  0.00000000000E+00 -0.90005441450E+03  0.90005441451E+03  0.25500000920E-02 0.  1.
    10030    2    1    2    0    0  0.00000000000E+00  0.00000000000E+00  0.26502910078E+03  0.20651379298E+04  0.20480610940E+04 0.  0.
        1    1    3    3  502    0  0.89851836352E+03  0.14783721661E+02 -0.36258328597E+03  0.96903067408E+03  0.50400001928E-02 0.  1.
       -1    1    3    3    0  502 -0.89851836352E+03 -0.14783721661E+02  0.62761238675E+03  0.10961072557E+04  0.50400001928E-02 0. -1.
</event>
<event>
 5   0  0.8765057E-05  0.1997139E+04  0.7818609E-02  0.8607959E-01
       -1   -1    0    0    0  501  0.00000000000E+00  0.00000000000E+00  0.56926416177E+03  0.56926416179E+03  0.50400001928E-02 0. -1.
        1   -1    0    0  501    0  0.00000000000E+00  0.00000000000E+00 -0.17516318555E+04  0.17516318555E+04  0.50400001928E-02 0.  1.
    10030    2    1    2    0    0  0.00000000000E+00  0.00000000000E+00 -0.11823676937E+04  0.23208960173E+04  0.19971391939E+04 0.  0.
        3    1    3    3  502    0 -0.33568186768E+03 -0.63639352982E+03  0.21349860447E+03  0.75050696559E+03  0.10100000352E+00 0. -1.
       -3    1    3    3    0  502  0.33568186768E+03  0.63639352982E+03 -0.13958662982E+04  0.15703890517E+04  0.10100000352E+00 0.  1.
</event>
<event>
 5   0  0.8765057E-05  0.2005960E+04  0.7818609E-02  0.8603839E-01
       -1   -1    0    0    0  501  0.00000000000E+00  0.00000000000E+00  0.31837676051E+03  0.31837676055E+03  0.50400001928E-02 0. -1.
        1   -1    0    0  501    0  0.00000000000E+00  0.00000000000E+00 -0.31596813625E+04  0.31596813625E+04  0.50400001928E-02 0.  1.
    10030    2    1    2    0    0  0.00000000000E+00  0.00000000000E+00 -0.28413046020E+04  0.34780581231E+04  0.20059602354E+04 0.  0.
        3    1    3    3  502    0  0.25404477273E+03 -0.47164296055E+03  0.49539208927E+02  0.53799625669E+03  0.10100000352E+00 0. -1.
       -3    1    3    3    0  502 -0.25404477273E+03  0.47164296055E+03 -0.28908438109E+04  0.29400618664E+04  0.10100000352E+00 0.  1.
</event>
<event>
 5   0  0.1893687E-04  0.2069941E+04  0.7818609E-02  0.8574602E-01
        2   -1    0    0  501    0  0.00000000000E+00  0.00000000000E+00  0.10748591216E+04  0.10748591216E+04  0.25500000920E-02 0.  1.
       -2   -1    0    0    0  501  0.00000000000E+00  0.00000000000E+00 -0.99656169632E+03  0.99656169633E+03  0.25500000920E-02 0. -1.
    10030    2    1    2    0    0  0.00000000000E+00  0.00000000000E+00  0.78297425313E+02  0.20714208180E+04  0.20699405108E+04 0.  0.
        4    1    3    3  502    0  0.46153153597E+03 -0.61022534663E+02 -0.88586438067E+03  0.10007459329E+04  0.12699999809E+01 0. -1.
       -4    1    3    3    0  502 -0.46153153597E+03  0.61022534663E+02  0.96416180599E+03  0.10706748850E+04  0.12699999809E+01 0.  1.
</event>
<event>
 5   0  0.1834645E-04  0.2004729E+04  0.7818609E-02  0.8604413E-01
       -2   -1    0    0    0  501  0.00000000000E+00  0.00000000000E+00  0.13463595819E+04  0.13463595819E+04  0.25500000920E-02 0. -1.
        2   -1    0    0  501    0  0.00000000000E+00  0.00000000000E+00 -0.74626058060E+03  0.74626058060E+03  0.25500000920E-02 0.  1.
    10030    2    1    2    0    0  0.00000000000E+00  0.00000000000E+00  0.60009900132E+03  0.20926201625E+04  0.20047294913E+04 0.  0.
        1    1    3    3  502    0 -0.49304862248E+02 -0.48423770113E+03 -0.61461907805E+03  0.78401130844E+03  0.50400001928E-02 0.  1.
       -1    1    3    3    0  502  0.49304862248E+02  0.48423770113E+03  0.12147180794E+04  0.13086088541E+04  0.50400001928E-02 0. -1.
</event>
<event>
 5   0  0.6531625E-05  0.1655715E+04  0.7818609E-02  0.8787033E-01
       -4   -1    0    0    0  501  0.00000000000E+00  0.00000000000E+00  0.12686351391E+04  0.12686357747E+04  0.12699999809E+01 0.  1.
        4   -1    0    0  501    0  0.00000000000E+00  0.00000000000E+00 -0.54022323566E+03  0.54022472847E+03  0.12699999809E+01 0. -1.
    10030    2    1    2    0    0  0.00000000000E+00  0.00000000000E+00  0.72841190340E+03  0.18088605032E+04  0.16557150779E+04 0.  0.
        1    1    3    3  502    0 -0.28985629811E+03 -0.73839907086E+03  0.10544776254E+03  0.80023064928E+03  0.50400001928E-02 0. -1.
       -1    1    3    3    0  502  0.28985629811E+03  0.73839907086E+03  0.62296414086E+03  0.10086298539E+04  0.50400001928E-02 0.  1.
</event>
<event>
 5   0  0.8958919E-05  0.1991651E+04  0.7818609E-02  0.8610534E-01
        1   -1    0    0  501    0  0.00000000000E+00  0.00000000000E+00  0.63739515187E+03  0.63739515189E+03  0.50400001928E-02 0. -1.
       -1   -1    0    0    0  501  0.00000000000E+00  0.00000000000E+00 -0.15558140966E+04  0.15558140966E+04  0.50400001928E-02 0.  1.
    10030    2    1    2    0    0  0.00000000000E+00  0.00000000000E+00 -0.91841894473E+03  0.21932092485E+04  0.19916509357E+04 0.  0.
        4    1    3    3  502    0  0.48423201378E+03 -0.82314732979E+03 -0.76992513623E+03  0.12267185896E+04  0.12699999809E+01 0.  1.
       -4    1    3    3    0  502 -0.48423201378E+03  0.82314732979E+03 -0.14849380850E+03  0.96649065891E+03  0.12699999809E+01 0. -1.
</event>
<event>
 5   0  0.8881384E-05  0.2004800E+04  0.7818609E-02  0.8604380E-01
       -1   -1    0    0    0  501  0.00000000000E+00  0.00000000000E+00  0.11493283510E+04  0.11493283510E+04  0.50400001928E-02 0. -1.
        1   -1    0    0  501    0  0.00000000000E+00  0.00000000000E+00 -0.87425482588E+03  0.87425482589E+03  0.50400001928E-02 0.  1.
    10030    2    1    2    0    0  0.00000000000E+00  0.00000000000E+00  0.27507352510E+03  0.20235831769E+04  0.20048000972E+04 0.  0.
        5    1    3    3  502    0 -0.23239812535E+03  0.11430131301E+02  0.11216815442E+04  0.11455702131E+04  0.46999998093E+01 0. -1.
       -5    1    3    3    0  502  0.23239812535E+03 -0.11430131301E+02 -0.84660801909E+03  0.87801296378E+03  0.46999998093E+01 0.  1.
</event>
<event>
 5   0  0.1782172E-04  0.2021177E+04  0.7818609E-02  0.8596783E-01
        2   -1    0    0  501    0  0.00000000000E+00  0.00000000000E+00  0.26342122176E+04  0.26342122176E+04  0.25500000920E-02 0. -1.
       -2   -1    0    0    0  501  0.00000000000E+00  0.00000000000E+00 -0.38770198651E+03  0.38770198652E+03  0.25500000920E-02 0.  1.
    10030    2    1    2    0    0  0.00000000000E+00  0.00000000000E+00  0.22465102311E+04  0.30219142042E+04  0.20211771913E+04 0.  0.
        2    1    3    3  502    0  0.38806692852E+03 -0.36853780893E+03  0.24049479652E+04  0.24637757149E+04  0.25500000920E-02 0. -1.
       -2    1    3    3    0  502 -0.38806692852E+03  0.36853780893E+03 -0.15843773413E+03  0.55813848929E+03  0.25500000920E-02 0.  1.
</event>
<event>
 5   0  0.8958919E-05  0.2023234E+04  0.7818609E-02  0.8595834E-01
       -1   -1    0    0    0  501  0.00000000000E+00  0.00000000000E+00  0.68204186233E+03  0.68204186235E+03  0.50400001928E-02 0. -1.
        1   -1    0    0  501    0  0.00000000000E+00  0.00000000000E+00 -0.15004492929E+04  0.15004492929E+04  0.50400001928E-02 0.  1.
    10030    2    1    2    0    0  0.00000000000E+00  0.00000000000E+00 -0.81840743054E+03  0.21824911552E+04  0.20232342722E+04 0.  0.
        4    1    3    3  502    0 -0.39026346609E+03  0.80163571507E+03  0.10637444156E+03  0.89791008868E+03  0.12699999809E+01 0. -1.
       -4    1    3    3    0  502  0.39026346609E+03 -0.80163571507E+03 -0.92478187211E+03  0.12845810665E+04  0.12699999809E+01 0.  1.
</event>
<event>
 5   0  0.1807498E-04  0.2042163E+04  0.7818609E-02  0.8587158E-01
        2   -1    0    0  501    0  0.00000000000E+00  0.00000000000E+00  0.12108945039E+04  0.12108945039E+04  0.25500000920E-02 0.  1.
       -2   -1    0    0    0  501  0.00000000000E+00  0.00000000000E+00 -0.86102288417E+03  0.86102288417E+03  0.25500000920E-02 0. -1.
    10030    2    1    2    0    0  0.00000000000E+00  0.00000000000E+00  0.34987161969E+03  0.20719173880E+04  0.20421634392E+04 0.  0.
        5    1    3    3  502    0  0.35623011719E+03 -0.33030142431E+03  0.10861227992E+04  0.11898250932E+04  0.46999998093E+01 0.  1.
       -5    1    3    3    0  502 -0.35623011719E+03  0.33030142431E+03 -0.73625117955E+03  0.88209229488E+03  0.46999998093E+01 0. -1.
</event>
<event>
 5   0  0.8881384E-05  0.2005033E+04  0.7818609E-02  0.8604271E-01
       -1   -1    0    0    0  501  0.00000000000E+00  0.00000000000E+00  0.10850623720E+04  0.10850623720E+04  0.50400001928E-02 0. -1.
        1   -1    0    0  501    0  0.00000000000E+00  0.00000000000E+00 -0.92625038535E+03  0.92625038536E+03  0.50400001928E-02 0.  1.
    10030    2    1    2    0    0  0.00000000000E+00  0.00000000000E+00  0.15881198662E+03  0.20113127574E+04  0.20050331072E+04 0.  0.
        5    1    3    3  502    0  0.60241962878E+03 -0.80028965709E+03  0.12008427156E+03  0.10088683099E+04  0.46999998093E+01 0.  1.
       -5    1    3    3    0  502 -0.60241962878E+03  0.80028965709E+03  0.38727715059E+02  0.10024444475E+04  0.46999998093E+01 0. -1.
</event>
<event>
 5   0  0.8861350E-05  0.2003135E+04  0.7818609E-02  0.8605156E-01
        1   -1    0    0  501    0  0.00000000000E+00  0.00000000000E+00  0.96477920682E+03  0.96477920683E+03  0.50400001928E-02 0.  1.
       -1   -1    0    0    0  501  0.00000000000E+00  0.00000000000E+00 -0.10397585036E+04  0.10397585036E+04  0.50400001928E-02 0. -1.
    10030    2    1    2    0    0  0.00000000000E+00  0.00000000000E+00 -0.74979296761E+02  0.20045377104E+04  0.20031349275E+04 0.  0.
        1    1    3    3  502    0  0.76943564987E+03 -0.33483488370E+02  0.60325947732E+03  0.97830177363E+03  0.50400001928E-02 0.  1.
       -1    1    3    3    0  502 -0.76943564987E+03  0.33483488370E+02 -0.67823877408E+03  0.10262359368E+04  0.50400001928E-02 0. -1.
</event>
<event>
 5   0  0.1782172E-04  0.2219183E+04  0.7818609E-02  0.8510486E-01
        2   -1    0    0  501    0  0.00000000000E+00  0.00000000000E+00  0.10464673107E+04  0.10464673107E+04  0.25500000920E-02 0. -1.
       -2   -1    0    0    0  501  0.00000000000E+00  0.00000000000E+00 -0.11765233391E+04  0.11765233391E+04  0.25500000920E-02 0.  1.
    10030    2    1    2    0    0  0.00000000000E+00  0.00000000000E+00 -0.13005602843E+03  0.22229906499E+04  0.22191829259E+04 0.  0.
        2    1    3    3  502    0  0.38348580810E+03 -0.10135357490E+04  0.17387046793E+03  0.10975185735E+04  0.25500000920E-02 0. -1.
       -2    1    3    3    0  502 -0.38348580810E+03  0.10135357490E+04 -0.30392649636E+03  0.11254720764E+04  0.25500000920E-02 0.  1.
</event>
<event>
 5   0  0.8881384E-05  0.1988072E+04  0.7818609E-02  0.8612218E-01
       -1   -1    0    0    0  501  0.00000000000E+00  0.00000000000E+00  0.84456142286E+03  0.84456142287E+03  0.50400001928E-02 0.  1.
        1   -1    0    0  501    0  0.00000000000E+00  0.00000000000E+00 -0.11699649384E+04  0.11699649384E+04  0.50400001928E-02 0. -1.
    10030    2    1    2    0    0  0.00000000000E+00  0.00000000000E+00 -0.32540351555E+03  0.20145263613E+04  0.19880716819E+04 0.  0.
        5    1    3    3  502    0  0.57175169360E+03 -0.50307555765E+02  0.65967283770E+03  0.87442620735E+03  0.46999998093E+01 0.  1.
       -5    1    3    3    0  502 -0.57175169360E+03  0.50307555765E+02 -0.98507635325E+03  0.11401001539E+04  0.46999998093E+01 0. -1.
</event>
<event>
 5   0  0.1834645E-04  0.2003743E+04  0.7818609E-02  0.8604873E-01
        2   -1    0    0  501    0  0.00000000000E+00  0.00000000000E+00  0.10420744653E+04  0.10420744653E+04  0.25500000920E-02 0. -1.
       -2   -1    0    0    0  501  0.00000000000E+00  0.00000000000E+00 -0.96321907914E+03  0.96321907914E+03  0.25500000920E-02 0.  1.
    10030    2    1    2    0    0  0.00000000000E+00  0.00000000000E+00  0.78855386120E+02  0.20052935444E+04  0.20037425052E+04 0.  0.
        1    1    3    3  502    0 -0.50658410592E+03  0.57490831340E+03 -0.60651672072E+03  0.97724590443E+03  0.50400001928E-02 0.  1.
       -1    1    3    3    0  502  0.50658410592E+03 -0.57490831340E+03  0.68537210684E+03  0.10280476400E+04  0.50400001928E-02 0. -1.
</event>
<event>
 5   0  0.8861350E-05  0.1982469E+04  0.7818609E-02  0.8614861E-01
        1   -1    0    0  501    0  0.00000000000E+00  0.00000000000E+00  0.19171087770E+04  0.19171087770E+04  0.50400001928E-02 0. -1.
       -1   -1    0    0    0  501  0.00000000000E+00  0.00000000000E+00 -0.51251422487E+03  0.51251422489E+03  0.50400001928E-02 0.  1.
    10030    2    1    2    0    0  0.00000000000E+00  0.00000000000E+00  0.14045945521E+04  0.24296230019E+04  0.19824686821E+04 0.  0.
        1    1    3    3  502    0  0.70460354849E+02 -0.96733488406E+03  0.45160002986E+03  0.10698803795E+04  0.50400001928E-02 0.  1.
       -1    1    3    3    0  502 -0.70460354849E+02  0.96733488406E+03  0.95299452225E+03  0.13597426223E+04  0.50400001928E-02 0. -1.
</event>
<event>
 5   0  0.8577422E-05  0.2029958E+04  0.7818609E-02  0.8592741E-01
       -1   -1    0    0    0  501  0.00000000000E+00  0.00000000000E+00  0.13227717733E+04  0.13227717733E+04  0.50400001928E-02 0. -1.
        1   -1    0    0  501    0  0.00000000000E+00  0.00000000000E+00 -0.77880594177E+03  0.77880594179E+03  0.50400001928E-02 0.  1.
    10030    2    1    2    0    0  0.00000000000E+00  0.00000000000E+00  0.54396583150E+03  0.21015777151E+04  0.20299581441E+04 0.  0.
        2    1    3    3  502    0 -0.15961399102E+03  0.92586104899E+03  0.66957300413E+03  0.11536998379E+04  0.25500000920E-02 0. -1.
       -2    1    3    3    0  502  0.15961399102E+03 -0.92586104899E+03 -0.12560717263E+03  0.94787787715E+03  0.25500000920E-02 0.  1.
</event>
<event>
 5   0  0.1893687E-04  0.1973460E+04  0.7818609E-02  0.8619130E-01
       -2   -1    0    0    0  501  0.00000000000E+00  0.00000000000E+00  0.49340055685E+03  0.49340055685E+03  0.25500000920E-02 0.  1.
        2   -1    0    0  501    0  0.00000000000E+00  0.00000000000E+00 -0.19733184728E+04  0.19733184728E+04  0.25500000920E-02 0. -1.
    10030    2    1    2    0    0  0.00000000000E+00  0.00000000000E+00 -0.14799179160E+04  0.24667190297E+04  0.19734603450E+04 0.  0.
        4    1    3    3  502    0 -0.16069169372E+03  0.14207785589E+03  0.46390647127E+03  0.51109565108E+03  0.12699999809E+01 0.  1.
       -4    1    3    3    0  502  0.16069169372E+03 -0.14207785589E+03 -0.19438243872E+04  0.19556233786E+04  0.12699999809E+01 0. -1.
</event>
<event>
 5   0  0.1782172E-04  0.2076397E+04  0.7818609E-02  0.8571713E-01
        2   -1    0    0  501    0  0.00000000000E+00  0.00000000000E+00  0.10204626336E+04  0.10204626336E+04  0.25500000920E-02 0. -1.
       -2   -1    0    0    0  501  0.00000000000E+00  0.00000000000E+00 -0.10562422667E+04  0.10562422667E+04  0.25500000920E-02 0.  1.
    10030    2    1    2    0    0  0.00000000000E+00  0.00000000000E+00 -0.35779633020E+02  0.20767049003E+04  0.20763966530E+04 0.  0.
        2    1    3    3  502    0  0.83967257396E+03  0.40053512393E+03  0.44302276629E+03  0.10304113685E+04  0.25500000920E-02 0. -1.
       -2    1    3    3    0  502 -0.83967257396E+03 -0.40053512393E+03 -0.47880239931E+03  0.10462935317E+04  0.25500000920E-02 0.  1.
</event>
<event>
 5   0  0.1893687E-04  0.2023889E+04  0.7818609E-02  0.8595533E-01
        2   -1    0    0  501    0  0.00000000000E+00  0.00000000000E+00  0.16649309695E+04  0.16649309695E+04  0.25500000920E-02 0. -1.
       -2   -1    0    0    0  501  0.00000000000E+00  0.00000000000E+00 -0.61505938261E+03  0.61505938262E+03  0.25500000920E-02 0.  1.
    10030    2    1    2    0    0  0.00000000000E+00  0.00000000000E+00  0.10498715869E+04  0.22799903522E+04  0.20238887462E+04 0.  0.
        4    1    3    3  502    0 -0.22680608576E+03  0.85184514116E+03 -0.34885879101E+02  0.88221300292E+03  0.12699999809E+01 0.  1.
       -4    1    3    3    0  502  0.22680608576E+03 -0.85184514116E+03  0.10847574660E+04  0.13977773492E+04  0.12699999809E+01 0. -1.
</event>
<event>
 5   0  0.8577422E-05  0.1986773E+04  0.7818609E-02  0.8612830E-01
        1   -1    0    0  501    0  0.00000000000E+00  0.00000000000E+00  0.10184144365E+04  0.10184144365E+04  0.50400001928E-02 0.  1.
       -1   -1    0    0    0  501  0.00000000000E+00  0.00000000000E+00 -0.96897378049E+03  0.96897378051E+03  0.50400001928E-02 0. -1.
    10030    2    1    2    0    0  0.00000000000E+00  0.00000000000E+00  0.49440655974E+02  0.19873882170E+04  0.19867731492E+04 0.  0.
        2    1    3    3  502    0  0.13133134807E+03  0.21097565785E+03 -0.93737690488E+03  0.96975982233E+03  0.25500000920E-02 0. -1.
       -2    1    3    3    0  502 -0.13133134807E+03 -0.21097565785E+03  0.98681756086E+03  0.10176283947E+04  0.25500000920E-02 0.  1.
</event>
<event>
 5   0  0.1834645E-04  0.1997581E+04  0.7818609E-02  0.8607752E-01
       -2   -1    0    0    0  501  0.00000000000E+00  0.00000000000E+00  0.46805262970E+03  0.46805262971E+03  0.25500000920E-02 0.  1.
        2   -1    0    0  501    0  0.00000000000E+00  0.00000000000E+00 -0.21313476518E+04  0.21313476518E+04  0.25500000920E-02 0. -1.
    10030    2    1    2    0    0  0.00000000000E+00  0.00000000000E+00 -0.16632950221E+04  0.25994002815E+04  0.19975814108E+04 0.  0.
        1    1    3    3  502    0 -0.87851772911E+03 -0.47436610726E+03 -0.79562621478E+03  0.12766509616E+04  0.50400001928E-02 0.  1.
       -1    1    3    3    0  502  0.87851772911E+03  0.47436610726E+03 -0.86766880728E+03  0.13227493199E+04  0.50400001928E-02 0. -1.
</event>
<event>
 5   0  0.8958919E-05  0.2031579E+04  0.7818609E-02  0.8591997E-01
       -1   -1    0    0    0  501  0.00000000000E+00  0.00000000000E+00  0.82621727325E+03  0.82621727327E+03  0.50400001928E-02 0.  1.
        1   -1    0    0  501    0  0.00000000000E+00  0.00000000000E+00 -0.12488585110E+04  0.12488585111E+04  0.50400001928E-02 0. -1.
    10030    2    1    2    0    0  0.00000000000E+00  0.00000000000E+00 -0.42264123779E+03  0.20750757843E+04  0.20315791628E+04 0.  0.
        4    1    3    3  502    0 -0.14266972407E+03 -0.34957594871E+03  0.75188000784E+03  0.84135792216E+03  0.12699999809E+01 0.  1.
       -4    1    3    3    0  502  0.14266972407E+03  0.34957594871E+03 -0.11745212456E+04  0.12337178622E+04  0.12699999809E+01 0. -1.
</event>
<event>
 5   0  0.8577422E-05  0.2005162E+04  0.7818609E-02  0.8604211E-01
       -1   -1    0    0    0  501  0.00000000000E+00  0.00000000000E+00  0.54420503241E+03  0.54420503243E+03  0.50400001928E-02 0. -1.
        1   -1    0    0  501    0  0.00000000000E+00  0.00000000000E+00 -0.18470405308E+04  0.18470405308E+04  0.50400001928E-02 0.  1.
    10030    2    1    2    0    0  0.00000000000E+00  0.00000000000E+00 -0.13028354984E+04  0.23912455633E+04  0.20051620902E+04 0.  0.
        2    1    3    3  502    0  0.18274596809E+03 -0.35636383197E+03 -0.17475068434E+04  0.17928110434E+04  0.25500000920E-02 0.  1.
       -2    1    3    3    0  502 -0.18274596809E+03  0.35636383197E+03  0.44467134494E+03  0.59843451990E+03  0.25500000920E-02 0. -1.
</event>
<event>
 5   0  0.8861350E-05  0.2012044E+04  0.7818609E-02  0.8601010E-01
       -1   -1    0    0    0  501  0.00000000000E+00  0.00000000000E+00  0.10955403306E+04  0.10955403307E+04  0.50400001928E-02 0.  1.
        1   -1    0    0  501    0  0.00000000000E+00  0.00000000000E+00 -0.92381875550E+03  0.92381875551E+03  0.50400001928E-02 0. -1.
    10030    2    1    2    0    0  0.00000000000E+00  0.00000000000E+00  0.17172157515E+03  0.20193590862E+04  0.20120444378E+04 0.  0.
        1    1    3    3  502    0 -0.82120123854E+03 -0.31184228978E+03  0.57801439441E+03  0.10515311351E+04  0.50400001928E-02 0.  1.
       -1    1    3    3    0  502  0.82120123854E+03  0.31184228978E+03 -0.40629281927E+03  0.96782795108E+03  0.50400001928E-02 0. -1.
</event>
<event>
 5   0  0.1834645E-04  0.1994034E+04  0.7818609E-02  0.8609415E-01
        2   -1    0    0  501    0  0.00000000000E+00  0.00000000000E+00  0.93283214513E+03  0.93283214514E+03  0.25500000920E-02 0.  1.
       -2   -1    0    0    0  501  0.00000000000E+00  0.00000000000E+00 -0.10656176577E+04  0.10656176577E+04  0.25500000920E-02 0. -1.
    10030    2    1    2    0    0  0.00000000000E+00  0.00000000000E+00 -0.13278551259E+03  0.19984498029E+04  0.19940335058E+04 0.  0.
        1    1    3    3  502    0  0.99359785207E+03  0.89361701955E+01  0.15800211813E+02  0.99376365072E+03  0.50400001928E-02 0. -1.
       -1    1    3    3    0  502 -0.99359785207E+03 -0.89361701955E+01 -0.14858572441E+03  0.10046861521E+04  0.50400001928E-02 0.  1.
</event>
<event>
 5   0  0.8765057E-05  0.1936589E+04  0.7818609E-02  0.8636855E-01
        1   -1    0    0  501    0  0.00000000000E+00  0.00000000000E+00  0.10230976830E+04  0.10230976831E+04  0.50400001928E-02 0. -1.
       -1   -1    0    0    0  501  0.00000000000E+00  0.00000000000E+00 -0.91642721219E+03  0.91642721221E+03  0.50400001928E-02 0.  1.
    10030    2    1    2    0    0  0.00000000000E+00  0.00000000000E+00  0.10667047085E+03  0.19395248953E+04  0.19365893292E+04 0.  0.
        3    1    3    3  502    0  0.70548093302E+03 -0.40716814367E+03 -0.47100905459E+03  0.94092443042E+03  0.10100000352E+00 0.  1.
       -3    1    3    3    0  502 -0.70548093302E+03  0.40716814367E+03  0.57767952543E+03  0.99860046484E+03  0.10100000352E+00 0. -1.
</event>
<event>
 5   0  0.8881384E-05  0.1985780E+04  0.7818609E-02  0.8613298E-01
       -1   -1    0    0    0  501  0.00000000000E+00  0.00000000000E+00  0.85129661265E+03  0.85129661267E+03  0.50400001928E-02 0. -1.
        1   -1    0    0  501    0  0.00000000000E+00  0.00000000000E+00 -0.11580337619E+04  0.11580337619E+04  0.50400001928E-02 0.  1.
    10030    2    1    2    0    0  0.00000000000E+00  0.00000000000E+00 -0.30673714926E+03  0.20093303746E+04  0.19857796644E+04 0.  0.
        5    1    3    3  502    0  0.38666975699E+03  0.79763301295E+03 -0.60597218151E+03  0.10737580263E+04  0.46999998093E+01 0. -1.
       -5    1    3    3    0  502 -0.38666975699E+03 -0.79763301295E+03  0.29923503225E+03  0.93557234827E+03  0.46999998093E+01 0.  1.
</event>
<event>
 5   0  0.8765057E-05  0.1953862E+04  0.7818609E-02  0.8628501E-01
       -1   -1    0    0    0  501  0.00000000000E+00  0.00000000000E+00  0.61514648523E+03  0.61514648525E+03  0.50400001928E-02 0.  1.
        1   -1    0    0  501    0  0.00000000000E+00  0.00000000000E+00 -0.15514913124E+04  0.15514913124E+04  0.50400001928E-02 0. -1.
    10030    2    1    2    0    0  0.00000000000E+00  0.00000000000E+00 -0.93634482716E+03  0.21666377976E+04  0.19538622548E+04 0.  0.
        3    1    3    3  502    0  0.39196301161E+03  0.71635610325E+02 -0.14572886578E+04  0.15107802307E+04  0.10100000352E+00 0. -1.
       -3    1    3    3    0  502 -0.39196301161E+03 -0.71635610325E+02  0.52094383068E+03  0.65585756690E+03  0.10100000352E+00 0.  1.
</event>
<event>
 5   0  0.1782172E-04  0.2025985E+04  0.7818609E-02  0.8594567E-01
       -2   -1    0    0    0  501  0.00000000000E+00  0.00000000000E+00  0.40542637889E+03  0.40542637890E+03  0.25500000920E-02 0.  1.
        2   -1    0    0  501    0  0.00000000000E+00  0.00000000000E+00 -0.25310489410E+04  0.25310489410E+04  0.25500000920E-02 0. -1.
    10030    2    1    2    0    0  0.00000000000E+00  0.00000000000E+00 -0.21256225621E+04  0.29364753199E+04  0.20259851993E+04 0.  0.
        2    1    3    3  502    0 -0.30538605124E+03 -0.96052403865E+03 -0.91580592980E+03  0.13618250880E+04  0.25500000920E-02 0.  1.
       -2    1    3    3    0  502  0.30538605124E+03  0.96052403865E+03 -0.12098166323E+04  0.15746502319E+04  0.25500000920E-02 0. -1.
</event>
<event>
 5   0  0.1782172E-04  0.2028920E+04  0.7818609E-02  0.8593218E-01
       -2   -1    0    0    0  501  0.00000000000E+00  0.00000000000E+00  0.78355217982E+03  0.78355217983E+03  0.25500000920E-02 0.  1.
        2   -1    0    0  501    0  0.00000000000E+00  0.00000000000E+00 -0.13134153388E+04  0.13134153388E+04  0.25500000920E-02 0. -1.
    10030    2    1    2    0    0  0.00000000000E+00  0.00000000000E+00 -0.52986315902E+03  0.20969675187E+04  0.20289203550E+04 0.  0.
        2    1    3    3  502    0  0.97001555157E+03  0.13952451541E+03  0.60294280832E+01  0.98001715021E+03  0.25500000920E-02 0. -1.
       -2    1    3    3    0  502 -0.97001555157E+03 -0.13952451541E+03 -0.53589258710E+03  0.11169503685E+04  0.25500000920E-02 0.  1.
</event>
<event>
 5   0  0.1893687E-04  0.2008996E+04  0.7818609E-02  0.8602426E-01
        2   -1    0    0  501    0  0.00000000000E+00  0.00000000000E+00  0.10011682070E+04  0.10011682070E+04  0.25500000920E-02 0.  1.
       -2   -1    0    0    0  501  0.00000000000E+00  0.00000000000E+00 -0.10078386595E+04  0.10078386595E+04  0.25500000920E-02 0. -1.
    10030    2    1    2    0    0  0.00000000000E+00  0.00000000000E+00 -0.66704524934E+01  0.20090068664E+04  0.20089957925E+04 0.  0.
        4    1    3    3  502    0 -0.79834569678E+03 -0.57486044181E+03  0.19962902114E+03  0.10038295364E+04  0.12699999809E+01 0. -1.
       -4    1    3    3    0  502  0.79834569678E+03  0.57486044181E+03 -0.20629947364E+03  0.10051773301E+04  0.12699999809E+01 0.  1.
</event>
<event>
 5   0  0.6531625E-05  0.2027271E+04  0.7818609E-02  0.8593976E-01
       -3   -1    0    0    0  501  0.00000000000E+00  0.00000000000E+00  0.12034199641E+04  0.12034199683E+04  0.10100000352E+00 0.  1.
        3   -1    0    0  501    0  0.00000000000E+00  0.00000000000E+00 -0.85378088663E+03  0.85378089261E+03  0.10100000352E+00 0. -1.
    10030    2    1    2    0    0  0.00000000000E+00  0.00000000000E+00  0.34963907744E+03  0.20572008609E+04  0.20272710469E+04 0.  0.
        3    1    3    3  502    0 -0.46353224817E+03 -0.76528565727E+03  0.65822705895E+03  0.11107597191E+04  0.10100000352E+00 0.  1.
       -3    1    3    3    0  502  0.46353224817E+03  0.76528565727E+03 -0.30858798151E+03  0.94644114178E+03  0.10100000352E+00 0. -1.
</event>
<event>
 5   0  0.8765057E-05  0.2049918E+04  0.7818609E-02  0.8583631E-01
        1   -1    0    0  501    0  0.00000000000E+00  0.00000000000E+00  0.18863462998E+04  0.18863462998E+04  0.50400001928E-02 0.  1.
       -1   -1    0    0    0  501  0.00000000000E+00  0.00000000000E+00 -0.55691861913E+03  0.55691861916E+03  0.50400001928E-02 0. -1.
    10030    2    1    2    0    0  0.00000000000E+00  0.00000000000E+00  0.13294276806E+04  0.24432649189E+04  0.20499184145E+04 0.  0.
        3    1    3    3  502    0 -0.17308869563E+03 -0.17301870810E+03  0.18510103996E+04  0.18671193533E+04  0.10100000352E+00 0.  1.
       -3    1    3    3    0  502  0.17308869563E+03  0.17301870810E+03 -0.52158271894E+03  0.57614556564E+03  0.10100000352E+00 0. -1.
</event>
<event>
 5   0  0.8958919E-05  0.1987640E+04  0.7818609E-02  0.8612421E-01
        1   -1    0    0  501    0  0.00000000000E+00  0.00000000000E+00  0.94909049270E+03  0.94909049271E+03  0.50400001928E-02 0.  1.
       -1   -1    0    0    0  501  0.00000000000E+00  0.00000000000E+00 -0.10406580540E+04  0.10406580540E+04  0.50400001928E-02 0. -1.
    10030    2    1    2    0    0  0.00000000000E+00  0.00000000000E+00 -0.91567561288E+02  0.19897485467E+04  0.19876404758E+04 0.  0.
        4    1    3    3  502    0  0.67200831734E+03 -0.26111165366E+02 -0.77827020551E+03  0.10285830531E+04  0.12699999809E+01 0. -1.
       -4    1    3    3    0  502 -0.67200831734E+03  0.26111165366E+02  0.68670264423E+03  0.96116549356E+03  0.12699999809E+01 0.  1.
</event>
<event>
 5   0  0.1807498E-04  0.2024361E+04  0.7818609E-02  0.8595315E-01
       -2   -1    0    0    0  501  0.00000000000E+00  0.00000000000E+00  0.87413409410E+03  0.87413409410E+03  0.25500000920E-02 0. -1.
        2   -1    0    0  501    0  0.00000000000E+00  0.00000000000E+00 -0.11720275596E+04  0.11720275596E+04  0.25500000920E-02 0.  1.
    10030    2    1    2    0    0  0.00000000000E+00  0.00000000000E+00 -0.29789346546E+03  0.20461616537E+04  0.20243608858E+04 0.  0.
        5    1    3    3  502    0  0.73967065426E+03 -0.54304489421E+03 -0.58071999317E+03  0.10859411745E+04  0.46999998093E+01 0.  1.
       -5    1    3    3    0  502 -0.73967065426E+03  0.54304489421E+03  0.28282652771E+03  0.96022047920E+03  0.46999998093E+01 0. -1.
</event>
<event>
 5   0  0.8881384E-05  0.2015095E+04  0.7818609E-02  0.8599596E-01
        1   -1    0    0  501    0  0.00000000000E+00  0.00000000000E+00  0.18211870584E+04  0.18211870584E+04  0.50400001928E-02 0. -1.
       -1   -1    0    0    0  501  0.00000000000E+00  0.00000000000E+00 -0.55741198828E+03  0.55741198830E+03  0.50400001928E-02 0.  1.
    10030    2    1    2    0    0  0.00000000000E+00  0.00000000000E+00  0.12637750701E+04  0.23785990467E+04  0.20150945380E+04 0.  0.
        5    1    3    3  502    0 -0.67782898042E+03 -0.74233683388E+03  0.71206125293E+03  0.12318966757E+04  0.46999998093E+01 0. -1.
       -5    1    3    3    0  502  0.67782898042E+03  0.74233683388E+03  0.55171381718E+03  0.11467023710E+04  0.46999998093E+01 0.  1.
</event>
<event>
 5   0  0.8577422E-05  0.1961910E+04  0.7818609E-02  0.8624639E-01
        1   -1    0    0  501    0  0.00000000000E+00  0.00000000000E+00  0.53863070338E+03  0.53863070340E+03  0.50400001928E-02 0.  1.
       -1   -1    0    0    0  501  0.00000000000E+00  0.00000000000E+00 -0.17865169821E+04  0.17865169821E+04  0.50400001928E-02 0. -1.
    10030    2    1    2    0    0  0.00000000000E+00  0.00000000000E+00 -0.12478862787E+04  0.23251476855E+04  0.19619101903E+04 0.  0.
        2    1    3    3  502    0 -0.80758920550E+03 -0.50589583424E+03 -0.89970771858E+03  0.13105742630E+04  0.25500000920E-02 0.  1.
       -2    1    3    3    0  502  0.80758920550E+03  0.50589583424E+03 -0.34817856016E+03  0.10145734225E+04  0.25500000920E-02 0. -1.
</event>
<event>
 5   0  0.1812865E-04  0.1985095E+04  0.7818609E-02  0.8613621E-01
       -2   -1    0    0    0  501  0.00000000000E+00  0.00000000000E+00  0.70756762888E+03  0.70756762888E+03  0.25500000920E-02 0.  1.
        2   -1    0    0  501    0  0.00000000000E+00  0.00000000000E+00 -0.13923054516E+04  0.13923054516E+04  0.25500000920E-02 0. -1.
    10030    2    1    2    0    0  0.00000000000E+00  0.00000000000E+00 -0.68473782277E+03  0.20998730805E+04  0.19850947253E+04 0.  0.
        3    1    3    3  502    0 -0.76890421430E+03  0.89251761897E+02  0.31481810291E+03  0.83563749072E+03  0.10100000352E+00 0.  1.
       -3    1    3    3    0  502  0.76890421430E+03 -0.89251761897E+02 -0.99955592568E+03  0.12642355898E+04  0.10100000352E+00 0. -1.
</event>
<event>
 5   0  0.8765057E-05  0.1974382E+04  0.7818609E-02  0.8618692E-01
        1   -1    0    0  501    0  0.00000000000E+00  0.00000000000E+00  0.11687685038E+04  0.11687685038E+04  0.50400001928E-02 0. -1.
       -1   -1    0    0    0  501  0.00000000000E+00  0.00000000000E+00 -0.83382327426E+03  0.83382327427E+03  0.50400001928E-02 0.  1.
    10030    2    1    2    0    0  0.00000000000E+00  0.00000000000E+00  0.33494522955E+03  0.20025917781E+04  0.19743823143E+04 0.  0.
        3    1    3    3  502    0 -0.31361375854E+03  0.64530733115E+03  0.85522494784E+03  0.11163265037E+04  0.10100000352E+00 0. -1.
       -3    1    3    3    0  502  0.31361375854E+03 -0.64530733115E+03 -0.52027971829E+03  0.88626527442E+03  0.10100000352E+00 0.  1.
</event>
<event>
 5   0  0.8765057E-05  0.1956831E+04  0.7818609E-02  0.8627074E-01
       -1   -1    0    0    0  501  0.00000000000E+00  0.00000000000E+00  0.48458367727E+03  0.48458367730E+03  0.50400001928E-02 0.  1.
        1   -1    0    0  501    0  0.00000000000E+00  0.00000000000E+00 -0.19755034616E+04  0.19755034616E+04  0.50400001928E-02 0. -1.
    10030    2    1    2    0    0  0.00000000000E+00  0.00000000000E+00 -0.14909197843E+04  0.24600871389E+04  0.19568308378E+04 0.  0.
        3    1    3    3  502    0  0.30121638853E+03  0.29747319320E+03  0.36347990026E+03  0.55797783243E+03  0.10100000352E+00 0.  1.
       -3    1    3    3    0  502 -0.30121638853E+03 -0.29747319320E+03 -0.18543996846E+04  0.19021093065E+04  0.10100000352E+00 0. -1.
</event>
<event>
 5   0  0.8765057E-05  0.2034200E+04  0.7818609E-02  0.8590796E-01
       -1   -1    0    0    0  501  0.00000000000E+00  0.00000000000E+00  0.64297828757E+03  0.64297828759E+03  0.50400001928E-02 0.  1.
        1   -1    0    0  501    0  0.00000000000E+00  0.00000000000E+00 -0.16089065691E+04  0.16089065691E+04  0.50400001928E-02 0. -1.
    10030    2    1    2    0    0  0.00000000000E+00  0.00000000000E+00 -0.96592828151E+03  0.22518848567E+04  0.20341995877E+04 0.  0.
        3    1    3    3  502    0 -0.79753236883E+03 -0.23340240945E+03  0.16627539349E+03  0.84745624120E+03  0.10100000352E+00 0.  1.
       -3    1    3    3    0  502  0.79753236883E+03  0.23340240945E+03 -0.11322036750E+04  0.14044286155E+04  0.10100000352E+00 0. -1.
</event>
<event>
 5   0  0.6531625E-05  0.1989654E+04  0.7818609E-02  0.8611473E-01
        4   -1    0    0  501    0  0.00000000000E+00  0.00000000000E+00  0.57716754491E+03  0.57716894216E+03  0.12699999809E+01 0. -1.
       -4   -1    0    0    0  501  0.00000000000E+00  0.00000000000E+00 -0.17147164092E+04  0.17147168795E+04  0.12699999809E+01 0.  1.
    10030    2    1    2    0    0  0.00000000000E+00  0.00000000000E+00 -0.11375488643E+04  0.22918858216E+04  0.19896540405E+04 0.  0.
        3    1    3    3  502    0 -0.43340828674E+03 -0.62566300419E+03  0.16914770937E+03  0.77968448466E+03  0.10100000352E+00 0. -1.
       -3    1    3    3    0  502  0.43340828674E+03  0.62566300419E+03 -0.13066965736E+04  0.15122013370E+04  0.10100000352E+00 0.  1.
</event>
<event>
 5   0  0.8958919E-05  0.1996787E+04  0.7818609E-02  0.8608124E-01
       -1   -1    0    0    0  501  0.00000000000E+00  0.00000000000E+00  0.50345469265E+03  0.50345469268E+03  0.50400001928E-02 0.  1.
        1   -1    0    0  501    0  0.00000000000E+00  0.00000000000E+00 -0.19798996567E+04  0.19798996567E+04  0.50400001928E-02 0. -1.
    10030    2    1    2    0    0  0.00000000000E+00  0.00000000000E+00 -0.14764449640E+04  0.24833543494E+04  0.19967871926E+04 0.  0.
        4    1    3    3  502    0  0.33062177748E+02  0.72271291065E+03  0.11745946382E+03  0.73294297006E+03  0.12699999809E+01 0.  1.
       -4    1    3    3    0  502 -0.33062177748E+02 -0.72271291065E+03 -0.15939044279E+04  0.17504113793E+04  0.12699999809E+01 0. -1.
</event>
<event>
 5   0  0.8958919E-05  0.1988983E+04  0.7818609E-02  0.8611789E-01
        1   -1    0    0  501    0  0.00000000000E+00  0.00000000000E+00  0.70729708929E+03  0.70729708931E+03  0.50400001928E-02 0. -1.
       -1   -1    0    0    0  501  0.00000000000E+00  0.00000000000E+00 -0.13982995294E+04  0.13982995294E+04  0.50400001928E-02 0.  1.
    10030    2    1    2    0    0  0.00000000000E+00  0.00000000000E+00 -0.69100244013E+03  0.21055966187E+04  0.19889828427E+04 0.  0.
        4    1    3    3  502    0  0.74789797266E+03 -0.56437238115E+03 -0.69843007961E+03  0.11686204478E+04  0.12699999809E+01 0.  1.
       -4    1    3    3    0  502 -0.74789797266E+03  0.56437238115E+03  0.74276394770E+01  0.93697617090E+03  0.12699999809E+01 0. -1.
</event>
<event>
 5   0  0.1812865E-04  0.1984061E+04  0.7818609E-02  0.8614109E-01
       -2   -1    0    0    0  501  0.00000000000E+00  0.00000000000E+00  0.11980978408E+04  0.11980978408E+04  0.25500000920E-02 0.  1.
        2   -1    0    0  501    0  0.00000000000E+00  0.00000000000E+00 -0.82140593818E+03  0.82140593819E+03  0.25500000920E-02 0. -1.
    10030    2    1    2    0    0  0.00000000000E+00  0.00000000000E+00  0.37669190266E+03  0.20195037790E+04  0.19840611694E+04 0.  0.
        3    1    3    3  502    0 -0.87494875745E+03 -0.71589250879E+02 -0.28192944883E+03  0.92203284828E+03  0.10100000352E+00 0. -1.
       -3    1    3    3    0  502  0.87494875745E+03  0.71589250879E+02  0.65862135149E+03  0.10974709307E+04  0.10100000352E+00 0.  1.
</event>
<event>
 5   0  0.1893687E-04  0.1989581E+04  0.7818609E-02  0.8611508E-01
        2   -1    0    0  501    0  0.00000000000E+00  0.00000000000E+00  0.79156929743E+03  0.79156929743E+03  0.25500000920E-02 0.  1.
       -2   -1    0    0    0  501  0.00000000000E+00  0.00000000000E+00 -0.12501845308E+04  0.12501845308E+04  0.25500000920E-02 0. -1.
    10030    2    1    2    0    0  0.00000000000E+00  0.00000000000E+00 -0.45861523341E+03  0.20417538283E+04  0.19895805495E+04 0.  0.
        4    1    3    3  502    0 -0.31544878078E+03  0.68052587101E+03  0.44126680410E+03  0.87025364102E+03  0.12699999809E+01 0.  1.
       -4    1    3    3    0  502  0.31544878078E+03 -0.68052587101E+03 -0.89988203750E+03  0.11715001873E+04  0.12699999809E+01 0. -1.
</event>
<event>
 5   0  0.1893687E-04  0.2012767E+04  0.7818609E-02  0.8600675E-01
        2   -1    0    0  501    0  0.00000000000E+00  0.00000000000E+00  0.21298775960E+04  0.21298775960E+04  0.25500000920E-02 0.  1.
       -2   -1    0    0    0  501  0.00000000000E+00  0.00000000000E+00 -0.47552408356E+03  0.47552408357E+03  0.25500000920E-02 0. -1.
    10030    2    1    2    0    0  0.00000000000E+00  0.00000000000E+00  0.16543535125E+04  0.26054016796E+04  0.20127673407E+04 0.  0.
        4    1    3    3  502    0 -0.28397028495E+03 -0.91478453259E+03  0.42749808175E+03  0.10489166252E+04  0.12699999809E+01 0. -1.
       -4    1    3    3    0  502  0.28397028495E+03  0.91478453259E+03  0.12268554307E+04  0.15564850544E+04  0.12699999809E+01 0.  1.
</event>
<event>
 5   0  0.8881384E-05  0.2008695E+04  0.7818609E-02  0.8602566E-01
       -1   -1    0    0    0  501  0.00000000000E+00  0.00000000000E+00  0.91830011852E+03  0.91830011853E+03  0.50400001928E-02 0. -1.
        1   -1    0    0  501    0  0.00000000000E+00  0.00000000000E+00 -0.10984576215E+04  0.10984576215E+04  0.50400001928E-02 0.  1.
    10030    2    1    2    0    0  0.00000000000E+00  0.00000000000E+00 -0.18015750297E+03  0.20167577400E+04  0.20086948639E+04 0.  0.
        5    1    3    3  502    0  0.29160428918E+03 -0.89904292244E+03  0.25096166614E+03  0.97791363920E+03  0.46999998093E+01 0. -1.
       -5    1    3    3    0  502 -0.29160428918E+03  0.89904292244E+03 -0.43111916911E+03  0.10388441008E+04  0.46999998093E+01 0.  1.
</event>
<event>
 5   0  0.8765057E-05  0.1981218E+04  0.7818609E-02  0.8615453E-01
        1   -1    0    0  501    0  0.00000000000E+00  0.00000000000E+00  0.12555169324E+04  0.12555169324E+04  0.50400001928E-02 0.  1.
       -1   -1    0    0    0  501  0.00000000000E+00  0.00000000000E+00 -0.78159498860E+03  0.78159498861E+03  0.50400001928E-02 0. -1.
    10030    2    1    2    0    0  0.00000000000E+00  0.00000000000E+00  0.47392194378E+03  0.20371119210E+04  0.19812175473E+04 0.  0.
        3    1    3    3  502    0  0.65023760337E+03  0.35648691125E+03  0.91231233071E+03  0.11756724279E+04  0.10100000352E+00 0.  1.
       -3    1    3    3    0  502 -0.65023760337E+03 -0.35648691125E+03 -0.43839038693E+03  0.86143949311E+03  0.10100000352E+00 0. -1.
</event>
<event>
 5   0  0.1893687E-04  0.2003837E+04  0.7818609E-02  0.8604829E-01
        2   -1    0    0  501    0  0.00000000000E+00  0.00000000000E+00  0.16383986614E+04  0.16383986614E+04  0.25500000920E-02 0. -1.
       -2   -1    0    0    0  501  0.00000000000E+00  0.00000000000E+00 -0.61269646099E+03  0.61269646100E+03  0.25500000920E-02 0.  1.
    10030    2    1    2    0    0  0.00000000000E+00  0.00000000000E+00  0.10257022004E+04  0.22510951224E+04  0.20038373802E+04 0.  0.
        4    1    3    3  502    0 -0.56524929036E+03 -0.67511423973E+03  0.10499141397E+04  0.13702581183E+04  0.12699999809E+01 0. -1.
       -4    1    3    3    0  502  0.56524929036E+03  0.67511423973E+03 -0.24211939337E+02  0.88083700413E+03  0.12699999809E+01 0.  1.
</event>
<event>
 5   0  0.1807498E-04  0.2005950E+04  0.7818609E-02  0.8603844E-01
        2   -1    0    0  501    0  0.00000000000E+00  0.00000000000E+00  0.18637868898E+04  0.18637868898E+04  0.25500000920E-02 0. -1.
       -2   -1    0    0    0  501  0.00000000000E+00  0.00000000000E+00 -0.53973922361E+03  0.53973922362E+03  0.25500000920E-02 0.  1.
    10030    2    1    2    0    0  0.00000000000E+00  0.00000000000E+00  0.13240476662E+04  0.24035261134E+04  0.20059500381E+04 0.  0.
        5    1    3    3  502    0  0.53535017365E+03 -0.52373272494E+03  0.14613586973E+04  0.16420983855E+04  0.46999998093E+01 0. -1.
       -5    1    3    3    0  502 -0.53535017365E+03  0.52373272494E+03 -0.13731103107E+03  0.76142772792E+03  0.46999998093E+01 0.  1.
</event>
<event>
 5   0  0.8881384E-05  0.1978530E+04  0.7818609E-02  0.8616725E-01
       -1   -1    0    0    0  501  0.00000000000E+00  0.00000000000E+00  0.50072577037E+03  0.50072577039E+03  0.50400001928E-02 0.  1.
        1   -1    0    0  501    0  0.00000000000E+00  0.00000000000E+00 -0.19544537542E+04  0.19544537542E+04  0.50400001928E-02 0. -1.
    10030    2    1    2    0    0  0.00000000000E+00  0.00000000000E+00 -0.14537279839E+04  0.24551795246E+04  0.19785301229E+04 0.  0.
        5    1    3    3  502    0 -0.70373163066E+02  0.24302785094E+03 -0.19136110633E+04  0.19302705276E+04  0.46999998093E+01 0. -1.
       -5    1    3    3    0  502  0.70373163066E+02 -0.24302785094E+03  0.45988307940E+03  0.52490899700E+03  0.46999998093E+01 0.  1.
</event>
<event>
 5   0  0.8765057E-05  0.2010635E+04  0.7818609E-02  0.8601664E-01
        1   -1    0    0  501    0  0.00000000000E+00  0.00000000000E+00  0.15612099427E+04  0.15612099427E+04  0.50400001928E-02 0.  1.
       -1   -1    0    0    0  501  0.00000000000E+00  0.00000000000E+00 -0.64735913731E+03  0.64735913733E+03  0.50400001928E-02 0. -1.
    10030    2    1    2    0    0  0.00000000000E+00  0.00000000000E+00  0.91385080538E+03  0.22085690800E+04  0.20106352446E+04 0.  0.
        3    1    3    3  502    0  0.28104407283E+03 -0.84941835834E+03  0.96049456347E+03  0.13126489001E+04  0.10100000352E+00 0.  1.
       -3    1    3    3    0  502 -0.28104407283E+03  0.84941835834E+03 -0.46643758094E+02  0.89592017989E+03  0.10100000352E+00 0. -1.
</event>
<event>
 5   0  0.1782172E-04  0.1989492E+04  0.7818609E-02  0.8611549E-01
        2   -1    0    0  501    0  0.00000000000E+00  0.00000000000E+00  0.84590498034E+03  0.84590498035E+03  0.25500000920E-02 0.  1.
       -2   -1    0    0    0  501  0.00000000000E+00  0.00000000000E+00 -0.11697759561E+04  0.11697759561E+04  0.25500000920E-02 0. -1.
    10030    2    1    2    0    0  0.00000000000E+00  0.00000000000E+00 -0.32387097577E+03  0.20156809365E+04  0.19894917011E+04 0.  0.
        2    1    3    3  502    0  0.28620465617E+03 -0.33984211610E+03 -0.10636589598E+04  0.11527255319E+04  0.25500000920E-02 0. -1.
       -2    1    3    3    0  502 -0.28620465617E+03  0.33984211610E+03  0.73978798399E+03  0.86295540462E+03  0.25500000920E-02 0.  1.
</event>
<event>
 5   0  0.1807498E-04  0.2023682E+04  0.7818609E-02  0.8595628E-01
        2   -1    0    0  501    0  0.00000000000E+00  0.00000000000E+00  0.11052507604E+04  0.11052507604E+04  0.25500000920E-02 0.  1.
       -2   -1    0    0    0  501  0.00000000000E+00  0.00000000000E+00 -0.92632609322E+03  0.92632609322E+03  0.25500000920E-02 0. -1.
    10030    2    1    2    0    0  0.00000000000E+00  0.00000000000E+00  0.17892466714E+03  0.20315768536E+04  0.20236824048E+04 0.  0.
        5    1    3    3  502    0  0.37981754100E+03 -0.45621728062E+03 -0.73312718649E+03  0.94334147219E+03  0.46999998093E+01 0. -1.
       -5    1    3    3    0  502 -0.37981754100E+03  0.45621728062E+03  0.91205185363E+03  0.10882353814E+04  0.46999998093E+01 0.  1.
</event>
<event>
 5   0  0.1834645E-04  0.2008374E+04  0.7818609E-02  0.8602715E-01
        2   -1    0    0  501    0  0.00000000000E+00  0.00000000000E+00  0.13100123310E+04  0.13100123310E+04  0.25500000920E-02 0. -1.
       -2   -1    0    0    0  501  0.00000000000E+00  0.00000000000E+00 -0.76975736198E+03  0.76975736198E+03  0.25500000920E-02 0.  1.
    10030    2    1    2    0    0  0.00000000000E+00  0.00000000000E+00  0.54025496903E+03  0.20797696930E+04  0.20083741047E+04 0.  0.
        1    1    3    3  502    0  0.68509915898E+03 -0.44668818887E+03 -0.33325236603E+03  0.88314683672E+03  0.50400001928E-02 0.  1.
       -1    1    3    3    0  502 -0.68509915898E+03  0.44668818887E+03  0.87350733506E+03  0.11966228563E+04  0.50400001928E-02 0. -1.
</event>
<event>
 5   0  0.1893687E-04  0.1972508E+04  0.7818609E-02  0.8619583E-01
       -2   -1    0    0    0  501  0.00000000000E+00  0.00000000000E+00  0.48402670264E+03  0.48402670265E+03  0.25500000920E-02 0. -1.
        2   -1    0    0  501    0  0.00000000000E+00  0.00000000000E+00 -0.20095939923E+04  0.20095939923E+04  0.25500000920E-02 0.  1.
    10030    2    1    2    0    0  0.00000000000E+00  0.00000000000E+00 -0.15255672896E+04  0.24936206949E+04  0.19725082040E+04 0.  0.
        4    1    3    3  502    0  0.22804532872E+03  0.94576443116E+03 -0.55807690589E+03  0.11215732152E+04  0.12699999809E+01 0. -1.
       -4    1    3    3    0  502 -0.22804532872E+03 -0.94576443116E+03 -0.96749038376E+03  0.13720474798E+04  0.12699999809E+01 0.  1.
</event>
<event>
 5   0  0.1807498E-04  0.2095946E+04  0.7818609E-02  0.8563031E-01
        2   -1    0    0  501    0  0.00000000000E+00  0.00000000000E+00  0.20805824214E+04  0.20805824214E+04  0.25500000920E-02 0. -1.
       -2   -1    0    0    0  501  0.00000000000E+00  0.00000000000E+00 -0.52785569074E+03  0.52785569075E+03  0.25500000920E-02 0.  1.
    10030    2    1    2    0    0  0.00000000000E+00  0.00000000000E+00  0.15527267306E+04  0.26084381121E+04  0.20959458688E+04 0.  0.
        5    1    3    3  502    0  0.44282784551E+03 -0.61902503920E+03  0.16728785712E+04  0.18378882729E+04  0.46999998093E+01 0. -1.
       -5    1    3    3    0  502 -0.44282784551E+03  0.61902503920E+03 -0.12015184052E+03  0.77054983920E+03  0.46999998093E+01 0.  1.
</event>
<event>
 5   0  0.1812865E-04  0.2024021E+04  0.7818609E-02  0.8595472E-01
       -2   -1    0    0    0  501  0.00000000000E+00  0.00000000000E+00  0.52599110873E+03  0.52599110874E+03  0.25500000920E-02 0. -1.
        2   -1    0    0  501    0  0.00000000000E+00  0.00000000000E+00 -0.19471152304E+04  0.19471152304E+04  0.25500000920E-02 0.  1.
    10030    2    1    2    0    0  0.00000000000E+00  0.00000000000E+00 -0.14211241217E+04  0.24731063391E+04  0.20240210462E+04 0.  0.
        3    1    3    3  502    0 -0.71909558315E+03  0.65911704453E+03 -0.10398610749E+04  0.14257786649E+04  0.10100000352E+00 0. -1.
       -3    1    3    3    0  502  0.71909558315E+03 -0.65911704453E+03 -0.38126304673E+03  0.10473276742E+04  0.10100000352E+00 0.  1.
</event>
<event>
 5   0  0.8958919E-05  0.1969050E+04  0.7818609E-02  0.8621229E-01
       -1   -1    0    0    0  501  0.00000000000E+00  0.00000000000E+00  0.18127899667E+04  0.18127899667E+04  0.50400001928E-02 0. -1.
        1   -1    0    0  501    0  0.00000000000E+00  0.00000000000E+00 -0.53469510354E+03  0.53469510356E+03  0.50400001928E-02 0.  1.
    10030    2    1    2    0    0  0.00000000000E+00  0.00000000000E+00  0.12780948631E+04  0.23474850702E+04  0.19690504503E+04 0.  0.
        4    1    3    3  502    0 -0.44376334729E+03 -0.34832024452E+03  0.16009881285E+04  0.16974738589E+04  0.12699999809E+01 0. -1.
       -4    1    3    3    0  502  0.44376334729E+03  0.34832024452E+03 -0.32289326537E+03  0.65001121134E+03  0.12699999809E+01 0.  1.
</event>
<event>
 5   0  0.1807498E-04  0.2182683E+04  0.7818609E-02  0.8525671E-01
       -2   -1    0    0    0  501  0.00000000000E+00  0.00000000000E+00  0.62133027403E+03  0.62133027404E+03  0.25500000920E-02 0.  1.
        2   -1    0    0  501    0  0.00000000000E+00  0.00000000000E+00 -0.19168968187E+04  0.19168968187E+04  0.25500000920E-02 0. -1.
    10030    2    1    2    0    0  0.00000000000E+00  0.00000000000E+00 -0.12955665447E+04  0.25382270928E+04  0.21826827765E+04 0.  0.
        5    1    3    3  502    0 -0.20259614811E+03 -0.10441483768E+04 -0.36361607163E+03  0.11240684007E+04  0.46999998093E+01 0.  1.
       -5    1    3    3    0  502  0.20259614811E+03  0.10441483768E+04 -0.93195047308E+03  0.14141586920E+04  0.46999998093E+01 0. -1.
</event>
<event>
 5   0  0.8881384E-05  0.1978992E+04  0.7818609E-02  0.8616506E-01
        1   -1    0    0  501    0  0.00000000000E+00  0.00000000000E+00  0.22136337451E+04  0.22136337451E+04  0.50400001928E-02 0. -1.
       -1   -1    0    0    0  501  0.00000000000E+00  0.00000000000E+00 -0.44230570223E+03  0.44230570225E+03  0.50400001928E-02 0.  1.
    10030    2    1    2    0    0  0.00000000000E+00  0.00000000000E+00  0.17713280428E+04  0.26559394473E+04  0.19789924994E+04 0.  0.
        5    1    3    3  502    0 -0.91501259982E+03 -0.37365615352E+03  0.82251898552E+03  0.12858563491E+04  0.46999998093E+01 0.  1.
       -5    1    3    3    0  502  0.91501259982E+03  0.37365615352E+03  0.94880905732E+03  0.13700830983E+04  0.46999998093E+01 0. -1.
</event>
<event>
 5   0  0.8881384E-05  0.1959577E+04  0.7818609E-02  0.8625757E-01
        1   -1    0    0  501    0  0.00000000000E+00  0.00000000000E+00  0.15354330186E+04  0.15354330186E+04  0.50400001928E-02 0.  1.
       -1   -1    0    0    0  501  0.00000000000E+00  0.00000000000E+00 -0.62522108397E+03  0.62522108399E+03  0.50400001928E-02 0. -1.
    10030    2    1    2    0    0  0.00000000000E+00  0.00000000000E+00  0.91021193467E+03  0.21606541026E+04  0.19595765831E+04 0.  0.
        5    1    3    3  502    0 -0.96368989564E+02 -0.84450267363E+03 -0.82231123770E+02  0.85396475081E+03  0.46999998093E+01 0. -1.
       -5    1    3    3    0  502  0.96368989564E+02  0.84450267363E+03  0.99244305844E+03  0.13066893518E+04  0.46999998093E+01 0.  1.
</event>
<event>
 5   0  0.8881384E-05  0.1981653E+04  0.7818609E-02  0.8615247E-01
       -1   -1    0    0    0  501  0.00000000000E+00  0.00000000000E+00  0.86332050426E+03  0.86332050427E+03  0.50400001928E-02 0.  1.
        1   -1    0    0  501    0  0.00000000000E+00  0.00000000000E+00 -0.11371643939E+04  0.11371643940E+04  0.50400001928E-02 0. -1.
    10030    2    1    2    0    0  0.00000000000E+00  0.00000000000E+00 -0.27384388968E+03  0.20004848982E+04  0.19816531866E+04 0.  0.
        5    1    3    3  502    0  0.26184806149E+03 -0.35202742144E+03  0.75990519342E+03  0.87747689756E+03  0.46999998093E+01 0.  1.
       -5    1    3    3    0  502 -0.26184806149E+03  0.35202742144E+03 -0.10337490831E+04  0.11230080007E+04  0.46999998093E+01 0. -1.
</event>
<event>
 5   0  0.8861350E-05  0.2021604E+04  0.7818609E-02  0.8596586E-01
        1   -1    0    0  501    0  0.00000000000E+00  0.00000000000E+00  0.16187141434E+04  0.16187141434E+04  0.50400001928E-02 0.  1.
       -1   -1    0    0    0  501  0.00000000000E+00  0.00000000000E+00 -0.63119295673E+03  0.63119295675E+03  0.50400001928E-02 0. -1.
    10030    2    1    2    0    0  0.00000000000E+00  0.00000000000E+00  0.98752118663E+03  0.22499071001E+04  0.20216042800E+04 0.  0.
        1    1    3    3  502    0  0.46122620671E+03 -0.53582719451E+03  0.12977568041E+04  0.14778406946E+04  0.50400001928E-02 0.  1.
       -1    1    3    3    0  502 -0.46122620671E+03  0.53582719451E+03 -0.31023561744E+03  0.77206640549E+03  0.50400001928E-02 0. -1.
</event>
<event>
 5   0  0.1812865E-04  0.2016974E+04  0.7818609E-02  0.8598726E-01
        2   -1    0    0  501    0  0.00000000000E+00  0.00000000000E+00  0.94831797717E+03  0.94831797718E+03  0.25500000920E-02 0.  1.
       -2   -1    0    0    0  501  0.00000000000E+00  0.00000000000E+00 -0.10724733105E+04  0.10724733105E+04  0.25500000920E-02 0. -1.
    10030    2    1    2    0    0  0.00000000000E+00  0.00000000000E+00 -0.12415533328E+03  0.20207912876E+04  0.20169736938E+04 0.  0.
        3    1    3    3  502    0 -0.47331703230E+03 -0.86406314734E+03 -0.27791888200E+03  0.10236567056E+04  0.10100000352E+00 0. -1.
       -3    1    3    3    0  502  0.47331703230E+03  0.86406314734E+03  0.15376354871E+03  0.99713458208E+03  0.10100000352E+00 0.  1.
</event>
<event>
 5   0  0.6531625E-05  0.1965607E+04  0.7818609E-02  0.8622871E-01
        4   -1    0    0  501    0  0.00000000000E+00  0.00000000000E+00  0.46676798696E+03  0.46676971468E+03  0.12699999809E+01 0.  1.
       -4   -1    0    0    0  501  0.00000000000E+00  0.00000000000E+00 -0.20693373616E+04  0.20693377513E+04  0.12699999809E+01 0. -1.
    10030    2    1    2    0    0  0.00000000000E+00  0.00000000000E+00 -0.16025693746E+04  0.25361074660E+04  0.19656074070E+04 0.  0.
        4    1    3    3  502    0 -0.83113591117E+03 -0.26622961928E+03 -0.13843771656E+04  0.16365105751E+04  0.12699999809E+01 0. -1.
       -4    1    3    3    0  502  0.83113591117E+03  0.26622961928E+03 -0.21819220902E+03  0.89959689083E+03  0.12699999809E+01 0.  1.
</event>
<event>
 5   0  0.8958919E-05  0.1992976E+04  0.7818609E-02  0.8609911E-01
       -1   -1    0    0    0  501  0.00000000000E+00  0.00000000000E+00  0.17877949842E+04  0.17877949842E+04  0.50400001928E-02 0.  1.
        1   -1    0    0  501    0  0.00000000000E+00  0.00000000000E+00 -0.55542652793E+03  0.55542652796E+03  0.50400001928E-02 0. -1.
    10030    2    1    2    0    0  0.00000000000E+00  0.00000000000E+00  0.12323684563E+04  0.23432215122E+04  0.19929764281E+04 0.  0.
        4    1    3    3  502    0  0.49430520210E+03 -0.81073200640E+03  0.26080121460E+03  0.98470447620E+03  0.12699999809E+01 0.  1.
       -4    1    3    3    0  502 -0.49430520210E+03  0.81073200640E+03  0.97156724167E+03  0.13585170360E+04  0.12699999809E+01 0. -1.
</event>
<event>
 5   0  0.1782172E-04  0.1910018E+04  0.7818609E-02  0.8649886E-01
       -2   -1    0    0    0  501  0.00000000000E+00  0.00000000000E+00  0.20236943138E+04  0.20236943138E+04  0.25500000920E-02 0. -1.
        2   -1    0    0  501    0  0.00000000000E+00  0.00000000000E+00 -0.45068171878E+03  0.45068171879E+03  0.25500000920E-02 0.  1.
    10030    2    1    2    0    0  0.00000000000E+00  0.00000000000E+00  0.15730125950E+04  0.24743760326E+04  0.19100178341E+04 0.  0.
        2    1    3    3  502    0  0.40604567430E+03 -0.81828218058E+03  0.42566838295E+03  0.10077958072E+04  0.25500000920E-02 0.  1.
       -2    1    3    3    0  502 -0.40604567430E+03  0.81828218058E+03  0.11473442121E+04  0.14665802254E+04  0.25500000920E-02 0. -1.
</event>
<event>
 5   0  0.1782172E-04  0.2033476E+04  0.7818609E-02  0.8591128E-01
       -2   -1    0    0    0  501  0.00000000000E+00  0.00000000000E+00  0.43788055901E+03  0.43788055901E+03  0.25500000920E-02 0. -1.
        2   -1    0    0  501    0  0.00000000000E+00  0.00000000000E+00 -0.23608167026E+04  0.23608167026E+04  0.25500000920E-02 0.  1.
    10030    2    1    2    0    0  0.00000000000E+00  0.00000000000E+00 -0.19229361436E+04  0.27986972616E+04  0.20334755838E+04 0.  0.
        2    1    3    3  502    0 -0.42026248145E+03 -0.54308011326E+03  0.70490024295E+02  0.69030819658E+03  0.25500000920E-02 0. -1.
       -2    1    3    3    0  502  0.42026248145E+03  0.54308011326E+03 -0.19934261679E+04  0.21083890650E+04  0.25500000920E-02 0.  1.
</event>
<event>
 5   0  0.8861350E-05  0.2002852E+04  0.7818609E-02  0.8605289E-01
       -1   -1    0    0    0  501  0.00000000000E+00  0.00000000000E+00  0.10694380221E+04  0.10694380221E+04  0.50400001928E-02 0. -1.
        1   -1    0    0  501    0  0.00000000000E+00  0.00000000000E+00 -0.93773904338E+03  0.93773904339E+03  0.50400001928E-02 0.  1.
    10030    2    1    2    0    0  0.00000000000E+00  0.00000000000E+00  0.13169897869E+03  0.20071770655E+04  0.20028517547E+04 0.  0.
        1    1    3    3  502    0 -0.33720620226E+03 -0.74817530471E+03  0.64100482020E+03  0.10413267926E+04  0.50400001928E-02 0. -1.
       -1    1    3    3    0  502  0.33720620226E+03  0.74817530471E+03 -0.50930584151E+03  0.96585027289E+03  0.50400001928E-02 0.  1.
</event>
<event>
 5   0  0.1807498E-04  0.2095684E+04  0.7818609E-02  0.8563147E-01
        2   -1    0    0  501    0  0.00000000000E+00  0.00000000000E+00  0.11027569508E+04  0.11027569508E+04  0.25500000920E-02 0.  1.
       -2   -1    0    0    0  501  0.00000000000E+00  0.00000000000E+00 -0.99566135221E+03  0.99566135221E+03  0.25500000920E-02 0. -1.
    10030    2    1    2    0    0  0.00000000000E+00  0.00000000000E+00  0.10709559862E+03  0.20984183030E+04  0.20956836372E+04 0.  0.
        5    1    3    3  502    0  0.74663586777E+03 -0.23738778069E+03 -0.64315631727E+03  0.10136519205E+04  0.46999998093E+01 0. -1.
       -5    1    3    3    0  502 -0.74663586777E+03  0.23738778069E+03  0.75025191589E+03  0.10847663826E+04  0.46999998093E+01 0.  1.
</event>
<event>
 5   0  0.8765057E-05  0.1973485E+04  0.7818609E-02  0.8619119E-01
       -1   -1    0    0    0  501  0.00000000000E+00  0.00000000000E+00  0.14539650790E+04  0.14539650790E+04  0.50400001928E-02 0. -1.
        1   -1    0    0  501    0  0.00000000000E+00  0.00000000000E+00 -0.66965887036E+03  0.66965887038E+03  0.50400001928E-02 0.  1.
    10030    2    1    2    0    0  0.00000000000E+00  0.00000000000E+00  0.78430620863E+03  0.21236239494E+04  0.19734848491E+04 0.  0.
        3    1    3    3  502    0  0.82737115128E+03  0.52678456907E+03  0.50812816389E+03  0.11046443977E+04  0.10100000352E+00 0. -1.
       -3    1    3    3    0  502 -0.82737115128E+03 -0.52678456907E+03  0.27617804474E+03  0.10189795517E+04  0.10100000352E+00 0.  1.
</event>
<event>
 5   0  0.1893687E-04  0.2007444E+04  0.7818609E-02  0.8603148E-01
       -2   -1    0    0    0  501  0.00000000000E+00  0.00000000000E+00  0.24258752361E+04  0.24258752361E+04  0.25500000920E-02 0.  1.
        2   -1    0    0  501    0  0.00000000000E+00  0.00000000000E+00 -0.41529669042E+03  0.41529669043E+03  0.25500000920E-02 0. -1.
    10030    2    1    2    0    0  0.00000000000E+00  0.00000000000E+00  0.20105785457E+04  0.28411719265E+04  0.20074441033E+04 0.  0.
        4    1    3    3  502    0 -0.48933222446E+03 -0.51700926748E+03  0.37962254841E+01  0.71187121924E+03  0.12699999809E+01 0. -1.
       -4    1    3    3    0  502  0.48933222446E+03  0.51700926748E+03  0.20067823202E+04  0.21293007073E+04  0.12699999809E+01 0.  1.
</event>
<event>
 5   0  0.6531625E-05  0.1989140E+04  0.7818609E-02  0.8611715E-01
        4   -1    0    0  501    0  0.00000000000E+00  0.00000000000E+00  0.12074930120E+04  0.12074936799E+04  0.12699999809E+01 0.  1.
       -4   -1    0    0    0  501  0.00000000000E+00  0.00000000000E+00 -0.81919162326E+03  0.81919260771E+03  0.12699999809E+01 0. -1.
    10030    2    1    2    0    0  0.00000000000E+00  0.00000000000E+00  0.38830138872E+03  0.20266862876E+04  0.19891403519E+04 0.  0.
        4    1    3    3  502    0 -0.24585570326E+03 -0.18109043565E+03  0.11585524838E+04  0.11981169573E+04  0.12699999809E+01 0.  1.
       -4    1    3    3    0  502  0.24585570326E+03  0.18109043565E+03 -0.77025109508E+03  0.82856933028E+03  0.12699999809E+01 0. -1.
</event>
<event>
 5   0  0.8861350E-05  0.1969671E+04  0.7818609E-02  0.8620933E-01
        1   -1    0    0  501    0  0.00000000000E+00  0.00000000000E+00  0.12963827978E+04  0.12963827978E+04  0.50400001928E-02 0. -1.
       -1   -1    0    0    0  501  0.00000000000E+00  0.00000000000E+00 -0.74815926417E+03  0.74815926418E+03  0.50400001928E-02 0.  1.
    10030    2    1    2    0    0  0.00000000000E+00  0.00000000000E+00  0.54822353359E+03  0.20445420619E+04  0.19696708355E+04 0.  0.
        1    1    3    3  502    0 -0.23205806591E+03 -0.23306060199E+03 -0.68947018993E+03  0.76389615327E+03  0.50400001928E-02 0.  1.
       -1    1    3    3    0  502  0.23205806591E+03  0.23306060199E+03  0.12376937235E+04  0.12806459087E+04  0.50400001928E-02 0. -1.
</event>
<event>
 5   0  0.8861350E-05  0.1978408E+04  0.7818609E-02  0.8616783E-01
        1   -1    0    0  501    0  0.00000000000E+00  0.00000000000E+00  0.15462607287E+04  0.15462607287E+04  0.50400001928E-02 0.  1.
       -1   -1    0    0    0  501  0.00000000000E+00  0.00000000000E+00 -0.63283285885E+03  0.63283285887E+03  0.50400001928E-02 0. -1.
    10030    2    1    2    0    0  0.00000000000E+00  0.00000000000E+00  0.91342786987E+03  0.21790935876E+04  0.19784080444E+04 0.  0.
        1    1    3    3  502    0 -0.71840823460E+03 -0.60408044363E+03  0.80063961204E+03  0.12337128362E+04  0.50400001928E-02 0.  1.
       -1    1    3    3    0  502  0.71840823460E+03  0.60408044363E+03  0.11278825783E+03  0.94538075136E+03  0.50400001928E-02 0. -1.
</event>
<event>
 5   0  0.8765057E-05  0.1956525E+04  0.7818609E-02  0.8627221E-01
        1   -1    0    0  501    0  0.00000000000E+00  0.00000000000E+00  0.53081030583E+03  0.53081030585E+03  0.50400001928E-02 0. -1.
       -1   -1    0    0    0  501  0.00000000000E+00  0.00000000000E+00 -0.18028988615E+04  0.18028988615E+04  0.50400001928E-02 0.  1.
    10030    2    1    2    0    0  0.00000000000E+00  0.00000000000E+00 -0.12720885557E+04  0.23337091674E+04  0.19565247723E+04 0.  0.
        3    1    3    3  502    0 -0.72191884047E+03  0.22675795034E+03 -0.13755805115E+04  0.15699706157E+04  0.10100000352E+00 0.  1.
       -3    1    3    3    0  502  0.72191884047E+03 -0.22675795034E+03  0.10349195579E+03  0.76373855172E+03  0.10100000352E+00 0. -1.
</event>
<event>
 5   0  0.1893687E-04  0.1660147E+04  0.7818609E-02  0.8784426E-01
        2   -1    0    0  501    0  0.00000000000E+00  0.00000000000E+00  0.15206650396E+04  0.15206650396E+04  0.25500000920E-02 0.  1.
       -2   -1    0    0    0  501  0.00000000000E+00  0.00000000000E+00 -0.45310580704E+03  0.45310580704E+03  0.25500000920E-02 0. -1.
    10030    2    1    2    0    0  0.00000000000E+00  0.00000000000E+00  0.10675592325E+04  0.19737708466E+04  0.16601471742E+04 0.  0.
        4    1    3    3  502    0  0.14575832553E+03 -0.67137576733E+03 -0.20092703114E+02  0.68731087583E+03  0.12699999809E+01 0. -1.
       -4    1    3    3    0  502 -0.14575832553E+03  0.67137576733E+03  0.10876519357E+04  0.12864599708E+04  0.12699999809E+01 0.  1.
</event>
<event>
 5   0  0.1834645E-04  0.1999479E+04  0.7818609E-02  0.8606864E-01
       -2   -1    0    0    0  501  0.00000000000E+00  0.00000000000E+00  0.58053889496E+03  0.58053889496E+03  0.25500000920E-02 0.  1.
        2   -1    0    0  501    0  0.00000000000E+00  0.00000000000E+00 -0.17216407284E+04  0.17216407284E+04  0.25500000920E-02 0. -1.
    10030    2    1    2    0    0  0.00000000000E+00  0.00000000000E+00 -0.11411018335E+04  0.23021796234E+04  0.19994793382E+04 0.  0.
        1    1    3    3  502    0 -0.84685793699E+03 -0.38628361583E+03 -0.15049722985E+03  0.94288536605E+03  0.50400001928E-02 0.  1.
       -1    1    3    3    0  502  0.84685793699E+03  0.38628361583E+03 -0.99060460362E+03  0.13592942573E+04  0.50400001928E-02 0. -1.
</event>
<event>
 5   0  0.6531625E-05  0.2005656E+04  0.7818609E-02  0.8603981E-01
        4   -1    0    0  501    0  0.00000000000E+00  0.00000000000E+00  0.78290907654E+03  0.78291010661E+03  0.12699999809E+01 0. -1.
       -4   -1    0    0    0  501  0.00000000000E+00  0.00000000000E+00 -0.12845204279E+04  0.12845210557E+04  0.12699999809E+01 0.  1.
    10030    2    1    2    0    0  0.00000000000E+00  0.00000000000E+00 -0.50161135137E+03  0.20674311623E+04  0.20056564170E+04 0.  0.
        4    1    3    3  502    0 -0.81319844066E+03  0.56151616419E+03 -0.75052881568E+02  0.99107348591E+03  0.12699999809E+01 0. -1.
       -4    1    3    3    0  502  0.81319844066E+03 -0.56151616419E+03 -0.42655846980E+03  0.10763576764E+04  0.12699999809E+01 0.  1.
</event>
<event>
 5   0  0.8577422E-05  0.1845337E+04  0.7818609E-02  0.8682554E-01
       -1   -1    0    0    0  501  0.00000000000E+00  0.00000000000E+00  0.40204802580E+03  0.40204802583E+03  0.50400001928E-02 0.  1.
        1   -1    0    0  501    0  0.00000000000E+00  0.00000000000E+00 -0.21174515922E+04  0.21174515922E+04  0.50400001928E-02 0. -1.
    10030    2    1    2    0    0  0.00000000000E+00  0.00000000000E+00 -0.17154035664E+04  0.25194996180E+04  0.18453370775E+04 0.  0.
        2    1    3    3  502    0  0.87970578633E+03  0.23047319541E+03 -0.64479269768E+03  0.11147904679E+04  0.25500000920E-02 0.  1.
       -2    1    3    3    0  502 -0.87970578633E+03 -0.23047319541E+03 -0.10706108687E+04  0.14047091501E+04  0.25500000920E-02 0. -1.
</event>
<event>
 5   0  0.6531625E-05  0.2024027E+04  0.7818609E-02  0.8595469E-01
       -3   -1    0    0    0  501  0.00000000000E+00  0.00000000000E+00  0.16049182485E+04  0.16049182517E+04  0.10100000352E+00 0.  1.
        3   -1    0    0  501    0  0.00000000000E+00  0.00000000000E+00 -0.63814541676E+03  0.63814542476E+03  0.10100000352E+00 0. -1.
    10030    2    1    2    0    0  0.00000000000E+00  0.00000000000E+00  0.96677283175E+03  0.22430636764E+04  0.20240269140E+04 0.  0.
        2    1    3    3  502    0 -0.58384829774E+03  0.69529915898E+03 -0.12039825041E+02  0.90800039242E+03  0.25500000920E-02 0. -1.
       -2    1    3    3    0  502  0.58384829774E+03 -0.69529915898E+03  0.97881265679E+03  0.13350632840E+04  0.25500000920E-02 0.  1.
</event>
<event>
 5   0  0.1893687E-04  0.2011449E+04  0.7818609E-02  0.8601287E-01
        2   -1    0    0  501    0  0.00000000000E+00  0.00000000000E+00  0.14292853502E+04  0.14292853502E+04  0.25500000920E-02 0.  1.
       -2   -1    0    0    0  501  0.00000000000E+00  0.00000000000E+00 -0.70768343145E+03  0.70768343145E+03  0.25500000920E-02 0. -1.
    10030    2    1    2    0    0  0.00000000000E+00  0.00000000000E+00  0.72160191872E+03  0.21369687816E+04  0.20114487924E+04 0.  0.
        4    1    3    3  502    0 -0.20722127105E+03  0.34243248414E+03 -0.61942281153E+03  0.73748687698E+03  0.12699999809E+01 0. -1.
       -4    1    3    3    0  502  0.20722127105E+03 -0.34243248414E+03  0.13410247303E+04  0.13994819046E+04  0.12699999809E+01 0.  1.
</event>
<event>
 5   0  0.8765057E-05  0.2010043E+04  0.7818609E-02  0.8601940E-01
        1   -1    0    0  501    0  0.00000000000E+00  0.00000000000E+00  0.22002841544E+04  0.22002841544E+04  0.50400001928E-02 0.  1.
       -1   -1    0    0    0  501  0.00000000000E+00  0.00000000000E+00 -0.45906244624E+03  0.45906244627E+03  0.50400001928E-02 0. -1.
    10030    2    1    2    0    0  0.00000000000E+00  0.00000000000E+00  0.17412217081E+04  0.26593466007E+04  0.20100426129E+04 0.  0.
        3    1    3    3  502    0  0.10463204205E+03 -0.90153133442E+03  0.14417572418E+04  0.17036345164E+04  0.10100000352E+00 0.  1.
       -3    1    3    3    0  502 -0.10463204205E+03  0.90153133442E+03  0.29946446639E+03  0.95571208425E+03  0.10100000352E+00 0. -1.
</event>
<event>
 5   0  0.1893687E-04  0.2003599E+04  0.7818609E-02  0.8604940E-01
        2   -1    0    0  501    0  0.00000000000E+00  0.00000000000E+00  0.17906700488E+04  0.17906700488E+04  0.25500000920E-02 0.  1.
       -2   -1    0    0    0  501  0.00000000000E+00  0.00000000000E+00 -0.56046194044E+03  0.56046194045E+03  0.25500000920E-02 0. -1.
    10030    2    1    2    0    0  0.00000000000E+00  0.00000000000E+00  0.12302081084E+04  0.23511319893E+04  0.20035991718E+04 0.  0.
        4    1    3    3  502    0  0.91754822223E+03  0.28143887830E+03  0.27805862408E+03  0.99921008484E+03  0.12699999809E+01 0. -1.
       -4    1    3    3    0  502 -0.91754822223E+03 -0.28143887830E+03  0.95214948432E+03  0.13519219044E+04  0.12699999809E+01 0.  1.
</event>
<event>
 5   0  0.8765057E-05  0.1968190E+04  0.7818609E-02  0.8621639E-01
        1   -1    0    0  501    0  0.00000000000E+00  0.00000000000E+00  0.17780381064E+04  0.17780381064E+04  0.50400001928E-02 0. -1.
       -1   -1    0    0    0  501  0.00000000000E+00  0.00000000000E+00 -0.54466953413E+03  0.54466953415E+03  0.50400001928E-02 0.  1.
    10030    2    1    2    0    0  0.00000000000E+00  0.00000000000E+00  0.12333685723E+04  0.23227076406E+04  0.19681902216E+04 0.  0.
        3    1    3    3  502    0 -0.22833255545E+03  0.93550455169E+03  0.85604480748E+03  0.12884553716E+04  0.10100000352E+00 0. -1.
       -3    1    3    3    0  502  0.22833255545E+03 -0.93550455169E+03  0.37732376483E+03  0.10342522689E+04  0.10100000352E+00 0.  1.
</event>
<event>
 5   0  0.8765057E-05  0.2032441E+04  0.7818609E-02  0.8591602E-01
       -1   -1    0    0    0  501  0.00000000000E+00  0.00000000000E+00  0.14866364520E+04  0.14866364520E+04  0.50400001928E-02 0. -1.
        1   -1    0    0  501    0  0.00000000000E+00  0.00000000000E+00 -0.69465827436E+03  0.69465827438E+03  0.50400001928E-02 0.  1.
    10030    2    1    2    0    0  0.00000000000E+00  0.00000000000E+00  0.79197817759E+03  0.21812947264E+04  0.20324412044E+04 0.  0.
        3    1    3    3  502    0 -0.22080153914E+03  0.85733125632E+02 -0.66461891297E+03  0.70556487880E+03  0.10100000352E+00 0.  1.
       -3    1    3    3    0  502  0.22080153914E+03 -0.85733125632E+02  0.14565970906E+04  0.14757298476E+04  0.10100000352E+00 0. -1.
</event>
<event>
 5   0  0.1893687E-04  0.1921061E+04  0.7818609E-02  0.8644444E-01
       -2   -1    0    0    0  501  0.00000000000E+00  0.00000000000E+00  0.60323761679E+03  0.60323761679E+03  0.25500000920E-02 0.  1.
        2   -1    0    0  501    0  0.00000000000E+00  0.00000000000E+00 -0.15294445508E+04  0.15294445508E+04  0.25500000920E-02 0. -1.
    10030    2    1    2    0    0  0.00000000000E+00  0.00000000000E+00 -0.92620693399E+03  0.21326821676E+04  0.19210606298E+04 0.  0.
        4    1    3    3  502    0 -0.56246190555E+03  0.49547637038E+03 -0.11298983143E+04  0.13559247923E+04  0.12699999809E+01 0. -1.
       -4    1    3    3    0  502  0.56246190555E+03 -0.49547637038E+03  0.20369138027E+03  0.77675737531E+03  0.12699999809E+01 0.  1.
</event>
<event>
 5   0  0.1834645E-04  0.2005713E+04  0.7818609E-02  0.8603954E-01
        2   -1    0    0  501    0  0.00000000000E+00  0.00000000000E+00  0.16577468614E+04  0.16577468614E+04  0.25500000920E-02 0.  1.
       -2   -1    0    0    0  501  0.00000000000E+00  0.00000000000E+00 -0.60667935251E+03  0.60667935252E+03  0.25500000920E-02 0. -1.
    10030    2    1    2    0    0  0.00000000000E+00  0.00000000000E+00  0.10510675089E+04  0.22644262140E+04  0.20057126340E+04 0.  0.
        1    1    3    3  502    0 -0.33706518404E+03 -0.91437354959E+03  0.79277001137E+03  0.12562548378E+04  0.50400001928E-02 0.  1.
       -1    1    3    3    0  502  0.33706518404E+03  0.91437354959E+03  0.25829749755E+03  0.10081713762E+04  0.50400001928E-02 0. -1.
</event>
<event>
 5   0  0.1782172E-04  0.1982209E+04  0.7818609E-02  0.8614984E-01
       -2   -1    0    0    0  501  0.00000000000E+00  0.00000000000E+00  0.61846316235E+03  0.61846316236E+03  0.25500000920E-02 0. -1.
        2   -1    0    0  501    0  0.00000000000E+00  0.00000000000E+00 -0.15882726769E+04  0.15882726769E+04  0.25500000920E-02 0.  1.
    10030    2    1    2    0    0  0.00000000000E+00  0.00000000000E+00 -0.96980951455E+03  0.22067358393E+04  0.19822090126E+04 0.  0.
        2    1    3    3  502    0 -0.16034074175E+03  0.49718549311E+03 -0.14225576079E+04  0.15154447254E+04  0.25500000920E-02 0.  1.
       -2    1    3    3    0  502  0.16034074175E+03 -0.49718549311E+03  0.45274809335E+03  0.69129111384E+03  0.25500000920E-02 0. -1.
</event>
<event>
 5   0  0.1893687E-04  0.1986190E+04  0.7818609E-02  0.8613105E-01
       -2   -1    0    0    0  501  0.00000000000E+00  0.00000000000E+00  0.14467162564E+04  0.14467162564E+04  0.25500000920E-02 0.  1.
        2   -1    0    0  501    0  0.00000000000E+00  0.00000000000E+00 -0.68170784437E+03  0.68170784437E+03  0.25500000920E-02 0. -1.
    10030    2    1    2    0    0  0.00000000000E+00  0.00000000000E+00  0.76500841204E+03  0.21284241008E+04  0.19861901425E+04 0.  0.
        4    1    3    3  502    0 -0.55939154270E+02  0.16457809293E+03 -0.66527814228E+03  0.68761308680E+03  0.12699999809E+01 0. -1.
       -4    1    3    3    0  502  0.55939154270E+02 -0.16457809293E+03  0.14302865543E+04  0.14408110140E+04  0.12699999809E+01 0.  1.
</event>
<event>
 5   0  0.8861350E-05  0.1854436E+04  0.7818609E-02  0.8677875E-01
        1   -1    0    0  501    0  0.00000000000E+00  0.00000000000E+00  0.13712488932E+04  0.13712488933E+04  0.50400001928E-02 0. -1.
       -1   -1    0    0    0  501  0.00000000000E+00  0.00000000000E+00 -0.62697103213E+03  0.62697103215E+03  0.50400001928E-02 0.  1.
    10030    2    1    2    0    0  0.00000000000E+00  0.00000000000E+00  0.74427786112E+03  0.19982199254E+04  0.18544361234E+04 0.  0.
        1    1    3    3  502    0 -0.54390738124E+03  0.51698988725E+03 -0.21471672375E+03  0.78052357708E+03  0.50400001928E-02 0.  1.
       -1    1    3    3    0  502  0.54390738124E+03 -0.51698988725E+03  0.95899458487E+03  0.12176963483E+04  0.50400001928E-02 0. -1.
</event>
<event>
 5   0  0.8765057E-05  0.2004877E+04  0.7818609E-02  0.8604344E-01
       -1   -1    0    0    0  501  0.00000000000E+00  0.00000000000E+00  0.65397452826E+03  0.65397452828E+03  0.50400001928E-02 0.  1.
        1   -1    0    0  501    0  0.00000000000E+00  0.00000000000E+00 -0.15365773804E+04  0.15365773804E+04  0.50400001928E-02 0. -1.
    10030    2    1    2    0    0  0.00000000000E+00  0.00000000000E+00 -0.88260285211E+03  0.21905519087E+04  0.20048765224E+04 0.  0.
        3    1    3    3  502    0  0.21527232889E+03  0.76194343448E+03 -0.11130422712E+04  0.13659293835E+04  0.10100000352E+00 0. -1.
       -3    1    3    3    0  502 -0.21527232889E+03 -0.76194343448E+03  0.23043941911E+03  0.82462252517E+03  0.10100000352E+00 0.  1.
</event>
<event>
 5   0  0.1782172E-04  0.1980605E+04  0.7818609E-02  0.8615743E-01
        2   -1    0    0  501    0  0.00000000000E+00  0.00000000000E+00  0.77908227294E+03  0.77908227294E+03  0.25500000920E-02 0. -1.
       -2   -1    0    0    0  501  0.00000000000E+00  0.00000000000E+00 -0.12587874342E+04  0.12587874342E+04  0.25500000920E-02 0.  1.
    10030    2    1    2    0    0  0.00000000000E+00  0.00000000000E+00 -0.47970516125E+03  0.20378697071E+04  0.19806049332E+04 0.  0.
        2    1    3    3  502    0 -0.94526356439E+03  0.29336840144E+03 -0.27414410299E+03  0.10270069203E+04  0.25500000920E-02 0. -1.
       -2    1    3    3    0  502  0.94526356439E+03 -0.29336840144E+03 -0.20556105825E+03  0.10108627868E+04  0.25500000920E-02 0.  1.
</event>
<event>
 5   0  0.8577422E-05  0.1988997E+04  0.7818609E-02  0.8611782E-01
       -1   -1    0    0    0  501  0.00000000000E+00  0.00000000000E+00  0.13732266558E+04  0.13732266559E+04  0.50400001928E-02 0.  1.
        1   -1    0    0  501    0  0.00000000000E+00  0.00000000000E+00 -0.72022124971E+03  0.72022124972E+03  0.50400001928E-02 0. -1.
    10030    2    1    2    0    0  0.00000000000E+00  0.00000000000E+00  0.65300540614E+03  0.20934479056E+04  0.19889967504E+04 0.  0.
        2    1    3    3  502    0 -0.34995296850E+03 -0.53817482790E+03 -0.47294271008E+03  0.79735439584E+03  0.25500000920E-02 0. -1.
       -2    1    3    3    0  502  0.34995296850E+03  0.53817482790E+03  0.11259481162E+04  0.12960935097E+04  0.25500000920E-02 0.  1.
</event>
<event>
 5   0  0.8958919E-05  0.1994714E+04  0.7818609E-02  0.8609096E-01
       -1   -1    0    0    0  501  0.00000000000E+00  0.00000000000E+00  0.81884823480E+03  0.81884823482E+03  0.50400001928E-02 0.  1.
        1   -1    0    0  501    0  0.00000000000E+00  0.00000000000E+00 -0.12147804416E+04  0.12147804416E+04  0.50400001928E-02 0. -1.
    10030    2    1    2    0    0  0.00000000000E+00  0.00000000000E+00 -0.39593220680E+03  0.20336286764E+04  0.19947138344E+04 0.  0.
        4    1    3    3  502    0  0.19955340986E+03 -0.25843407611E+03  0.76281468103E+03  0.82975754626E+03  0.12699999809E+01 0.  1.
       -4    1    3    3    0  502 -0.19955340986E+03  0.25843407611E+03 -0.11587468878E+04  0.12038711302E+04  0.12699999809E+01 0. -1.
</event>
<event>
 5   0  0.8958919E-05  0.2050044E+04  0.7818609E-02  0.8583574E-01
        1   -1    0    0  501    0  0.00000000000E+00  0.00000000000E+00  0.19903065686E+04  0.19903065686E+04  0.50400001928E-02 0.  1.
       -1   -1    0    0    0  501  0.00000000000E+00  0.00000000000E+00 -0.52789382081E+03  0.52789382083E+03  0.50400001928E-02 0. -1.
    10030    2    1    2    0    0  0.00000000000E+00  0.00000000000E+00  0.14624127477E+04  0.25182003894E+04  0.20500444279E+04 0.  0.
        4    1    3    3  502    0 -0.48423561867E+03  0.51547849737E+03 -0.18015904128E+03  0.72983635748E+03  0.12699999809E+01 0. -1.
       -4    1    3    3    0  502  0.48423561867E+03 -0.51547849737E+03  0.16425717890E+04  0.17883640319E+04  0.12699999809E+01 0.  1.
</event>
<event>
 5   0  0.1782172E-04  0.1985094E+04  0.7818609E-02  0.8613622E-01
        2   -1    0    0  501    0  0.00000000000E+00  0.00000000000E+00  0.10026025628E+04  0.10026025628E+04  0.25500000920E-02 0.  1.
       -2   -1    0    0    0  501  0.00000000000E+00  0.00000000000E+00 -0.98259238478E+03  0.98259238478E+03  0.25500000920E-02 0. -1.
    10030    2    1    2    0    0  0.00000000000E+00  0.00000000000E+00  0.20010177996E+02  0.19851949476E+04  0.19850940967E+04 0.  0.
        2    1    3    3  502    0 -0.38807107047E+03 -0.29216454662E+03 -0.85559671952E+03  0.98387246353E+03  0.25500000920E-02 0. -1.
       -2    1    3    3    0  502  0.38807107047E+03  0.29216454662E+03  0.87560689752E+03  0.10013224840E+04  0.25500000920E-02 0.  1.
</event>
<event>
 5   0  0.8861350E-05  0.1804321E+04  0.7818609E-02  0.8704005E-01
        1   -1    0    0  501    0  0.00000000000E+00  0.00000000000E+00  0.96032221360E+03  0.96032221361E+03  0.50400001928E-02 0.  1.
       -1   -1    0    0    0  501  0.00000000000E+00  0.00000000000E+00 -0.84752159743E+03  0.84752159745E+03  0.50400001928E-02 0. -1.
    10030    2    1    2    0    0  0.00000000000E+00  0.00000000000E+00  0.11280061617E+03  0.18078438111E+04  0.18043212758E+04 0.  0.
        1    1    3    3  502    0 -0.52332455390E+03 -0.71770224988E+03 -0.10179621157E+03  0.89405121605E+03  0.50400001928E-02 0. -1.
       -1    1    3    3    0  502  0.52332455390E+03  0.71770224988E+03  0.21459682774E+03  0.91379259501E+03  0.50400001928E-02 0.  1.
</event>
<event>
 5   0  0.1782172E-04  0.1960617E+04  0.7818609E-02  0.8625258E-01
       -2   -1    0    0    0  501  0.00000000000E+00  0.00000000000E+00  0.56405893525E+03  0.56405893526E+03  0.25500000920E-02 0.  1.
        2   -1    0    0  501    0  0.00000000000E+00  0.00000000000E+00 -0.17037316708E+04  0.17037316708E+04  0.25500000920E-02 0. -1.
    10030    2    1    2    0    0  0.00000000000E+00  0.00000000000E+00 -0.11396727355E+04  0.22677906061E+04  0.19606173234E+04 0.  0.
        2    1    3    3  502    0  0.11073427340E+02 -0.10237141795E+03  0.55778659570E+03  0.56721108448E+03  0.25500000920E-02 0.  1.
       -2    1    3    3    0  502 -0.11073427340E+02  0.10237141795E+03 -0.16974593312E+04  0.17005795216E+04  0.25500000920E-02 0. -1.
</event>
<event>
 5   0  0.1782172E-04  0.2027009E+04  0.7818609E-02  0.8594096E-01
       -2   -1    0    0    0  501  0.00000000000E+00  0.00000000000E+00  0.66250863253E+03  0.66250863254E+03  0.25500000920E-02 0. -1.
        2   -1    0    0  501    0  0.00000000000E+00  0.00000000000E+00 -0.15504578428E+04  0.15504578428E+04  0.25500000920E-02 0.  1.
    10030    2    1    2    0    0  0.00000000000E+00  0.00000000000E+00 -0.88794921028E+03  0.22129664753E+04  0.20270093293E+04 0.  0.
        2    1    3    3  502    0  0.40507372108E+03  0.30436967901E+03  0.51431295442E+03  0.72197190810E+03  0.25500000920E-02 0. -1.
       -2    1    3    3    0  502 -0.40507372108E+03 -0.30436967901E+03 -0.14022621647E+04  0.14909945672E+04  0.25500000920E-02 0.  1.
</event>
<event>
 5   0  0.1782172E-04  0.2031507E+04  0.7818609E-02  0.8592030E-01
        2   -1    0    0  501    0  0.00000000000E+00  0.00000000000E+00  0.13574073236E+04  0.13574073236E+04  0.25500000920E-02 0. -1.
       -2   -1    0    0    0  501  0.00000000000E+00  0.00000000000E+00 -0.76009251270E+03  0.76009251270E+03  0.25500000920E-02 0.  1.
    10030    2    1    2    0    0  0.00000000000E+00  0.00000000000E+00  0.59731481089E+03  0.21174998363E+04  0.20315069710E+04 0.  0.
        2    1    3    3  502    0 -0.63976727905E+03  0.71209313571E+03  0.65270646399E+03  0.11586218250E+04  0.25500000920E-02 0. -1.
       -2    1    3    3    0  502  0.63976727905E+03 -0.71209313571E+03 -0.55391653095E+02  0.95887801128E+03  0.25500000920E-02 0.  1.
</event>
<event>
 5   0  0.1834645E-04  0.1913086E+04  0.7818609E-02  0.8648370E-01
        2   -1    0    0  501    0  0.00000000000E+00  0.00000000000E+00  0.84233848311E+03  0.84233848312E+03  0.25500000920E-02 0. -1.
       -2   -1    0    0    0  501  0.00000000000E+00  0.00000000000E+00 -0.10862318564E+04  0.10862318564E+04  0.25500000920E-02 0.  1.
    10030    2    1    2    0    0  0.00000000000E+00  0.00000000000E+00 -0.24389337328E+03  0.19285703395E+04  0.19130864008E+04 0.  0.
        1    1    3    3  502    0 -0.17757521276E+02  0.72394272526E+03  0.50806468859E+03  0.88461185095E+03  0.50400001928E-02 0. -1.
       -1    1    3    3    0  502  0.17757521276E+02 -0.72394272526E+03 -0.75195806186E+03  0.10439584886E+04  0.50400001928E-02 0.  1.
</event>
<event>
 5   0  0.8577422E-05  0.1711507E+04  0.7818609E-02  0.8754829E-01
       -1   -1    0    0    0  501  0.00000000000E+00  0.00000000000E+00  0.73891345307E+03  0.73891345308E+03  0.50400001928E-02 0.  1.
        1   -1    0    0  501    0  0.00000000000E+00  0.00000000000E+00 -0.99106884345E+03  0.99106884346E+03  0.50400001928E-02 0. -1.
    10030    2    1    2    0    0  0.00000000000E+00  0.00000000000E+00 -0.25215539039E+03  0.17299822965E+04  0.17115070568E+04 0.  0.
        2    1    3    3  502    0 -0.30477923626E+03  0.46982289353E+03  0.52796988862E+03  0.76965975433E+03  0.25500000920E-02 0.  1.
       -2    1    3    3    0  502  0.30477923626E+03 -0.46982289353E+03 -0.78012527900E+03  0.96032254222E+03  0.25500000920E-02 0. -1.
</event>
<event>
 5   0  0.1893687E-04  0.2019546E+04  0.7818609E-02  0.8597537E-01
       -2   -1    0    0    0  501  0.00000000000E+00  0.00000000000E+00  0.48615279869E+03  0.48615279870E+03  0.25500000920E-02 0. -1.
        2   -1    0    0  501    0  0.00000000000E+00  0.00000000000E+00 -0.20973674296E+04  0.20973674296E+04  0.25500000920E-02 0.  1.
    10030    2    1    2    0    0  0.00000000000E+00  0.00000000000E+00 -0.16112146309E+04  0.25835202283E+04  0.20195455388E+04 0.  0.
        4    1    3    3  502    0 -0.25514036442E+03  0.89131143573E+03 -0.13174812785E+04  0.16109907551E+04  0.12699999809E+01 0.  1.
       -4    1    3    3    0  502  0.25514036442E+03 -0.89131143573E+03 -0.29373335244E+03  0.97252947321E+03  0.12699999809E+01 0. -1.
</event>
<event>
 5   0  0.1807498E-04  0.2017884E+04  0.7818609E-02  0.8598305E-01
       -2   -1    0    0    0  501  0.00000000000E+00  0.00000000000E+00  0.71723066660E+03  0.71723066661E+03  0.25500000920E-02 0.  1.
        2   -1    0    0  501    0  0.00000000000E+00  0.00000000000E+00 -0.14192977550E+04  0.14192977550E+04  0.25500000920E-02 0. -1.
    10030    2    1    2    0    0  0.00000000000E+00  0.00000000000E+00 -0.70206708835E+03  0.21365284216E+04  0.20178839163E+04 0.  0.
        5    1    3    3  502    0 -0.87758798118E+03 -0.14205945524E+03 -0.85615852308E+03  0.12342491888E+04  0.46999998093E+01 0.  1.
       -5    1    3    3    0  502  0.87758798118E+03  0.14205945524E+03  0.15409143473E+03  0.90227923271E+03  0.46999998093E+01 0. -1.
</event>
<event>
 5   0  0.8765057E-05  0.2003917E+04  0.7818609E-02  0.8604792E-01
        1   -1    0    0  501    0  0.00000000000E+00  0.00000000000E+00  0.12384214189E+04  0.12384214189E+04  0.50400001928E-02 0. -1.
       -1   -1    0    0    0  501  0.00000000000E+00  0.00000000000E+00 -0.81064518694E+03  0.81064518696E+03  0.50400001928E-02 0.  1.
    10030    2    1    2    0    0  0.00000000000E+00  0.00000000000E+00  0.42777623195E+03  0.20490666059E+04  0.20039165279E+04 0.  0.
        3    1    3    3  502    0  0.29831532099E+03 -0.66513975812E+03  0.91677487491E+03  0.11712724320E+04  0.10100000352E+00 0. -1.
       -3    1    3    3    0  502 -0.29831532099E+03  0.66513975812E+03 -0.48899864296E+03  0.87779417382E+03  0.10100000352E+00 0.  1.
</event>
<event>
 5   0  0.1807498E-04  0.1934860E+04  0.7818609E-02  0.8637696E-01
        2   -1    0    0  501    0  0.00000000000E+00  0.00000000000E+00  0.61582069413E+03  0.61582069413E+03  0.25500000920E-02 0. -1.
       -2   -1    0    0    0  501  0.00000000000E+00  0.00000000000E+00 -0.15197940816E+04  0.15197940816E+04  0.25500000920E-02 0.  1.
    10030    2    1    2    0    0  0.00000000000E+00  0.00000000000E+00 -0.90397338749E+03  0.21356147758E+04  0.19348598360E+04 0.  0.
        5    1    3    3  502    0 -0.82309173437E+03 -0.49392246963E+03 -0.31926413520E+03  0.10116279391E+04  0.46999998093E+01 0.  1.
       -5    1    3    3    0  502  0.82309173437E+03  0.49392246963E+03 -0.58470925229E+03  0.11239868366E+04  0.46999998093E+01 0. -1.
</event>
<event>
 5   0  0.8881384E-05  0.2024212E+04  0.7818609E-02  0.8595384E-01
        1   -1    0    0  501    0  0.00000000000E+00  0.00000000000E+00  0.14895855179E+04  0.14895855179E+04  0.50400001928E-02 0.  1.
       -1   -1    0    0    0  501  0.00000000000E+00  0.00000000000E+00 -0.68768002720E+03  0.68768002722E+03  0.50400001928E-02 0. -1.
    10030    2    1    2    0    0  0.00000000000E+00  0.00000000000E+00  0.80190549072E+03  0.21772655451E+04  0.20242116584E+04 0.  0.
        5    1    3    3  502    0  0.60783090135E+03  0.80912801760E+03  0.38614340491E+03  0.10831783660E+04  0.46999998093E+01 0.  1.
       -5    1    3    3    0  502 -0.60783090135E+03 -0.80912801760E+03  0.41576208581E+03  0.10940871791E+04  0.46999998093E+01 0. -1.
</event>
<event>
 5   0  0.1807498E-04  0.1977760E+04  0.7818609E-02  0.8617090E-01
       -2   -1    0    0    0  501  0.00000000000E+00  0.00000000000E+00  0.71442869999E+03  0.71442870000E+03  0.25500000920E-02 0. -1.
        2   -1    0    0  501    0  0.00000000000E+00  0.00000000000E+00 -0.13687632303E+04  0.13687632303E+04  0.25500000920E-02 0.  1.
    10030    2    1    2    0    0  0.00000000000E+00  0.00000000000E+00 -0.65433453027E+03  0.20831919303E+04  0.19777600817E+04 0.  0.
        5    1    3    3  502    0  0.95181184778E+03  0.16493409729E+03 -0.10444141959E+03  0.97163735527E+03  0.46999998093E+01 0. -1.
       -5    1    3    3    0  502 -0.95181184778E+03 -0.16493409729E+03 -0.54989311068E+03  0.11115545750E+04  0.46999998093E+01 0.  1.
</event>
<event>
 5   0  0.1782172E-04  0.1961009E+04  0.7818609E-02  0.8625070E-01
        2   -1    0    0  501    0  0.00000000000E+00  0.00000000000E+00  0.99106504487E+03  0.99106504488E+03  0.25500000920E-02 0.  1.
       -2   -1    0    0    0  501  0.00000000000E+00  0.00000000000E+00 -0.97005686224E+03  0.97005686224E+03  0.25500000920E-02 0. -1.
    10030    2    1    2    0    0  0.00000000000E+00  0.00000000000E+00  0.21008182638E+02  0.19611219071E+04  0.19610093806E+04 0.  0.
        2    1    3    3  502    0 -0.86910761099E+03  0.34838754090E+03 -0.28048945949E+03  0.97744373497E+03  0.25500000920E-02 0. -1.
       -2    1    3    3    0  502  0.86910761099E+03 -0.34838754090E+03  0.30149764213E+03  0.98367817215E+03  0.25500000920E-02 0.  1.
</event>
<event>
 5   0  0.8861350E-05  0.1918855E+04  0.7818609E-02  0.8645528E-01
        1   -1    0    0  501    0  0.00000000000E+00  0.00000000000E+00  0.19895219988E+04  0.19895219988E+04  0.50400001928E-02 0. -1.
       -1   -1    0    0    0  501  0.00000000000E+00  0.00000000000E+00 -0.46267456178E+03  0.46267456181E+03  0.50400001928E-02 0.  1.
    10030    2    1    2    0    0  0.00000000000E+00  0.00000000000E+00  0.15268474371E+04  0.24521965606E+04  0.19188550951E+04 0.  0.
        1    1    3    3  502    0  0.37702328682E+03 -0.30417440722E+03 -0.29490884400E+03  0.56713301360E+03  0.50400001928E-02 0.  1.
       -1    1    3    3    0  502 -0.37702328682E+03  0.30417440722E+03  0.18217562811E+04  0.18850635470E+04  0.50400001928E-02 0. -1.
</event>
<event>
 5   0  0.8765057E-05  0.2036972E+04  0.7818609E-02  0.8589528E-01
       -1   -1    0    0    0  501  0.00000000000E+00  0.00000000000E+00  0.38098436160E+03  0.38098436163E+03  0.50400001928E-02 0.  1.
        1   -1    0    0  501    0  0.00000000000E+00  0.00000000000E+00 -0.27227186766E+04  0.27227186766E+04  0.50400001928E-02 0. -1.
    10030    2    1    2    0    0  0.00000000000E+00  0.00000000000E+00 -0.23417343150E+04  0.31037030382E+04  0.20369715137E+04 0.  0.
        3    1    3    3  502    0  0.97895247933E+03  0.22580628379E+03 -0.91601156772E+03  0.13595637672E+04  0.10100000352E+00 0.  1.
       -3    1    3    3    0  502 -0.97895247933E+03 -0.22580628379E+03 -0.14257227473E+04  0.17441392711E+04  0.10100000352E+00 0. -1.
</event>
<event>
 5   0  0.1893687E-04  0.1957140E+04  0.7818609E-02  0.8626926E-01
        2   -1    0    0  501    0  0.00000000000E+00  0.00000000000E+00  0.88001470143E+03  0.88001470143E+03  0.25500000920E-02 0.  1.
       -2   -1    0    0    0  501  0.00000000000E+00  0.00000000000E+00 -0.10881625120E+04  0.10881625120E+04  0.25500000920E-02 0. -1.
    10030    2    1    2    0    0  0.00000000000E+00  0.00000000000E+00 -0.20814781061E+03  0.19681772135E+04  0.19571397581E+04 0.  0.
        4    1    3    3  502    0 -0.18537643433E+03 -0.90663554279E+03  0.21591069525E+03  0.95024811027E+03  0.12699999809E+01 0.  1.
       -4    1    3    3    0  502  0.18537643433E+03  0.90663554279E+03 -0.42405850586E+03  0.10179291032E+04  0.12699999809E+01 0. -1.
</event>
<event>
 5   0  0.1893687E-04  0.2030005E+04  0.7818609E-02  0.8592720E-01
       -2   -1    0    0    0  501  0.00000000000E+00  0.00000000000E+00  0.10181107651E+04  0.10181107651E+04  0.25500000920E-02 0.  1.
        2   -1    0    0  501    0  0.00000000000E+00  0.00000000000E+00 -0.10119033401E+04  0.10119033401E+04  0.25500000920E-02 0. -1.
    10030    2    1    2    0    0  0.00000000000E+00  0.00000000000E+00  0.62074249668E+01  0.20300141052E+04  0.20300046146E+04 0.  0.
        4    1    3    3  502    0 -0.58007757292E+03 -0.24308048773E+03 -0.79354921761E+03  0.10125710285E+04  0.12699999809E+01 0. -1.
       -4    1    3    3    0  502  0.58007757292E+03  0.24308048773E+03  0.79975664258E+03  0.10174430767E+04  0.12699999809E+01 0.  1.
</event>
<event>
 5   0  0.1834645E-04  0.1961375E+04  0.7818609E-02  0.8624895E-01
        2   -1    0    0  501    0  0.00000000000E+00  0.00000000000E+00  0.74302019409E+03  0.74302019409E+03  0.25500000920E-02 0.  1.
       -2   -1    0    0    0  501  0.00000000000E+00  0.00000000000E+00 -0.12943761413E+04  0.12943761413E+04  0.25500000920E-02 0. -1.
    10030    2    1    2    0    0  0.00000000000E+00  0.00000000000E+00 -0.55135594717E+03  0.20373963353E+04  0.19613746319E+04 0.  0.
        1    1    3    3  502    0  0.10039702973E+03  0.82209451973E+03 -0.82122808985E+03  0.11663338024E+04  0.50400001928E-02 0. -1.
       -1    1    3    3    0  502 -0.10039702973E+03 -0.82209451973E+03  0.26987214268E+03  0.87106253298E+03  0.50400001928E-02 0.  1.
</event>
<event>
 5   0  0.1807498E-04  0.1510028E+04  0.7818609E-02  0.8877812E-01
       -2   -1    0    0    0  501  0.00000000000E+00  0.00000000000E+00  0.57533400848E+03  0.57533400849E+03  0.25500000920E-02 0.  1.
        2   -1    0    0  501    0  0.00000000000E+00  0.00000000000E+00 -0.99080904179E+03  0.99080904180E+03  0.25500000920E-02 0. -1.
    10030    2    1    2    0    0  0.00000000000E+00  0.00000000000E+00 -0.41547503331E+03  0.15661430503E+04  0.15100279966E+04 0.  0.
        5    1    3    3  502    0 -0.47243271462E+03 -0.47945115604E+03  0.14696260153E+03  0.68897472894E+03  0.46999998093E+01 0.  1.
       -5    1    3    3    0  502  0.47243271462E+03  0.47945115604E+03 -0.56243763484E+03  0.87716832134E+03  0.46999998093E+01 0. -1.
</event>
<event>
 5   0  0.8765057E-05  0.2014160E+04  0.7818609E-02  0.8600029E-01
        1   -1    0    0  501    0  0.00000000000E+00  0.00000000000E+00  0.75954825480E+03  0.75954825481E+03  0.50400001928E-02 0. -1.
       -1   -1    0    0    0  501  0.00000000000E+00  0.00000000000E+00 -0.13352810279E+04  0.13352810279E+04  0.50400001928E-02 0.  1.
    10030    2    1    2    0    0  0.00000000000E+00  0.00000000000E+00 -0.57573277306E+03  0.20948292827E+04  0.20141602463E+04 0.  0.
        3    1    3    3  502    0 -0.70793551369E+03 -0.71481236398E+03 -0.33531091824E+03  0.10604540675E+04  0.10100000352E+00 0. -1.
       -3    1    3    3    0  502  0.70793551369E+03  0.71481236398E+03 -0.24042185482E+03  0.10343752152E+04  0.10100000352E+00 0.  1.
</event>
<event>
 5   0  0.8861350E-05  0.2005295E+04  0.7818609E-02  0.8604149E-01
       -1   -1    0    0    0  501  0.00000000000E+00  0.00000000000E+00  0.71527159349E+03  0.71527159350E+03  0.50400001928E-02 0. -1.
        1   -1    0    0  501    0  0.00000000000E+00  0.00000000000E+00 -0.14054828703E+04  0.14054828703E+04  0.50400001928E-02 0.  1.
    10030    2    1    2    0    0  0.00000000000E+00  0.00000000000E+00 -0.69021127683E+03  0.21207544638E+04  0.20052949631E+04 0.  0.
        1    1    3    3  502    0  0.36203277600E+03 -0.50809364078E+03  0.48499156869E+03  0.79021750198E+03  0.50400001928E-02 0. -1.
       -1    1    3    3    0  502 -0.36203277600E+03  0.50809364078E+03 -0.11752028455E+04  0.13305369619E+04  0.50400001928E-02 0.  1.
</event>
<event>
 5   0  0.1782172E-04  0.2041446E+04  0.7818609E-02  0.8587485E-01
       -2   -1    0    0    0  501  0.00000000000E+00  0.00000000000E+00  0.54660352903E+03  0.54660352904E+03  0.25500000920E-02 0.  1.
        2   -1    0    0  501    0  0.00000000000E+00  0.00000000000E+00 -0.19060896926E+04  0.19060896926E+04  0.25500000920E-02 0. -1.
    10030    2    1    2    0    0  0.00000000000E+00  0.00000000000E+00 -0.13594861635E+04  0.24526932216E+04  0.20414459117E+04 0.  0.
        2    1    3    3  502    0  0.80355511614E+03  0.88787045526E+02  0.68916233208E+02  0.81137747771E+03  0.25500000920E-02 0.  1.
       -2    1    3    3    0  502 -0.80355511614E+03 -0.88787045526E+02 -0.14284023967E+04  0.16413157439E+04  0.25500000920E-02 0. -1.
</event>
<event>
 5   0  0.8881384E-05  0.1989791E+04  0.7818609E-02  0.8611409E-01
        1   -1    0    0  501    0  0.00000000000E+00  0.00000000000E+00  0.12554245576E+04  0.12554245577E+04  0.50400001928E-02 0.  1.
       -1   -1    0    0    0  501  0.00000000000E+00  0.00000000000E+00 -0.78843185373E+03  0.78843185374E+03  0.50400001928E-02 0. -1.
    10030    2    1    2    0    0  0.00000000000E+00  0.00000000000E+00  0.46699270392E+03  0.20438564114E+04  0.19897906535E+04 0.  0.
        5    1    3    3  502    0  0.84006777182E+03 -0.52969395657E+03  0.29430866031E+03  0.10358229706E+04  0.46999998093E+01 0. -1.
       -5    1    3    3    0  502 -0.84006777182E+03  0.52969395657E+03  0.17268404361E+03  0.10080334408E+04  0.46999998093E+01 0.  1.
</event>
<event>
 5   0  0.8765057E-05  0.2027125E+04  0.7818609E-02  0.8594043E-01
        1   -1    0    0  501    0  0.00000000000E+00  0.00000000000E+00  0.10104720599E+04  0.10104720599E+04  0.50400001928E-02 0. -1.
       -1   -1    0    0    0  501  0.00000000000E+00  0.00000000000E+00 -0.10166624744E+04  0.10166624745E+04  0.50400001928E-02 0.  1.
    10030    2    1    2    0    0  0.00000000000E+00  0.00000000000E+00 -0.61904145663E+01  0.20271345343E+04  0.20271250822E+04 0.  0.
        3    1    3    3  502    0 -0.46893185446E+03 -0.21007169536E+03 -0.87675929109E+03  0.10162352415E+04  0.10100000352E+00 0.  1.
       -3    1    3    3    0  502  0.46893185446E+03  0.21007169536E+03  0.87056887653E+03  0.10108992929E+04  0.10100000352E+00 0. -1.
</event>
<event>
 5   0  0.8577422E-05  0.2050115E+04  0.7818609E-02  0.8583542E-01
       -1   -1    0    0    0  501  0.00000000000E+00  0.00000000000E+00  0.71505378979E+03  0.71505378981E+03  0.50400001928E-02 0.  1.
        1   -1    0    0  501    0  0.00000000000E+00  0.00000000000E+00 -0.14694595439E+04  0.14694595439E+04  0.50400001928E-02 0. -1.
    10030    2    1    2    0    0  0.00000000000E+00  0.00000000000E+00 -0.75440575414E+03  0.21845133337E+04  0.20501147440E+04 0.  0.
        2    1    3    3  502    0  0.44878878817E+02 -0.38662498844E+02  0.71322849632E+03  0.71568414160E+03  0.25500000920E-02 0.  1.
       -2    1    3    3    0  502 -0.44878878817E+02  0.38662498844E+02 -0.14676342505E+04  0.14688291921E+04  0.25500000920E-02 0. -1.
</event>
<event>
 5   0  0.1782172E-04  0.2132509E+04  0.7818609E-02  0.8547056E-01
       -2   -1    0    0    0  501  0.00000000000E+00  0.00000000000E+00  0.46743050601E+03  0.46743050602E+03  0.25500000920E-02 0. -1.
        2   -1    0    0  501    0  0.00000000000E+00  0.00000000000E+00 -0.24322313756E+04  0.24322313756E+04  0.25500000920E-02 0.  1.
    10030    2    1    2    0    0  0.00000000000E+00  0.00000000000E+00 -0.19648008696E+04  0.28996618816E+04  0.21325094538E+04 0.  0.
        2    1    3    3  502    0 -0.23790138853E+02 -0.90835831841E+03 -0.22384210215E+03  0.93583443623E+03  0.25500000920E-02 0. -1.
       -2    1    3    3    0  502  0.23790138853E+02  0.90835831841E+03 -0.17409587675E+04  0.19638274454E+04  0.25500000920E-02 0.  1.
</event>
<event>
 5   0  0.1812865E-04  0.1849836E+04  0.7818609E-02  0.8680237E-01
        2   -1    0    0  501    0  0.00000000000E+00  0.00000000000E+00  0.10022787974E+04  0.10022787974E+04  0.25500000920E-02 0.  1.
       -2   -1    0    0    0  501  0.00000000000E+00  0.00000000000E+00 -0.85352810403E+03  0.85352810404E+03  0.25500000920E-02 0. -1.
    10030    2    1    2    0    0  0.00000000000E+00  0.00000000000E+00  0.14875069337E+03  0.18558069014E+04  0.18498357999E+04 0.  0.
        3    1    3    3  502    0 -0.27834602652E+03 -0.65017401960E+03 -0.52359422409E+03  0.87997368594E+03  0.10100000352E+00 0. -1.
       -3    1    3    3    0  502  0.27834602652E+03  0.65017401960E+03  0.67234491745E+03  0.97583321550E+03  0.10100000352E+00 0.  1.
</event>
<event>
 5   0  0.8881384E-05  0.2005943E+04  0.7818609E-02  0.8603847E-01
        1   -1    0    0  501    0  0.00000000000E+00  0.00000000000E+00  0.10162497526E+04  0.10162497526E+04  0.50400001928E-02 0. -1.
       -1   -1    0    0    0  501  0.00000000000E+00  0.00000000000E+00 -0.98986651520E+03  0.98986651521E+03  0.50400001928E-02 0.  1.
    10030    2    1    2    0    0  0.00000000000E+00  0.00000000000E+00  0.26383237368E+02  0.20061162678E+04  0.20059427720E+04 0.  0.
        5    1    3    3  502    0  0.21769556396E+03  0.13117778054E+03 -0.95711420040E+03  0.99029725400E+03  0.46999998093E+01 0.  1.
       -5    1    3    3    0  502 -0.21769556396E+03 -0.13117778054E+03  0.98349743777E+03  0.10158190138E+04  0.46999998093E+01 0. -1.
</event>
<event>
 5   0  0.8861350E-05  0.1974733E+04  0.7818609E-02  0.8618526E-01
       -1   -1    0    0    0  501  0.00000000000E+00  0.00000000000E+00  0.81125192178E+03  0.81125192179E+03  0.50400001928E-02 0.  1.
        1   -1    0    0  501    0  0.00000000000E+00  0.00000000000E+00 -0.12017141447E+04  0.12017141447E+04  0.50400001928E-02 0. -1.
    10030    2    1    2    0    0  0.00000000000E+00  0.00000000000E+00 -0.39046222292E+03  0.20129660665E+04  0.19747333079E+04 0.  0.
        1    1    3    3  502    0  0.57509836652E+03 -0.62816806745E+03 -0.70446253192E+03  0.11052604720E+04  0.50400001928E-02 0. -1.
       -1    1    3    3    0  502 -0.57509836652E+03  0.62816806745E+03  0.31400030900E+03  0.90770559446E+03  0.50400001928E-02 0.  1.
</event>
<event>
 5   0  0.8765057E-05  0.2015473E+04  0.7818609E-02  0.8599421E-01
       -1   -1    0    0    0  501  0.00000000000E+00  0.00000000000E+00  0.46261401136E+03  0.46261401139E+03  0.50400001928E-02 0. -1.
        1   -1    0    0  501    0  0.00000000000E+00  0.00000000000E+00 -0.21952056797E+04  0.21952056797E+04  0.50400001928E-02 0.  1.
    10030    2    1    2    0    0  0.00000000000E+00  0.00000000000E+00 -0.17325916683E+04  0.26578196910E+04  0.20154730514E+04 0.  0.
        3    1    3    3  502    0 -0.34017163124E+03 -0.14822295915E+03  0.36924673672E+03  0.52347869784E+03  0.10100000352E+00 0. -1.
       -3    1    3    3    0  502  0.34017163124E+03  0.14822295915E+03 -0.21018384050E+04  0.21343409932E+04  0.10100000352E+00 0.  1.
</event>
<event>
 5   0  0.1807498E-04  0.1759551E+04  0.7818609E-02  0.8728111E-01
        2   -1    0    0  501    0  0.00000000000E+00  0.00000000000E+00  0.26280526519E+04  0.26280526519E+04  0.25500000920E-02 0. -1.
       -2   -1    0    0    0  501  0.00000000000E+00  0.00000000000E+00 -0.29451645630E+03  0.29451645631E+03  0.25500000920E-02 0.  1.
    10030    2    1    2    0    0  0.00000000000E+00  0.00000000000E+00  0.23335361956E+04  0.29225691082E+04  0.17595507995E+04 0.  0.
        5    1    3    3  502    0 -0.31988254254E+03  0.35185923449E+03  0.23961730636E+04  0.24429075305E+04  0.46999998093E+01 0. -1.
       -5    1    3    3    0  502  0.31988254254E+03 -0.35185923449E+03 -0.62636867974E+02  0.47966157772E+03  0.46999998093E+01 0.  1.
</event>
<event>
 5   0  0.6531625E-05  0.2015645E+04  0.7818609E-02  0.8599341E-01
       -3   -1    0    0    0  501  0.00000000000E+00  0.00000000000E+00  0.17599921221E+04  0.17599921250E+04  0.10100000352E+00 0. -1.
        3   -1    0    0  501    0  0.00000000000E+00  0.00000000000E+00 -0.57710838193E+03  0.57710839077E+03  0.10100000352E+00 0.  1.
    10030    2    1    2    0    0  0.00000000000E+00  0.00000000000E+00  0.11828837402E+04  0.23371005158E+04  0.20156450278E+04 0.  0.
        3    1    3    3  502    0  0.44597515283E+03 -0.51844938316E+03 -0.26690450589E+03  0.73411281511E+03  0.10100000352E+00 0.  1.
       -3    1    3    3    0  502 -0.44597515283E+03  0.51844938316E+03  0.14497882461E+04  0.16029877007E+04  0.10100000352E+00 0. -1.
</event>
<event>
 5   0  0.1782172E-04  0.2015696E+04  0.7818609E-02  0.8599317E-01
       -2   -1    0    0    0  501  0.00000000000E+00  0.00000000000E+00  0.45812418178E+03  0.45812418179E+03  0.25500000920E-02 0. -1.
        2   -1    0    0  501    0  0.00000000000E+00  0.00000000000E+00 -0.22172109223E+04  0.22172109223E+04  0.25500000920E-02 0.  1.
    10030    2    1    2    0    0  0.00000000000E+00  0.00000000000E+00 -0.17590867406E+04  0.26753351041E+04  0.20156963458E+04 0.  0.
        2    1    3    3  502    0  0.81073521908E+03 -0.59487697266E+03 -0.78964494613E+03  0.12785575267E+04  0.25500000920E-02 0. -1.
       -2    1    3    3    0  502 -0.81073521908E+03  0.59487697266E+03 -0.96944179443E+03  0.13967775774E+04  0.25500000920E-02 0.  1.
</event>
<event>
 5   0  0.1782172E-04  0.2024900E+04  0.7818609E-02  0.8595067E-01
       -2   -1    0    0    0  501  0.00000000000E+00  0.00000000000E+00  0.71981217717E+03  0.71981217718E+03  0.25500000920E-02 0. -1.
        2   -1    0    0  501    0  0.00000000000E+00  0.00000000000E+00 -0.14240588260E+04  0.14240588260E+04  0.25500000920E-02 0.  1.
    10030    2    1    2    0    0  0.00000000000E+00  0.00000000000E+00 -0.70424664879E+03  0.21438710031E+04  0.20248998829E+04 0.  0.
        2    1    3    3  502    0  0.89903888569E+03  0.40307133382E+03 -0.10536895887E+03  0.99087841617E+03  0.25500000920E-02 0. -1.
       -2    1    3    3    0  502 -0.89903888569E+03 -0.40307133382E+03 -0.59887768991E+03  0.11529925870E+04  0.25500000920E-02 0.  1.
</event>
<event>
 5   0  0.1807498E-04  0.1997407E+04  0.7818609E-02  0.8607834E-01
       -2   -1    0    0    0  501  0.00000000000E+00  0.00000000000E+00  0.11053889172E+04  0.11053889173E+04  0.25500000920E-02 0. -1.
        2   -1    0    0  501    0  0.00000000000E+00  0.00000000000E+00 -0.90231512798E+03  0.90231512798E+03  0.25500000920E-02 0.  1.
    10030    2    1    2    0    0  0.00000000000E+00  0.00000000000E+00  0.20307378927E+03  0.20077040452E+04  0.19974074620E+04 0.  0.
        5    1    3    3  502    0 -0.69847903120E+03  0.71378551379E+03  0.96578350496E+02  0.10033504794E+04  0.46999998093E+01 0. -1.
       -5    1    3    3    0  502  0.69847903120E+03 -0.71378551379E+03  0.10649543878E+03  0.10043535658E+04  0.46999998093E+01 0.  1.
</event>
<event>
 5   0  0.1834645E-04  0.1909055E+04  0.7818609E-02  0.8650362E-01
       -2   -1    0    0    0  501  0.00000000000E+00  0.00000000000E+00  0.60688111105E+03  0.60688111105E+03  0.25500000920E-02 0.  1.
        2   -1    0    0  501    0  0.00000000000E+00  0.00000000000E+00 -0.15013200782E+04  0.15013200782E+04  0.25500000920E-02 0. -1.
    10030    2    1    2    0    0  0.00000000000E+00  0.00000000000E+00 -0.89443896715E+03  0.21082011893E+04  0.19090550512E+04 0.  0.
        1    1    3    3  502    0  0.26801718533E+03 -0.27620676426E+03  0.51739927327E+03  0.64484524985E+03  0.50400001928E-02 0.  1.
       -1    1    3    3    0  502 -0.26801718533E+03  0.27620676426E+03 -0.14118382404E+04  0.14633559394E+04  0.50400001928E-02 0. -1.
</event>
<event>
 5   0  0.1782172E-04  0.1842714E+04  0.7818609E-02  0.8683909E-01
        2   -1    0    0  501    0  0.00000000000E+00  0.00000000000E+00  0.85643656528E+03  0.85643656529E+03  0.25500000920E-02 0. -1.
       -2   -1    0    0    0  501  0.00000000000E+00  0.00000000000E+00 -0.99119881138E+03  0.99119881138E+03  0.25500000920E-02 0.  1.
    10030    2    1    2    0    0  0.00000000000E+00  0.00000000000E+00 -0.13476224610E+03  0.18476353767E+04  0.18427141998E+04 0.  0.
        2    1    3    3  502    0  0.83706546469E+03  0.74794848360E+02 -0.44604833743E+03  0.95143679813E+03  0.25500000920E-02 0.  1.
       -2    1    3    3    0  502 -0.83706546469E+03 -0.74794848360E+02  0.31128609133E+03  0.89619857854E+03  0.25500000920E-02 0. -1.
</event>
<event>
 5   0  0.1834645E-04  0.1940179E+04  0.7818609E-02  0.8635111E-01
        2   -1    0    0  501    0  0.00000000000E+00  0.00000000000E+00  0.10375372837E+04  0.10375372837E+04  0.25500000920E-02 0. -1.
       -2   -1    0    0    0  501  0.00000000000E+00  0.00000000000E+00 -0.90702649182E+03  0.90702649182E+03  0.25500000920E-02 0.  1.
    10030    2    1    2    0    0  0.00000000000E+00  0.00000000000E+00  0.13051079184E+03  0.19445637755E+04  0.19401791696E+04 0.  0.
        1    1    3    3  502    0 -0.64979659620E+03 -0.61110203241E+03  0.44742077746E+03  0.99793119130E+03  0.50400001928E-02 0. -1.
       -1    1    3    3    0  502  0.64979659620E+03  0.61110203241E+03 -0.31690998562E+03  0.94663258419E+03  0.50400001928E-02 0.  1.
</event>
<event>
 5   0  0.8958919E-05  0.2005465E+04  0.7818609E-02  0.8604070E-01
        1   -1    0    0  501    0  0.00000000000E+00  0.00000000000E+00  0.15540198690E+04  0.15540198690E+04  0.50400001928E-02 0. -1.
       -1   -1    0    0    0  501  0.00000000000E+00  0.00000000000E+00 -0.64701391925E+03  0.64701391927E+03  0.50400001928E-02 0.  1.
    10030    2    1    2    0    0  0.00000000000E+00  0.00000000000E+00  0.90700594972E+03  0.22010337882E+04  0.20054650194E+04 0.  0.
        4    1    3    3  502    0  0.28041386436E+02 -0.97299791316E+03  0.18927769686E+03  0.99163446783E+03  0.12699999809E+01 0. -1.
       -4    1    3    3    0  502 -0.28041386436E+02  0.97299791316E+03  0.71772825286E+03  0.12093993204E+04  0.12699999809E+01 0.  1.
</event>
<event>
 5   0  0.8958919E-05  0.2025255E+04  0.7818609E-02  0.8594903E-01
       -1   -1    0    0    0  501  0.00000000000E+00  0.00000000000E+00  0.16437400854E+04  0.16437400854E+04  0.50400001928E-02 0.  1.
        1   -1    0    0  501    0  0.00000000000E+00  0.00000000000E+00 -0.62383019109E+03  0.62383019111E+03  0.50400001928E-02 0. -1.
    10030    2    1    2    0    0  0.00000000000E+00  0.00000000000E+00  0.10199098944E+04  0.22675702766E+04  0.20252552349E+04 0.  0.
        4    1    3    3  502    0  0.70306321797E+03 -0.56461599844E+03 -0.59628381107E+01  0.90173515097E+03  0.12699999809E+01 0. -1.
       -4    1    3    3    0  502 -0.70306321797E+03  0.56461599844E+03  0.10258727325E+04  0.13658351256E+04  0.12699999809E+01 0.  1.
</event>
<event>
 5   0  0.8958919E-05  0.1988318E+04  0.7818609E-02  0.8612102E-01
       -1   -1    0    0    0  501  0.00000000000E+00  0.00000000000E+00  0.12654954179E+04  0.12654954179E+04  0.50400001928E-02 0. -1.
        1   -1    0    0  501    0  0.00000000000E+00  0.00000000000E+00 -0.78100044953E+03  0.78100044954E+03  0.50400001928E-02 0.  1.
    10030    2    1    2    0    0  0.00000000000E+00  0.00000000000E+00  0.48449496833E+03  0.20464958674E+04  0.19883183752E+04 0.  0.
        4    1    3    3  502    0 -0.43516940115E+02  0.26151543899E+03  0.12284408888E+04  0.12567229922E+04  0.12699999809E+01 0. -1.
       -4    1    3    3    0  502  0.43516940115E+02 -0.26151543899E+03 -0.74394592049E+03  0.78977287521E+03  0.12699999809E+01 0.  1.
</event>
<event>
 5   0  0.1893687E-04  0.2007049E+04  0.7818609E-02  0.8603332E-01
        2   -1    0    0  501    0  0.00000000000E+00  0.00000000000E+00  0.98123188778E+03  0.98123188778E+03  0.25500000920E-02 0. -1.
       -2   -1    0    0    0  501  0.00000000000E+00  0.00000000000E+00 -0.10263232606E+04  0.10263232606E+04  0.25500000920E-02 0.  1.
    10030    2    1    2    0    0  0.00000000000E+00  0.00000000000E+00 -0.45091372794E+02  0.20075551484E+04  0.20070486894E+04 0.  0.
        4    1    3    3  502    0  0.50000601464E+03  0.83072566042E+03 -0.28135478933E+03  0.10095906437E+04  0.12699999809E+01 0.  1.
       -4    1    3    3    0  502 -0.50000601464E+03 -0.83072566042E+03  0.23626341654E+03  0.99796450461E+03  0.12699999809E+01 0. -1.
</event>
<event>
 5   0  0.8881384E-05  0.1973980E+04  0.7818609E-02  0.8618883E-01
       -1   -1    0    0    0  501  0.00000000000E+00  0.00000000000E+00  0.56092789247E+03  0.56092789249E+03  0.50400001928E-02 0.  1.
        1   -1    0    0  501    0  0.00000000000E+00  0.00000000000E+00 -0.17366751675E+04  0.17366751675E+04  0.50400001928E-02 0. -1.
    10030    2    1    2    0    0  0.00000000000E+00  0.00000000000E+00 -0.11757472750E+04  0.22976030600E+04  0.19739802852E+04 0.  0.
        5    1    3    3  502    0 -0.60569622959E+03  0.76689075533E+03 -0.74889429015E+03  0.12312002684E+04  0.46999998093E+01 0. -1.
       -5    1    3    3    0  502  0.60569622959E+03 -0.76689075533E+03 -0.42685298486E+03  0.10664027916E+04  0.46999998093E+01 0.  1.
</event>
<event>
 5   0  0.8577422E-05  0.2014313E+04  0.7818609E-02  0.8599958E-01
        1   -1    0    0  501    0  0.00000000000E+00  0.00000000000E+00  0.84831920505E+03  0.84831920506E+03  0.50400001928E-02 0. -1.
       -1   -1    0    0    0  501  0.00000000000E+00  0.00000000000E+00 -0.11957340106E+04  0.11957340106E+04  0.50400001928E-02 0.  1.
    10030    2    1    2    0    0  0.00000000000E+00  0.00000000000E+00 -0.34741480556E+03  0.20440532157E+04  0.20143129105E+04 0.  0.
        2    1    3    3  502    0 -0.63755575826E+03  0.18778839467E+03  0.59418326593E+03  0.89151308436E+03  0.25500000920E-02 0. -1.
       -2    1    3    3    0  502  0.63755575826E+03 -0.18778839467E+03 -0.94159807148E+03  0.11525401313E+04  0.25500000920E-02 0.  1.
</event>
<event>
 5   0  0.8958919E-05  0.1970991E+04  0.7818609E-02  0.8620305E-01
        1   -1    0    0  501    0  0.00000000000E+00  0.00000000000E+00  0.13029370193E+04  0.13029370193E+04  0.50400001928E-02 0.  1.
       -1   -1    0    0    0  501  0.00000000000E+00  0.00000000000E+00 -0.74539382316E+03  0.74539382317E+03  0.50400001928E-02 0. -1.
    10030    2    1    2    0    0  0.00000000000E+00  0.00000000000E+00  0.55754319612E+03  0.20483308425E+04  0.19709908231E+04 0.  0.
        4    1    3    3  502    0  0.68499322986E+03  0.70011704658E+03  0.16578575107E+03  0.99341136093E+03  0.12699999809E+01 0. -1.
       -4    1    3    3    0  502 -0.68499322986E+03 -0.70011704658E+03  0.39175744505E+03  0.10549194815E+04  0.12699999809E+01 0.  1.
</event>
<event>
 5   0  0.8958919E-05  0.1996179E+04  0.7818609E-02  0.8608409E-01
        1   -1    0    0  501    0  0.00000000000E+00  0.00000000000E+00  0.10623967972E+04  0.10623967972E+04  0.50400001928E-02 0.  1.
       -1   -1    0    0    0  501  0.00000000000E+00  0.00000000000E+00 -0.93767451701E+03  0.93767451702E+03  0.50400001928E-02 0. -1.
    10030    2    1    2    0    0  0.00000000000E+00  0.00000000000E+00  0.12472228014E+03  0.20000713142E+04  0.19961787532E+04 0.  0.
        4    1    3    3  502    0  0.45976961587E+03 -0.39809972148E+03 -0.73057914676E+03  0.95058875993E+03  0.12699999809E+01 0. -1.
       -4    1    3    3    0  502 -0.45976961587E+03  0.39809972148E+03  0.85530142691E+03  0.10494825543E+04  0.12699999809E+01 0.  1.
</event>
<event>
 5   0  0.1812865E-04  0.1998836E+04  0.7818609E-02  0.8607165E-01
        2   -1    0    0  501    0  0.00000000000E+00  0.00000000000E+00  0.83199337003E+03  0.83199337003E+03  0.25500000920E-02 0.  1.
       -2   -1    0    0    0  501  0.00000000000E+00  0.00000000000E+00 -0.12005338787E+04  0.12005338787E+04  0.25500000920E-02 0. -1.
    10030    2    1    2    0    0  0.00000000000E+00  0.00000000000E+00 -0.36854050869E+03  0.20325272488E+04  0.19988358888E+04 0.  0.
        3    1    3    3  502    0  0.29835383037E+03  0.95346992269E+03 -0.15705505555E+03  0.10113289288E+04  0.10100000352E+00 0.  1.
       -3    1    3    3    0  502 -0.29835383037E+03 -0.95346992269E+03 -0.21148545315E+03  0.10211983199E+04  0.10100000352E+00 0. -1.
</event>
<event>
 5   0  0.8577422E-05  0.2035985E+04  0.7818609E-02  0.8589979E-01
        1   -1    0    0  501    0  0.00000000000E+00  0.00000000000E+00  0.87094625158E+03  0.87094625160E+03  0.50400001928E-02 0.  1.
       -1   -1    0    0    0  501  0.00000000000E+00  0.00000000000E+00 -0.11898657978E+04  0.11898657979E+04  0.50400001928E-02 0. -1.
    10030    2    1    2    0    0  0.00000000000E+00  0.00000000000E+00 -0.31891954626E+03  0.20608120495E+04  0.20359854190E+04 0.  0.
        2    1    3    3  502    0 -0.10154895217E+04  0.60333819516E+00 -0.23167272497E+03  0.10415812902E+04  0.25500000920E-02 0. -1.
       -2    1    3    3    0  502  0.10154895217E+04 -0.60333819516E+00 -0.87246821297E+02  0.10192307592E+04  0.25500000920E-02 0.  1.
</event>
<event>
 5   0  0.1812865E-04  0.1984106E+04  0.7818609E-02  0.8614088E-01
       -2   -1    0    0    0  501  0.00000000000E+00  0.00000000000E+00  0.66788900763E+03  0.66788900763E+03  0.25500000920E-02 0.  1.
        2   -1    0    0  501    0  0.00000000000E+00  0.00000000000E+00 -0.14735516880E+04  0.14735516880E+04  0.25500000920E-02 0. -1.
    10030    2    1    2    0    0  0.00000000000E+00  0.00000000000E+00 -0.80566268035E+03  0.21414406956E+04  0.19841058183E+04 0.  0.
        3    1    3    3  502    0 -0.74273861079E+03 -0.10138447380E+03 -0.11041501903E+04  0.13345737553E+04  0.10100000352E+00 0. -1.
       -3    1    3    3    0  502  0.74273861079E+03  0.10138447380E+03  0.29848750996E+03  0.80686694026E+03  0.10100000352E+00 0.  1.
</event>
<event>
 5   0  0.8881384E-05  0.2009669E+04  0.7818609E-02  0.8602113E-01
       -1   -1    0    0    0  501  0.00000000000E+00  0.00000000000E+00  0.43289657067E+03  0.43289657070E+03  0.50400001928E-02 0. -1.
        1   -1    0    0  501    0  0.00000000000E+00  0.00000000000E+00 -0.23324100730E+04  0.23324100730E+04  0.50400001928E-02 0.  1.
    10030    2    1    2    0    0  0.00000000000E+00  0.00000000000E+00 -0.18995135023E+04  0.27653066437E+04  0.20096689499E+04 0.  0.
        5    1    3    3  502    0  0.88750728554E+03 -0.27261584973E+02 -0.30251261510E+03  0.93805562106E+03  0.46999998093E+01 0. -1.
       -5    1    3    3    0  502 -0.88750728554E+03  0.27261584973E+02 -0.15970008872E+04  0.18272510226E+04  0.46999998093E+01 0.  1.
</event>
<event>
 5   0  0.1812865E-04  0.1558010E+04  0.7818609E-02  0.8846768E-01
        2   -1    0    0  501    0  0.00000000000E+00  0.00000000000E+00  0.72160775996E+03  0.72160775996E+03  0.25500000920E-02 0. -1.
       -2   -1    0    0    0  501  0.00000000000E+00  0.00000000000E+00 -0.84096731918E+03  0.84096731919E+03  0.25500000920E-02 0.  1.
    10030    2    1    2    0    0  0.00000000000E+00  0.00000000000E+00 -0.11935955923E+03  0.15625750791E+04  0.15580096834E+04 0.  0.
        3    1    3    3  502    0  0.17379732079E+03  0.47455560592E+03 -0.65424066819E+03  0.82670393367E+03  0.10100000352E+00 0.  1.
       -3    1    3    3    0  502 -0.17379732079E+03 -0.47455560592E+03  0.53488110896E+03  0.73587114548E+03  0.10100000352E+00 0. -1.
</event>
<event>
 5   0  0.8765057E-05  0.1997876E+04  0.7818609E-02  0.8607614E-01
        1   -1    0    0  501    0  0.00000000000E+00  0.00000000000E+00  0.14407695090E+04  0.14407695090E+04  0.50400001928E-02 0. -1.
       -1   -1    0    0    0  501  0.00000000000E+00  0.00000000000E+00 -0.69260030576E+03  0.69260030578E+03  0.50400001928E-02 0.  1.
    10030    2    1    2    0    0  0.00000000000E+00  0.00000000000E+00  0.74816920325E+03  0.21333698148E+04  0.19978762750E+04 0.  0.
        3    1    3    3  502    0 -0.89775126789E+02 -0.18488300357E+03 -0.66977917807E+03  0.70060363685E+03  0.10100000352E+00 0.  1.
       -3    1    3    3    0  502  0.89775126789E+02  0.18488300357E+03  0.14179483813E+04  0.14327661780E+04  0.10100000352E+00 0. -1.
</event>
<event>
 5   0  0.8881384E-05  0.1801479E+04  0.7818609E-02  0.8705513E-01
       -1   -1    0    0    0  501  0.00000000000E+00  0.00000000000E+00  0.12271898672E+04  0.12271898672E+04  0.50400001928E-02 0.  1.
        1   -1    0    0  501    0  0.00000000000E+00  0.00000000000E+00 -0.66112957184E+03  0.66112957186E+03  0.50400001928E-02 0. -1.
    10030    2    1    2    0    0  0.00000000000E+00  0.00000000000E+00  0.56606029532E+03  0.18883194390E+04  0.18014788497E+04 0.  0.
        5    1    3    3  502    0 -0.10134191671E+03  0.88892354295E+03  0.17382461292E+03  0.91142324709E+03  0.46999998093E+01 0.  1.
       -5    1    3    3    0  502  0.10134191671E+03 -0.88892354295E+03  0.39223568240E+03  0.97689619194E+03  0.46999998093E+01 0. -1.
</event>
<event>
 5   0  0.1807498E-04  0.1979272E+04  0.7818609E-02  0.8616374E-01
        2   -1    0    0  501    0  0.00000000000E+00  0.00000000000E+00  0.25353624174E+04  0.25353624174E+04  0.25500000920E-02 0.  1.
       -2   -1    0    0    0  501  0.00000000000E+00  0.00000000000E+00 -0.38628761795E+03  0.38628761796E+03  0.25500000920E-02 0. -1.
    10030    2    1    2    0    0  0.00000000000E+00  0.00000000000E+00  0.21490747995E+04  0.29216500354E+04  0.19792716932E+04 0.  0.
        5    1    3    3  502    0  0.88620688028E+02  0.88461371443E+03  0.17162048102E+04  0.19328155863E+04  0.46999998093E+01 0.  1.
       -5    1    3    3    0  502 -0.88620688028E+02 -0.88461371443E+03  0.43286998932E+03  0.98883444911E+03  0.46999998093E+01 0. -1.
</event>
<event>
 5   0  0.8765057E-05  0.1925107E+04  0.7818609E-02  0.8642459E-01
        1   -1    0    0  501    0  0.00000000000E+00  0.00000000000E+00  0.21595953205E+04  0.21595953205E+04  0.50400001928E-02 0.  1.
       -1   -1    0    0    0  501  0.00000000000E+00  0.00000000000E+00 -0.42902003551E+03  0.42902003554E+03  0.50400001928E-02 0. -1.
    10030    2    1    2    0    0  0.00000000000E+00  0.00000000000E+00  0.17305752850E+04  0.25886153561E+04  0.19251074371E+04 0.  0.
        3    1    3    3  502    0 -0.16528018038E+02  0.70668477528E+03  0.17437873044E+04  0.18816138606E+04  0.10100000352E+00 0.  1.
       -3    1    3    3    0  502  0.16528018038E+02 -0.70668477528E+03 -0.13212019406E+02  0.70700149550E+03  0.10100000352E+00 0. -1.
</event>
<event>
 5   0  0.8577422E-05  0.2015303E+04  0.7818609E-02  0.8599499E-01
       -1   -1    0    0    0  501  0.00000000000E+00  0.00000000000E+00  0.79419522215E+03  0.79419522216E+03  0.50400001928E-02 0. -1.
        1   -1    0    0  501    0  0.00000000000E+00  0.00000000000E+00 -0.12784782446E+04  0.12784782446E+04  0.50400001928E-02 0.  1.
    10030    2    1    2    0    0  0.00000000000E+00  0.00000000000E+00 -0.48428302246E+03  0.20726734668E+04  0.20153027698E+04 0.  0.
        2    1    3    3  502    0  0.87063934339E+03 -0.27789432059E+03 -0.67863262391E+03  0.11383234856E+04  0.25500000920E-02 0.  1.
       -2    1    3    3    0  502 -0.87063934339E+03  0.27789432059E+03  0.19434960146E+03  0.93434998115E+03  0.25500000920E-02 0. -1.
</event>
<event>
 5   0  0.1782172E-04  0.2004208E+04  0.7818609E-02  0.8604656E-01
        2   -1    0    0  501    0  0.00000000000E+00  0.00000000000E+00  0.15726919224E+04  0.15726919224E+04  0.25500000920E-02 0.  1.
       -2   -1    0    0    0  501  0.00000000000E+00  0.00000000000E+00 -0.63853087771E+03  0.63853087771E+03  0.25500000920E-02 0. -1.
    10030    2    1    2    0    0  0.00000000000E+00  0.00000000000E+00  0.93416104471E+03  0.22112228001E+04  0.20042079269E+04 0.  0.
        2    1    3    3  502    0  0.40698899630E+03  0.70160781718E+03  0.11163541315E+04  0.13799058371E+04  0.25500000920E-02 0.  1.
       -2    1    3    3    0  502 -0.40698899630E+03 -0.70160781718E+03 -0.18219308677E+03  0.83131696309E+03  0.25500000920E-02 0. -1.
</event>
<event>
 5   0  0.1782172E-04  0.2009203E+04  0.7818609E-02  0.8602330E-01
        2   -1    0    0  501    0  0.00000000000E+00  0.00000000000E+00  0.10735194057E+04  0.10735194057E+04  0.25500000920E-02 0. -1.
       -2   -1    0    0    0  501  0.00000000000E+00  0.00000000000E+00 -0.94010808199E+03  0.94010808199E+03  0.25500000920E-02 0.  1.
    10030    2    1    2    0    0  0.00000000000E+00  0.00000000000E+00  0.13341132367E+03  0.20136274876E+04  0.20092030952E+04 0.  0.
        2    1    3    3  502    0  0.26544560613E+03  0.23395181485E+03  0.10090045063E+04  0.10692450212E+04  0.25500000920E-02 0. -1.
       -2    1    3    3    0  502 -0.26544560613E+03 -0.23395181485E+03 -0.87559318266E+03  0.94438246649E+03  0.25500000920E-02 0.  1.
</event>
<event>
 5   0  0.1893687E-04  0.2021277E+04  0.7818609E-02  0.8596737E-01
       -2   -1    0    0    0  501  0.00000000000E+00  0.00000000000E+00  0.57806543656E+03  0.57806543657E+03  0.25500000920E-02 0. -1.
        2   -1    0    0  501    0  0.00000000000E+00  0.00000000000E+00 -0.17669108448E+04  0.17669108448E+04  0.25500000920E-02 0.  1.
    10030    2    1    2    0    0  0.00000000000E+00  0.00000000000E+00 -0.11888454083E+04  0.23449762814E+04  0.20212769121E+04 0.  0.
        4    1    3    3  502    0  0.54744199119E+03 -0.29279549150E+03  0.33076483154E+03  0.70344077238E+03  0.12699999809E+01 0. -1.
       -4    1    3    3    0  502 -0.54744199119E+03  0.29279549150E+03 -0.15196102398E+04  0.16415355090E+04  0.12699999809E+01 0.  1.
</event>
<event>
 5   0  0.1834645E-04  0.1939875E+04  0.7818609E-02  0.8635259E-01
       -2   -1    0    0    0  501  0.00000000000E+00  0.00000000000E+00  0.85136662651E+03  0.85136662652E+03  0.25500000920E-02 0. -1.
        2   -1    0    0  501    0  0.00000000000E+00  0.00000000000E+00 -0.11050217612E+04  0.11050217612E+04  0.25500000920E-02 0.  1.
    10030    2    1    2    0    0  0.00000000000E+00  0.00000000000E+00 -0.25365513464E+03  0.19563883877E+04  0.19398748919E+04 0.  0.
        1    1    3    3  502    0 -0.48954843510E+03  0.83707179631E+03 -0.14778392927E+03  0.98091128664E+03  0.50400001928E-02 0. -1.
       -1    1    3    3    0  502  0.48954843510E+03 -0.83707179631E+03 -0.10587120537E+03  0.97547710103E+03  0.50400001928E-02 0.  1.
</event>
<event>
 5   0  0.6531625E-05  0.1963691E+04  0.7818609E-02  0.8623787E-01
       -4   -1    0    0    0  501  0.00000000000E+00  0.00000000000E+00  0.68165072189E+03  0.68165190497E+03  0.12699999809E+01 0. -1.
        4   -1    0    0  501    0  0.00000000000E+00  0.00000000000E+00 -0.14142409800E+04  0.14142415502E+04  0.12699999809E+01 0.  1.
    10030    2    1    2    0    0  0.00000000000E+00  0.00000000000E+00 -0.73259025809E+03  0.20958934552E+04  0.19636906297E+04 0.  0.
        1    1    3    3  502    0 -0.73433017005E+03 -0.61037044466E+03 -0.61021383298E+03  0.11332051007E+04  0.50400001928E-02 0.  1.
       -1    1    3    3    0  502  0.73433017005E+03  0.61037044466E+03 -0.12237642511E+03  0.96268835445E+03  0.50400001928E-02 0. -1.
</event>
<event>
 5   0  0.1782172E-04  0.1994748E+04  0.7818609E-02  0.8609080E-01
       -2   -1    0    0    0  501  0.00000000000E+00  0.00000000000E+00  0.17494182573E+04  0.17494182573E+04  0.25500000920E-02 0. -1.
        2   -1    0    0  501    0  0.00000000000E+00  0.00000000000E+00 -0.56862043955E+03  0.56862043955E+03  0.25500000920E-02 0.  1.
    10030    2    1    2    0    0  0.00000000000E+00  0.00000000000E+00  0.11807978177E+04  0.23180386969E+04  0.19947480828E+04 0.  0.
        2    1    3    3  502    0 -0.47753905300E+03  0.67192609606E+03  0.12428442877E+04  0.14913719017E+04  0.25500000920E-02 0. -1.
       -2    1    3    3    0  502  0.47753905300E+03 -0.67192609606E+03 -0.62046469988E+02  0.82666679512E+03  0.25500000920E-02 0.  1.
</event>
<event>
 5   0  0.1812865E-04  0.1984935E+04  0.7818609E-02  0.8613697E-01
       -2   -1    0    0    0  501  0.00000000000E+00  0.00000000000E+00  0.40440940952E+03  0.40440940952E+03  0.25500000920E-02 0. -1.
        2   -1    0    0  501    0  0.00000000000E+00  0.00000000000E+00 -0.24356294355E+04  0.24356294355E+04  0.25500000920E-02 0.  1.
    10030    2    1    2    0    0  0.00000000000E+00  0.00000000000E+00 -0.20312200260E+04  0.28400388450E+04  0.19849347212E+04 0.  0.
        3    1    3    3  502    0 -0.41895315047E+03  0.86470726233E+03 -0.13711596662E+04  0.16743115697E+04  0.10100000352E+00 0. -1.
       -3    1    3    3    0  502  0.41895315047E+03 -0.86470726233E+03 -0.66006035977E+03  0.11657272754E+04  0.10100000352E+00 0.  1.
</event>
<event>
 5   0  0.6531625E-05  0.2003081E+04  0.7818609E-02  0.8605182E-01
        3   -1    0    0  501    0  0.00000000000E+00  0.00000000000E+00  0.38092835505E+03  0.38092836844E+03  0.10100000352E+00 0. -1.
       -3   -1    0    0    0  501  0.00000000000E+00  0.00000000000E+00 -0.26332591811E+04  0.26332591831E+04  0.10100000352E+00 0.  1.
    10030    2    1    2    0    0  0.00000000000E+00  0.00000000000E+00 -0.22523308261E+04  0.30141875515E+04  0.20030807387E+04 0.  0.
        5    1    3    3  502    0 -0.21424257581E+03  0.77518096400E+03 -0.20243232732E+04  0.21782360323E+04  0.46999998093E+01 0.  1.
       -5    1    3    3    0  502  0.21424257581E+03 -0.77518096400E+03 -0.22800755291E+03  0.83595151918E+03  0.46999998093E+01 0. -1.
</event>
<event>
 5   0  0.6531625E-05  0.2089597E+04  0.7818609E-02  0.8565840E-01
       -3   -1    0    0    0  501  0.00000000000E+00  0.00000000000E+00  0.72034407229E+03  0.72034407937E+03  0.10100000352E+00 0.  1.
        3   -1    0    0  501    0  0.00000000000E+00  0.00000000000E+00 -0.15153922497E+04  0.15153922530E+04  0.10100000352E+00 0. -1.
    10030    2    1    2    0    0  0.00000000000E+00  0.00000000000E+00 -0.79504817739E+03  0.22357363324E+04  0.20895969333E+04 0.  0.
        5    1    3    3  502    0  0.66449310201E+03  0.80389807796E+03 -0.46329294337E+03  0.11412561692E+04  0.46999998093E+01 0. -1.
       -5    1    3    3    0  502 -0.66449310201E+03 -0.80389807796E+03 -0.33175523402E+03  0.10944801632E+04  0.46999998093E+01 0.  1.
</event>
<event>
 5   0  0.8765057E-05  0.1756996E+04  0.7818609E-02  0.8729509E-01
       -1   -1    0    0    0  501  0.00000000000E+00  0.00000000000E+00  0.69298540866E+03  0.69298540868E+03  0.50400001928E-02 0. -1.
        1   -1    0    0  501    0  0.00000000000E+00  0.00000000000E+00 -0.11136720828E+04  0.11136720829E+04  0.50400001928E-02 0.  1.
    10030    2    1    2    0    0  0.00000000000E+00  0.00000000000E+00 -0.42068667419E+03  0.18066574915E+04  0.17569957353E+04 0.  0.
        3    1    3    3  502    0  0.59620350628E+03  0.81882452946E+01 -0.87373999949E+03  0.10578030370E+04  0.10100000352E+00 0.  1.
       -3    1    3    3    0  502 -0.59620350628E+03 -0.81882452946E+01  0.45305332529E+03  0.74885445450E+03  0.10100000352E+00 0. -1.
</event>
<event>
 5   0  0.1807498E-04  0.1888098E+04  0.7818609E-02  0.8660803E-01
       -2   -1    0    0    0  501  0.00000000000E+00  0.00000000000E+00  0.54858162061E+03  0.54858162061E+03  0.25500000920E-02 0.  1.
        2   -1    0    0  501    0  0.00000000000E+00  0.00000000000E+00 -0.16246059860E+04  0.16246059860E+04  0.25500000920E-02 0. -1.
    10030    2    1    2    0    0  0.00000000000E+00  0.00000000000E+00 -0.10760243654E+04  0.21731876066E+04  0.18880984981E+04 0.  0.
        5    1    3    3  502    0  0.75311423304E+03  0.56007210599E+03 -0.65508054890E+03  0.11445586169E+04  0.46999998093E+01 0. -1.
       -5    1    3    3    0  502 -0.75311423304E+03 -0.56007210599E+03 -0.42094381650E+03  0.10286289898E+04  0.46999998093E+01 0.  1.
</event>
<event>
 5   0  0.8958919E-05  0.2060242E+04  0.7818609E-02  0.8578962E-01
       -1   -1    0    0    0  501  0.00000000000E+00  0.00000000000E+00  0.10696525291E+04  0.10696525292E+04  0.50400001928E-02 0.  1.
        1   -1    0    0  501    0  0.00000000000E+00  0.00000000000E+00 -0.99205012488E+03  0.99205012490E+03  0.50400001928E-02 0. -1.
    10030    2    1    2    0    0  0.00000000000E+00  0.00000000000E+00  0.77602404259E+02  0.20617026541E+04  0.20602416607E+04 0.  0.
        4    1    3    3  502    0 -0.85781565237E+03  0.53906019387E+03 -0.14764712100E+03  0.10238334197E+04  0.12699999809E+01 0.  1.
       -4    1    3    3    0  502  0.85781565237E+03 -0.53906019387E+03  0.22524952526E+03  0.10378692343E+04  0.12699999809E+01 0. -1.
</event>
<event>
 5   0  0.1834645E-04  0.2028080E+04  0.7818609E-02  0.8593604E-01
       -2   -1    0    0    0  501  0.00000000000E+00  0.00000000000E+00  0.66196288266E+03  0.66196288267E+03  0.25500000920E-02 0.  1.
        2   -1    0    0  501    0  0.00000000000E+00  0.00000000000E+00 -0.15533755747E+04  0.15533755747E+04  0.25500000920E-02 0. -1.
    10030    2    1    2    0    0  0.00000000000E+00  0.00000000000E+00 -0.89141269203E+03  0.22153384574E+04  0.20280798537E+04 0.  0.
        1    1    3    3  502    0  0.52264678082E+02  0.76453539646E+03 -0.11711264653E+04  0.13995653492E+04  0.50400001928E-02 0. -1.
       -1    1    3    3    0  502 -0.52264678082E+02 -0.76453539646E+03  0.27971377324E+03  0.81577310815E+03  0.50400001928E-02 0.  1.
</event>
<event>
 5   0  0.1782172E-04  0.2172199E+04  0.7818609E-02  0.8530089E-01
        2   -1    0    0  501    0  0.00000000000E+00  0.00000000000E+00  0.32667140798E+04  0.32667140798E+04  0.25500000920E-02 0. -1.
       -2   -1    0    0    0  501  0.00000000000E+00  0.00000000000E+00 -0.36110054319E+03  0.36110054320E+03  0.25500000920E-02 0.  1.
    10030    2    1    2    0    0  0.00000000000E+00  0.00000000000E+00  0.29056135366E+04  0.36278146230E+04  0.21721990965E+04 0.  0.
        2    1    3    3  502    0  0.10867085709E+03  0.61725625279E+03  0.29342225581E+04  0.30004127479E+04  0.25500000920E-02 0. -1.
       -2    1    3    3    0  502 -0.10867085709E+03 -0.61725625279E+03 -0.28609021555E+02  0.62740187512E+03  0.25500000920E-02 0.  1.
</event>
<event>
 5   0  0.8881384E-05  0.2044473E+04  0.7818609E-02  0.8586106E-01
        1   -1    0    0  501    0  0.00000000000E+00  0.00000000000E+00  0.20551285157E+04  0.20551285157E+04  0.50400001928E-02 0. -1.
       -1   -1    0    0    0  501  0.00000000000E+00  0.00000000000E+00 -0.50846839581E+03  0.50846839584E+03  0.50400001928E-02 0.  1.
    10030    2    1    2    0    0  0.00000000000E+00  0.00000000000E+00  0.15466601198E+04  0.25635969115E+04  0.20444734281E+04 0.  0.
        5    1    3    3  502    0 -0.36849650583E+03 -0.88767523421E+03  0.33681469429E+03  0.10184415666E+04  0.46999998093E+01 0. -1.
       -5    1    3    3    0  502  0.36849650583E+03  0.88767523421E+03  0.12098454255E+04  0.15451553449E+04  0.46999998093E+01 0.  1.
</event>
<event>
 5   0  0.1893687E-04  0.2009238E+04  0.7818609E-02  0.8602314E-01
        2   -1    0    0  501    0  0.00000000000E+00  0.00000000000E+00  0.66279247535E+03  0.66279247535E+03  0.25500000920E-02 0.  1.
       -2   -1    0    0    0  501  0.00000000000E+00  0.00000000000E+00 -0.15227385062E+04  0.15227385062E+04  0.25500000920E-02 0. -1.
    10030    2    1    2    0    0  0.00000000000E+00  0.00000000000E+00 -0.85994603086E+03  0.21855309816E+04  0.20092382874E+04 0.  0.
        4    1    3    3  502    0  0.76441174912E+03 -0.17698956481E+03 -0.11124014903E+04  0.13612822326E+04  0.12699999809E+01 0. -1.
       -4    1    3    3    0  502 -0.76441174912E+03  0.17698956481E+03  0.25245545946E+03  0.82424874896E+03  0.12699999809E+01 0.  1.
</event>
<event>
 5   0  0.1807498E-04  0.1997920E+04  0.7818609E-02  0.8607594E-01
        2   -1    0    0  501    0  0.00000000000E+00  0.00000000000E+00  0.10515839646E+04  0.10515839646E+04  0.25500000920E-02 0. -1.
       -2   -1    0    0    0  501  0.00000000000E+00  0.00000000000E+00 -0.94896910240E+03  0.94896910241E+03  0.25500000920E-02 0.  1.
    10030    2    1    2    0    0  0.00000000000E+00  0.00000000000E+00  0.10261486224E+03  0.20005530671E+04  0.19979196090E+04 0.  0.
        5    1    3    3  502    0 -0.43298842718E+03 -0.95607914129E+02  0.94762906593E+03  0.10462517804E+04  0.46999998093E+01 0. -1.
       -5    1    3    3    0  502  0.43298842718E+03  0.95607914129E+02 -0.84501420370E+03  0.95430128668E+03  0.46999998093E+01 0.  1.
</event>
<event>
 5   0  0.8958919E-05  0.1928690E+04  0.7818609E-02  0.8640706E-01
       -1   -1    0    0    0  501  0.00000000000E+00  0.00000000000E+00  0.46383025427E+03  0.46383025429E+03  0.50400001928E-02 0. -1.
        1   -1    0    0  501    0  0.00000000000E+00  0.00000000000E+00 -0.20049612193E+04  0.20049612193E+04  0.50400001928E-02 0.  1.
    10030    2    1    2    0    0  0.00000000000E+00  0.00000000000E+00 -0.15411309650E+04  0.24687914736E+04  0.19286904077E+04 0.  0.
        4    1    3    3  502    0  0.17165970315E+03  0.92034769517E+03 -0.47462223120E+03  0.10496546141E+04  0.12699999809E+01 0.  1.
       -4    1    3    3    0  502 -0.17165970315E+03 -0.92034769517E+03 -0.10665087338E+04  0.14191368595E+04  0.12699999809E+01 0. -1.
</event>
<event>
 5   0  0.1812865E-04  0.2016982E+04  0.7818609E-02  0.8598722E-01
       -2   -1    0    0    0  501  0.00000000000E+00  0.00000000000E+00  0.55133438305E+03  0.55133438306E+03  0.25500000920E-02 0.  1.
        2   -1    0    0  501    0  0.00000000000E+00  0.00000000000E+00 -0.18447139374E+04  0.18447139374E+04  0.25500000920E-02 0. -1.
    10030    2    1    2    0    0  0.00000000000E+00  0.00000000000E+00 -0.12933795543E+04  0.23960483205E+04  0.20169821225E+04 0.  0.
        3    1    3    3  502    0  0.35991281175E+03 -0.88883427097E+03 -0.27577431930E+03  0.99780513062E+03  0.10100000352E+00 0.  1.
       -3    1    3    3    0  502 -0.35991281175E+03  0.88883427097E+03 -0.10176052350E+04  0.13982431898E+04  0.10100000352E+00 0. -1.
</event>
<event>
 5   0  0.6531625E-05  0.1709668E+04  0.7818609E-02  0.8755869E-01
       -3   -1    0    0    0  501  0.00000000000E+00  0.00000000000E+00  0.86262628792E+03  0.86262629383E+03  0.10100000352E+00 0.  1.
        3   -1    0    0  501    0  0.00000000000E+00  0.00000000000E+00 -0.84711225255E+03  0.84711225857E+03  0.10100000352E+00 0. -1.
    10030    2    1    2    0    0  0.00000000000E+00  0.00000000000E+00  0.15514035366E+02  0.17097385524E+04  0.17096681644E+04 0.  0.
        2    1    3    3  502    0  0.20404708851E+03  0.71384880343E+03  0.43147952388E+03  0.85871410145E+03  0.25500000920E-02 0.  1.
       -2    1    3    3    0  502 -0.20404708851E+03 -0.71384880343E+03 -0.41596548852E+03  0.85102445096E+03  0.25500000920E-02 0. -1.
</event>
<event>
 5   0  0.8765057E-05  0.1565884E+04  0.7818609E-02  0.8841785E-01
       -1   -1    0    0    0  501  0.00000000000E+00  0.00000000000E+00  0.84281033128E+03  0.84281033130E+03  0.50400001928E-02 0. -1.
        1   -1    0    0  501    0  0.00000000000E+00  0.00000000000E+00 -0.72732621923E+03  0.72732621925E+03  0.50400001928E-02 0.  1.
    10030    2    1    2    0    0  0.00000000000E+00  0.00000000000E+00  0.11548411205E+03  0.15701365505E+04  0.15658838422E+04 0.  0.
        3    1    3    3  502    0  0.32966420413E+03  0.62260616501E+03 -0.28477181999E+03  0.75987625562E+03  0.10100000352E+00 0.  1.
       -3    1    3    3    0  502 -0.32966420413E+03 -0.62260616501E+03  0.40025593204E+03  0.81026029492E+03  0.10100000352E+00 0. -1.
</event>
<event>
 5   0  0.8765057E-05  0.1975782E+04  0.7818609E-02  0.8618028E-01
        1   -1    0    0  501    0  0.00000000000E+00  0.00000000000E+00  0.22603027047E+04  0.22603027047E+04  0.50400001928E-02 0.  1.
       -1   -1    0    0    0  501  0.00000000000E+00  0.00000000000E+00 -0.43176896719E+03  0.43176896722E+03  0.50400001928E-02 0. -1.
    10030    2    1    2    0    0  0.00000000000E+00  0.00000000000E+00  0.18285337375E+04  0.26920716719E+04  0.19757819357E+04 0.  0.
        3    1    3    3  502    0  0.67889520960E+03  0.44814867625E+03  0.16780069664E+04  0.18647904255E+04  0.10100000352E+00 0.  1.
       -3    1    3    3    0  502 -0.67889520960E+03 -0.44814867625E+03  0.15052677113E+03  0.82728124642E+03  0.10100000352E+00 0. -1.
</event>
<event>
 5   0  0.8861350E-05  0.1991139E+04  0.7818609E-02  0.8610775E-01
       -1   -1    0    0    0  501  0.00000000000E+00  0.00000000000E+00  0.57231458294E+03  0.57231458296E+03  0.50400001928E-02 0. -1.
        1   -1    0    0  501    0  0.00000000000E+00  0.00000000000E+00 -0.17318416691E+04  0.17318416691E+04  0.50400001928E-02 0.  1.
    10030    2    1    2    0    0  0.00000000000E+00  0.00000000000E+00 -0.11595270861E+04  0.23041562520E+04  0.19911386115E+04 0.  0.
        1    1    3    3  502    0 -0.30986866114E+03 -0.24598814940E+03 -0.16369638831E+04  0.16840960518E+04  0.50400001928E-02 0.  1.
       -1    1    3    3    0  502  0.30986866114E+03  0.24598814940E+03  0.47743679701E+03  0.62006020028E+03  0.50400001928E-02 0. -1.
</event>
<event>
 5   0  0.1812865E-04  0.1999184E+04  0.7818609E-02  0.8607002E-01
       -2   -1    0    0    0  501  0.00000000000E+00  0.00000000000E+00  0.12449173432E+04  0.12449173433E+04  0.25500000920E-02 0. -1.
        2   -1    0    0  501    0  0.00000000000E+00  0.00000000000E+00 -0.80261082098E+03  0.80261082099E+03  0.25500000920E-02 0.  1.
    10030    2    1    2    0    0  0.00000000000E+00  0.00000000000E+00  0.44230652227E+03  0.20475281642E+04  0.19991839645E+04 0.  0.
        3    1    3    3  502    0  0.69462058874E+03  0.69778177004E+03  0.44390728897E+02  0.98557988409E+03  0.10100000352E+00 0.  1.
       -3    1    3    3    0  502 -0.69462058874E+03 -0.69778177004E+03  0.39791579337E+03  0.10619482802E+04  0.10100000352E+00 0. -1.
</event>
<event>
 5   0  0.6531625E-05  0.2027852E+04  0.7818609E-02  0.8593708E-01
       -3   -1    0    0    0  501  0.00000000000E+00  0.00000000000E+00  0.74465767289E+03  0.74465767974E+03  0.10100000352E+00 0.  1.
        3   -1    0    0  501    0  0.00000000000E+00  0.00000000000E+00 -0.13805623042E+04  0.13805623079E+04  0.10100000352E+00 0. -1.
    10030    2    1    2    0    0  0.00000000000E+00  0.00000000000E+00 -0.63590463130E+03  0.21252199876E+04  0.20278523851E+04 0.  0.
        1    1    3    3  502    0 -0.53765656726E+03  0.84843486322E+03 -0.46290467671E+03  0.11059823874E+04  0.50400001928E-02 0.  1.
       -1    1    3    3    0  502  0.53765656726E+03 -0.84843486322E+03 -0.17299995459E+03  0.10192376002E+04  0.50400001928E-02 0. -1.
</event>
<event>
 5   0  0.1812865E-04  0.1998195E+04  0.7818609E-02  0.8607465E-01
        2   -1    0    0  501    0  0.00000000000E+00  0.00000000000E+00  0.10503067559E+04  0.10503067559E+04  0.25500000920E-02 0. -1.
       -2   -1    0    0    0  501  0.00000000000E+00  0.00000000000E+00 -0.95038458135E+03  0.95038458136E+03  0.25500000920E-02 0.  1.
    10030    2    1    2    0    0  0.00000000000E+00  0.00000000000E+00  0.99922174525E+02  0.20006913372E+04  0.19981945316E+04 0.  0.
        3    1    3    3  502    0  0.55537206477E+03 -0.53078832767E+03  0.68952442561E+03  0.10322879069E+04  0.10100000352E+00 0. -1.
       -3    1    3    3    0  502 -0.55537206477E+03  0.53078832767E+03 -0.58960225108E+03  0.96840343029E+03  0.10100000352E+00 0.  1.
</event>
<event>
 5   0  0.1807498E-04  0.1967062E+04  0.7818609E-02  0.8622177E-01
        2   -1    0    0  501    0  0.00000000000E+00  0.00000000000E+00  0.10124140781E+04  0.10124140781E+04  0.25500000920E-02 0.  1.
       -2   -1    0    0    0  501  0.00000000000E+00  0.00000000000E+00 -0.95547201350E+03  0.95547201351E+03  0.25500000920E-02 0. -1.
    10030    2    1    2    0    0  0.00000000000E+00  0.00000000000E+00  0.56942064593E+02  0.19678860916E+04  0.19670620912E+04 0.  0.
        5    1    3    3  502    0  0.17158780808E+03  0.51426514612E+03  0.84942444318E+03  0.10076978670E+04  0.46999998093E+01 0.  1.
       -5    1    3    3    0  502 -0.17158780808E+03 -0.51426514612E+03 -0.79248237858E+03  0.96018822465E+03  0.46999998093E+01 0. -1.
</event>
<event>
 5   0  0.8577422E-05  0.2023787E+04  0.7818609E-02  0.8595580E-01
       -1   -1    0    0    0  501  0.00000000000E+00  0.00000000000E+00  0.94669111260E+03  0.94669111261E+03  0.50400001928E-02 0.  1.
        1   -1    0    0  501    0  0.00000000000E+00  0.00000000000E+00 -0.10815866216E+04  0.10815866216E+04  0.50400001928E-02 0. -1.
    10030    2    1    2    0    0  0.00000000000E+00  0.00000000000E+00 -0.13489550900E+03  0.20282777342E+04  0.20237869870E+04 0.  0.
        2    1    3    3  502    0 -0.63940183993E+03 -0.78282641469E+03 -0.11526666435E+03  0.10173191792E+04  0.25500000920E-02 0.  1.
       -2    1    3    3    0  502  0.63940183993E+03  0.78282641469E+03 -0.19628844654E+02  0.10109585550E+04  0.25500000920E-02 0. -1.
</event>
<event>
 5   0  0.8958919E-05  0.2064059E+04  0.7818609E-02  0.8577243E-01
       -1   -1    0    0    0  501  0.00000000000E+00  0.00000000000E+00  0.10109028455E+04  0.10109028455E+04  0.50400001928E-02 0.  1.
        1   -1    0    0  501    0  0.00000000000E+00  0.00000000000E+00 -0.10535974156E+04  0.10535974156E+04  0.50400001928E-02 0. -1.
    10030    2    1    2    0    0  0.00000000000E+00  0.00000000000E+00 -0.42694570100E+02  0.20645002612E+04  0.20640587448E+04 0.  0.
        4    1    3    3  502    0  0.55717190441E+03  0.68345373131E+03  0.51498889932E+03  0.10211585152E+04  0.12699999809E+01 0.  1.
       -4    1    3    3    0  502 -0.55717190441E+03 -0.68345373131E+03 -0.55768346942E+03  0.10433417460E+04  0.12699999809E+01 0. -1.
</event>
<event>
 5   0  0.1782172E-04  0.2072079E+04  0.7818609E-02  0.8573643E-01
        2   -1    0    0  501    0  0.00000000000E+00  0.00000000000E+00  0.11030133904E+04  0.11030133904E+04  0.25500000920E-02 0.  1.
       -2   -1    0    0    0  501  0.00000000000E+00  0.00000000000E+00 -0.97313231344E+03  0.97313231344E+03  0.25500000920E-02 0. -1.
    10030    2    1    2    0    0  0.00000000000E+00  0.00000000000E+00  0.12988107695E+03  0.20761457038E+04  0.20720791224E+04 0.  0.
        2    1    3    3  502    0  0.10896042450E+03 -0.94496471546E+03  0.47629136512E+03  0.10638064448E+04  0.25500000920E-02 0.  1.
       -2    1    3    3    0  502 -0.10896042450E+03  0.94496471546E+03 -0.34641028816E+03  0.10123392590E+04  0.25500000920E-02 0. -1.
</event>
<event>
 5   0  0.1812865E-04  0.1951515E+04  0.7818609E-02  0.8629631E-01
        2   -1    0    0  501    0  0.00000000000E+00  0.00000000000E+00  0.21379861125E+04  0.21379861125E+04  0.25500000920E-02 0.  1.
       -2   -1    0    0    0  501  0.00000000000E+00  0.00000000000E+00 -0.44532670820E+03  0.44532670820E+03  0.25500000920E-02 0. -1.
    10030    2    1    2    0    0  0.00000000000E+00  0.00000000000E+00  0.16926594043E+04  0.25833128207E+04  0.19515146094E+04 0.  0.
        3    1    3    3  502    0  0.81079374021E+03 -0.41347422172E+03  0.13120083982E+04  0.15967822232E+04  0.10100000352E+00 0. -1.
       -3    1    3    3    0  502 -0.81079374021E+03  0.41347422172E+03  0.38065100614E+03  0.98653059753E+03  0.10100000352E+00 0.  1.
</event>
<event>
 5   0  0.8861350E-05  0.2020111E+04  0.7818609E-02  0.8597276E-01
       -1   -1    0    0    0  501  0.00000000000E+00  0.00000000000E+00  0.90145434669E+03  0.90145434671E+03  0.50400001928E-02 0.  1.
        1   -1    0    0  501    0  0.00000000000E+00  0.00000000000E+00 -0.11317398756E+04  0.11317398756E+04  0.50400001928E-02 0. -1.
    10030    2    1    2    0    0  0.00000000000E+00  0.00000000000E+00 -0.23028552889E+03  0.20331942223E+04  0.20201107199E+04 0.  0.
        1    1    3    3  502    0 -0.34064788783E+03 -0.70172244214E+03  0.53069569695E+03  0.94344755661E+03  0.50400001928E-02 0.  1.
       -1    1    3    3    0  502  0.34064788783E+03  0.70172244214E+03 -0.76098122584E+03  0.10897466657E+04  0.50400001928E-02 0. -1.
</event>
<event>
 5   0  0.1807498E-04  0.2006742E+04  0.7818609E-02  0.8603475E-01
       -2   -1    0    0    0  501  0.00000000000E+00  0.00000000000E+00  0.68130437269E+03  0.68130437269E+03  0.25500000920E-02 0.  1.
        2   -1    0    0  501    0  0.00000000000E+00  0.00000000000E+00 -0.14776844721E+04  0.14776844721E+04  0.25500000920E-02 0. -1.
    10030    2    1    2    0    0  0.00000000000E+00  0.00000000000E+00 -0.79638009937E+03  0.21589888448E+04  0.20067415302E+04 0.  0.
        5    1    3    3  502    0  0.53870510236E+03  0.74287862921E+03 -0.83475778927E+03  0.12405299278E+04  0.46999998093E+01 0. -1.
       -5    1    3    3    0  502 -0.53870510236E+03 -0.74287862921E+03  0.38377689900E+02  0.91845891695E+03  0.46999998093E+01 0.  1.
</event>
<event>
 5   0  0.8958919E-05  0.1994531E+04  0.7818609E-02  0.8609182E-01
        1   -1    0    0  501    0  0.00000000000E+00  0.00000000000E+00  0.97216879345E+03  0.97216879347E+03  0.50400001928E-02 0. -1.
       -1   -1    0    0    0  501  0.00000000000E+00  0.00000000000E+00 -0.10230098237E+04  0.10230098237E+04  0.50400001928E-02 0.  1.
    10030    2    1    2    0    0  0.00000000000E+00  0.00000000000E+00 -0.50841030278E+02  0.19951786172E+04  0.19945307479E+04 0.  0.
        4    1    3    3  502    0  0.49801118067E+03  0.86318674897E+03 -0.63249640225E+02  0.99855326826E+03  0.12699999809E+01 0. -1.
       -4    1    3    3    0  502 -0.49801118067E+03 -0.86318674897E+03  0.12408609947E+02  0.99662534895E+03  0.12699999809E+01 0.  1.
</event>
<event>
 5   0  0.8881384E-05  0.2171716E+04  0.7818609E-02  0.8530293E-01
       -1   -1    0    0    0  501  0.00000000000E+00  0.00000000000E+00  0.83094575487E+03  0.83094575489E+03  0.50400001928E-02 0.  1.
        1   -1    0    0  501    0  0.00000000000E+00  0.00000000000E+00 -0.14189711155E+04  0.14189711155E+04  0.50400001928E-02 0. -1.
    10030    2    1    2    0    0  0.00000000000E+00  0.00000000000E+00 -0.58802536060E+03  0.22499168704E+04  0.21717163947E+04 0.  0.
        5    1    3    3  502    0 -0.56143246234E+03 -0.27794917492E+03  0.62483045925E+03  0.88481486562E+03  0.46999998093E+01 0.  1.
       -5    1    3    3    0  502  0.56143246234E+03  0.27794917492E+03 -0.12128558199E+04  0.13651020047E+04  0.46999998093E+01 0. -1.
</event>
<event>
 5   0  0.1782172E-04  0.1832501E+04  0.7818609E-02  0.8689204E-01
        2   -1    0    0  501    0  0.00000000000E+00  0.00000000000E+00  0.12594020566E+04  0.12594020566E+04  0.25500000920E-02 0.  1.
       -2   -1    0    0    0  501  0.00000000000E+00  0.00000000000E+00 -0.66659819947E+03  0.66659819948E+03  0.25500000920E-02 0. -1.
    10030    2    1    2    0    0  0.00000000000E+00  0.00000000000E+00  0.59280385708E+03  0.19260002560E+04  0.18325011796E+04 0.  0.
        2    1    3    3  502    0  0.19987546889E+03  0.44232942969E+03  0.11131686794E+04  0.12143928673E+04  0.25500000920E-02 0.  1.
       -2    1    3    3    0  502 -0.19987546889E+03 -0.44232942969E+03 -0.52036482228E+03  0.71160738874E+03  0.25500000920E-02 0. -1.
</event>
<event>
 5   0  0.8861350E-05  0.2011208E+04  0.7818609E-02  0.8601399E-01
        1   -1    0    0  501    0  0.00000000000E+00  0.00000000000E+00  0.53218931659E+03  0.53218931662E+03  0.50400001928E-02 0.  1.
       -1   -1    0    0    0  501  0.00000000000E+00  0.00000000000E+00 -0.19001489583E+04  0.19001489583E+04  0.50400001928E-02 0. -1.
    10030    2    1    2    0    0  0.00000000000E+00  0.00000000000E+00 -0.13679596417E+04  0.24323382749E+04  0.20112075731E+04 0.  0.
        1    1    3    3  502    0  0.46478189322E+03 -0.63522666258E+03  0.72933242613E+02  0.79047731088E+03  0.50400001928E-02 0.  1.
       -1    1    3    3    0  502 -0.46478189322E+03  0.63522666258E+03 -0.14408928843E+04  0.16418609640E+04  0.50400001928E-02 0. -1.
</event>
<event>
 5   0  0.8577422E-05  0.2010252E+04  0.7818609E-02  0.8601842E-01
        1   -1    0    0  501    0  0.00000000000E+00  0.00000000000E+00  0.15548371501E+04  0.15548371501E+04  0.50400001928E-02 0.  1.
       -1   -1    0    0    0  501  0.00000000000E+00  0.00000000000E+00 -0.64976469063E+03  0.64976469064E+03  0.50400001928E-02 0. -1.
    10030    2    1    2    0    0  0.00000000000E+00  0.00000000000E+00  0.90507245943E+03  0.22046018407E+04  0.20102520039E+04 0.  0.
        2    1    3    3  502    0 -0.56600295098E+03 -0.57838087561E+03 -0.20124886399E+03  0.83389740559E+03  0.25500000920E-02 0.  1.
       -2    1    3    3    0  502  0.56600295098E+03  0.57838087561E+03  0.11063213234E+04  0.13707044351E+04  0.25500000920E-02 0. -1.
</event>
<event>
 5   0  0.1807498E-04  0.2025682E+04  0.7818609E-02  0.8594707E-01
       -2   -1    0    0    0  501  0.00000000000E+00  0.00000000000E+00  0.64878891185E+03  0.64878891185E+03  0.25500000920E-02 0.  1.
        2   -1    0    0  501    0  0.00000000000E+00  0.00000000000E+00 -0.15811716569E+04  0.15811716569E+04  0.25500000920E-02 0. -1.
    10030    2    1    2    0    0  0.00000000000E+00  0.00000000000E+00 -0.93238274501E+03  0.22299605687E+04  0.20256817506E+04 0.  0.
        5    1    3    3  502    0  0.66393238266E+02  0.67175900514E+03 -0.12974246888E+04  0.14625324393E+04  0.46999998093E+01 0. -1.
       -5    1    3    3    0  502 -0.66393238266E+02 -0.67175900514E+03  0.36504194375E+03  0.76742812938E+03  0.46999998093E+01 0.  1.
</event>
<event>
 5   0  0.1893687E-04  0.2015926E+04  0.7818609E-02  0.8599211E-01
        2   -1    0    0  501    0  0.00000000000E+00  0.00000000000E+00  0.11962980464E+04  0.11962980464E+04  0.25500000920E-02 0.  1.
       -2   -1    0    0    0  501  0.00000000000E+00  0.00000000000E+00 -0.84927800456E+03  0.84927800456E+03  0.25500000920E-02 0. -1.
    10030    2    1    2    0    0  0.00000000000E+00  0.00000000000E+00  0.34702004182E+03  0.20455760509E+04  0.20159262067E+04 0.  0.
        4    1    3    3  502    0 -0.95881545520E+03  0.33320433573E+02 -0.14014907233E+03  0.96957759039E+03  0.12699999809E+01 0.  1.
       -4    1    3    3    0  502  0.95881545520E+03 -0.33320433573E+02  0.48716911416E+03  0.10759984606E+04  0.12699999809E+01 0. -1.
</event>
<event>
 5   0  0.8577422E-05  0.1715121E+04  0.7818609E-02  0.8752787E-01
        1   -1    0    0  501    0  0.00000000000E+00  0.00000000000E+00  0.19856470200E+04  0.19856470200E+04  0.50400001928E-02 0.  1.
       -1   -1    0    0    0  501  0.00000000000E+00  0.00000000000E+00 -0.37036277200E+03  0.37036277203E+03  0.50400001928E-02 0. -1.
    10030    2    1    2    0    0  0.00000000000E+00  0.00000000000E+00  0.16152842480E+04  0.23560097920E+04  0.17151206775E+04 0.  0.
        2    1    3    3  502    0  0.37539959576E+03 -0.67657005958E+03  0.13155988954E+04  0.15262609068E+04  0.25500000920E-02 0.  1.
       -2    1    3    3    0  502 -0.37539959576E+03  0.67657005958E+03  0.29968535263E+03  0.82974888527E+03  0.25500000920E-02 0. -1.
</event>
<event>
 5   0  0.8765057E-05  0.1938053E+04  0.7818609E-02  0.8636143E-01
       -1   -1    0    0    0  501  0.00000000000E+00  0.00000000000E+00  0.69916482793E+03  0.69916482794E+03  0.50400001928E-02 0.  1.
        1   -1    0    0  501    0  0.00000000000E+00  0.00000000000E+00 -0.13430490207E+04  0.13430490207E+04  0.50400001928E-02 0. -1.
    10030    2    1    2    0    0  0.00000000000E+00  0.00000000000E+00 -0.64388419274E+03  0.20422138486E+04  0.19380532887E+04 0.  0.
        3    1    3    3  502    0  0.45014577443E+03  0.52771384389E+03 -0.10349930928E+04  0.12459228835E+04  0.10100000352E+00 0. -1.
       -3    1    3    3    0  502 -0.45014577443E+03 -0.52771384389E+03  0.39110890004E+03  0.79629096514E+03  0.10100000352E+00 0.  1.
</event>
<event>
 5   0  0.8577422E-05  0.2030334E+04  0.7818609E-02  0.8592568E-01
       -1   -1    0    0    0  501  0.00000000000E+00  0.00000000000E+00  0.13338046224E+04  0.13338046225E+04  0.50400001928E-02 0.  1.
        1   -1    0    0  501    0  0.00000000000E+00  0.00000000000E+00 -0.77265028672E+03  0.77265028673E+03  0.50400001928E-02 0. -1.
    10030    2    1    2    0    0  0.00000000000E+00  0.00000000000E+00  0.56115433572E+03  0.21064549092E+04  0.20303344788E+04 0.  0.
        2    1    3    3  502    0  0.57021929423E+03 -0.18784594337E+03 -0.56872764128E+03  0.82697477103E+03  0.25500000920E-02 0. -1.
       -2    1    3    3    0  502 -0.57021929423E+03  0.18784594337E+03  0.11298819770E+04  0.12794801382E+04  0.25500000920E-02 0.  1.
</event>
<event>
 5   0  0.1812865E-04  0.2004837E+04  0.7818609E-02  0.8604362E-01
       -2   -1    0    0    0  501  0.00000000000E+00  0.00000000000E+00  0.12500407089E+04  0.12500407089E+04  0.25500000920E-02 0. -1.
        2   -1    0    0  501    0  0.00000000000E+00  0.00000000000E+00 -0.80384845224E+03  0.80384845225E+03  0.25500000920E-02 0.  1.
    10030    2    1    2    0    0  0.00000000000E+00  0.00000000000E+00  0.44619225662E+03  0.20538891611E+04  0.20048374389E+04 0.  0.
        3    1    3    3  502    0 -0.69959287636E+03  0.15563683429E+03 -0.49490100998E+03  0.87096500315E+03  0.10100000352E+00 0.  1.
       -3    1    3    3    0  502  0.69959287636E+03 -0.15563683429E+03  0.94109326660E+03  0.11829241580E+04  0.10100000352E+00 0. -1.
</event>
<event>
 5   0  0.6531625E-05  0.1856040E+04  0.7818609E-02  0.8677053E-01
       -3   -1    0    0    0  501  0.00000000000E+00  0.00000000000E+00  0.10621616355E+04  0.10621616403E+04  0.10100000352E+00 0. -1.
        3   -1    0    0  501    0  0.00000000000E+00  0.00000000000E+00 -0.81081933132E+03  0.81081933761E+03  0.10100000352E+00 0.  1.
    10030    2    1    2    0    0  0.00000000000E+00  0.00000000000E+00  0.25134230422E+03  0.18729809779E+04  0.18560400830E+04 0.  0.
        2    1    3    3  502    0  0.73383312172E+03 -0.24696805212E+03  0.64192336090E+03  0.10057682986E+04  0.25500000920E-02 0. -1.
       -2    1    3    3    0  502 -0.73383312172E+03  0.24696805212E+03 -0.39058105668E+03  0.86721267930E+03  0.25500000920E-02 0.  1.
</event>
<event>
 5   0  0.8958919E-05  0.1829856E+04  0.7818609E-02  0.8690582E-01
        1   -1    0    0  501    0  0.00000000000E+00  0.00000000000E+00  0.89297828754E+03  0.89297828755E+03  0.50400001928E-02 0.  1.
       -1   -1    0    0    0  501  0.00000000000E+00  0.00000000000E+00 -0.93741715185E+03  0.93741715186E+03  0.50400001928E-02 0. -1.
    10030    2    1    2    0    0  0.00000000000E+00  0.00000000000E+00 -0.44438864308E+02  0.18303954394E+04  0.18298559102E+04 0.  0.
        4    1    3    3  502    0 -0.45394463986E+02  0.46947543568E+03 -0.80642999223E+03  0.93423700811E+03  0.12699999809E+01 0. -1.
       -4    1    3    3    0  502  0.45394463986E+02 -0.46947543568E+03  0.76199112792E+03  0.89615843130E+03  0.12699999809E+01 0.  1.
</event>
<event>
 5   0  0.8765057E-05  0.2103369E+04  0.7818609E-02  0.8559761E-01
       -1   -1    0    0    0  501  0.00000000000E+00  0.00000000000E+00  0.47463293483E+03  0.47463293486E+03  0.50400001928E-02 0.  1.
        1   -1    0    0  501    0  0.00000000000E+00  0.00000000000E+00 -0.23303055776E+04  0.23303055776E+04  0.50400001928E-02 0. -1.
    10030    2    1    2    0    0  0.00000000000E+00  0.00000000000E+00 -0.18556726427E+04  0.28049385124E+04  0.21033685130E+04 0.  0.
        3    1    3    3  502    0 -0.65948453310E+02 -0.95482578077E+03 -0.34655973640E+03  0.10179121432E+04  0.10100000352E+00 0.  1.
       -3    1    3    3    0  502  0.65948453310E+02  0.95482578077E+03 -0.15091129063E+04  0.17870263693E+04  0.10100000352E+00 0. -1.
</event>
<event>
 5   0  0.1834645E-04  0.1983685E+04  0.7818609E-02  0.8614287E-01
        2   -1    0    0  501    0  0.00000000000E+00  0.00000000000E+00  0.14047523178E+04  0.14047523178E+04  0.25500000920E-02 0.  1.
       -2   -1    0    0    0  501  0.00000000000E+00  0.00000000000E+00 -0.70030215262E+03  0.70030215262E+03  0.25500000920E-02 0. -1.
    10030    2    1    2    0    0  0.00000000000E+00  0.00000000000E+00  0.70445016520E+03  0.21050544704E+04  0.19836845234E+04 0.  0.
        1    1    3    3  502    0  0.82732850207E+03  0.21423010861E+02 -0.22786485032E+03  0.85840187894E+03  0.50400001928E-02 0. -1.
       -1    1    3    3    0  502 -0.82732850207E+03 -0.21423010861E+02  0.93231501551E+03  0.12466525915E+04  0.50400001928E-02 0.  1.
</event>
<event>
 5   0  0.8861350E-05  0.1899733E+04  0.7818609E-02  0.8654989E-01
       -1   -1    0    0    0  501  0.00000000000E+00  0.00000000000E+00  0.73295960283E+03  0.73295960284E+03  0.50400001928E-02 0. -1.
        1   -1    0    0  501    0  0.00000000000E+00  0.00000000000E+00 -0.12309628834E+04  0.12309628834E+04  0.50400001928E-02 0.  1.
    10030    2    1    2    0    0  0.00000000000E+00  0.00000000000E+00 -0.49800328054E+03  0.19639224862E+04  0.18997326824E+04 0.  0.
        1    1    3    3  502    0 -0.91529447078E+03 -0.65963598605E+02 -0.50250324098E+03  0.10462431227E+04  0.50400001928E-02 0.  1.
       -1    1    3    3    0  502  0.91529447078E+03  0.65963598605E+02  0.44999604355E+01  0.91767936353E+03  0.50400001928E-02 0. -1.
</event>
<event>
 5   0  0.1812865E-04  0.2085991E+04  0.7818609E-02  0.8567440E-01
        2   -1    0    0  501    0  0.00000000000E+00  0.00000000000E+00  0.99697640534E+03  0.99697640535E+03  0.25500000920E-02 0. -1.
       -2   -1    0    0    0  501  0.00000000000E+00  0.00000000000E+00 -0.10911384729E+04  0.10911384729E+04  0.25500000920E-02 0.  1.
    10030    2    1    2    0    0  0.00000000000E+00  0.00000000000E+00 -0.94162067536E+02  0.20881148782E+04  0.20859907118E+04 0.  0.
        3    1    3    3  502    0  0.86614047970E+03  0.36425048868E+03  0.40610677586E+03  0.10236212545E+04  0.10100000352E+00 0. -1.
       -3    1    3    3    0  502 -0.86614047970E+03 -0.36425048868E+03 -0.50026884339E+03  0.10644936237E+04  0.10100000352E+00 0.  1.
</event>
<event>
 5   0  0.1812865E-04  0.1959827E+04  0.7818609E-02  0.8625637E-01
        2   -1    0    0  501    0  0.00000000000E+00  0.00000000000E+00  0.16257942549E+04  0.16257942550E+04  0.25500000920E-02 0.  1.
       -2   -1    0    0    0  501  0.00000000000E+00  0.00000000000E+00 -0.59062219706E+03  0.59062219707E+03  0.25500000920E-02 0. -1.
    10030    2    1    2    0    0  0.00000000000E+00  0.00000000000E+00  0.10351720579E+04  0.22164164520E+04  0.19598267014E+04 0.  0.
        3    1    3    3  502    0  0.28619221184E+03 -0.59987141012E+03  0.13319134514E+04  0.14885379212E+04  0.10100000352E+00 0.  1.
       -3    1    3    3    0  502 -0.28619221184E+03  0.59987141012E+03 -0.29674139347E+03  0.72787853080E+03  0.10100000352E+00 0. -1.
</event>
<event>
 5   0  0.1893687E-04  0.1941535E+04  0.7818609E-02  0.8634454E-01
       -2   -1    0    0    0  501  0.00000000000E+00  0.00000000000E+00  0.10291118564E+04  0.10291118564E+04  0.25500000920E-02 0.  1.
        2   -1    0    0  501    0  0.00000000000E+00  0.00000000000E+00 -0.91573080089E+03  0.91573080089E+03  0.25500000920E-02 0. -1.
    10030    2    1    2    0    0  0.00000000000E+00  0.00000000000E+00  0.11338105552E+03  0.19448426573E+04  0.19415348820E+04 0.  0.
        4    1    3    3  502    0 -0.18450334437E+03 -0.73679134708E+03  0.66227392054E+03  0.10077258218E+04  0.12699999809E+01 0.  1.
       -4    1    3    3    0  502  0.18450334437E+03  0.73679134708E+03 -0.54889286501E+03  0.93711683550E+03  0.12699999809E+01 0. -1.
</event>
<event>
 5   0  0.8765057E-05  0.2111100E+04  0.7818609E-02  0.8556370E-01
        1   -1    0    0  501    0  0.00000000000E+00  0.00000000000E+00  0.61892878554E+03  0.61892878556E+03  0.50400001928E-02 0.  1.
       -1   -1    0    0    0  501  0.00000000000E+00  0.00000000000E+00 -0.18001835908E+04  0.18001835908E+04  0.50400001928E-02 0. -1.
    10030    2    1    2    0    0  0.00000000000E+00  0.00000000000E+00 -0.11812548053E+04  0.24191123764E+04  0.21110996600E+04 0.  0.
        3    1    3    3  502    0 -0.96764388862E+03 -0.40286195457E+03 -0.44772018370E+03  0.11397744613E+04  0.10100000352E+00 0.  1.
       -3    1    3    3    0  502  0.96764388862E+03  0.40286195457E+03 -0.73353462160E+03  0.12793379151E+04  0.10100000352E+00 0. -1.
</event>
<event>
 5   0  0.1893687E-04  0.1976684E+04  0.7818609E-02  0.8617600E-01
       -2   -1    0    0    0  501  0.00000000000E+00  0.00000000000E+00  0.75369898458E+03  0.75369898459E+03  0.25500000920E-02 0.  1.
        2   -1    0    0  501    0  0.00000000000E+00  0.00000000000E+00 -0.12960341225E+04  0.12960341225E+04  0.25500000920E-02 0. -1.
    10030    2    1    2    0    0  0.00000000000E+00  0.00000000000E+00 -0.54233513795E+03  0.20497331071E+04  0.19766836896E+04 0.  0.
        4    1    3    3  502    0  0.22052604165E+03 -0.84970441640E+03  0.19969321797E+03  0.90028235821E+03  0.12699999809E+01 0.  1.
       -4    1    3    3    0  502 -0.22052604165E+03  0.84970441640E+03 -0.74202835592E+03  0.11494507489E+04  0.12699999809E+01 0. -1.
</event>
<event>
 5   0  0.8881384E-05  0.2039124E+04  0.7818609E-02  0.8588544E-01
       -1   -1    0    0    0  501  0.00000000000E+00  0.00000000000E+00  0.44442473444E+03  0.44442473447E+03  0.50400001928E-02 0.  1.
        1   -1    0    0  501    0  0.00000000000E+00  0.00000000000E+00 -0.23389933949E+04  0.23389933949E+04  0.50400001928E-02 0. -1.
    10030    2    1    2    0    0  0.00000000000E+00  0.00000000000E+00 -0.18945686604E+04  0.27834181293E+04  0.20391238495E+04 0.  0.
        5    1    3    3  502    0  0.48796322997E+03 -0.17167859531E+03  0.25198340152E+03  0.57541235521E+03  0.46999998093E+01 0.  1.
       -5    1    3    3    0  502 -0.48796322997E+03  0.17167859531E+03 -0.21465520619E+04  0.22080057741E+04  0.46999998093E+01 0. -1.
</event>
<event>
 5   0  0.1834645E-04  0.1951511E+04  0.7818609E-02  0.8629633E-01
        2   -1    0    0  501    0  0.00000000000E+00  0.00000000000E+00  0.88190213649E+03  0.88190213649E+03  0.25500000920E-02 0.  1.
       -2   -1    0    0    0  501  0.00000000000E+00  0.00000000000E+00 -0.10795965542E+04  0.10795965542E+04  0.25500000920E-02 0. -1.
    10030    2    1    2    0    0  0.00000000000E+00  0.00000000000E+00 -0.19769441768E+03  0.19614986907E+04  0.19515107047E+04 0.  0.
        1    1    3    3  502    0  0.78119417370E+03 -0.31179519805E+03 -0.59596719488E+03  0.10308527926E+04  0.50400001928E-02 0. -1.
       -1    1    3    3    0  502 -0.78119417370E+03  0.31179519805E+03  0.39827277720E+03  0.93064589810E+03  0.50400001928E-02 0.  1.
</event>
<event>
 5   0  0.8577422E-05  0.1965247E+04  0.7818609E-02  0.8623044E-01
       -1   -1    0    0    0  501  0.00000000000E+00  0.00000000000E+00  0.96428714341E+03  0.96428714342E+03  0.50400001928E-02 0.  1.
        1   -1    0    0  501    0  0.00000000000E+00  0.00000000000E+00 -0.10013082761E+04  0.10013082761E+04  0.50400001928E-02 0. -1.
    10030    2    1    2    0    0  0.00000000000E+00  0.00000000000E+00 -0.37021132726E+02  0.19655954196E+04  0.19652467502E+04 0.  0.
        2    1    3    3  502    0 -0.41696567601E+03 -0.75916910494E+03 -0.48265172288E+03  0.99153960610E+03  0.25500000920E-02 0.  1.
       -2    1    3    3    0  502  0.41696567601E+03  0.75916910494E+03  0.44563059015E+03  0.97405581347E+03  0.25500000920E-02 0. -1.
</event>
<event>
 5   0  0.1807498E-04  0.2006742E+04  0.7818609E-02  0.8603475E-01
        2   -1    0    0  501    0  0.00000000000E+00  0.00000000000E+00  0.11022306187E+04  0.11022306187E+04  0.25500000920E-02 0.  1.
       -2   -1    0    0    0  501  0.00000000000E+00  0.00000000000E+00 -0.91337800775E+03  0.91337800776E+03  0.25500000920E-02 0. -1.
    10030    2    1    2    0    0  0.00000000000E+00  0.00000000000E+00  0.18885261094E+03  0.20156086265E+04  0.20067418435E+04 0.  0.
        5    1    3    3  502    0  0.86366343257E+03  0.21992008813E+03  0.55738778253E+03  0.10511815257E+04  0.46999998093E+01 0.  1.
       -5    1    3    3    0  502 -0.86366343257E+03 -0.21992008813E+03 -0.36853517159E+03  0.96442710073E+03  0.46999998093E+01 0. -1.
</event>
<event>
 5   0  0.8765057E-05  0.1990062E+04  0.7818609E-02  0.8611281E-01
       -1   -1    0    0    0  501  0.00000000000E+00  0.00000000000E+00  0.93881518337E+03  0.93881518338E+03  0.50400001928E-02 0.  1.
        1   -1    0    0  501    0  0.00000000000E+00  0.00000000000E+00 -0.10546129710E+04  0.10546129710E+04  0.50400001928E-02 0. -1.
    10030    2    1    2    0    0  0.00000000000E+00  0.00000000000E+00 -0.11579778760E+03  0.19934281544E+04  0.19900619787E+04 0.  0.
        3    1    3    3  502    0  0.52149866039E+03  0.57657448422E+03  0.56418916292E+03  0.96057712361E+03  0.10100000352E+00 0.  1.
       -3    1    3    3    0  502 -0.52149866039E+03 -0.57657448422E+03 -0.67998695052E+03  0.10328510307E+04  0.10100000352E+00 0. -1.
</event>
<event>
 5   0  0.8765057E-05  0.1991962E+04  0.7818609E-02  0.8610388E-01
       -1   -1    0    0    0  501  0.00000000000E+00  0.00000000000E+00  0.57912531281E+03  0.57912531283E+03  0.50400001928E-02 0.  1.
        1   -1    0    0  501    0  0.00000000000E+00  0.00000000000E+00 -0.17128901608E+04  0.17128901608E+04  0.50400001928E-02 0. -1.
    10030    2    1    2    0    0  0.00000000000E+00  0.00000000000E+00 -0.11337648480E+04  0.22920154736E+04  0.19919618974E+04 0.  0.
        3    1    3    3  502    0  0.10520648670E+03 -0.79085101195E+02 -0.17028397492E+04  0.17079186396E+04  0.10100000352E+00 0. -1.
       -3    1    3    3    0  502 -0.10520648670E+03  0.79085101195E+02  0.56907490121E+03  0.58409683398E+03  0.10100000352E+00 0.  1.
</event>
<event>
 5   0  0.6531625E-05  0.2055815E+04  0.7818609E-02  0.8580961E-01
        3   -1    0    0  501    0  0.00000000000E+00  0.00000000000E+00  0.11415863807E+04  0.11415863851E+04  0.10100000352E+00 0.  1.
       -3   -1    0    0    0  501  0.00000000000E+00  0.00000000000E+00 -0.92554848894E+03  0.92554849445E+03  0.10100000352E+00 0. -1.
    10030    2    1    2    0    0  0.00000000000E+00  0.00000000000E+00  0.21603789174E+03  0.20671348796E+04  0.20558147387E+04 0.  0.
        3    1    3    3  502    0 -0.91855957686E+02  0.23551660939E+03 -0.89380455891E+03  0.92886607753E+03  0.10100000352E+00 0. -1.
       -3    1    3    3    0  502  0.91855957686E+02 -0.23551660939E+03  0.11098424507E+04  0.11382688021E+04  0.10100000352E+00 0.  1.
</event>
<event>
 5   0  0.8765057E-05  0.1999188E+04  0.7818609E-02  0.8607000E-01
       -1   -1    0    0    0  501  0.00000000000E+00  0.00000000000E+00  0.19347103846E+04  0.19347103846E+04  0.50400001928E-02 0.  1.
        1   -1    0    0  501    0  0.00000000000E+00  0.00000000000E+00 -0.51645370476E+03  0.51645370478E+03  0.50400001928E-02 0. -1.
    10030    2    1    2    0    0  0.00000000000E+00  0.00000000000E+00  0.14182566798E+04  0.24511640893E+04  0.19991881810E+04 0.  0.
        3    1    3    3  502    0 -0.35133208528E+02 -0.57075572980E+03 -0.29610143523E+03  0.64395070898E+03  0.10100000352E+00 0. -1.
       -3    1    3    3    0  502  0.35133208528E+02  0.57075572980E+03  0.17143581150E+04  0.18072133804E+04  0.10100000352E+00 0.  1.
</event>
<event>
 5   0  0.8577422E-05  0.2004297E+04  0.7818609E-02  0.8604615E-01
       -1   -1    0    0    0  501  0.00000000000E+00  0.00000000000E+00  0.44750389115E+03  0.44750389118E+03  0.50400001928E-02 0. -1.
        1   -1    0    0  501    0  0.00000000000E+00  0.00000000000E+00 -0.22442289345E+04  0.22442289345E+04  0.50400001928E-02 0.  1.
    10030    2    1    2    0    0  0.00000000000E+00  0.00000000000E+00 -0.17967250434E+04  0.26917328257E+04  0.20042965658E+04 0.  0.
        2    1    3    3  502    0 -0.33166483221E+03 -0.37811278164E+03 -0.20624495051E+04  0.21228916123E+04  0.25500000920E-02 0.  1.
       -2    1    3    3    0  502  0.33166483221E+03  0.37811278164E+03  0.26572446168E+03  0.56884121344E+03  0.25500000920E-02 0. -1.
</event>
<event>
 5   0  0.8881384E-05  0.2005570E+04  0.7818609E-02  0.8604021E-01
       -1   -1    0    0    0  501  0.00000000000E+00  0.00000000000E+00  0.49365896154E+03  0.49365896157E+03  0.50400001928E-02 0.  1.
        1   -1    0    0  501    0  0.00000000000E+00  0.00000000000E+00 -0.20369884661E+04  0.20369884661E+04  0.50400001928E-02 0. -1.
    10030    2    1    2    0    0  0.00000000000E+00  0.00000000000E+00 -0.15433295046E+04  0.25306474277E+04  0.20055698551E+04 0.  0.
        5    1    3    3  502    0  0.68594512191E+03 -0.73090506166E+03 -0.80763410711E+03  0.12872598263E+04  0.46999998093E+01 0. -1.
       -5    1    3    3    0  502 -0.68594512191E+03  0.73090506166E+03 -0.73569539744E+03  0.12433876014E+04  0.46999998093E+01 0.  1.
</event>
<event>
 5   0  0.1807498E-04  0.1647915E+04  0.7818609E-02  0.8791641E-01
        2   -1    0    0  501    0  0.00000000000E+00  0.00000000000E+00  0.11731265152E+04  0.11731265152E+04  0.25500000920E-02 0.  1.
       -2   -1    0    0    0  501  0.00000000000E+00  0.00000000000E+00 -0.57871471860E+03  0.57871471861E+03  0.25500000920E-02 0. -1.
    10030    2    1    2    0    0  0.00000000000E+00  0.00000000000E+00  0.59441179664E+03  0.17518412339E+04  0.16479145380E+04 0.  0.
        5    1    3    3  502    0  0.65283879311E+03 -0.37532429446E+03  0.65268440475E+03  0.99653692255E+03  0.46999998093E+01 0.  1.
       -5    1    3    3    0  502 -0.65283879311E+03  0.37532429446E+03 -0.58272608109E+02  0.75530431130E+03  0.46999998093E+01 0. -1.
</event>
<event>
 5   0  0.6531625E-05  0.1812455E+04  0.7818609E-02  0.8699704E-01
        3   -1    0    0  501    0  0.00000000000E+00  0.00000000000E+00  0.26477273161E+04  0.26477273181E+04  0.10100000352E+00 0. -1.
       -3   -1    0    0    0  501  0.00000000000E+00  0.00000000000E+00 -0.31017113433E+03  0.31017115077E+03  0.10100000352E+00 0.  1.
    10030    2    1    2    0    0  0.00000000000E+00  0.00000000000E+00  0.23375561818E+04  0.29578984688E+04  0.18124553646E+04 0.  0.
        2    1    3    3  502    0 -0.51496302590E+03 -0.48052756626E+03  0.23818220335E+03  0.74352163518E+03  0.25500000920E-02 0.  1.
       -2    1    3    3    0  502  0.51496302590E+03  0.48052756626E+03  0.20993739785E+04  0.22143768337E+04  0.25500000920E-02 0. -1.
</event>
<event>
 5   0  0.1834645E-04  0.2002567E+04  0.7818609E-02  0.8605422E-01
       -2   -1    0    0    0  501  0.00000000000E+00  0.00000000000E+00  0.58343310699E+03  0.58343310700E+03  0.25500000920E-02 0.  1.
        2   -1    0    0  501    0  0.00000000000E+00  0.00000000000E+00 -0.17183948851E+04  0.17183948851E+04  0.25500000920E-02 0. -1.
    10030    2    1    2    0    0  0.00000000000E+00  0.00000000000E+00 -0.11349617781E+04  0.23018279921E+04  0.20025668197E+04 0.  0.
        1    1    3    3  502    0  0.86348909869E+03  0.30809987001E+03 -0.10479855813E+03  0.92277932968E+03  0.50400001928E-02 0. -1.
       -1    1    3    3    0  502 -0.86348909869E+03 -0.30809987001E+03 -0.10301632199E+04  0.13790486624E+04  0.50400001928E-02 0.  1.
</event>
<event>
 5   0  0.8861350E-05  0.2003216E+04  0.7818609E-02  0.8605118E-01
       -1   -1    0    0    0  501  0.00000000000E+00  0.00000000000E+00  0.48093031856E+03  0.48093031858E+03  0.50400001928E-02 0.  1.
        1   -1    0    0  501    0  0.00000000000E+00  0.00000000000E+00 -0.20859960339E+04  0.20859960339E+04  0.50400001928E-02 0. -1.
    10030    2    1    2    0    0  0.00000000000E+00  0.00000000000E+00 -0.16050657153E+04  0.25669263525E+04  0.20032161512E+04 0.  0.
        1    1    3    3  502    0  0.91788395397E+03  0.32374411601E+03 -0.49957521695E+03  0.10940276976E+04  0.50400001928E-02 0.  1.
       -1    1    3    3    0  502 -0.91788395397E+03 -0.32374411601E+03 -0.11054904984E+04  0.14728986549E+04  0.50400001928E-02 0. -1.
</event>
<event>
 5   0  0.1893687E-04  0.2037059E+04  0.7818609E-02  0.8589488E-01
        2   -1    0    0  501    0  0.00000000000E+00  0.00000000000E+00  0.19187997926E+04  0.19187997926E+04  0.25500000920E-02 0.  1.
       -2   -1    0    0    0  501  0.00000000000E+00  0.00000000000E+00 -0.54065177155E+03  0.54065177156E+03  0.25500000920E-02 0. -1.
    10030    2    1    2    0    0  0.00000000000E+00  0.00000000000E+00  0.13781480210E+04  0.24594515641E+04  0.20370591618E+04 0.  0.
        4    1    3    3  502    0  0.59380644491E+03  0.48729095410E+03 -0.11844848168E+03  0.77723241291E+03  0.12699999809E+01 0.  1.
       -4    1    3    3    0  502 -0.59380644491E+03 -0.48729095410E+03  0.14965965027E+04  0.16822191512E+04  0.12699999809E+01 0. -1.
</event>
<event>
 5   0  0.1812865E-04  0.1957156E+04  0.7818609E-02  0.8626918E-01
        2   -1    0    0  501    0  0.00000000000E+00  0.00000000000E+00  0.15410763487E+04  0.15410763487E+04  0.25500000920E-02 0. -1.
       -2   -1    0    0    0  501  0.00000000000E+00  0.00000000000E+00 -0.62139367103E+03  0.62139367103E+03  0.25500000920E-02 0.  1.
    10030    2    1    2    0    0  0.00000000000E+00  0.00000000000E+00  0.91968267772E+03  0.21624700198E+04  0.19571561917E+04 0.  0.
        3    1    3    3  502    0 -0.14568615687E+03  0.54902559628E+03  0.13402783925E+04  0.14556784471E+04  0.10100000352E+00 0. -1.
       -3    1    3    3    0  502  0.14568615687E+03 -0.54902559628E+03 -0.42059571481E+03  0.70679157267E+03  0.10100000352E+00 0.  1.
</event>
<event>
 5   0  0.8765057E-05  0.2023217E+04  0.7818609E-02  0.8595842E-01
       -1   -1    0    0    0  501  0.00000000000E+00  0.00000000000E+00  0.12502496344E+04  0.12502496344E+04  0.50400001928E-02 0.  1.
        1   -1    0    0  501    0  0.00000000000E+00  0.00000000000E+00 -0.81851779309E+03  0.81851779310E+03  0.50400001928E-02 0. -1.
    10030    2    1    2    0    0  0.00000000000E+00  0.00000000000E+00  0.43173184131E+03  0.20687674275E+04  0.20232168164E+04 0.  0.
        3    1    3    3  502    0 -0.43082230508E+03 -0.10828838938E+03 -0.71345095238E+03  0.84044423103E+03  0.10100000352E+00 0. -1.
       -3    1    3    3    0  502  0.43082230508E+03  0.10828838938E+03  0.11451827937E+04  0.12283231965E+04  0.10100000352E+00 0.  1.
</event>
<event>
 5   0  0.8881384E-05  0.1974172E+04  0.7818609E-02  0.8618792E-01
        1   -1    0    0  501    0  0.00000000000E+00  0.00000000000E+00  0.99325806314E+03  0.99325806315E+03  0.50400001928E-02 0. -1.
       -1   -1    0    0    0  501  0.00000000000E+00  0.00000000000E+00 -0.98095197064E+03  0.98095197065E+03  0.50400001928E-02 0.  1.
    10030    2    1    2    0    0  0.00000000000E+00  0.00000000000E+00  0.12306092501E+02  0.19742100338E+04  0.19741716789E+04 0.  0.
        5    1    3    3  502    0 -0.58657098966E+03 -0.16808198256E+03 -0.76974815725E+03  0.98226849403E+03  0.46999998093E+01 0.  1.
       -5    1    3    3    0  502  0.58657098966E+03  0.16808198256E+03  0.78205424975E+03  0.99194153978E+03  0.46999998093E+01 0. -1.
</event>
<event>
 5   0  0.8958919E-05  0.2017015E+04  0.7818609E-02  0.8598706E-01
       -1   -1    0    0    0  501  0.00000000000E+00  0.00000000000E+00  0.47948747748E+03  0.47948747750E+03  0.50400001928E-02 0.  1.
        1   -1    0    0  501    0  0.00000000000E+00  0.00000000000E+00 -0.21211980031E+04  0.21211980031E+04  0.50400001928E-02 0. -1.
    10030    2    1    2    0    0  0.00000000000E+00  0.00000000000E+00 -0.16417105257E+04  0.26006854806E+04  0.20170154980E+04 0.  0.
        4    1    3    3  502    0  0.17886362340E+03 -0.51215102968E+03  0.27533587333E+03  0.60836036115E+03  0.12699999809E+01 0.  1.
       -4    1    3    3    0  502 -0.17886362340E+03  0.51215102968E+03 -0.19170463990E+04  0.19923251195E+04  0.12699999809E+01 0. -1.
</event>
<event>
 5   0  0.1807498E-04  0.2011258E+04  0.7818609E-02  0.8601375E-01
       -2   -1    0    0    0  501  0.00000000000E+00  0.00000000000E+00  0.52327041096E+03  0.52327041097E+03  0.25500000920E-02 0.  1.
        2   -1    0    0  501    0  0.00000000000E+00  0.00000000000E+00 -0.19326322714E+04  0.19326322714E+04  0.25500000920E-02 0. -1.
    10030    2    1    2    0    0  0.00000000000E+00  0.00000000000E+00 -0.14093618604E+04  0.24559026823E+04  0.20112575995E+04 0.  0.
        5    1    3    3  502    0  0.49685433223E+03  0.85618938021E+03 -0.92085904837E+03  0.13520088606E+04  0.46999998093E+01 0. -1.
       -5    1    3    3    0  502 -0.49685433223E+03 -0.85618938021E+03 -0.48850281202E+03  0.11038938217E+04  0.46999998093E+01 0.  1.
</event>
<event>
 5   0  0.1782172E-04  0.2028667E+04  0.7818609E-02  0.8593334E-01
       -2   -1    0    0    0  501  0.00000000000E+00  0.00000000000E+00  0.95951519821E+03  0.95951519821E+03  0.25500000920E-02 0.  1.
        2   -1    0    0  501    0  0.00000000000E+00  0.00000000000E+00 -0.10722831378E+04  0.10722831378E+04  0.25500000920E-02 0. -1.
    10030    2    1    2    0    0  0.00000000000E+00  0.00000000000E+00 -0.11276793960E+03  0.20317983360E+04  0.20286665251E+04 0.  0.
        2    1    3    3  502    0  0.90544297606E+02  0.97972446132E+03  0.19060102600E+03  0.10021911200E+04  0.25500000920E-02 0.  1.
       -2    1    3    3    0  502 -0.90544297606E+02 -0.97972446132E+03 -0.30336896560E+03  0.10296072160E+04  0.25500000920E-02 0. -1.
</event>
<event>
 5   0  0.1812865E-04  0.1990006E+04  0.7818609E-02  0.8611307E-01
       -2   -1    0    0    0  501  0.00000000000E+00  0.00000000000E+00  0.48845466916E+03  0.48845466917E+03  0.25500000920E-02 0.  1.
        2   -1    0    0  501    0  0.00000000000E+00  0.00000000000E+00 -0.20268638296E+04  0.20268638296E+04  0.25500000920E-02 0. -1.
    10030    2    1    2    0    0  0.00000000000E+00  0.00000000000E+00 -0.15384091605E+04  0.25153184988E+04  0.19900061320E+04 0.  0.
        3    1    3    3  502    0 -0.46879291610E+03  0.63699195033E+03 -0.60884354556E+01  0.79092516853E+03  0.10100000352E+00 0.  1.
       -3    1    3    3    0  502  0.46879291610E+03 -0.63699195033E+03 -0.15323207250E+04  0.17243933303E+04  0.10100000352E+00 0. -1.
</event>
<event>
 5   0  0.1782172E-04  0.2017359E+04  0.7818609E-02  0.8598548E-01
       -2   -1    0    0    0  501  0.00000000000E+00  0.00000000000E+00  0.97201526954E+03  0.97201526954E+03  0.25500000920E-02 0. -1.
        2   -1    0    0  501    0  0.00000000000E+00  0.00000000000E+00 -0.10467263133E+04  0.10467263133E+04  0.25500000920E-02 0.  1.
    10030    2    1    2    0    0  0.00000000000E+00  0.00000000000E+00 -0.74711043771E+02  0.20187415829E+04  0.20173586291E+04 0.  0.
        2    1    3    3  502    0 -0.15821970819E+01  0.82823385378E+03  0.53876490405E+03  0.98804931139E+03  0.25500000920E-02 0. -1.
       -2    1    3    3    0  502  0.15821970819E+01 -0.82823385378E+03 -0.61347594782E+03  0.10306922715E+04  0.25500000920E-02 0.  1.
</event>
<event>
 5   0  0.1812865E-04  0.2091037E+04  0.7818609E-02  0.8565202E-01
       -2   -1    0    0    0  501  0.00000000000E+00  0.00000000000E+00  0.46643207338E+03  0.46643207339E+03  0.25500000920E-02 0. -1.
        2   -1    0    0  501    0  0.00000000000E+00  0.00000000000E+00 -0.23435533830E+04  0.23435533830E+04  0.25500000920E-02 0.  1.
    10030    2    1    2    0    0  0.00000000000E+00  0.00000000000E+00 -0.18771213096E+04  0.28099854564E+04  0.20910365501E+04 0.  0.
        3    1    3    3  502    0  0.32940154377E+03 -0.90134645450E+03 -0.14961710096E+04  0.17774865705E+04  0.10100000352E+00 0.  1.
       -3    1    3    3    0  502 -0.32940154377E+03  0.90134645450E+03 -0.38095029998E+03  0.10324988859E+04  0.10100000352E+00 0. -1.
</event>
<event>
 5   0  0.1807498E-04  0.1957754E+04  0.7818609E-02  0.8626631E-01
        2   -1    0    0  501    0  0.00000000000E+00  0.00000000000E+00  0.21939534866E+04  0.21939534866E+04  0.25500000920E-02 0.  1.
       -2   -1    0    0    0  501  0.00000000000E+00  0.00000000000E+00 -0.43674577363E+03  0.43674577364E+03  0.25500000920E-02 0. -1.
    10030    2    1    2    0    0  0.00000000000E+00  0.00000000000E+00  0.17572077129E+04  0.26306992602E+04  0.19577537259E+04 0.  0.
        5    1    3    3  502    0 -0.37762143834E+03 -0.15445312906E+03 -0.31703515508E+03  0.51670794393E+03  0.46999998093E+01 0. -1.
       -5    1    3    3    0  502  0.37762143834E+03  0.15445312906E+03  0.20742428680E+04  0.21139913163E+04  0.46999998093E+01 0.  1.
</event>
<event>
 5   0  0.1893687E-04  0.1990294E+04  0.7818609E-02  0.8611172E-01
        2   -1    0    0  501    0  0.00000000000E+00  0.00000000000E+00  0.13430254852E+04  0.13430254852E+04  0.25500000920E-02 0. -1.
       -2   -1    0    0    0  501  0.00000000000E+00  0.00000000000E+00 -0.73737827881E+03  0.73737827881E+03  0.25500000920E-02 0.  1.
    10030    2    1    2    0    0  0.00000000000E+00  0.00000000000E+00  0.60564720639E+03  0.20804037640E+04  0.19902942704E+04 0.  0.
        4    1    3    3  502    0 -0.32353374875E+03 -0.73235114298E+03  0.92060108015E+03  0.12200492797E+04  0.12699999809E+01 0. -1.
       -4    1    3    3    0  502  0.32353374875E+03  0.73235114298E+03 -0.31495387375E+03  0.86035448432E+03  0.12699999809E+01 0.  1.
</event>
<event>
 5   0  0.1893687E-04  0.1952153E+04  0.7818609E-02  0.8629323E-01
       -2   -1    0    0    0  501  0.00000000000E+00  0.00000000000E+00  0.65797867649E+03  0.65797867649E+03  0.25500000920E-02 0.  1.
        2   -1    0    0  501    0  0.00000000000E+00  0.00000000000E+00 -0.14479583632E+04  0.14479583632E+04  0.25500000920E-02 0. -1.
    10030    2    1    2    0    0  0.00000000000E+00  0.00000000000E+00 -0.78997968671E+03  0.21059370397E+04  0.19521534032E+04 0.  0.
        4    1    3    3  502    0  0.35885175258E+03 -0.38423831306E+03 -0.12821550292E+04  0.13857621705E+04  0.12699999809E+01 0. -1.
       -4    1    3    3    0  502 -0.35885175258E+03  0.38423831306E+03  0.49217534246E+03  0.72017486916E+03  0.12699999809E+01 0.  1.
</event>
<event>
 5   0  0.8861350E-05  0.1991256E+04  0.7818609E-02  0.8610720E-01
        1   -1    0    0  501    0  0.00000000000E+00  0.00000000000E+00  0.83048251293E+03  0.83048251294E+03  0.50400001928E-02 0. -1.
       -1   -1    0    0    0  501  0.00000000000E+00  0.00000000000E+00 -0.11936129163E+04  0.11936129164E+04  0.50400001928E-02 0.  1.
    10030    2    1    2    0    0  0.00000000000E+00  0.00000000000E+00 -0.36313040342E+03  0.20240954293E+04  0.19912555379E+04 0.  0.
        1    1    3    3  502    0  0.59805874803E+03 -0.13875708068E+03 -0.97829453923E+03  0.11549839822E+04  0.50400001928E-02 0.  1.
       -1    1    3    3    0  502 -0.59805874803E+03  0.13875708068E+03  0.61516413581E+03  0.86911144714E+03  0.50400001928E-02 0. -1.
</event>
<event>
 5   0  0.1782172E-04  0.1999263E+04  0.7818609E-02  0.8606965E-01
        2   -1    0    0  501    0  0.00000000000E+00  0.00000000000E+00  0.17922580451E+04  0.17922580452E+04  0.25500000920E-02 0.  1.
       -2   -1    0    0    0  501  0.00000000000E+00  0.00000000000E+00 -0.55754424523E+03  0.55754424524E+03  0.25500000920E-02 0. -1.
    10030    2    1    2    0    0  0.00000000000E+00  0.00000000000E+00  0.12347137999E+04  0.23498022904E+04  0.19992630233E+04 0.  0.
        2    1    3    3  502    0 -0.79263858846E+03 -0.19911860733E+03 -0.59189632511E+02  0.81940683687E+03  0.25500000920E-02 0. -1.
       -2    1    3    3    0  502  0.79263858846E+03  0.19911860733E+03  0.12939034324E+04  0.15303954535E+04  0.25500000920E-02 0.  1.
</event>
<event>
 5   0  0.8881384E-05  0.2004008E+04  0.7818609E-02  0.8604749E-01
       -1   -1    0    0    0  501  0.00000000000E+00  0.00000000000E+00  0.55229953731E+03  0.55229953733E+03  0.50400001928E-02 0. -1.
        1   -1    0    0  501    0  0.00000000000E+00  0.00000000000E+00 -0.18178753637E+04  0.18178753638E+04  0.50400001928E-02 0.  1.
    10030    2    1    2    0    0  0.00000000000E+00  0.00000000000E+00 -0.12655758264E+04  0.23701749011E+04  0.20040077069E+04 0.  0.
        5    1    3    3  502    0  0.59125325480E+03 -0.56417058860E+00 -0.15895536341E+04  0.16959609592E+04  0.46999998093E+01 0.  1.
       -5    1    3    3    0  502 -0.59125325480E+03  0.56417058860E+00  0.32397780762E+03  0.67421394188E+03  0.46999998093E+01 0. -1.
</event>
<event>
 5   0  0.8958919E-05  0.2012937E+04  0.7818609E-02  0.8600596E-01
       -1   -1    0    0    0  501  0.00000000000E+00  0.00000000000E+00  0.72098906443E+03  0.72098906445E+03  0.50400001928E-02 0.  1.
        1   -1    0    0  501    0  0.00000000000E+00  0.00000000000E+00 -0.14049848661E+04  0.14049848661E+04  0.50400001928E-02 0. -1.
    10030    2    1    2    0    0  0.00000000000E+00  0.00000000000E+00 -0.68399580165E+03  0.21259739305E+04  0.20129368834E+04 0.  0.
        4    1    3    3  502    0  0.96107765271E+03  0.58422019332E+02 -0.65153199658E+03  0.11625742739E+04  0.12699999809E+01 0. -1.
       -4    1    3    3    0  502 -0.96107765271E+03 -0.58422019332E+02 -0.32463805071E+02  0.96339965664E+03  0.12699999809E+01 0.  1.
</event>
<event>
 5   0  0.8881384E-05  0.1998720E+04  0.7818609E-02  0.8607219E-01
       -1   -1    0    0    0  501  0.00000000000E+00  0.00000000000E+00  0.57712705560E+03  0.57712705562E+03  0.50400001928E-02 0.  1.
        1   -1    0    0  501    0  0.00000000000E+00  0.00000000000E+00 -0.17305035428E+04  0.17305035428E+04  0.50400001928E-02 0. -1.
    10030    2    1    2    0    0  0.00000000000E+00  0.00000000000E+00 -0.11533764872E+04  0.23076305984E+04  0.19987200048E+04 0.  0.
        5    1    3    3  502    0 -0.60463744688E+03 -0.58979006145E+03 -0.11933321411E+04  0.14620199888E+04  0.46999998093E+01 0. -1.
       -5    1    3    3    0  502  0.60463744688E+03  0.58979006145E+03  0.39955653918E+02  0.84561060958E+03  0.46999998093E+01 0.  1.
</event>
<event>
 5   0  0.1834645E-04  0.2015613E+04  0.7818609E-02  0.8599356E-01
        2   -1    0    0  501    0  0.00000000000E+00  0.00000000000E+00  0.93062733008E+03  0.93062733009E+03  0.25500000920E-02 0. -1.
       -2   -1    0    0    0  501  0.00000000000E+00  0.00000000000E+00 -0.10913860422E+04  0.10913860422E+04  0.25500000920E-02 0.  1.
    10030    2    1    2    0    0  0.00000000000E+00  0.00000000000E+00 -0.16075871207E+03  0.20220133722E+04  0.20156127391E+04 0.  0.
        1    1    3    3  502    0  0.26278348022E+03 -0.97294311928E+03 -0.79922220526E+02  0.10109703419E+04  0.50400001928E-02 0. -1.
       -1    1    3    3    0  502 -0.26278348022E+03  0.97294311928E+03 -0.80836491543E+02  0.10110430303E+04  0.50400001928E-02 0.  1.
</event>
<event>
 5   0  0.1812865E-04  0.1990534E+04  0.7818609E-02  0.8611059E-01
       -2   -1    0    0    0  501  0.00000000000E+00  0.00000000000E+00  0.72644243208E+03  0.72644243208E+03  0.25500000920E-02 0.  1.
        2   -1    0    0  501    0  0.00000000000E+00  0.00000000000E+00 -0.13635721781E+04  0.13635721781E+04  0.25500000920E-02 0. -1.
    10030    2    1    2    0    0  0.00000000000E+00  0.00000000000E+00 -0.63712974605E+03  0.20900146102E+04  0.19905342895E+04 0.  0.
        3    1    3    3  502    0  0.90342941434E+03 -0.41080516790E+03 -0.23991407347E+03  0.10210310306E+04  0.10100000352E+00 0.  1.
       -3    1    3    3    0  502 -0.90342941434E+03  0.41080516790E+03 -0.39721567258E+03  0.10689835796E+04  0.10100000352E+00 0. -1.
</event>
<event>
 5   0  0.1807498E-04  0.2004630E+04  0.7818609E-02  0.8604459E-01
        2   -1    0    0  501    0  0.00000000000E+00  0.00000000000E+00  0.20515786855E+04  0.20515786855E+04  0.25500000920E-02 0.  1.
       -2   -1    0    0    0  501  0.00000000000E+00  0.00000000000E+00 -0.48968882729E+03  0.48968882729E+03  0.25500000920E-02 0. -1.
    10030    2    1    2    0    0  0.00000000000E+00  0.00000000000E+00  0.15618898582E+04  0.25412675128E+04  0.20046298018E+04 0.  0.
        5    1    3    3  502    0 -0.39734787159E+03 -0.24740608221E+03 -0.34260988364E+03  0.58008509974E+03  0.46999998093E+01 0. -1.
       -5    1    3    3    0  502  0.39734787159E+03  0.24740608221E+03  0.19044997418E+04  0.19611824130E+04  0.46999998093E+01 0.  1.
</event>
<event>
 5   0  0.8881384E-05  0.1984797E+04  0.7818609E-02  0.8613762E-01
       -1   -1    0    0    0  501  0.00000000000E+00  0.00000000000E+00  0.13440552947E+04  0.13440552947E+04  0.50400001928E-02 0. -1.
        1   -1    0    0  501    0  0.00000000000E+00  0.00000000000E+00 -0.73274893868E+03  0.73274893870E+03  0.50400001928E-02 0.  1.
    10030    2    1    2    0    0  0.00000000000E+00  0.00000000000E+00  0.61130635602E+03  0.20768042334E+04  0.19847973103E+04 0.  0.
        5    1    3    3  502    0 -0.92540942927E+03  0.67306411562E+02 -0.62688204220E+02  0.92998100290E+03  0.46999998093E+01 0.  1.
       -5    1    3    3    0  502  0.92540942927E+03 -0.67306411562E+02  0.67399456024E+03  0.11468232305E+04  0.46999998093E+01 0. -1.
</event>
<event>
 5   0  0.1812865E-04  0.1995051E+04  0.7818609E-02  0.8608938E-01
       -2   -1    0    0    0  501  0.00000000000E+00  0.00000000000E+00  0.51521739333E+03  0.51521739333E+03  0.25500000920E-02 0. -1.
        2   -1    0    0  501    0  0.00000000000E+00  0.00000000000E+00 -0.19313343835E+04  0.19313343835E+04  0.25500000920E-02 0.  1.
    10030    2    1    2    0    0  0.00000000000E+00  0.00000000000E+00 -0.14161169902E+04  0.24465517768E+04  0.19950509434E+04 0.  0.
        3    1    3    3  502    0  0.48328327394E+03  0.70620983792E+03 -0.13366690944E+04  0.15871292752E+04  0.10100000352E+00 0.  1.
       -3    1    3    3    0  502 -0.48328327394E+03 -0.70620983792E+03 -0.79447895813E+02  0.85942250168E+03  0.10100000352E+00 0. -1.
</event>
<event>
 5   0  0.1893687E-04  0.2476268E+04  0.7818609E-02  0.8411489E-01
        2   -1    0    0  501    0  0.00000000000E+00  0.00000000000E+00  0.20734978583E+04  0.20734978583E+04  0.25500000920E-02 0.  1.
       -2   -1    0    0    0  501  0.00000000000E+00  0.00000000000E+00 -0.73931897652E+03  0.73931897652E+03  0.25500000920E-02 0. -1.
    10030    2    1    2    0    0  0.00000000000E+00  0.00000000000E+00  0.13341788818E+04  0.28128168349E+04  0.24762684139E+04 0.  0.
        4    1    3    3  502    0  0.11188777290E+04 -0.50759455096E+03  0.49319842375E+03  0.13239282076E+04  0.12699999809E+01 0. -1.
       -4    1    3    3    0  502 -0.11188777290E+04  0.50759455096E+03  0.84098045806E+03  0.14888886273E+04  0.12699999809E+01 0.  1.
</event>
<event>
 5   0  0.1807498E-04  0.1989029E+04  0.7818609E-02  0.8611767E-01
        2   -1    0    0  501    0  0.00000000000E+00  0.00000000000E+00  0.12616755001E+04  0.12616755001E+04  0.25500000920E-02 0. -1.
       -2   -1    0    0    0  501  0.00000000000E+00  0.00000000000E+00 -0.78392520601E+03  0.78392520602E+03  0.25500000920E-02 0.  1.
    10030    2    1    2    0    0  0.00000000000E+00  0.00000000000E+00  0.47775029412E+03  0.20456007061E+04  0.19890291364E+04 0.  0.
        5    1    3    3  502    0  0.38335248212E+03  0.62949279884E+03 -0.44781046569E+03  0.86242484457E+03  0.46999998093E+01 0.  1.
       -5    1    3    3    0  502 -0.38335248212E+03 -0.62949279884E+03  0.92556075980E+03  0.11831758616E+04  0.46999998093E+01 0. -1.
</event>
<event>
 5   0  0.8881384E-05  0.1956125E+04  0.7818609E-02  0.8627413E-01
       -1   -1    0    0    0  501  0.00000000000E+00  0.00000000000E+00  0.12195455494E+04  0.12195455494E+04  0.50400001928E-02 0.  1.
        1   -1    0    0  501    0  0.00000000000E+00  0.00000000000E+00 -0.78439569749E+03  0.78439569751E+03  0.50400001928E-02 0. -1.
    10030    2    1    2    0    0  0.00000000000E+00  0.00000000000E+00  0.43514985190E+03  0.20039412469E+04  0.19561250286E+04 0.  0.
        5    1    3    3  502    0 -0.87587074770E+03  0.39869751566E+03  0.38736995885E+02  0.96313650149E+03  0.46999998093E+01 0.  1.
       -5    1    3    3    0  502  0.87587074770E+03 -0.39869751566E+03  0.39641285601E+03  0.10408047454E+04  0.46999998093E+01 0. -1.
</event>
<event>
 5   0  0.1812865E-04  0.2011807E+04  0.7818609E-02  0.8601120E-01
        2   -1    0    0  501    0  0.00000000000E+00  0.00000000000E+00  0.14951010274E+04  0.14951010274E+04  0.25500000920E-02 0.  1.
       -2   -1    0    0    0  501  0.00000000000E+00  0.00000000000E+00 -0.67677164358E+03  0.67677164358E+03  0.25500000920E-02 0. -1.
    10030    2    1    2    0    0  0.00000000000E+00  0.00000000000E+00  0.81832938378E+03  0.21718726709E+04  0.20118071275E+04 0.  0.
        3    1    3    3  502    0  0.23523292074E+03 -0.37259540589E+03 -0.56703739975E+03  0.71811787779E+03  0.10100000352E+00 0. -1.
       -3    1    3    3    0  502 -0.23523292074E+03  0.37259540589E+03  0.13853667835E+04  0.14537547931E+04  0.10100000352E+00 0.  1.
</event>
<event>
 5   0  0.1834645E-04  0.1991301E+04  0.7818609E-02  0.8610699E-01
       -2   -1    0    0    0  501  0.00000000000E+00  0.00000000000E+00  0.47497466423E+03  0.47497466423E+03  0.25500000920E-02 0. -1.
        2   -1    0    0  501    0  0.00000000000E+00  0.00000000000E+00 -0.20871007439E+04  0.20871007439E+04  0.25500000920E-02 0.  1.
    10030    2    1    2    0    0  0.00000000000E+00  0.00000000000E+00 -0.16121260797E+04  0.25620754081E+04  0.19913010571E+04 0.  0.
        1    1    3    3  502    0 -0.21144576968E+03  0.96857232185E+03 -0.92453344034E+03  0.13555824352E+04  0.50400001928E-02 0. -1.
       -1    1    3    3    0  502  0.21144576968E+03 -0.96857232185E+03 -0.68759263933E+03  0.12064929730E+04  0.50400001928E-02 0.  1.
</event>
<event>
 5   0  0.1893687E-04  0.2031392E+04  0.7818609E-02  0.8592083E-01
        2   -1    0    0  501    0  0.00000000000E+00  0.00000000000E+00  0.12670999366E+04  0.12670999366E+04  0.25500000920E-02 0.  1.
       -2   -1    0    0    0  501  0.00000000000E+00  0.00000000000E+00 -0.81417311679E+03  0.81417311679E+03  0.25500000920E-02 0. -1.
    10030    2    1    2    0    0  0.00000000000E+00  0.00000000000E+00  0.45292681981E+03  0.20812730534E+04  0.20313923350E+04 0.  0.
        4    1    3    3  502    0  0.94855926909E+03 -0.13235349118E+02 -0.14534873608E+03  0.95972273570E+03  0.12699999809E+01 0. -1.
       -4    1    3    3    0  502 -0.94855926909E+03  0.13235349118E+02  0.59827555589E+03  0.11215503177E+04  0.12699999809E+01 0.  1.
</event>
<event>
 5   0  0.1834645E-04  0.1978147E+04  0.7818609E-02  0.8616907E-01
       -2   -1    0    0    0  501  0.00000000000E+00  0.00000000000E+00  0.38630917179E+03  0.38630917180E+03  0.25500000920E-02 0.  1.
        2   -1    0    0  501    0  0.00000000000E+00  0.00000000000E+00 -0.25323393562E+04  0.25323393562E+04  0.25500000920E-02 0. -1.
    10030    2    1    2    0    0  0.00000000000E+00  0.00000000000E+00 -0.21460301844E+04  0.29186485280E+04  0.19781465258E+04 0.  0.
        1    1    3    3  502    0 -0.12998349643E+03  0.47255382796E+03  0.19454945846E+03  0.52730666739E+03  0.50400001928E-02 0.  1.
       -1    1    3    3    0  502  0.12998349643E+03 -0.47255382796E+03 -0.23405796429E+04  0.23913418606E+04  0.50400001928E-02 0. -1.
</event>
<event>
 5   0  0.1812865E-04  0.1727881E+04  0.7818609E-02  0.8745621E-01
        2   -1    0    0  501    0  0.00000000000E+00  0.00000000000E+00  0.63203338713E+03  0.63203338713E+03  0.25500000920E-02 0. -1.
       -2   -1    0    0    0  501  0.00000000000E+00  0.00000000000E+00 -0.11809389258E+04  0.11809389258E+04  0.25500000920E-02 0.  1.
    10030    2    1    2    0    0  0.00000000000E+00  0.00000000000E+00 -0.54890553866E+03  0.18129723129E+04  0.17278805853E+04 0.  0.
        3    1    3    3  502    0  0.42114689130E+03  0.13420864435E+03  0.50440761170E+03  0.67067407376E+03  0.10100000352E+00 0. -1.
       -3    1    3    3    0  502 -0.42114689130E+03 -0.13420864435E+03 -0.10533131504E+04  0.11422982392E+04  0.10100000352E+00 0.  1.
</event>
<event>
 5   0  0.1782172E-04  0.2014996E+04  0.7818609E-02  0.8599641E-01
       -2   -1    0    0    0  501  0.00000000000E+00  0.00000000000E+00  0.74381468293E+03  0.74381468293E+03  0.25500000920E-02 0. -1.
        2   -1    0    0  501    0  0.00000000000E+00  0.00000000000E+00 -0.13646577358E+04  0.13646577358E+04  0.25500000920E-02 0.  1.
    10030    2    1    2    0    0  0.00000000000E+00  0.00000000000E+00 -0.62084305289E+03  0.21084724188E+04  0.20149962393E+04 0.  0.
        2    1    3    3  502    0 -0.50277599413E+03 -0.70706961376E+03 -0.84635450319E+03  0.12120425257E+04  0.25500000920E-02 0.  1.
       -2    1    3    3    0  502  0.50277599413E+03  0.70706961376E+03  0.22551145031E+03  0.89642989307E+03  0.25500000920E-02 0. -1.
</event>
<event>
 5   0  0.1834645E-04  0.1980000E+04  0.7818609E-02  0.8616029E-01
        2   -1    0    0  501    0  0.00000000000E+00  0.00000000000E+00  0.92364184573E+03  0.92364184573E+03  0.25500000920E-02 0. -1.
       -2   -1    0    0    0  501  0.00000000000E+00  0.00000000000E+00 -0.10611255451E+04  0.10611255451E+04  0.25500000920E-02 0.  1.
    10030    2    1    2    0    0  0.00000000000E+00  0.00000000000E+00 -0.13748369939E+03  0.19847673909E+04  0.19799999566E+04 0.  0.
        1    1    3    3  502    0 -0.69078423846E+03 -0.43773713460E+03  0.49054717021E+03  0.95364206563E+03  0.50400001928E-02 0. -1.
       -1    1    3    3    0  502  0.69078423846E+03  0.43773713460E+03 -0.62803086960E+03  0.10311253252E+04  0.50400001928E-02 0.  1.
</event>
<event>
 5   0  0.1782172E-04  0.1946667E+04  0.7818609E-02  0.8631970E-01
       -2   -1    0    0    0  501  0.00000000000E+00  0.00000000000E+00  0.54324176046E+03  0.54324176047E+03  0.25500000920E-02 0. -1.
        2   -1    0    0  501    0  0.00000000000E+00  0.00000000000E+00 -0.17439338485E+04  0.17439338485E+04  0.25500000920E-02 0.  1.
    10030    2    1    2    0    0  0.00000000000E+00  0.00000000000E+00 -0.12006920880E+04  0.22871756090E+04  0.19466665806E+04 0.  0.
        2    1    3    3  502    0 -0.60630168379E+03 -0.69387955726E+03 -0.23196232387E+03  0.95019844846E+03  0.25500000920E-02 0.  1.
       -2    1    3    3    0  502  0.60630168379E+03  0.69387955726E+03 -0.96872976417E+03  0.13369771605E+04  0.25500000920E-02 0. -1.
</event>
<event>
 5   0  0.8861350E-05  0.2035353E+04  0.7818609E-02  0.8590268E-01
       -1   -1    0    0    0  501  0.00000000000E+00  0.00000000000E+00  0.12272746002E+04  0.12272746002E+04  0.50400001928E-02 0. -1.
        1   -1    0    0  501    0  0.00000000000E+00  0.00000000000E+00 -0.84387456271E+03  0.84387456273E+03  0.50400001928E-02 0.  1.
    10030    2    1    2    0    0  0.00000000000E+00  0.00000000000E+00  0.38340003749E+03  0.20711491629E+04  0.20353533517E+04 0.  0.
        1    1    3    3  502    0  0.28382487370E+03 -0.28272478717E+03  0.11436612211E+04  0.12117965394E+04  0.50400001928E-02 0. -1.
       -1    1    3    3    0  502 -0.28382487370E+03  0.28272478717E+03 -0.76026118362E+03  0.85935262353E+03  0.50400001928E-02 0.  1.
</event>
<event>
 5   0  0.8577422E-05  0.2039729E+04  0.7818609E-02  0.8588268E-01
        1   -1    0    0  501    0  0.00000000000E+00  0.00000000000E+00  0.15860657025E+04  0.15860657025E+04  0.50400001928E-02 0.  1.
       -1   -1    0    0    0  501  0.00000000000E+00  0.00000000000E+00 -0.65578849269E+03  0.65578849271E+03  0.50400001928E-02 0. -1.
    10030    2    1    2    0    0  0.00000000000E+00  0.00000000000E+00  0.93027720982E+03  0.22418541952E+04  0.20397290373E+04 0.  0.
        2    1    3    3  502    0  0.96698317968E+02 -0.33292178709E+03 -0.58903886258E+03  0.68348684161E+03  0.25500000920E-02 0. -1.
       -2    1    3    3    0  502 -0.96698317968E+02  0.33292178709E+03  0.15193160724E+04  0.15583673536E+04  0.25500000920E-02 0.  1.
</event>
<event>
 5   0  0.8958919E-05  0.2026883E+04  0.7818609E-02  0.8594154E-01
        1   -1    0    0  501    0  0.00000000000E+00  0.00000000000E+00  0.12834788374E+04  0.12834788374E+04  0.50400001928E-02 0.  1.
       -1   -1    0    0    0  501  0.00000000000E+00  0.00000000000E+00 -0.80021860512E+03  0.80021860513E+03  0.50400001928E-02 0. -1.
    10030    2    1    2    0    0  0.00000000000E+00  0.00000000000E+00  0.48326023229E+03  0.20836974426E+04  0.20268829715E+04 0.  0.
        4    1    3    3  502    0 -0.33937707228E+03 -0.93651951501E+03  0.49808245663E+02  0.99736055337E+03  0.12699999809E+01 0. -1.
       -4    1    3    3    0  502  0.33937707228E+03  0.93651951501E+03  0.43345198663E+03  0.10863368892E+04  0.12699999809E+01 0.  1.
</event>
<event>
 5   0  0.8881384E-05  0.1998850E+04  0.7818609E-02  0.8607159E-01
        1   -1    0    0  501    0  0.00000000000E+00  0.00000000000E+00  0.14291303026E+04  0.14291303026E+04  0.50400001928E-02 0.  1.
       -1   -1    0    0    0  501  0.00000000000E+00  0.00000000000E+00 -0.69892159980E+03  0.69892159982E+03  0.50400001928E-02 0. -1.
    10030    2    1    2    0    0  0.00000000000E+00  0.00000000000E+00  0.73020870282E+03  0.21280519024E+04  0.19988497067E+04 0.  0.
        5    1    3    3  502    0 -0.17354136620E+03  0.47938786624E+02  0.14117110382E+04  0.14231531465E+04  0.46999998093E+01 0.  1.
       -5    1    3    3    0  502  0.17354136620E+03 -0.47938786624E+02 -0.68150233536E+03  0.70489875595E+03  0.46999998093E+01 0. -1.
</event>
<event>
 5   0  0.1812865E-04  0.1989400E+04  0.7818609E-02  0.8611593E-01
        2   -1    0    0  501    0  0.00000000000E+00  0.00000000000E+00  0.70090942125E+03  0.70090942125E+03  0.25500000920E-02 0.  1.
       -2   -1    0    0    0  501  0.00000000000E+00  0.00000000000E+00 -0.14116346161E+04  0.14116346161E+04  0.25500000920E-02 0. -1.
    10030    2    1    2    0    0  0.00000000000E+00  0.00000000000E+00 -0.71072519481E+03  0.21125440373E+04  0.19893999113E+04 0.  0.
        3    1    3    3  502    0  0.15628953767E+03 -0.87153278395E+03  0.12593967529E+03  0.89434703841E+03  0.10100000352E+00 0.  1.
       -3    1    3    3    0  502 -0.15628953767E+03  0.87153278395E+03 -0.83666487009E+03  0.12181969989E+04  0.10100000352E+00 0. -1.
</event>
<event>
 5   0  0.1812865E-04  0.2009744E+04  0.7818609E-02  0.8602078E-01
       -2   -1    0    0    0  501  0.00000000000E+00  0.00000000000E+00  0.55684982838E+03  0.55684982838E+03  0.25500000920E-02 0.  1.
        2   -1    0    0  501    0  0.00000000000E+00  0.00000000000E+00 -0.18133581524E+04  0.18133581524E+04  0.25500000920E-02 0. -1.
    10030    2    1    2    0    0  0.00000000000E+00  0.00000000000E+00 -0.12565083240E+04  0.23702079808E+04  0.20097444374E+04 0.  0.
        3    1    3    3  502    0  0.84063992870E+03  0.11176833588E+03  0.75067319945E+01  0.84807075876E+03  0.10100000352E+00 0.  1.
       -3    1    3    3    0  502 -0.84063992870E+03 -0.11176833588E+03 -0.12640150560E+04  0.15221372220E+04  0.10100000352E+00 0. -1.
</event>
<event>
 5   0  0.8765057E-05  0.1982594E+04  0.7818609E-02  0.8614802E-01
        1   -1    0    0  501    0  0.00000000000E+00  0.00000000000E+00  0.96380126635E+03  0.96380126636E+03  0.50400001928E-02 0.  1.
       -1   -1    0    0    0  501  0.00000000000E+00  0.00000000000E+00 -0.10195767588E+04  0.10195767589E+04  0.50400001928E-02 0. -1.
    10030    2    1    2    0    0  0.00000000000E+00  0.00000000000E+00 -0.55775492497E+02  0.19833780252E+04  0.19825936259E+04 0.  0.
        3    1    3    3  502    0  0.27800143018E+03 -0.46838159405E+03  0.80069307691E+03  0.96838810734E+03  0.10100000352E+00 0.  1.
       -3    1    3    3    0  502 -0.27800143018E+03  0.46838159405E+03 -0.85646856940E+03  0.10149899179E+04  0.10100000352E+00 0. -1.
</event>
<event>
 5   0  0.8958919E-05  0.2194304E+04  0.7818609E-02  0.8520803E-01
        1   -1    0    0  501    0  0.00000000000E+00  0.00000000000E+00  0.11983999237E+04  0.11983999237E+04  0.50400001928E-02 0. -1.
       -1   -1    0    0    0  501  0.00000000000E+00  0.00000000000E+00 -0.10044576905E+04  0.10044576905E+04  0.50400001928E-02 0.  1.
    10030    2    1    2    0    0  0.00000000000E+00  0.00000000000E+00  0.19394223319E+03  0.22028576142E+04  0.21943035521E+04 0.  0.
        4    1    3    3  502    0 -0.42452719921E+03  0.52426689973E+03 -0.77165404849E+03  0.10249540031E+04  0.12699999809E+01 0.  1.
       -4    1    3    3    0  502  0.42452719921E+03 -0.52426689973E+03  0.96559628169E+03  0.11779036111E+04  0.12699999809E+01 0. -1.
</event>
<event>
 5   0  0.8881384E-05  0.1497143E+04  0.7818609E-02  0.8886355E-01
        1   -1    0    0  501    0  0.00000000000E+00  0.00000000000E+00  0.91036628483E+03  0.91036628485E+03  0.50400001928E-02 0. -1.
       -1   -1    0    0    0  501  0.00000000000E+00  0.00000000000E+00 -0.61553128438E+03  0.61553128440E+03  0.50400001928E-02 0.  1.
    10030    2    1    2    0    0  0.00000000000E+00  0.00000000000E+00  0.29483500046E+03  0.15258975692E+04  0.14971425164E+04 0.  0.
        5    1    3    3  502    0 -0.41173350156E+03 -0.47534282034E+03  0.56124747742E+03  0.84290930358E+03  0.46999998093E+01 0. -1.
       -5    1    3    3    0  502  0.41173350156E+03  0.47534282034E+03 -0.26641247697E+03  0.68298826566E+03  0.46999998093E+01 0.  1.
</event>
<event>
 5   0  0.1893687E-04  0.1437160E+04  0.7818609E-02  0.8927351E-01
       -2   -1    0    0    0  501  0.00000000000E+00  0.00000000000E+00  0.39214783934E+03  0.39214783935E+03  0.25500000920E-02 0. -1.
        2   -1    0    0  501    0  0.00000000000E+00  0.00000000000E+00 -0.13167410656E+04  0.13167410656E+04  0.25500000920E-02 0.  1.
    10030    2    1    2    0    0  0.00000000000E+00  0.00000000000E+00 -0.92459322629E+03  0.17088889050E+04  0.14371599269E+04 0.  0.
        4    1    3    3  502    0  0.43754023592E+02  0.71522357064E+03 -0.39830301483E+03  0.81982075791E+03  0.12699999809E+01 0. -1.
       -4    1    3    3    0  502 -0.43754023592E+02 -0.71522357064E+03 -0.52629021146E+03  0.88906814708E+03  0.12699999809E+01 0.  1.
</event>
<event>
 5   0  0.1893687E-04  0.1995628E+04  0.7818609E-02  0.8608667E-01
        2   -1    0    0  501    0  0.00000000000E+00  0.00000000000E+00  0.12397534858E+04  0.12397534858E+04  0.25500000920E-02 0. -1.
       -2   -1    0    0    0  501  0.00000000000E+00  0.00000000000E+00 -0.80308955767E+03  0.80308955768E+03  0.25500000920E-02 0.  1.
    10030    2    1    2    0    0  0.00000000000E+00  0.00000000000E+00  0.43666392808E+03  0.20428430434E+04  0.19956283006E+04 0.  0.
        4    1    3    3  502    0 -0.62270804693E+03 -0.24283614812E+02  0.10160484532E+04  0.11919358531E+04  0.12699999809E+01 0. -1.
       -4    1    3    3    0  502  0.62270804693E+03  0.24283614812E+02 -0.57938452516E+03  0.85090719034E+03  0.12699999809E+01 0.  1.
</event>
<event>
 5   0  0.1812865E-04  0.1995149E+04  0.7818609E-02  0.8608892E-01
       -2   -1    0    0    0  501  0.00000000000E+00  0.00000000000E+00  0.99225960250E+03  0.99225960250E+03  0.25500000920E-02 0. -1.
        2   -1    0    0  501    0  0.00000000000E+00  0.00000000000E+00 -0.10029179599E+04  0.10029179599E+04  0.25500000920E-02 0.  1.
    10030    2    1    2    0    0  0.00000000000E+00  0.00000000000E+00 -0.10658357398E+02  0.19951775624E+04  0.19951490934E+04 0.  0.
        3    1    3    3  502    0  0.55329205692E+01 -0.57093049507E+02  0.99060909387E+03  0.99226841962E+03  0.10100000352E+00 0. -1.
       -3    1    3    3    0  502 -0.55329205692E+01  0.57093049507E+02 -0.10012674513E+04  0.10029091428E+04  0.10100000352E+00 0.  1.
</event>
<event>
 5   0  0.8861350E-05  0.1558071E+04  0.7818609E-02  0.8846729E-01
       -1   -1    0    0    0  501  0.00000000000E+00  0.00000000000E+00  0.48749864778E+03  0.48749864781E+03  0.50400001928E-02 0. -1.
        1   -1    0    0  501    0  0.00000000000E+00  0.00000000000E+00 -0.12449195373E+04  0.12449195373E+04  0.50400001928E-02 0.  1.
    10030    2    1    2    0    0  0.00000000000E+00  0.00000000000E+00 -0.75742088948E+03  0.17324181851E+04  0.15580713604E+04 0.  0.
        1    1    3    3  502    0  0.27059787511E+03 -0.43186874963E+03  0.27642629921E+03  0.57978041175E+03  0.50400001928E-02 0. -1.
       -1    1    3    3    0  502 -0.27059787511E+03  0.43186874963E+03 -0.10338471887E+04  0.11526377733E+04  0.50400001928E-02 0.  1.
</event>
<event>
 5   0  0.1893687E-04  0.1995001E+04  0.7818609E-02  0.8608961E-01
       -2   -1    0    0    0  501  0.00000000000E+00  0.00000000000E+00  0.15274530945E+04  0.15274530945E+04  0.25500000920E-02 0. -1.
        2   -1    0    0  501    0  0.00000000000E+00  0.00000000000E+00 -0.65141614448E+03  0.65141614448E+03  0.25500000920E-02 0.  1.
    10030    2    1    2    0    0  0.00000000000E+00  0.00000000000E+00  0.87603695001E+03  0.21788692390E+04  0.19950013591E+04 0.  0.
        4    1    3    3  502    0  0.76055914127E+03  0.53941648257E+03  0.50976586770E+02  0.93382041867E+03  0.12699999809E+01 0.  1.
       -4    1    3    3    0  502 -0.76055914127E+03 -0.53941648257E+03  0.82506036324E+03  0.12450488203E+04  0.12699999809E+01 0. -1.
</event>
<event>
 5   0  0.8958919E-05  0.1820226E+04  0.7818609E-02  0.8695617E-01
       -1   -1    0    0    0  501  0.00000000000E+00  0.00000000000E+00  0.84000561710E+03  0.84000561712E+03  0.50400001928E-02 0. -1.
        1   -1    0    0  501    0  0.00000000000E+00  0.00000000000E+00 -0.98607119923E+03  0.98607119924E+03  0.50400001928E-02 0.  1.
    10030    2    1    2    0    0  0.00000000000E+00  0.00000000000E+00 -0.14606558213E+03  0.18260768164E+04  0.18202256412E+04 0.  0.
        4    1    3    3  502    0  0.13639088397E+03 -0.86287275329E+03 -0.32910194313E+03  0.93352105679E+03  0.12699999809E+01 0.  1.
       -4    1    3    3    0  502 -0.13639088397E+03  0.86287275329E+03  0.18303636100E+03  0.89255575957E+03  0.12699999809E+01 0. -1.
</event>
<event>
 5   0  0.1834645E-04  0.1989542E+04  0.7818609E-02  0.8611526E-01
       -2   -1    0    0    0  501  0.00000000000E+00  0.00000000000E+00  0.64747141888E+03  0.64747141888E+03  0.25500000920E-02 0. -1.
        2   -1    0    0  501    0  0.00000000000E+00  0.00000000000E+00 -0.15283602136E+04  0.15283602136E+04  0.25500000920E-02 0.  1.
    10030    2    1    2    0    0  0.00000000000E+00  0.00000000000E+00 -0.88088879476E+03  0.21758316325E+04  0.19895422148E+04 0.  0.
        1    1    3    3  502    0  0.25993353789E+03 -0.57756500012E+03  0.39846849258E+03  0.74828063792E+03  0.50400001928E-02 0. -1.
       -1    1    3    3    0  502 -0.25993353789E+03  0.57756500012E+03 -0.12793572873E+04  0.14275509946E+04  0.50400001928E-02 0.  1.
</event>
<event>
 5   0  0.1807498E-04  0.1980662E+04  0.7818609E-02  0.8615716E-01
        2   -1    0    0  501    0  0.00000000000E+00  0.00000000000E+00  0.16194666597E+04  0.16194666597E+04  0.25500000920E-02 0.  1.
       -2   -1    0    0    0  501  0.00000000000E+00  0.00000000000E+00 -0.60560391590E+03  0.60560391591E+03  0.25500000920E-02 0. -1.
    10030    2    1    2    0    0  0.00000000000E+00  0.00000000000E+00  0.10138627438E+04  0.22250705756E+04  0.19806618599E+04 0.  0.
        5    1    3    3  502    0 -0.67306249141E+03 -0.13708184739E+03 -0.29449186000E+03  0.74736342956E+03  0.46999998093E+01 0. -1.
       -5    1    3    3    0  502  0.67306249141E+03  0.13708184739E+03  0.13083546038E+04  0.14777071461E+04  0.46999998093E+01 0.  1.
</event>
<event>
 5   0  0.8861350E-05  0.1996896E+04  0.7818609E-02  0.8608073E-01
       -1   -1    0    0    0  501  0.00000000000E+00  0.00000000000E+00  0.48984059120E+03  0.48984059123E+03  0.50400001928E-02 0. -1.
        1   -1    0    0  501    0  0.00000000000E+00  0.00000000000E+00 -0.20351487682E+04  0.20351487682E+04  0.50400001928E-02 0.  1.
    10030    2    1    2    0    0  0.00000000000E+00  0.00000000000E+00 -0.15453081770E+04  0.25249893594E+04  0.19968960672E+04 0.  0.
        1    1    3    3  502    0  0.71818216936E+03  0.98078346575E+02  0.95590207496E+02  0.73112411959E+03  0.50400001928E-02 0. -1.
       -1    1    3    3    0  502 -0.71818216936E+03 -0.98078346575E+02 -0.16408983845E+04  0.17938652398E+04  0.50400001928E-02 0.  1.
</event>
<event>
 5   0  0.8861350E-05  0.1782855E+04  0.7818609E-02  0.8715471E-01
        1   -1    0    0  501    0  0.00000000000E+00  0.00000000000E+00  0.13622201536E+04  0.13622201536E+04  0.50400001928E-02 0. -1.
       -1   -1    0    0    0  501  0.00000000000E+00  0.00000000000E+00 -0.58334387439E+03  0.58334387441E+03  0.50400001928E-02 0.  1.
    10030    2    1    2    0    0  0.00000000000E+00  0.00000000000E+00  0.77887627919E+03  0.19455640280E+04  0.17828547694E+04 0.  0.
        1    1    3    3  502    0  0.38361238087E+03 -0.71565337042E+03  0.79087560278E+03  0.11334912547E+04  0.50400001928E-02 0. -1.
       -1    1    3    3    0  502 -0.38361238087E+03  0.71565337042E+03 -0.11999323587E+02  0.81207277331E+03  0.50400001928E-02 0.  1.
</event>
<event>
 5   0  0.8958919E-05  0.1976116E+04  0.7818609E-02  0.8617870E-01
       -1   -1    0    0    0  501  0.00000000000E+00  0.00000000000E+00  0.64588602561E+03  0.64588602563E+03  0.50400001928E-02 0. -1.
        1   -1    0    0  501    0  0.00000000000E+00  0.00000000000E+00 -0.15115021708E+04  0.15115021708E+04  0.50400001928E-02 0.  1.
    10030    2    1    2    0    0  0.00000000000E+00  0.00000000000E+00 -0.86561614523E+03  0.21573881965E+04  0.19761155127E+04 0.  0.
        4    1    3    3  502    0  0.61846368769E+03  0.59544941565E+03  0.10113605166E+03  0.86445789570E+03  0.12699999809E+01 0. -1.
       -4    1    3    3    0  502 -0.61846368769E+03 -0.59544941565E+03 -0.96675219689E+03  0.12929303008E+04  0.12699999809E+01 0.  1.
</event>
<event>
 5   0  0.1893687E-04  0.1559714E+04  0.7818609E-02  0.8845687E-01
       -2   -1    0    0    0  501  0.00000000000E+00  0.00000000000E+00  0.70701572307E+03  0.70701572308E+03  0.25500000920E-02 0. -1.
        2   -1    0    0  501    0  0.00000000000E+00  0.00000000000E+00 -0.86020316430E+03  0.86020316431E+03  0.25500000920E-02 0.  1.
    10030    2    1    2    0    0  0.00000000000E+00  0.00000000000E+00 -0.15318744123E+03  0.15672188874E+04  0.15597142844E+04 0.  0.
        4    1    3    3  502    0 -0.44446299370E+03 -0.47772060336E+03  0.35255753086E+03  0.74166215564E+03  0.12699999809E+01 0. -1.
       -4    1    3    3    0  502  0.44446299370E+03  0.47772060336E+03 -0.50574497209E+03  0.82555673175E+03  0.12699999809E+01 0.  1.
</event>
<event>
 5   0  0.8861350E-05  0.2015923E+04  0.7818609E-02  0.8599212E-01
       -1   -1    0    0    0  501  0.00000000000E+00  0.00000000000E+00  0.85563241398E+03  0.85563241400E+03  0.50400001928E-02 0.  1.
        1   -1    0    0  501    0  0.00000000000E+00  0.00000000000E+00 -0.11874098634E+04  0.11874098634E+04  0.50400001928E-02 0. -1.
    10030    2    1    2    0    0  0.00000000000E+00  0.00000000000E+00 -0.33177744944E+03  0.20430422774E+04  0.20159229825E+04 0.  0.
        1    1    3    3  502    0  0.38869236895E+03  0.92890140573E+03 -0.12003866459E+03  0.10140753721E+04  0.50400001928E-02 0.  1.
       -1    1    3    3    0  502 -0.38869236895E+03 -0.92890140573E+03 -0.21173878484E+03  0.10289669053E+04  0.50400001928E-02 0. -1.
</event>
<event>
 5   0  0.1834645E-04  0.1983380E+04  0.7818609E-02  0.8614431E-01
       -2   -1    0    0    0  501  0.00000000000E+00  0.00000000000E+00  0.62293941063E+03  0.62293941063E+03  0.25500000920E-02 0.  1.
        2   -1    0    0  501    0  0.00000000000E+00  0.00000000000E+00 -0.15787229588E+04  0.15787229588E+04  0.25500000920E-02 0. -1.
    10030    2    1    2    0    0  0.00000000000E+00  0.00000000000E+00 -0.95578354822E+03  0.22016623695E+04  0.19833796909E+04 0.  0.
        1    1    3    3  502    0  0.28580367565E+03 -0.31686897316E+03 -0.14715989682E+04  0.15322183952E+04  0.50400001928E-02 0. -1.
       -1    1    3    3    0  502 -0.28580367565E+03  0.31686897316E+03  0.51581542002E+03  0.66944397430E+03  0.50400001928E-02 0.  1.
</event>
<event>
 5   0  0.6531625E-05  0.1998168E+04  0.7818609E-02  0.8607478E-01
       -3   -1    0    0    0  501  0.00000000000E+00  0.00000000000E+00  0.65888063516E+03  0.65888064290E+03  0.10100000352E+00 0. -1.
        3   -1    0    0  501    0  0.00000000000E+00  0.00000000000E+00 -0.15149467798E+04  0.15149467832E+04  0.10100000352E+00 0.  1.
    10030    2    1    2    0    0  0.00000000000E+00  0.00000000000E+00 -0.85606614464E+03  0.21738274261E+04  0.19981682698E+04 0.  0.
        5    1    3    3  502    0 -0.26655505522E+03 -0.67072426365E+03 -0.11795769101E+04  0.13828761376E+04  0.46999998093E+01 0.  1.
       -5    1    3    3    0  502  0.26655505522E+03  0.67072426365E+03  0.32351076543E+03  0.79095128842E+03  0.46999998093E+01 0. -1.
</event>
<event>
 5   0  0.8881384E-05  0.2018776E+04  0.7818609E-02  0.8597892E-01
        1   -1    0    0  501    0  0.00000000000E+00  0.00000000000E+00  0.87460186410E+03  0.87460186412E+03  0.50400001928E-02 0.  1.
       -1   -1    0    0    0  501  0.00000000000E+00  0.00000000000E+00 -0.11649458255E+04  0.11649458255E+04  0.50400001928E-02 0. -1.
    10030    2    1    2    0    0  0.00000000000E+00  0.00000000000E+00 -0.29034396142E+03  0.20395476896E+04  0.20187756593E+04 0.  0.
        5    1    3    3  502    0  0.62283068881E+03  0.41155555816E+03  0.54118987369E+03  0.92206540644E+03  0.46999998093E+01 0.  1.
       -5    1    3    3    0  502 -0.62283068881E+03 -0.41155555816E+03 -0.83153383510E+03  0.11174822832E+04  0.46999998093E+01 0. -1.
</event>
<event>
 5   0  0.1812865E-04  0.1999399E+04  0.7818609E-02  0.8606902E-01
        2   -1    0    0  501    0  0.00000000000E+00  0.00000000000E+00  0.10855876354E+04  0.10855876354E+04  0.25500000920E-02 0. -1.
       -2   -1    0    0    0  501  0.00000000000E+00  0.00000000000E+00 -0.92060642478E+03  0.92060642479E+03  0.25500000920E-02 0.  1.
    10030    2    1    2    0    0  0.00000000000E+00  0.00000000000E+00  0.16498121057E+03  0.20061940601E+04  0.19993988614E+04 0.  0.
        3    1    3    3  502    0 -0.96469244677E+03 -0.25934835339E+03  0.43553356151E+02  0.99989498964E+03  0.10100000352E+00 0.  1.
       -3    1    3    3    0  502  0.96469244677E+03  0.25934835339E+03  0.12142785442E+03  0.10062990705E+04  0.10100000352E+00 0. -1.
</event>
<event>
 5   0  0.8861350E-05  0.2047936E+04  0.7818609E-02  0.8584531E-01
       -1   -1    0    0    0  501  0.00000000000E+00  0.00000000000E+00  0.57984795960E+03  0.57984795962E+03  0.50400001928E-02 0. -1.
        1   -1    0    0  501    0  0.00000000000E+00  0.00000000000E+00 -0.18082506809E+04  0.18082506809E+04  0.50400001928E-02 0.  1.
    10030    2    1    2    0    0  0.00000000000E+00  0.00000000000E+00 -0.12284027213E+04  0.23880986406E+04  0.20479360027E+04 0.  0.
        1    1    3    3  502    0 -0.46431997276E+02  0.64328452788E+02 -0.18046614203E+04  0.18064044182E+04  0.50400001928E-02 0.  1.
       -1    1    3    3    0  502  0.46431997276E+02 -0.64328452788E+02  0.57625869894E+03  0.58169422237E+03  0.50400001928E-02 0. -1.
</event>
<event>
 5   0  0.8881384E-05  0.2003627E+04  0.7818609E-02  0.8604927E-01
       -1   -1    0    0    0  501  0.00000000000E+00  0.00000000000E+00  0.62421119667E+03  0.62421119669E+03  0.50400001928E-02 0. -1.
        1   -1    0    0  501    0  0.00000000000E+00  0.00000000000E+00 -0.16078378334E+04  0.16078378335E+04  0.50400001928E-02 0.  1.
    10030    2    1    2    0    0  0.00000000000E+00  0.00000000000E+00 -0.98362663678E+03  0.22320490301E+04  0.20036270892E+04 0.  0.
        5    1    3    3  502    0  0.45362132554E+03 -0.48828235906E+03  0.34139654253E+03  0.74884287965E+03  0.46999998093E+01 0. -1.
       -5    1    3    3    0  502 -0.45362132554E+03  0.48828235906E+03 -0.13250231793E+04  0.14832061505E+04  0.46999998093E+01 0.  1.
</event>
<event>
 5   0  0.1807498E-04  0.1984364E+04  0.7818609E-02  0.8613966E-01
        2   -1    0    0  501    0  0.00000000000E+00  0.00000000000E+00  0.15204545569E+04  0.15204545569E+04  0.25500000920E-02 0.  1.
       -2   -1    0    0    0  501  0.00000000000E+00  0.00000000000E+00 -0.64745440687E+03  0.64745440687E+03  0.25500000920E-02 0. -1.
    10030    2    1    2    0    0  0.00000000000E+00  0.00000000000E+00  0.87300015000E+03  0.21679089637E+04  0.19843638812E+04 0.  0.
        5    1    3    3  502    0  0.97423236617E+03  0.18562572127E+03  0.46773287363E+03  0.10965316880E+04  0.46999998093E+01 0. -1.
       -5    1    3    3    0  502 -0.97423236617E+03 -0.18562572127E+03  0.40526727637E+03  0.10713772757E+04  0.46999998093E+01 0.  1.
</event>
<event>
 5   0  0.8861350E-05  0.2022244E+04  0.7818609E-02  0.8596291E-01
       -1   -1    0    0    0  501  0.00000000000E+00  0.00000000000E+00  0.12234346309E+04  0.12234346309E+04  0.50400001928E-02 0.  1.
        1   -1    0    0  501    0  0.00000000000E+00  0.00000000000E+00 -0.83565359609E+03  0.83565359611E+03  0.50400001928E-02 0. -1.
    10030    2    1    2    0    0  0.00000000000E+00  0.00000000000E+00  0.38778103481E+03  0.20590882270E+04  0.20222438517E+04 0.  0.
        1    1    3    3  502    0 -0.91731482863E+03  0.38904937131E+03  0.18882180350E+02  0.99658539268E+03  0.50400001928E-02 0.  1.
       -1    1    3    3    0  502  0.91731482863E+03 -0.38904937131E+03  0.36889885446E+03  0.10625028343E+04  0.50400001928E-02 0. -1.
</event>
<event>
 5   0  0.8881384E-05  0.2016977E+04  0.7818609E-02  0.8598724E-01
       -1   -1    0    0    0  501  0.00000000000E+00  0.00000000000E+00  0.62437499363E+03  0.62437499365E+03  0.50400001928E-02 0. -1.
        1   -1    0    0  501    0  0.00000000000E+00  0.00000000000E+00 -0.16289068355E+04  0.16289068355E+04  0.50400001928E-02 0.  1.
    10030    2    1    2    0    0  0.00000000000E+00  0.00000000000E+00 -0.10045318419E+04  0.22532818292E+04  0.20169766435E+04 0.  0.
        5    1    3    3  502    0  0.70984924678E+03  0.53646738832E+02  0.29574998538E+03  0.77087876453E+03  0.46999998093E+01 0. -1.
       -5    1    3    3    0  502 -0.70984924678E+03 -0.53646738832E+02 -0.13002818273E+04  0.14824030646E+04  0.46999998093E+01 0.  1.
</event>
<event>
 5   0  0.8765057E-05  0.2006055E+04  0.7818609E-02  0.8603795E-01
        1   -1    0    0  501    0  0.00000000000E+00  0.00000000000E+00  0.13579383096E+04  0.13579383096E+04  0.50400001928E-02 0. -1.
       -1   -1    0    0    0  501  0.00000000000E+00  0.00000000000E+00 -0.74087620831E+03  0.74087620833E+03  0.50400001928E-02 0.  1.
    10030    2    1    2    0    0  0.00000000000E+00  0.00000000000E+00  0.61706210130E+03  0.20988145180E+04  0.20060550202E+04 0.  0.
        3    1    3    3  502    0  0.30770888275E+03  0.94932263624E+03  0.20304252127E+03  0.10183930969E+04  0.10100000352E+00 0.  1.
       -3    1    3    3    0  502 -0.30770888275E+03 -0.94932263624E+03  0.41401958003E+03  0.10804214210E+04  0.10100000352E+00 0. -1.
</event>
<event>
 5   0  0.1893687E-04  0.1994054E+04  0.7818609E-02  0.8609406E-01
       -2   -1    0    0    0  501  0.00000000000E+00  0.00000000000E+00  0.11349281482E+04  0.11349281482E+04  0.25500000920E-02 0.  1.
        2   -1    0    0  501    0  0.00000000000E+00  0.00000000000E+00 -0.87588157613E+03  0.87588157613E+03  0.25500000920E-02 0. -1.
    10030    2    1    2    0    0  0.00000000000E+00  0.00000000000E+00  0.25904657208E+03  0.20108097243E+04  0.19940538160E+04 0.  0.
        4    1    3    3  502    0 -0.85153647954E+03 -0.15217768293E+03  0.62945994870E+03  0.10698101996E+04  0.12699999809E+01 0.  1.
       -4    1    3    3    0  502  0.85153647954E+03  0.15217768293E+03 -0.37041337662E+03  0.94099952478E+03  0.12699999809E+01 0. -1.
</event>
<event>
 5   0  0.8577422E-05  0.1990422E+04  0.7818609E-02  0.8611112E-01
        1   -1    0    0  501    0  0.00000000000E+00  0.00000000000E+00  0.11595097588E+04  0.11595097588E+04  0.50400001928E-02 0.  1.
       -1   -1    0    0    0  501  0.00000000000E+00  0.00000000000E+00 -0.85419280576E+03  0.85419280578E+03  0.50400001928E-02 0. -1.
    10030    2    1    2    0    0  0.00000000000E+00  0.00000000000E+00  0.30531695307E+03  0.20137025646E+04  0.19904219595E+04 0.  0.
        2    1    3    3  502    0  0.93749438954E+03  0.43232357133E+02  0.48771196288E+03  0.10576519871E+04  0.25500000920E-02 0.  1.
       -2    1    3    3    0  502 -0.93749438954E+03 -0.43232357133E+02 -0.18239500981E+03  0.95605057750E+03  0.25500000920E-02 0. -1.
</event>
<event>
 5   0  0.6531625E-05  0.1969282E+04  0.7818609E-02  0.8621119E-01
       -3   -1    0    0    0  501  0.00000000000E+00  0.00000000000E+00  0.15005296802E+04  0.15005296836E+04  0.10100000352E+00 0. -1.
        3   -1    0    0  501    0  0.00000000000E+00  0.00000000000E+00 -0.64611695904E+03  0.64611696694E+03  0.10100000352E+00 0.  1.
    10030    2    1    2    0    0  0.00000000000E+00  0.00000000000E+00  0.85441272113E+03  0.21466466505E+04  0.19692817838E+04 0.  0.
        3    1    3    3  502    0  0.91073908282E+03  0.69730474336E+02  0.26379737769E+02  0.91378548729E+03  0.10100000352E+00 0.  1.
       -3    1    3    3    0  502 -0.91073908282E+03 -0.69730474336E+02  0.82803298336E+03  0.12328611632E+04  0.10100000352E+00 0. -1.
</event>
<event>
 5   0  0.1834645E-04  0.2007634E+04  0.7818609E-02  0.8603060E-01
        2   -1    0    0  501    0  0.00000000000E+00  0.00000000000E+00  0.98998841269E+03  0.98998841270E+03  0.25500000920E-02 0. -1.
       -2   -1    0    0    0  501  0.00000000000E+00  0.00000000000E+00 -0.10178390406E+04  0.10178390406E+04  0.25500000920E-02 0.  1.
    10030    2    1    2    0    0  0.00000000000E+00  0.00000000000E+00 -0.27850627865E+02  0.20078274533E+04  0.20076342856E+04 0.  0.
        1    1    3    3  502    0 -0.42975621507E+03 -0.37806254664E+03  0.81079162455E+03  0.99247405610E+03  0.50400001928E-02 0. -1.
       -1    1    3    3    0  502  0.42975621507E+03  0.37806254664E+03 -0.83864225241E+03  0.10153533972E+04  0.50400001928E-02 0.  1.
</event>
<event>
 5   0  0.1893687E-04  0.1987727E+04  0.7818609E-02  0.8612380E-01
        2   -1    0    0  501    0  0.00000000000E+00  0.00000000000E+00  0.71842017887E+03  0.71842017887E+03  0.25500000920E-02 0.  1.
       -2   -1    0    0    0  501  0.00000000000E+00  0.00000000000E+00 -0.13749127011E+04  0.13749127011E+04  0.25500000920E-02 0. -1.
    10030    2    1    2    0    0  0.00000000000E+00  0.00000000000E+00 -0.65649252225E+03  0.20933328800E+04  0.19877273743E+04 0.  0.
        4    1    3    3  502    0 -0.24073389451E+03  0.74224497513E+03 -0.97648359346E+03  0.12499608923E+04  0.12699999809E+01 0. -1.
       -4    1    3    3    0  502  0.24073389451E+03 -0.74224497513E+03  0.31999107121E+03  0.84337198769E+03  0.12699999809E+01 0.  1.
</event>
<event>
 5   0  0.1893687E-04  0.1984580E+04  0.7818609E-02  0.8613864E-01
       -2   -1    0    0    0  501  0.00000000000E+00  0.00000000000E+00  0.11842761351E+04  0.11842761351E+04  0.25500000920E-02 0.  1.
        2   -1    0    0  501    0  0.00000000000E+00  0.00000000000E+00 -0.83142693350E+03  0.83142693351E+03  0.25500000920E-02 0. -1.
    10030    2    1    2    0    0  0.00000000000E+00  0.00000000000E+00  0.35284920155E+03  0.20157030686E+04  0.19845796284E+04 0.  0.
        4    1    3    3  502    0  0.29967499093E+03 -0.42782296283E+02  0.11362323518E+04  0.11758660617E+04  0.12699999809E+01 0.  1.
       -4    1    3    3    0  502 -0.29967499093E+03  0.42782296283E+02 -0.78338315022E+03  0.83983700681E+03  0.12699999809E+01 0. -1.
</event>
<event>
 5   0  0.1782172E-04  0.1977810E+04  0.7818609E-02  0.8617066E-01
        2   -1    0    0  501    0  0.00000000000E+00  0.00000000000E+00  0.16139466874E+04  0.16139466874E+04  0.25500000920E-02 0.  1.
       -2   -1    0    0    0  501  0.00000000000E+00  0.00000000000E+00 -0.60592633840E+03  0.60592633840E+03  0.25500000920E-02 0. -1.
    10030    2    1    2    0    0  0.00000000000E+00  0.00000000000E+00  0.10080203490E+04  0.22198730258E+04  0.19778097043E+04 0.  0.
        2    1    3    3  502    0 -0.14036721357E+03 -0.97853203811E+03  0.47421073299E+03  0.10964049086E+04  0.25500000920E-02 0. -1.
       -2    1    3    3    0  502  0.14036721357E+03  0.97853203811E+03  0.53380961597E+03  0.11234681172E+04  0.25500000920E-02 0.  1.
</event>
<event>
 5   0  0.1812865E-04  0.2028614E+04  0.7818609E-02  0.8593358E-01
       -2   -1    0    0    0  501  0.00000000000E+00  0.00000000000E+00  0.61895761541E+03  0.61895761541E+03  0.25500000920E-02 0. -1.
        2   -1    0    0  501    0  0.00000000000E+00  0.00000000000E+00 -0.16621797339E+04  0.16621797339E+04  0.25500000920E-02 0.  1.
    10030    2    1    2    0    0  0.00000000000E+00  0.00000000000E+00 -0.10432221185E+04  0.22811373493E+04  0.20286141126E+04 0.  0.
        3    1    3    3  502    0  0.43221899306E+03  0.49011830646E+03 -0.13939280375E+04  0.15395014116E+04  0.10100000352E+00 0.  1.
       -3    1    3    3    0  502 -0.43221899306E+03 -0.49011830646E+03  0.35070591902E+03  0.74163593773E+03  0.10100000352E+00 0. -1.
</event>
<event>
 5   0  0.8765057E-05  0.1987777E+04  0.7818609E-02  0.8612357E-01
       -1   -1    0    0    0  501  0.00000000000E+00  0.00000000000E+00  0.59154437989E+03  0.59154437991E+03  0.50400001928E-02 0. -1.
        1   -1    0    0  501    0  0.00000000000E+00  0.00000000000E+00 -0.16698904623E+04  0.16698904623E+04  0.50400001928E-02 0.  1.
    10030    2    1    2    0    0  0.00000000000E+00  0.00000000000E+00 -0.10783460824E+04  0.22614348422E+04  0.19877769674E+04 0.  0.
        3    1    3    3  502    0 -0.35070765176E+03 -0.74907682841E+03  0.87787928567E+02  0.83175638409E+03  0.10100000352E+00 0. -1.
       -3    1    3    3    0  502  0.35070765176E+03  0.74907682841E+03 -0.11661340109E+04  0.14296784581E+04  0.10100000352E+00 0.  1.
</event>
<event>
 5   0  0.8958919E-05  0.1975571E+04  0.7818609E-02  0.8618128E-01
        1   -1    0    0  501    0  0.00000000000E+00  0.00000000000E+00  0.83089439111E+03  0.83089439112E+03  0.50400001928E-02 0. -1.
       -1   -1    0    0    0  501  0.00000000000E+00  0.00000000000E+00 -0.11743005229E+04  0.11743005229E+04  0.50400001928E-02 0.  1.
    10030    2    1    2    0    0  0.00000000000E+00  0.00000000000E+00 -0.34340613183E+03  0.20051949141E+04  0.19755705181E+04 0.  0.
        4    1    3    3  502    0  0.84538899762E+02 -0.74134551488E+03  0.48528839220E+03  0.89008226278E+03  0.12699999809E+01 0. -1.
       -4    1    3    3    0  502 -0.84538899762E+02  0.74134551488E+03 -0.82869452403E+03  0.11151126513E+04  0.12699999809E+01 0.  1.
</event>
<event>
 5   0  0.1812865E-04  0.2042957E+04  0.7818609E-02  0.8586796E-01
        2   -1    0    0  501    0  0.00000000000E+00  0.00000000000E+00  0.68457968348E+03  0.68457968348E+03  0.25500000920E-02 0. -1.
       -2   -1    0    0    0  501  0.00000000000E+00  0.00000000000E+00 -0.15241732931E+04  0.15241732931E+04  0.25500000920E-02 0.  1.
    10030    2    1    2    0    0  0.00000000000E+00  0.00000000000E+00 -0.83959360958E+03  0.22087529765E+04  0.20429567499E+04 0.  0.
        3    1    3    3  502    0 -0.18601678680E+03  0.60123687575E+03  0.45006618667E+03  0.77372321169E+03  0.10100000352E+00 0. -1.
       -3    1    3    3    0  502  0.18601678680E+03 -0.60123687575E+03 -0.12896597962E+04  0.14350297648E+04  0.10100000352E+00 0.  1.
</event>
<event>
 5   0  0.1782172E-04  0.2008121E+04  0.7818609E-02  0.8602833E-01
        2   -1    0    0  501    0  0.00000000000E+00  0.00000000000E+00  0.24127896504E+04  0.24127896504E+04  0.25500000920E-02 0. -1.
       -2   -1    0    0    0  501  0.00000000000E+00  0.00000000000E+00 -0.41783064004E+03  0.41783064005E+03  0.25500000920E-02 0.  1.
    10030    2    1    2    0    0  0.00000000000E+00  0.00000000000E+00  0.19949590103E+04  0.28306202904E+04  0.20081209564E+04 0.  0.
        2    1    3    3  502    0  0.43658269898E+03  0.88631471497E+03  0.74540689453E+03  0.12376549056E+04  0.25500000920E-02 0.  1.
       -2    1    3    3    0  502 -0.43658269898E+03 -0.88631471497E+03  0.12495521158E+04  0.15929653848E+04  0.25500000920E-02 0. -1.
</event>
<event>
 5   0  0.8861350E-05  0.2004420E+04  0.7818609E-02  0.8604557E-01
        1   -1    0    0  501    0  0.00000000000E+00  0.00000000000E+00  0.14947248231E+04  0.14947248231E+04  0.50400001928E-02 0.  1.
       -1   -1    0    0    0  501  0.00000000000E+00  0.00000000000E+00 -0.67197979764E+03  0.67197979766E+03  0.50400001928E-02 0. -1.
    10030    2    1    2    0    0  0.00000000000E+00  0.00000000000E+00  0.82274502546E+03  0.21667046208E+04  0.20044200001E+04 0.  0.
        1    1    3    3  502    0 -0.92333108690E+03 -0.36561590936E+03  0.26550414447E+03  0.10279629079E+04  0.50400001928E-02 0. -1.
       -1    1    3    3    0  502  0.92333108690E+03  0.36561590936E+03  0.55724088099E+03  0.11387417129E+04  0.50400001928E-02 0.  1.
</event>
<event>
 5   0  0.1834645E-04  0.2038234E+04  0.7818609E-02  0.8588951E-01
        2   -1    0    0  501    0  0.00000000000E+00  0.00000000000E+00  0.10355808988E+04  0.10355808988E+04  0.25500000920E-02 0.  1.
       -2   -1    0    0    0  501  0.00000000000E+00  0.00000000000E+00 -0.10029149430E+04  0.10029149430E+04  0.25500000920E-02 0. -1.
    10030    2    1    2    0    0  0.00000000000E+00  0.00000000000E+00  0.32665955751E+02  0.20384958418E+04  0.20382340965E+04 0.  0.
        1    1    3    3  502    0  0.53467773036E+03 -0.46760695506E+02  0.88277714557E+03  0.10331322891E+04  0.50400001928E-02 0.  1.
       -1    1    3    3    0  502 -0.53467773036E+03  0.46760695506E+02 -0.85011118982E+03  0.10053635527E+04  0.50400001928E-02 0. -1.
</event>
<event>
 5   0  0.8577422E-05  0.1880414E+04  0.7818609E-02  0.8664668E-01
       -1   -1    0    0    0  501  0.00000000000E+00  0.00000000000E+00  0.10203873736E+04  0.10203873736E+04  0.50400001928E-02 0.  1.
        1   -1    0    0  501    0  0.00000000000E+00  0.00000000000E+00 -0.86632694700E+03  0.86632694701E+03  0.50400001928E-02 0. -1.
    10030    2    1    2    0    0  0.00000000000E+00  0.00000000000E+00  0.15406042658E+03  0.18867143206E+04  0.18804138674E+04 0.  0.
        2    1    3    3  502    0  0.79838558209E+03 -0.46037994363E+03 -0.10965730333E+03  0.92811311507E+03  0.25500000920E-02 0.  1.
       -2    1    3    3    0  502 -0.79838558209E+03  0.46037994363E+03  0.26371772991E+03  0.95860120554E+03  0.25500000920E-02 0. -1.
</event>
<event>
 5   0  0.1807498E-04  0.2008875E+04  0.7818609E-02  0.8602482E-01
        2   -1    0    0  501    0  0.00000000000E+00  0.00000000000E+00  0.13675601723E+04  0.13675601723E+04  0.25500000920E-02 0. -1.
       -2   -1    0    0    0  501  0.00000000000E+00  0.00000000000E+00 -0.73773360169E+03  0.73773360169E+03  0.25500000920E-02 0.  1.
    10030    2    1    2    0    0  0.00000000000E+00  0.00000000000E+00  0.62982657057E+03  0.21052937740E+04  0.20088753982E+04 0.  0.
        5    1    3    3  502    0 -0.66200038722E+02 -0.27615469845E+03  0.13246015409E+04  0.13547085276E+04  0.46999998093E+01 0. -1.
       -5    1    3    3    0  502  0.66200038722E+02  0.27615469845E+03 -0.69477497035E+03  0.75058524634E+03  0.46999998093E+01 0.  1.
</event>
<event>
 5   0  0.8577422E-05  0.1991238E+04  0.7818609E-02  0.8610728E-01
       -1   -1    0    0    0  501  0.00000000000E+00  0.00000000000E+00  0.11120308656E+04  0.11120308656E+04  0.50400001928E-02 0. -1.
        1   -1    0    0  501    0  0.00000000000E+00  0.00000000000E+00 -0.89139364202E+03  0.89139364203E+03  0.50400001928E-02 0.  1.
    10030    2    1    2    0    0  0.00000000000E+00  0.00000000000E+00  0.22063722361E+03  0.20034245077E+04  0.19912380504E+04 0.  0.
        2    1    3    3  502    0  0.29597240201E+03  0.71985342034E+03  0.73497951079E+03  0.10705061844E+04  0.25500000920E-02 0. -1.
       -2    1    3    3    0  502 -0.29597240201E+03 -0.71985342034E+03 -0.51434228718E+03  0.93291832328E+03  0.25500000920E-02 0.  1.
</event>
<event>
 5   0  0.8765057E-05  0.1988176E+04  0.7818609E-02  0.8612169E-01
       -1   -1    0    0    0  501  0.00000000000E+00  0.00000000000E+00  0.10004969970E+04  0.10004969970E+04  0.50400001928E-02 0. -1.
        1   -1    0    0  501    0  0.00000000000E+00  0.00000000000E+00 -0.98772037193E+03  0.98772037194E+03  0.50400001928E-02 0.  1.
    10030    2    1    2    0    0  0.00000000000E+00  0.00000000000E+00  0.12776625101E+02  0.19882173690E+04  0.19881763162E+04 0.  0.
        3    1    3    3  502    0  0.30282807962E+03 -0.16661546959E+03 -0.92569621809E+03  0.98811894977E+03  0.10100000352E+00 0.  1.
       -3    1    3    3    0  502 -0.30282807962E+03  0.16661546959E+03  0.93847284319E+03  0.10000984192E+04  0.10100000352E+00 0. -1.
</event>
<event>
 5   0  0.8881384E-05  0.2004770E+04  0.7818609E-02  0.8604394E-01
       -1   -1    0    0    0  501  0.00000000000E+00  0.00000000000E+00  0.58314837834E+03  0.58314837836E+03  0.50400001928E-02 0. -1.
        1   -1    0    0  501    0  0.00000000000E+00  0.00000000000E+00 -0.17230194294E+04  0.17230194294E+04  0.50400001928E-02 0.  1.
    10030    2    1    2    0    0  0.00000000000E+00  0.00000000000E+00 -0.11398710510E+04  0.23061678077E+04  0.20047702972E+04 0.  0.
        5    1    3    3  502    0  0.51892159186E+03 -0.65150080919E+03  0.71600610866E+02  0.83599142361E+03  0.46999998093E+01 0. -1.
       -5    1    3    3    0  502 -0.51892159186E+03  0.65150080919E+03 -0.12114716619E+04  0.14701763841E+04  0.46999998093E+01 0.  1.
</event>
<event>
 5   0  0.1834645E-04  0.2027831E+04  0.7818609E-02  0.8593718E-01
       -2   -1    0    0    0  501  0.00000000000E+00  0.00000000000E+00  0.85812495512E+03  0.85812495513E+03  0.25500000920E-02 0.  1.
        2   -1    0    0  501    0  0.00000000000E+00  0.00000000000E+00 -0.11979897348E+04  0.11979897348E+04  0.25500000920E-02 0. -1.
    10030    2    1    2    0    0  0.00000000000E+00  0.00000000000E+00 -0.33986477964E+03  0.20561146899E+04  0.20278312429E+04 0.  0.
        1    1    3    3  502    0 -0.35132847519E+03  0.65920451379E+03  0.52522658706E+03  0.91315127786E+03  0.50400001928E-02 0.  1.
       -1    1    3    3    0  502  0.35132847519E+03 -0.65920451379E+03 -0.86509136670E+03  0.11429634120E+04  0.50400001928E-02 0. -1.
</event>
<event>
 5   0  0.8765057E-05  0.2032507E+04  0.7818609E-02  0.8591572E-01
       -1   -1    0    0    0  501  0.00000000000E+00  0.00000000000E+00  0.58242926580E+03  0.58242926582E+03  0.50400001928E-02 0. -1.
        1   -1    0    0  501    0  0.00000000000E+00  0.00000000000E+00 -0.17732123789E+04  0.17732123789E+04  0.50400001928E-02 0.  1.
    10030    2    1    2    0    0  0.00000000000E+00  0.00000000000E+00 -0.11907831131E+04  0.23556416447E+04  0.20325066140E+04 0.  0.
        3    1    3    3  502    0 -0.48665093255E+03  0.81239606289E+03 -0.10227317075E+04  0.13938424046E+04  0.10100000352E+00 0.  1.
       -3    1    3    3    0  502  0.48665093255E+03 -0.81239606289E+03 -0.16805140557E+03  0.96179924010E+03  0.10100000352E+00 0. -1.
</event>
<event>
 5   0  0.1782172E-04  0.1988597E+04  0.7818609E-02  0.8611971E-01
        2   -1    0    0  501    0  0.00000000000E+00  0.00000000000E+00  0.96031974740E+03  0.96031974741E+03  0.25500000920E-02 0. -1.
       -2   -1    0    0    0  501  0.00000000000E+00  0.00000000000E+00 -0.10294794053E+04  0.10294794053E+04  0.25500000920E-02 0.  1.
    10030    2    1    2    0    0  0.00000000000E+00  0.00000000000E+00 -0.69159657879E+02  0.19897991527E+04  0.19885968947E+04 0.  0.
        2    1    3    3  502    0 -0.68763532241E+03  0.34124624860E+03 -0.66689388857E+03  0.10168769824E+04  0.25500000920E-02 0.  1.
       -2    1    3    3    0  502  0.68763532241E+03 -0.34124624860E+03  0.59773423069E+03  0.97292217025E+03  0.25500000920E-02 0. -1.
</event>
<event>
 5   0  0.8958919E-05  0.2012759E+04  0.7818609E-02  0.8600678E-01
       -1   -1    0    0    0  501  0.00000000000E+00  0.00000000000E+00  0.67444963748E+03  0.67444963750E+03  0.50400001928E-02 0.  1.
        1   -1    0    0  501    0  0.00000000000E+00  0.00000000000E+00 -0.15016687017E+04  0.15016687017E+04  0.50400001928E-02 0. -1.
    10030    2    1    2    0    0  0.00000000000E+00  0.00000000000E+00 -0.82721906420E+03  0.21761183392E+04  0.20127592121E+04 0.  0.
        4    1    3    3  502    0  0.36103265563E+03  0.79498682368E+03  0.12745730754E+03  0.88238064711E+03  0.12699999809E+01 0.  1.
       -4    1    3    3    0  502 -0.36103265563E+03 -0.79498682368E+03 -0.95467637174E+03  0.12937376921E+04  0.12699999809E+01 0. -1.
</event>
<event>
 5   0  0.8881384E-05  0.2005150E+04  0.7818609E-02  0.8604217E-01
       -1   -1    0    0    0  501  0.00000000000E+00  0.00000000000E+00  0.11047924316E+04  0.11047924316E+04  0.50400001928E-02 0. -1.
        1   -1    0    0  501    0  0.00000000000E+00  0.00000000000E+00 -0.90981482147E+03  0.90981482149E+03  0.50400001928E-02 0.  1.
    10030    2    1    2    0    0  0.00000000000E+00  0.00000000000E+00  0.19497761010E+03  0.20146072531E+04  0.20051498986E+04 0.  0.
        5    1    3    3  502    0  0.48558124688E+02  0.80463694376E+03  0.69640094203E+03  0.10652675086E+04  0.46999998093E+01 0. -1.
       -5    1    3    3    0  502 -0.48558124688E+02 -0.80463694376E+03 -0.50142333192E+03  0.94933974452E+03  0.46999998093E+01 0.  1.
</event>
<event>
 5   0  0.1807498E-04  0.1865348E+04  0.7818609E-02  0.8672300E-01
        2   -1    0    0  501    0  0.00000000000E+00  0.00000000000E+00  0.24404810504E+04  0.24404810504E+04  0.25500000920E-02 0.  1.
       -2   -1    0    0    0  501  0.00000000000E+00  0.00000000000E+00 -0.35643828970E+03  0.35643828971E+03  0.25500000920E-02 0. -1.
    10030    2    1    2    0    0  0.00000000000E+00  0.00000000000E+00  0.20840427607E+04  0.27969193401E+04  0.18653481087E+04 0.  0.
        5    1    3    3  502    0 -0.91072298240E+03  0.20109954067E+03  0.10438117437E+04  0.13997937070E+04  0.46999998093E+01 0.  1.
       -5    1    3    3    0  502  0.91072298240E+03 -0.20109954067E+03  0.10402310170E+04  0.13971256331E+04  0.46999998093E+01 0. -1.
</event>
<event>
 5   0  0.8881384E-05  0.2008353E+04  0.7818609E-02  0.8602725E-01
       -1   -1    0    0    0  501  0.00000000000E+00  0.00000000000E+00  0.12710158059E+04  0.12710158059E+04  0.50400001928E-02 0. -1.
        1   -1    0    0  501    0  0.00000000000E+00  0.00000000000E+00 -0.79335807343E+03  0.79335807345E+03  0.50400001928E-02 0.  1.
    10030    2    1    2    0    0  0.00000000000E+00  0.00000000000E+00  0.47765773251E+03  0.20643738794E+04  0.20083532071E+04 0.  0.
        5    1    3    3  502    0 -0.99844729146E+03 -0.10595465454E+03  0.25425338818E+03  0.10357558873E+04  0.46999998093E+01 0. -1.
       -5    1    3    3    0  502  0.99844729146E+03  0.10595465454E+03  0.22340434433E+03  0.10286179921E+04  0.46999998093E+01 0.  1.
</event>
<event>
 5   0  0.8577422E-05  0.2127137E+04  0.7818609E-02  0.8549383E-01
       -1   -1    0    0    0  501  0.00000000000E+00  0.00000000000E+00  0.57240157861E+03  0.57240157863E+03  0.50400001928E-02 0.  1.
        1   -1    0    0  501    0  0.00000000000E+00  0.00000000000E+00 -0.19761958126E+04  0.19761958126E+04  0.50400001928E-02 0. -1.
    10030    2    1    2    0    0  0.00000000000E+00  0.00000000000E+00 -0.14037942339E+04  0.25485973912E+04  0.21271366696E+04 0.  0.
        2    1    3    3  502    0 -0.64581438981E+02 -0.61813572466E+03  0.33219497966E+03  0.70470989838E+03  0.25500000920E-02 0.  1.
       -2    1    3    3    0  502  0.64581438981E+02  0.61813572466E+03 -0.17359892136E+04  0.18438874928E+04  0.25500000920E-02 0. -1.
</event>
<event>
 5   0  0.1834645E-04  0.2321660E+04  0.7818609E-02  0.8469429E-01
        2   -1    0    0  501    0  0.00000000000E+00  0.00000000000E+00  0.13920389875E+04  0.13920389876E+04  0.25500000920E-02 0. -1.
       -2   -1    0    0    0  501  0.00000000000E+00  0.00000000000E+00 -0.96802359160E+03  0.96802359160E+03  0.25500000920E-02 0.  1.
    10030    2    1    2    0    0  0.00000000000E+00  0.00000000000E+00  0.42401539595E+03  0.23600625791E+04  0.23216602511E+04 0.  0.
        1    1    3    3  502    0 -0.96185045751E+03 -0.52763582327E+03 -0.17370322226E+03  0.11107333947E+04  0.50400001928E-02 0.  1.
       -1    1    3    3    0  502  0.96185045751E+03  0.52763582327E+03  0.59771861821E+03  0.12493291845E+04  0.50400001928E-02 0. -1.
</event>
<event>
 5   0  0.8958919E-05  0.1980470E+04  0.7818609E-02  0.8615806E-01
        1   -1    0    0  501    0  0.00000000000E+00  0.00000000000E+00  0.77303911967E+03  0.77303911969E+03  0.50400001928E-02 0. -1.
       -1   -1    0    0    0  501  0.00000000000E+00  0.00000000000E+00 -0.12684556274E+04  0.12684556274E+04  0.50400001928E-02 0.  1.
    10030    2    1    2    0    0  0.00000000000E+00  0.00000000000E+00 -0.49541650768E+03  0.20414947470E+04  0.19804704709E+04 0.  0.
        4    1    3    3  502    0 -0.95716566848E+03 -0.22254573982E+03 -0.37341456143E+03  0.10512529528E+04  0.12699999809E+01 0.  1.
       -4    1    3    3    0  502  0.95716566848E+03  0.22254573982E+03 -0.12200194625E+03  0.99024179422E+03  0.12699999809E+01 0. -1.
</event>
<event>
 5   0  0.1834645E-04  0.1976843E+04  0.7818609E-02  0.8617524E-01
       -2   -1    0    0    0  501  0.00000000000E+00  0.00000000000E+00  0.47897178440E+03  0.47897178441E+03  0.25500000920E-02 0. -1.
        2   -1    0    0  501    0  0.00000000000E+00  0.00000000000E+00 -0.20397392092E+04  0.20397392092E+04  0.25500000920E-02 0.  1.
    10030    2    1    2    0    0  0.00000000000E+00  0.00000000000E+00 -0.15607674248E+04  0.25187109936E+04  0.19768434726E+04 0.  0.
        1    1    3    3  502    0 -0.26716768800E+02  0.98805934583E+03 -0.77838044331E+03  0.12581141328E+04  0.50400001928E-02 0.  1.
       -1    1    3    3    0  502  0.26716768800E+02 -0.98805934583E+03 -0.78238698148E+03  0.12605968608E+04  0.50400001928E-02 0. -1.
</event>
<event>
 5   0  0.1834645E-04  0.1611213E+04  0.7818609E-02  0.8813689E-01
       -2   -1    0    0    0  501  0.00000000000E+00  0.00000000000E+00  0.69549391378E+03  0.69549391378E+03  0.25500000920E-02 0.  1.
        2   -1    0    0  501    0  0.00000000000E+00  0.00000000000E+00 -0.93315194012E+03  0.93315194012E+03  0.25500000920E-02 0. -1.
    10030    2    1    2    0    0  0.00000000000E+00  0.00000000000E+00 -0.23765802635E+03  0.16286458539E+04  0.16112125806E+04 0.  0.
        1    1    3    3  502    0  0.40819652839E+03 -0.61326542068E+03  0.21070854952E+03  0.76623558705E+03  0.50400001928E-02 0.  1.
       -1    1    3    3    0  502 -0.40819652839E+03  0.61326542068E+03 -0.44836657587E+03  0.86241026685E+03  0.50400001928E-02 0. -1.
</event>
<event>
 5   0  0.8958919E-05  0.1995598E+04  0.7818609E-02  0.8608681E-01
        1   -1    0    0  501    0  0.00000000000E+00  0.00000000000E+00  0.12225479149E+04  0.12225479149E+04  0.50400001928E-02 0. -1.
       -1   -1    0    0    0  501  0.00000000000E+00  0.00000000000E+00 -0.81436730981E+03  0.81436730982E+03  0.50400001928E-02 0.  1.
    10030    2    1    2    0    0  0.00000000000E+00  0.00000000000E+00  0.40818060506E+03  0.20369152247E+04  0.19955982126E+04 0.  0.
        4    1    3    3  502    0  0.40174857098E+03 -0.84641336575E+03 -0.14621192074E+03  0.94826000583E+03  0.12699999809E+01 0.  1.
       -4    1    3    3    0  502 -0.40174857098E+03  0.84641336575E+03  0.55439252579E+03  0.10886552189E+04  0.12699999809E+01 0. -1.
</event>
<event>
 5   0  0.8765057E-05  0.2001188E+04  0.7818609E-02  0.8606066E-01
       -1   -1    0    0    0  501  0.00000000000E+00  0.00000000000E+00  0.11430589377E+04  0.11430589378E+04  0.50400001928E-02 0.  1.
        1   -1    0    0  501    0  0.00000000000E+00  0.00000000000E+00 -0.87588478624E+03  0.87588478625E+03  0.50400001928E-02 0. -1.
    10030    2    1    2    0    0  0.00000000000E+00  0.00000000000E+00  0.26717415151E+03  0.20189437240E+04  0.20011875808E+04 0.  0.
        3    1    3    3  502    0 -0.29196693717E+03 -0.64672205852E+03  0.84532078287E+03  0.11036581670E+04  0.10100000352E+00 0.  1.
       -3    1    3    3    0  502  0.29196693717E+03  0.64672205852E+03 -0.57814663136E+03  0.91528555704E+03  0.10100000352E+00 0. -1.
</event>
<event>
 5   0  0.1893687E-04  0.1999508E+04  0.7818609E-02  0.8606851E-01
        2   -1    0    0  501    0  0.00000000000E+00  0.00000000000E+00  0.14542179620E+04  0.14542179620E+04  0.25500000920E-02 0. -1.
       -2   -1    0    0    0  501  0.00000000000E+00  0.00000000000E+00 -0.68731638681E+03  0.68731638682E+03  0.25500000920E-02 0.  1.
    10030    2    1    2    0    0  0.00000000000E+00  0.00000000000E+00  0.76690157516E+03  0.21415343488E+04  0.19995077747E+04 0.  0.
        4    1    3    3  502    0  0.77537972140E+03 -0.60688715340E+03  0.56889843694E+03  0.11371775472E+04  0.12699999809E+01 0. -1.
       -4    1    3    3    0  502 -0.77537972140E+03  0.60688715340E+03  0.19800313822E+03  0.10043568016E+04  0.12699999809E+01 0.  1.
</event>
<event>
 5   0  0.8958919E-05  0.1963085E+04  0.7818609E-02  0.8624077E-01
        1   -1    0    0  501    0  0.00000000000E+00  0.00000000000E+00  0.99786398591E+03  0.99786398592E+03  0.50400001928E-02 0.  1.
       -1   -1    0    0    0  501  0.00000000000E+00  0.00000000000E+00 -0.96548843053E+03  0.96548843054E+03  0.50400001928E-02 0. -1.
    10030    2    1    2    0    0  0.00000000000E+00  0.00000000000E+00  0.32375555385E+02  0.19633524165E+04  0.19630854629E+04 0.  0.
        4    1    3    3  502    0 -0.63502118961E+03  0.66541593163E+03  0.35886280994E+03  0.98732689753E+03  0.12699999809E+01 0.  1.
       -4    1    3    3    0  502  0.63502118961E+03 -0.66541593163E+03 -0.32648725455E+03  0.97602551894E+03  0.12699999809E+01 0. -1.
</event>
<event>
 5   0  0.8861350E-05  0.2006522E+04  0.7818609E-02  0.8603577E-01
        1   -1    0    0  501    0  0.00000000000E+00  0.00000000000E+00  0.61003746208E+03  0.61003746210E+03  0.50400001928E-02 0.  1.
       -1   -1    0    0    0  501  0.00000000000E+00  0.00000000000E+00 -0.16499529216E+04  0.16499529216E+04  0.50400001928E-02 0. -1.
    10030    2    1    2    0    0  0.00000000000E+00  0.00000000000E+00 -0.10399154596E+04  0.22599903837E+04  0.20065224573E+04 0.  0.
        1    1    3    3  502    0 -0.27428187718E+03  0.74713578899E+02 -0.16036413015E+04  0.16286430214E+04  0.50400001928E-02 0. -1.
       -1    1    3    3    0  502  0.27428187718E+03 -0.74713578899E+02  0.56372584199E+03  0.63134736237E+03  0.50400001928E-02 0.  1.
</event>
<event>
 5   0  0.8881384E-05  0.1977187E+04  0.7818609E-02  0.8617361E-01
        1   -1    0    0  501    0  0.00000000000E+00  0.00000000000E+00  0.12171730497E+04  0.12171730497E+04  0.50400001928E-02 0.  1.
       -1   -1    0    0    0  501  0.00000000000E+00  0.00000000000E+00 -0.80294020667E+03  0.80294020669E+03  0.50400001928E-02 0. -1.
    10030    2    1    2    0    0  0.00000000000E+00  0.00000000000E+00  0.41423284303E+03  0.20201132564E+04  0.19771870727E+04 0.  0.
        5    1    3    3  502    0  0.56008034358E+03  0.16121718692E+03  0.10229600355E+04  0.11773488424E+04  0.46999998093E+01 0.  1.
       -5    1    3    3    0  502 -0.56008034358E+03 -0.16121718692E+03 -0.60872719244E+03  0.84276441396E+03  0.46999998093E+01 0. -1.
</event>
<event>
 5   0  0.1893687E-04  0.1808708E+04  0.7818609E-02  0.8701682E-01
       -2   -1    0    0    0  501  0.00000000000E+00  0.00000000000E+00  0.42449683187E+03  0.42449683188E+03  0.25500000920E-02 0. -1.
        2   -1    0    0  501    0  0.00000000000E+00  0.00000000000E+00 -0.19266483955E+04  0.19266483955E+04  0.25500000920E-02 0.  1.
    10030    2    1    2    0    0  0.00000000000E+00  0.00000000000E+00 -0.15021515636E+04  0.23511452274E+04  0.18087079809E+04 0.  0.
        4    1    3    3  502    0 -0.55195284468E+03 -0.24307207517E+03  0.12490710613E+03  0.61590532920E+03  0.12699999809E+01 0. -1.
       -4    1    3    3    0  502  0.55195284468E+03  0.24307207517E+03 -0.16270586698E+04  0.17352398982E+04  0.12699999809E+01 0.  1.
</event>
<event>
 5   0  0.1782172E-04  0.2005206E+04  0.7818609E-02  0.8604190E-01
        2   -1    0    0  501    0  0.00000000000E+00  0.00000000000E+00  0.14281625647E+04  0.14281625647E+04  0.25500000920E-02 0. -1.
       -2   -1    0    0    0  501  0.00000000000E+00  0.00000000000E+00 -0.70385072381E+03  0.70385072381E+03  0.25500000920E-02 0.  1.
    10030    2    1    2    0    0  0.00000000000E+00  0.00000000000E+00  0.72431184088E+03  0.21320132885E+04  0.20052064780E+04 0.  0.
        2    1    3    3  502    0 -0.60414766776E+03  0.33402858542E+02 -0.48783888211E+03  0.77723672734E+03  0.25500000920E-02 0.  1.
       -2    1    3    3    0  502  0.60414766776E+03 -0.33402858542E+02  0.12121507230E+04  0.13547765612E+04  0.25500000920E-02 0. -1.
</event>
<event>
 5   0  0.8881384E-05  0.1941146E+04  0.7818609E-02  0.8634642E-01
       -1   -1    0    0    0  501  0.00000000000E+00  0.00000000000E+00  0.83601472991E+03  0.83601472993E+03  0.50400001928E-02 0.  1.
        1   -1    0    0  501    0  0.00000000000E+00  0.00000000000E+00 -0.11267891711E+04  0.11267891711E+04  0.50400001928E-02 0. -1.
    10030    2    1    2    0    0  0.00000000000E+00  0.00000000000E+00 -0.29077444116E+03  0.19628039010E+04  0.19411464082E+04 0.  0.
        5    1    3    3  502    0 -0.95695278261E+03 -0.66157391789E+02  0.40959481910E+01  0.95925715813E+03  0.46999998093E+01 0.  1.
       -5    1    3    3    0  502  0.95695278261E+03  0.66157391789E+02 -0.29487038935E+03  0.10035467429E+04  0.46999998093E+01 0. -1.
</event>
<event>
 5   0  0.8861350E-05  0.2009672E+04  0.7818609E-02  0.8602112E-01
       -1   -1    0    0    0  501  0.00000000000E+00  0.00000000000E+00  0.90904190279E+03  0.90904190280E+03  0.50400001928E-02 0. -1.
        1   -1    0    0  501    0  0.00000000000E+00  0.00000000000E+00 -0.11107248900E+04  0.11107248900E+04  0.50400001928E-02 0.  1.
    10030    2    1    2    0    0  0.00000000000E+00  0.00000000000E+00 -0.20168298721E+03  0.20197667928E+04  0.20096720802E+04 0.  0.
        1    1    3    3  502    0  0.29284587519E+03  0.75596553299E+03  0.49581800198E+03  0.95030420645E+03  0.50400001928E-02 0. -1.
       -1    1    3    3    0  502 -0.29284587519E+03 -0.75596553299E+03 -0.69750098919E+03  0.10694625864E+04  0.50400001928E-02 0.  1.
</event>
<event>
 5   0  0.1812865E-04  0.1971522E+04  0.7818609E-02  0.8620052E-01
        2   -1    0    0  501    0  0.00000000000E+00  0.00000000000E+00  0.62035419925E+03  0.62035419926E+03  0.25500000920E-02 0.  1.
       -2   -1    0    0    0  501  0.00000000000E+00  0.00000000000E+00 -0.15664024894E+04  0.15664024894E+04  0.25500000920E-02 0. -1.
    10030    2    1    2    0    0  0.00000000000E+00  0.00000000000E+00 -0.94604829014E+03  0.21867566887E+04  0.19715216073E+04 0.  0.
        3    1    3    3  502    0  0.58111031743E+03  0.22162833983E+03  0.37526846597E+03  0.72638471473E+03  0.10100000352E+00 0.  1.
       -3    1    3    3    0  502 -0.58111031743E+03 -0.22162833983E+03 -0.13213167561E+04  0.14603719739E+04  0.10100000352E+00 0. -1.
</event>
<event>
 5   0  0.1893687E-04  0.2019415E+04  0.7818609E-02  0.8597597E-01
        2   -1    0    0  501    0  0.00000000000E+00  0.00000000000E+00  0.96704401003E+03  0.96704401004E+03  0.25500000920E-02 0. -1.
       -2   -1    0    0    0  501  0.00000000000E+00  0.00000000000E+00 -0.10542529598E+04  0.10542529598E+04  0.25500000920E-02 0.  1.
    10030    2    1    2    0    0  0.00000000000E+00  0.00000000000E+00 -0.87208949751E+02  0.20212969698E+04  0.20194147764E+04 0.  0.
        4    1    3    3  502    0 -0.29996165323E+03 -0.17308698382E+03  0.90573685992E+03  0.96968910982E+03  0.12699999809E+01 0. -1.
       -4    1    3    3    0  502  0.29996165323E+03  0.17308698382E+03 -0.99294580968E+03  0.10516078600E+04  0.12699999809E+01 0.  1.
</event>
<event>
 5   0  0.1893687E-04  0.1946654E+04  0.7818609E-02  0.8631976E-01
       -2   -1    0    0    0  501  0.00000000000E+00  0.00000000000E+00  0.10790557008E+04  0.10790557008E+04  0.25500000920E-02 0. -1.
        2   -1    0    0  501    0  0.00000000000E+00  0.00000000000E+00 -0.87795818608E+03  0.87795818609E+03  0.25500000920E-02 0.  1.
    10030    2    1    2    0    0  0.00000000000E+00  0.00000000000E+00  0.20109751470E+03  0.19570138869E+04  0.19466543460E+04 0.  0.
        4    1    3    3  502    0  0.34431374497E+03  0.24985251755E+03 -0.77954477059E+03  0.88807088554E+03  0.12699999809E+01 0.  1.
       -4    1    3    3    0  502 -0.34431374497E+03 -0.24985251755E+03  0.98064228528E+03  0.10689430013E+04  0.12699999809E+01 0. -1.
</event>
<event>
 5   0  0.8765057E-05  0.2006325E+04  0.7818609E-02  0.8603669E-01
       -1   -1    0    0    0  501  0.00000000000E+00  0.00000000000E+00  0.68908544503E+03  0.68908544505E+03  0.50400001928E-02 0.  1.
        1   -1    0    0  501    0  0.00000000000E+00  0.00000000000E+00 -0.14603925306E+04  0.14603925306E+04  0.50400001928E-02 0. -1.
    10030    2    1    2    0    0  0.00000000000E+00  0.00000000000E+00 -0.77130708560E+03  0.21494779757E+04  0.20063252348E+04 0.  0.
        3    1    3    3  502    0  0.66490885977E+03  0.48321666071E+03  0.23047381147E+03  0.85365117054E+03  0.10100000352E+00 0.  1.
       -3    1    3    3    0  502 -0.66490885977E+03 -0.48321666071E+03 -0.10017808971E+04  0.12958268051E+04  0.10100000352E+00 0. -1.
</event>
<event>
 5   0  0.8765057E-05  0.1934182E+04  0.7818609E-02  0.8638026E-01
        1   -1    0    0  501    0  0.00000000000E+00  0.00000000000E+00  0.75394495247E+03  0.75394495249E+03  0.50400001928E-02 0. -1.
       -1   -1    0    0    0  501  0.00000000000E+00  0.00000000000E+00 -0.12404950721E+04  0.12404950721E+04  0.50400001928E-02 0.  1.
    10030    2    1    2    0    0  0.00000000000E+00  0.00000000000E+00 -0.48655011964E+03  0.19944400246E+04  0.19341819958E+04 0.  0.
        3    1    3    3  502    0 -0.77583190402E+03  0.67262190859E+02 -0.83457315953E+03  0.11414691036E+04  0.10100000352E+00 0.  1.
       -3    1    3    3    0  502  0.77583190402E+03 -0.67262190859E+02  0.34802303989E+03  0.85297092103E+03  0.10100000352E+00 0. -1.
</event>
<event>
 5   0  0.8861350E-05  0.2045708E+04  0.7818609E-02  0.8585544E-01
        1   -1    0    0  501    0  0.00000000000E+00  0.00000000000E+00  0.10589862654E+04  0.10589862654E+04  0.50400001928E-02 0.  1.
       -1   -1    0    0    0  501  0.00000000000E+00  0.00000000000E+00 -0.98795443428E+03  0.98795443430E+03  0.50400001928E-02 0. -1.
    10030    2    1    2    0    0  0.00000000000E+00  0.00000000000E+00  0.71031831094E+02  0.20469406997E+04  0.20457078743E+04 0.  0.
        1    1    3    3  502    0 -0.42893025010E+02  0.82852847756E+03 -0.56311791575E+03  0.10026968818E+04  0.50400001928E-02 0. -1.
       -1    1    3    3    0  502  0.42893025010E+02 -0.82852847756E+03  0.63414974685E+03  0.10442438179E+04  0.50400001928E-02 0.  1.
</event>
<event>
 5   0  0.8577422E-05  0.2014536E+04  0.7818609E-02  0.8599855E-01
        1   -1    0    0  501    0  0.00000000000E+00  0.00000000000E+00  0.15081175532E+04  0.15081175532E+04  0.50400001928E-02 0. -1.
       -1   -1    0    0    0  501  0.00000000000E+00  0.00000000000E+00 -0.67275164038E+03  0.67275164040E+03  0.50400001928E-02 0.  1.
    10030    2    1    2    0    0  0.00000000000E+00  0.00000000000E+00  0.83536591280E+03  0.21808691936E+04  0.20145357359E+04 0.  0.
        2    1    3    3  502    0  0.57834123378E+03 -0.71059243051E+03 -0.35404970383E+02  0.91688259714E+03  0.25500000920E-02 0.  1.
       -2    1    3    3    0  502 -0.57834123378E+03  0.71059243051E+03  0.87077088318E+03  0.12639865964E+04  0.25500000920E-02 0. -1.
</event>
<event>
 5   0  0.1812865E-04  0.1814439E+04  0.7818609E-02  0.8698658E-01
       -2   -1    0    0    0  501  0.00000000000E+00  0.00000000000E+00  0.74780924771E+03  0.74780924771E+03  0.25500000920E-02 0. -1.
        2   -1    0    0  501    0  0.00000000000E+00  0.00000000000E+00 -0.11006111701E+04  0.11006111701E+04  0.25500000920E-02 0.  1.
    10030    2    1    2    0    0  0.00000000000E+00  0.00000000000E+00 -0.35280192241E+03  0.18484204178E+04  0.18144389889E+04 0.  0.
        3    1    3    3  502    0  0.17349787949E+03  0.47308941500E+03 -0.94493821692E+03  0.10708983858E+04  0.10100000352E+00 0.  1.
       -3    1    3    3    0  502 -0.17349787949E+03 -0.47308941500E+03  0.59213629451E+03  0.77752203200E+03  0.10100000352E+00 0. -1.
</event>
<event>
 5   0  0.1812865E-04  0.2000562E+04  0.7818609E-02  0.8606358E-01
        2   -1    0    0  501    0  0.00000000000E+00  0.00000000000E+00  0.15840534753E+04  0.15840534753E+04  0.25500000920E-02 0. -1.
       -2   -1    0    0    0  501  0.00000000000E+00  0.00000000000E+00 -0.63164634004E+03  0.63164634005E+03  0.25500000920E-02 0.  1.
    10030    2    1    2    0    0  0.00000000000E+00  0.00000000000E+00  0.95240713530E+03  0.22156998154E+04  0.20005615013E+04 0.  0.
        3    1    3    3  502    0 -0.88758988833E+03  0.39383446784E+03  0.21030154031E+03  0.99355329298E+03  0.10100000352E+00 0.  1.
       -3    1    3    3    0  502  0.88758988833E+03 -0.39383446784E+03  0.74210559498E+03  0.12221465224E+04  0.10100000352E+00 0. -1.
</event>
<event>
 5   0  0.8765057E-05  0.2025002E+04  0.7818609E-02  0.8595020E-01
        1   -1    0    0  501    0  0.00000000000E+00  0.00000000000E+00  0.58151559162E+03  0.58151559164E+03  0.50400001928E-02 0.  1.
       -1   -1    0    0    0  501  0.00000000000E+00  0.00000000000E+00 -0.17629082280E+04  0.17629082280E+04  0.50400001928E-02 0. -1.
    10030    2    1    2    0    0  0.00000000000E+00  0.00000000000E+00 -0.11813926364E+04  0.23444238196E+04  0.20250023419E+04 0.  0.
        3    1    3    3  502    0 -0.42325149859E+03  0.48716262317E+03 -0.14939473160E+04  0.16273745253E+04  0.10100000352E+00 0. -1.
       -3    1    3    3    0  502  0.42325149859E+03 -0.48716262317E+03  0.31255467965E+03  0.71704929429E+03  0.10100000352E+00 0.  1.
</event>
<event>
 5   0  0.1782172E-04  0.2019413E+04  0.7818609E-02  0.8597598E-01
        2   -1    0    0  501    0  0.00000000000E+00  0.00000000000E+00  0.10161571981E+04  0.10161571981E+04  0.25500000920E-02 0. -1.
       -2   -1    0    0    0  501  0.00000000000E+00  0.00000000000E+00 -0.10032965580E+04  0.10032965580E+04  0.25500000920E-02 0.  1.
    10030    2    1    2    0    0  0.00000000000E+00  0.00000000000E+00  0.12860640086E+02  0.20194537561E+04  0.20194128050E+04 0.  0.
        2    1    3    3  502    0 -0.98498747505E+03  0.20423749233E+03  0.93574154575E+02  0.10102818427E+04  0.25500000920E-02 0. -1.
       -2    1    3    3    0  502  0.98498747505E+03 -0.20423749233E+03 -0.80713514490E+02  0.10091719134E+04  0.25500000920E-02 0.  1.
</event>
<event>
 5   0  0.1834645E-04  0.1996304E+04  0.7818609E-02  0.8608351E-01
        2   -1    0    0  501    0  0.00000000000E+00  0.00000000000E+00  0.77349795627E+03  0.77349795628E+03  0.25500000920E-02 0.  1.
       -2   -1    0    0    0  501  0.00000000000E+00  0.00000000000E+00 -0.12880540203E+04  0.12880540203E+04  0.25500000920E-02 0. -1.
    10030    2    1    2    0    0  0.00000000000E+00  0.00000000000E+00 -0.51455606406E+03  0.20615519766E+04  0.19963037367E+04 0.  0.
        1    1    3    3  502    0 -0.65348667344E+03  0.35418167313E+03 -0.94524875978E+03  0.12024910427E+04  0.50400001928E-02 0. -1.
       -1    1    3    3    0  502  0.65348667344E+03 -0.35418167313E+03  0.43069269572E+03  0.85906093388E+03  0.50400001928E-02 0.  1.
</event>
<event>
 5   0  0.1893687E-04  0.2000227E+04  0.7818609E-02  0.8606515E-01
        2   -1    0    0  501    0  0.00000000000E+00  0.00000000000E+00  0.16230004095E+04  0.16230004095E+04  0.25500000920E-02 0.  1.
       -2   -1    0    0    0  501  0.00000000000E+00  0.00000000000E+00 -0.61628237878E+03  0.61628237878E+03  0.25500000920E-02 0. -1.
    10030    2    1    2    0    0  0.00000000000E+00  0.00000000000E+00  0.10067180307E+04  0.22392827883E+04  0.20002265403E+04 0.  0.
        4    1    3    3  502    0 -0.66785062315E+03 -0.43312743596E+03 -0.17448012728E+03  0.81490414059E+03  0.12699999809E+01 0. -1.
       -4    1    3    3    0  502  0.66785062315E+03  0.43312743596E+03  0.11811981580E+04  0.14243786477E+04  0.12699999809E+01 0.  1.
</event>
<event>
 5   0  0.8881384E-05  0.1981234E+04  0.7818609E-02  0.8615445E-01
       -1   -1    0    0    0  501  0.00000000000E+00  0.00000000000E+00  0.77668541608E+03  0.77668541609E+03  0.50400001928E-02 0. -1.
        1   -1    0    0  501    0  0.00000000000E+00  0.00000000000E+00 -0.12634748125E+04  0.12634748125E+04  0.50400001928E-02 0.  1.
    10030    2    1    2    0    0  0.00000000000E+00  0.00000000000E+00 -0.48678939638E+03  0.20401602286E+04  0.19812344237E+04 0.  0.
        5    1    3    3  502    0 -0.13893496618E+03 -0.24020554226E+03  0.73583454708E+03  0.78643257692E+03  0.46999998093E+01 0. -1.
       -5    1    3    3    0  502  0.13893496618E+03  0.24020554226E+03 -0.12226239435E+04  0.12537276516E+04  0.46999998093E+01 0.  1.
</event>
<event>
 5   0  0.1834645E-04  0.1977306E+04  0.7818609E-02  0.8617305E-01
       -2   -1    0    0    0  501  0.00000000000E+00  0.00000000000E+00  0.62706104468E+03  0.62706104469E+03  0.25500000920E-02 0.  1.
        2   -1    0    0  501    0  0.00000000000E+00  0.00000000000E+00 -0.15587547522E+04  0.15587547522E+04  0.25500000920E-02 0. -1.
    10030    2    1    2    0    0  0.00000000000E+00  0.00000000000E+00 -0.93169370749E+03  0.21858157969E+04  0.19773056246E+04 0.  0.
        1    1    3    3  502    0 -0.52466697414E+03 -0.83752972156E+03 -0.49515519080E+03  0.11054004393E+04  0.50400001928E-02 0. -1.
       -1    1    3    3    0  502  0.52466697414E+03  0.83752972156E+03 -0.43653851670E+03  0.10804153575E+04  0.50400001928E-02 0.  1.
</event>
<event>
 5   0  0.1812865E-04  0.2018445E+04  0.7818609E-02  0.8598045E-01
        2   -1    0    0  501    0  0.00000000000E+00  0.00000000000E+00  0.19406071622E+04  0.19406071622E+04  0.25500000920E-02 0.  1.
       -2   -1    0    0    0  501  0.00000000000E+00  0.00000000000E+00 -0.52485097966E+03  0.52485097967E+03  0.25500000920E-02 0. -1.
    10030    2    1    2    0    0  0.00000000000E+00  0.00000000000E+00  0.14157561825E+04  0.24654581418E+04  0.20184445201E+04 0.  0.
        3    1    3    3  502    0  0.54079844652E+03  0.79666977145E+03  0.10771239242E+04  0.14447635249E+04  0.10100000352E+00 0.  1.
       -3    1    3    3    0  502 -0.54079844652E+03 -0.79666977145E+03  0.33863225827E+03  0.10206946169E+04  0.10100000352E+00 0. -1.
</event>
<event>
 5   0  0.8958919E-05  0.1881286E+04  0.7818609E-02  0.8664228E-01
        1   -1    0    0  501    0  0.00000000000E+00  0.00000000000E+00  0.17184149625E+04  0.17184149626E+04  0.50400001928E-02 0. -1.
       -1   -1    0    0    0  501  0.00000000000E+00  0.00000000000E+00 -0.51489864555E+03  0.51489864558E+03  0.50400001928E-02 0.  1.
    10030    2    1    2    0    0  0.00000000000E+00  0.00000000000E+00  0.12035163170E+04  0.22333136081E+04  0.18812863012E+04 0.  0.
        4    1    3    3  502    0 -0.46707766518E+03  0.20049499840E+03 -0.33782966314E+03  0.61031982099E+03  0.12699999809E+01 0.  1.
       -4    1    3    3    0  502  0.46707766518E+03 -0.20049499840E+03  0.15413459801E+04  0.16229937871E+04  0.12699999809E+01 0. -1.
</event>
<event>
 5   0  0.1807498E-04  0.2000745E+04  0.7818609E-02  0.8606273E-01
       -2   -1    0    0    0  501  0.00000000000E+00  0.00000000000E+00  0.10847583465E+04  0.10847583465E+04  0.25500000920E-02 0. -1.
        2   -1    0    0  501    0  0.00000000000E+00  0.00000000000E+00 -0.92255099130E+03  0.92255099130E+03  0.25500000920E-02 0.  1.
    10030    2    1    2    0    0  0.00000000000E+00  0.00000000000E+00  0.16220735524E+03  0.20073093378E+04  0.20007447493E+04 0.  0.
        5    1    3    3  502    0  0.30564329447E+03  0.11862508802E+02  0.10366804484E+04  0.10808732509E+04  0.46999998093E+01 0. -1.
       -5    1    3    3    0  502 -0.30564329447E+03 -0.11862508802E+02 -0.87447309312E+03  0.92643608692E+03  0.46999998093E+01 0.  1.
</event>
<event>
 5   0  0.1782172E-04  0.1934633E+04  0.7818609E-02  0.8637807E-01
        2   -1    0    0  501    0  0.00000000000E+00  0.00000000000E+00  0.59921322006E+03  0.59921322007E+03  0.25500000920E-02 0.  1.
       -2   -1    0    0    0  501  0.00000000000E+00  0.00000000000E+00 -0.15615501676E+04  0.15615501676E+04  0.25500000920E-02 0. -1.
    10030    2    1    2    0    0  0.00000000000E+00  0.00000000000E+00 -0.96233694752E+03  0.21607633877E+04  0.19346333029E+04 0.  0.
        2    1    3    3  502    0  0.44295531954E+03 -0.11632814176E+03 -0.14327913090E+04  0.15042049684E+04  0.25500000920E-02 0. -1.
       -2    1    3    3    0  502 -0.44295531954E+03  0.11632814176E+03  0.47045436149E+03  0.65655841928E+03  0.25500000920E-02 0.  1.
</event>
<event>
 5   0  0.1782172E-04  0.2007896E+04  0.7818609E-02  0.8602938E-01
        2   -1    0    0  501    0  0.00000000000E+00  0.00000000000E+00  0.10844494731E+04  0.10844494731E+04  0.25500000920E-02 0. -1.
       -2   -1    0    0    0  501  0.00000000000E+00  0.00000000000E+00 -0.92942212848E+03  0.92942212848E+03  0.25500000920E-02 0.  1.
    10030    2    1    2    0    0  0.00000000000E+00  0.00000000000E+00  0.15502734463E+03  0.20138716016E+04  0.20078957518E+04 0.  0.
        2    1    3    3  502    0 -0.98823445405E+03 -0.49521826870E+02  0.24787675624E+03  0.10200503094E+04  0.25500000920E-02 0. -1.
       -2    1    3    3    0  502  0.98823445405E+03  0.49521826870E+02 -0.92849411606E+02  0.99382129216E+03  0.25500000920E-02 0.  1.
</event>
<event>
 5   0  0.8765057E-05  0.1976476E+04  0.7818609E-02  0.8617699E-01
       -1   -1    0    0    0  501  0.00000000000E+00  0.00000000000E+00  0.74642857202E+03  0.74642857204E+03  0.50400001928E-02 0. -1.
        1   -1    0    0  501    0  0.00000000000E+00  0.00000000000E+00 -0.13083824197E+04  0.13083824198E+04  0.50400001928E-02 0.  1.
    10030    2    1    2    0    0  0.00000000000E+00  0.00000000000E+00 -0.56195384772E+03  0.20548109918E+04  0.19764756728E+04 0.  0.
        3    1    3    3  502    0  0.59004382756E+03  0.79163170843E+03 -0.32485798057E+03  0.10394061756E+04  0.10100000352E+00 0. -1.
       -3    1    3    3    0  502 -0.59004382756E+03 -0.79163170843E+03 -0.23709586715E+03  0.10154048161E+04  0.10100000352E+00 0.  1.
</event>
<event>
 5   0  0.8577422E-05  0.2015030E+04  0.7818609E-02  0.8599626E-01
        1   -1    0    0  501    0  0.00000000000E+00  0.00000000000E+00  0.15618249865E+04  0.15618249866E+04  0.50400001928E-02 0. -1.
       -1   -1    0    0    0  501  0.00000000000E+00  0.00000000000E+00 -0.64993594195E+03  0.64993594197E+03  0.50400001928E-02 0.  1.
    10030    2    1    2    0    0  0.00000000000E+00  0.00000000000E+00  0.91188904460E+03  0.22117609285E+04  0.20150297207E+04 0.  0.
        2    1    3    3  502    0  0.16623196465E+03  0.81136169760E+03  0.10856689931E+04  0.13655101732E+04  0.25500000920E-02 0. -1.
       -2    1    3    3    0  502 -0.16623196465E+03 -0.81136169760E+03 -0.17377994854E+03  0.84625075534E+03  0.25500000920E-02 0.  1.
</event>
<event>
 5   0  0.1834645E-04  0.2027695E+04  0.7818609E-02  0.8593781E-01
        2   -1    0    0  501    0  0.00000000000E+00  0.00000000000E+00  0.18686874747E+04  0.18686874747E+04  0.25500000920E-02 0. -1.
       -2   -1    0    0    0  501  0.00000000000E+00  0.00000000000E+00 -0.55005795252E+03  0.55005795252E+03  0.25500000920E-02 0.  1.
    10030    2    1    2    0    0  0.00000000000E+00  0.00000000000E+00  0.13186295222E+04  0.24187454272E+04  0.20276946577E+04 0.  0.
        1    1    3    3  502    0 -0.22565183931E+03  0.56955459885E+03 -0.30429877303E+03  0.68403869550E+03  0.50400001928E-02 0.  1.
       -1    1    3    3    0  502  0.22565183931E+03 -0.56955459885E+03  0.16229282952E+04  0.17347067317E+04  0.50400001928E-02 0. -1.
</event>
<event>
 5   0  0.8577422E-05  0.1968473E+04  0.7818609E-02  0.8621504E-01
        1   -1    0    0  501    0  0.00000000000E+00  0.00000000000E+00  0.64254259828E+03  0.64254259830E+03  0.50400001928E-02 0. -1.
       -1   -1    0    0    0  501  0.00000000000E+00  0.00000000000E+00 -0.15076382116E+04  0.15076382116E+04  0.50400001928E-02 0.  1.
    10030    2    1    2    0    0  0.00000000000E+00  0.00000000000E+00 -0.86509561336E+03  0.21501808099E+04  0.19684732904E+04 0.  0.
        2    1    3    3  502    0 -0.33954111285E+02 -0.61761444178E+03 -0.12688037259E+04  0.14115464481E+04  0.25500000920E-02 0.  1.
       -2    1    3    3    0  502  0.33954111285E+02  0.61761444178E+03  0.40370811252E+03  0.73863436184E+03  0.25500000920E-02 0. -1.
</event>
<event>
 5   0  0.8881384E-05  0.2089599E+04  0.7818609E-02  0.8565839E-01
        1   -1    0    0  501    0  0.00000000000E+00  0.00000000000E+00  0.76505508565E+03  0.76505508567E+03  0.50400001928E-02 0.  1.
       -1   -1    0    0    0  501  0.00000000000E+00  0.00000000000E+00 -0.14268327170E+04  0.14268327170E+04  0.50400001928E-02 0. -1.
    10030    2    1    2    0    0  0.00000000000E+00  0.00000000000E+00 -0.66177763138E+03  0.21918878027E+04  0.20895986472E+04 0.  0.
        5    1    3    3  502    0  0.70838945939E+03  0.64492188231E+03  0.10646698401E+03  0.96389686644E+03  0.46999998093E+01 0.  1.
       -5    1    3    3    0  502 -0.70838945939E+03 -0.64492188231E+03 -0.76824461540E+03  0.12279909363E+04  0.46999998093E+01 0. -1.
</event>
<event>
 5   0  0.1807498E-04  0.1999693E+04  0.7818609E-02  0.8606764E-01
       -2   -1    0    0    0  501  0.00000000000E+00  0.00000000000E+00  0.81221422616E+03  0.81221422617E+03  0.25500000920E-02 0. -1.
        2   -1    0    0  501    0  0.00000000000E+00  0.00000000000E+00 -0.12308245205E+04  0.12308245205E+04  0.25500000920E-02 0.  1.
    10030    2    1    2    0    0  0.00000000000E+00  0.00000000000E+00 -0.41861029435E+03  0.20430387467E+04  0.19996931619E+04 0.  0.
        5    1    3    3  502    0 -0.35566044666E+03 -0.93010474476E+03 -0.11745705547E+03  0.10027000745E+04  0.46999998093E+01 0. -1.
       -5    1    3    3    0  502  0.35566044666E+03  0.93010474476E+03 -0.30115323887E+03  0.10403386722E+04  0.46999998093E+01 0.  1.
</event>
<event>
 5   0  0.8577422E-05  0.1986920E+04  0.7818609E-02  0.8612761E-01
        1   -1    0    0  501    0  0.00000000000E+00  0.00000000000E+00  0.67891315558E+03  0.67891315560E+03  0.50400001928E-02 0. -1.
       -1   -1    0    0    0  501  0.00000000000E+00  0.00000000000E+00 -0.14537387599E+04  0.14537387599E+04  0.50400001928E-02 0.  1.
    10030    2    1    2    0    0  0.00000000000E+00  0.00000000000E+00 -0.77482560432E+03  0.21326519155E+04  0.19869195947E+04 0.  0.
        2    1    3    3  502    0  0.14472601931E+03  0.33109479565E+03 -0.13807031947E+04  0.14272038034E+04  0.25500000920E-02 0.  1.
       -2    1    3    3    0  502 -0.14472601931E+03 -0.33109479565E+03  0.60587759041E+03  0.70544811215E+03  0.25500000920E-02 0. -1.
</event>
<event>
 5   0  0.8765057E-05  0.1988610E+04  0.7818609E-02  0.8611964E-01
       -1   -1    0    0    0  501  0.00000000000E+00  0.00000000000E+00  0.11779128555E+04  0.11779128555E+04  0.50400001928E-02 0. -1.
        1   -1    0    0  501    0  0.00000000000E+00  0.00000000000E+00 -0.83931720216E+03  0.83931720217E+03  0.50400001928E-02 0.  1.
    10030    2    1    2    0    0  0.00000000000E+00  0.00000000000E+00  0.33859565335E+03  0.20172300577E+04  0.19886100898E+04 0.  0.
        3    1    3    3  502    0  0.10476649982E+03  0.30380354985E+03  0.11237807606E+04  0.11688266871E+04  0.10100000352E+00 0. -1.
       -3    1    3    3    0  502 -0.10476649982E+03 -0.30380354985E+03 -0.78518510725E+03  0.84840337059E+03  0.10100000352E+00 0.  1.
</event>
<event>
 5   0  0.8881384E-05  0.1989784E+04  0.7818609E-02  0.8611412E-01
        1   -1    0    0  501    0  0.00000000000E+00  0.00000000000E+00  0.15867315921E+04  0.15867315922E+04  0.50400001928E-02 0.  1.
       -1   -1    0    0    0  501  0.00000000000E+00  0.00000000000E+00 -0.62380407187E+03  0.62380407190E+03  0.50400001928E-02 0. -1.
    10030    2    1    2    0    0  0.00000000000E+00  0.00000000000E+00  0.96292752027E+03  0.22105356640E+04  0.19897835341E+04 0.  0.
        5    1    3    3  502    0 -0.39053898392E+03  0.82332934139E+03  0.92500081319E+03  0.12984762211E+04  0.46999998093E+01 0.  1.
       -5    1    3    3    0  502  0.39053898392E+03 -0.82332934139E+03  0.37926707081E+02  0.91205944295E+03  0.46999998093E+01 0. -1.
</event>
<event>
 5   0  0.1782172E-04  0.1949566E+04  0.7818609E-02  0.8630570E-01
        2   -1    0    0  501    0  0.00000000000E+00  0.00000000000E+00  0.80961411493E+03  0.80961411494E+03  0.25500000920E-02 0.  1.
       -2   -1    0    0    0  501  0.00000000000E+00  0.00000000000E+00 -0.11736478904E+04  0.11736478904E+04  0.25500000920E-02 0. -1.
    10030    2    1    2    0    0  0.00000000000E+00  0.00000000000E+00 -0.36403377547E+03  0.19832620053E+04  0.19495660010E+04 0.  0.
        2    1    3    3  502    0 -0.63886850268E+03 -0.65311499930E+03  0.16369462002E+03  0.92817460354E+03  0.25500000920E-02 0.  1.
       -2    1    3    3    0  502  0.63886850268E+03  0.65311499930E+03 -0.52772839549E+03  0.10550874018E+04  0.25500000920E-02 0. -1.
</event>
<event>
 5   0  0.1834645E-04  0.2001869E+04  0.7818609E-02  0.8605747E-01
       -2   -1    0    0    0  501  0.00000000000E+00  0.00000000000E+00  0.10293221941E+04  0.10293221942E+04  0.25500000920E-02 0.  1.
        2   -1    0    0  501    0  0.00000000000E+00  0.00000000000E+00 -0.97333002842E+03  0.97333002843E+03  0.25500000920E-02 0. -1.
    10030    2    1    2    0    0  0.00000000000E+00  0.00000000000E+00  0.55992165725E+02  0.20026522226E+04  0.20018693269E+04 0.  0.
        1    1    3    3  502    0  0.96874104434E+02 -0.65945347740E+03  0.77501880342E+03  0.10222121241E+04  0.50400001928E-02 0.  1.
       -1    1    3    3    0  502 -0.96874104434E+02  0.65945347740E+03 -0.71902663770E+03  0.98044009848E+03  0.50400001928E-02 0. -1.
</event>
<event>
 5   0  0.8765057E-05  0.1990564E+04  0.7818609E-02  0.8611045E-01
        1   -1    0    0  501    0  0.00000000000E+00  0.00000000000E+00  0.89214911232E+03  0.89214911233E+03  0.50400001928E-02 0.  1.
       -1   -1    0    0    0  501  0.00000000000E+00  0.00000000000E+00 -0.11103370085E+04  0.11103370085E+04  0.50400001928E-02 0. -1.
    10030    2    1    2    0    0  0.00000000000E+00  0.00000000000E+00 -0.21818789620E+03  0.20024861209E+04  0.19905639166E+04 0.  0.
        3    1    3    3  502    0 -0.43978111345E+03  0.62035007666E+03  0.53689264037E+03  0.93085732680E+03  0.10100000352E+00 0.  1.
       -3    1    3    3    0  502  0.43978111345E+03 -0.62035007666E+03 -0.75508053657E+03  0.10716287941E+04  0.10100000352E+00 0. -1.
</event>
<event>
 5   0  0.1834645E-04  0.2010110E+04  0.7818609E-02  0.8601908E-01
       -2   -1    0    0    0  501  0.00000000000E+00  0.00000000000E+00  0.96571677881E+03  0.96571677881E+03  0.25500000920E-02 0. -1.
        2   -1    0    0  501    0  0.00000000000E+00  0.00000000000E+00 -0.10459961320E+04  0.10459961320E+04  0.25500000920E-02 0.  1.
    10030    2    1    2    0    0  0.00000000000E+00  0.00000000000E+00 -0.80279353173E+02  0.20117129108E+04  0.20101104599E+04 0.  0.
        1    1    3    3  502    0 -0.96252086985E+03  0.27692268686E+03  0.43613451331E+02  0.10025142057E+04  0.50400001928E-02 0. -1.
       -1    1    3    3    0  502  0.96252086985E+03 -0.27692268686E+03 -0.12389280450E+03  0.10091987051E+04  0.50400001928E-02 0.  1.
</event>
<event>
 5   0  0.1834645E-04  0.1941512E+04  0.7818609E-02  0.8634465E-01
        2   -1    0    0  501    0  0.00000000000E+00  0.00000000000E+00  0.15670155114E+04  0.15670155114E+04  0.25500000920E-02 0.  1.
       -2   -1    0    0    0  501  0.00000000000E+00  0.00000000000E+00 -0.60137715416E+03  0.60137715417E+03  0.25500000920E-02 0. -1.
    10030    2    1    2    0    0  0.00000000000E+00  0.00000000000E+00  0.96563835723E+03  0.21683926656E+04  0.19415121208E+04 0.  0.
        1    1    3    3  502    0 -0.96548179782E+01  0.80420135498E+03  0.10899772396E+04  0.13545786865E+04  0.50400001928E-02 0.  1.
       -1    1    3    3    0  502  0.96548179782E+01 -0.80420135498E+03 -0.12433888241E+03  0.81381397910E+03  0.50400001928E-02 0. -1.
</event>
<event>
 5   0  0.1807498E-04  0.2006371E+04  0.7818609E-02  0.8603648E-01
        2   -1    0    0  501    0  0.00000000000E+00  0.00000000000E+00  0.15914331654E+04  0.15914331654E+04  0.25500000920E-02 0.  1.
       -2   -1    0    0    0  501  0.00000000000E+00  0.00000000000E+00 -0.63237388380E+03  0.63237388381E+03  0.25500000920E-02 0. -1.
    10030    2    1    2    0    0  0.00000000000E+00  0.00000000000E+00  0.95905928157E+03  0.22238070492E+04  0.20063706254E+04 0.  0.
        5    1    3    3  502    0 -0.59504392861E+03 -0.26357349146E+03 -0.36662471684E+03  0.74698328989E+03  0.46999998093E+01 0. -1.
       -5    1    3    3    0  502  0.59504392861E+03  0.26357349146E+03  0.13256839984E+04  0.14768237593E+04  0.46999998093E+01 0.  1.
</event>
<event>
 5   0  0.1812865E-04  0.1941119E+04  0.7818609E-02  0.8634655E-01
        2   -1    0    0  501    0  0.00000000000E+00  0.00000000000E+00  0.15830710060E+04  0.15830710060E+04  0.25500000920E-02 0.  1.
       -2   -1    0    0    0  501  0.00000000000E+00  0.00000000000E+00 -0.59503700832E+03  0.59503700832E+03  0.25500000920E-02 0. -1.
    10030    2    1    2    0    0  0.00000000000E+00  0.00000000000E+00  0.98803399764E+03  0.21781080143E+04  0.19411190951E+04 0.  0.
        3    1    3    3  502    0  0.52202203909E+02 -0.28209095064E+03 -0.54637503825E+03  0.61711106549E+03  0.10100000352E+00 0. -1.
       -3    1    3    3    0  502 -0.52202203909E+02  0.28209095064E+03  0.15344090359E+04  0.15609969488E+04  0.10100000352E+00 0.  1.
</event>
<event>
 5   0  0.8861350E-05  0.2029960E+04  0.7818609E-02  0.8592740E-01
       -1   -1    0    0    0  501  0.00000000000E+00  0.00000000000E+00  0.90649073245E+03  0.90649073246E+03  0.50400001928E-02 0.  1.
        1   -1    0    0  501    0  0.00000000000E+00  0.00000000000E+00 -0.11364532841E+04  0.11364532841E+04  0.50400001928E-02 0. -1.
    10030    2    1    2    0    0  0.00000000000E+00  0.00000000000E+00 -0.22996255165E+03  0.20429440166E+04  0.20299599700E+04 0.  0.
        1    1    3    3  502    0 -0.11203337217E+03  0.13033339820E+03 -0.11217025472E+04  0.11347928778E+04  0.50400001928E-02 0. -1.
       -1    1    3    3    0  502  0.11203337217E+03 -0.13033339820E+03  0.89173999553E+03  0.90815113875E+03  0.50400001928E-02 0.  1.
</event>
<event>
 5   0  0.8861350E-05  0.2020722E+04  0.7818609E-02  0.8596993E-01
        1   -1    0    0  501    0  0.00000000000E+00  0.00000000000E+00  0.17426952660E+04  0.17426952660E+04  0.50400001928E-02 0.  1.
       -1   -1    0    0    0  501  0.00000000000E+00  0.00000000000E+00 -0.58577593302E+03  0.58577593304E+03  0.50400001928E-02 0. -1.
    10030    2    1    2    0    0  0.00000000000E+00  0.00000000000E+00  0.11569193330E+04  0.23284711991E+04  0.20207215993E+04 0.  0.
        1    1    3    3  502    0  0.37061638441E+03  0.25582283526E+03 -0.46373353872E+03  0.64641366198E+03  0.50400001928E-02 0. -1.
       -1    1    3    3    0  502 -0.37061638441E+03 -0.25582283526E+03  0.16206528717E+04  0.16820575371E+04  0.50400001928E-02 0.  1.
</event>
<event>
 5   0  0.8861350E-05  0.1991372E+04  0.7818609E-02  0.8610665E-01
        1   -1    0    0  501    0  0.00000000000E+00  0.00000000000E+00  0.98133824296E+03  0.98133824297E+03  0.50400001928E-02 0. -1.
       -1   -1    0    0    0  501  0.00000000000E+00  0.00000000000E+00 -0.10102437306E+04  0.10102437306E+04  0.50400001928E-02 0.  1.
    10030    2    1    2    0    0  0.00000000000E+00  0.00000000000E+00 -0.28905487612E+02  0.19915819736E+04  0.19913721978E+04 0.  0.
        1    1    3    3  502    0  0.13108821987E+03  0.35127297246E+03 -0.93694569652E+03  0.10091798952E+04  0.50400001928E-02 0.  1.
       -1    1    3    3    0  502 -0.13108821987E+03 -0.35127297246E+03  0.90804020891E+03  0.98240207838E+03  0.50400001928E-02 0. -1.
</event>
<event>
 5   0  0.1807498E-04  0.1983157E+04  0.7818609E-02  0.8614536E-01
        2   -1    0    0  501    0  0.00000000000E+00  0.00000000000E+00  0.15076176780E+04  0.15076176780E+04  0.25500000920E-02 0. -1.
       -2   -1    0    0    0  501  0.00000000000E+00  0.00000000000E+00 -0.65217334591E+03  0.65217334592E+03  0.25500000920E-02 0.  1.
    10030    2    1    2    0    0  0.00000000000E+00  0.00000000000E+00  0.85544433206E+03  0.21597910239E+04  0.19831571450E+04 0.  0.
        5    1    3    3  502    0 -0.40745216450E+03  0.30280973445E+03  0.13553458040E+04  0.14473062358E+04  0.46999998093E+01 0. -1.
       -5    1    3    3    0  502  0.40745216450E+03 -0.30280973445E+03 -0.49990147197E+03  0.71248478812E+03  0.46999998093E+01 0.  1.
</event>
<event>
 5   0  0.1834645E-04  0.2084514E+04  0.7818609E-02  0.8568096E-01
       -2   -1    0    0    0  501  0.00000000000E+00  0.00000000000E+00  0.51336744058E+03  0.51336744059E+03  0.25500000920E-02 0. -1.
        2   -1    0    0  501    0  0.00000000000E+00  0.00000000000E+00 -0.21160280450E+04  0.21160280450E+04  0.25500000920E-02 0.  1.
    10030    2    1    2    0    0  0.00000000000E+00  0.00000000000E+00 -0.16026606044E+04  0.26293954856E+04  0.20845142376E+04 0.  0.
        1    1    3    3  502    0 -0.60230611417E+03  0.28967810781E+03  0.20748107972E+03  0.69981030271E+03  0.50400001928E-02 0. -1.
       -1    1    3    3    0  502  0.60230611417E+03 -0.28967810781E+03 -0.18101416841E+04  0.19295851829E+04  0.50400001928E-02 0.  1.
</event>
<event>
 5   0  0.8881384E-05  0.2025300E+04  0.7818609E-02  0.8594882E-01
        1   -1    0    0  501    0  0.00000000000E+00  0.00000000000E+00  0.11963239795E+04  0.11963239795E+04  0.50400001928E-02 0. -1.
       -1   -1    0    0    0  501  0.00000000000E+00  0.00000000000E+00 -0.85717615914E+03  0.85717615916E+03  0.50400001928E-02 0.  1.
    10030    2    1    2    0    0  0.00000000000E+00  0.00000000000E+00  0.33914782038E+03  0.20535001387E+04  0.20253003667E+04 0.  0.
        5    1    3    3  502    0  0.12046222732E+03 -0.11901646892E+03 -0.84270708402E+03  0.85956581339E+03  0.46999998093E+01 0.  1.
       -5    1    3    3    0  502 -0.12046222732E+03  0.11901646892E+03  0.11818549044E+04  0.11939343253E+04  0.46999998093E+01 0. -1.
</event>
<event>
 5   0  0.8881384E-05  0.2010981E+04  0.7818609E-02  0.8601504E-01
        1   -1    0    0  501    0  0.00000000000E+00  0.00000000000E+00  0.17449367865E+04  0.17449367865E+04  0.50400001928E-02 0.  1.
       -1   -1    0    0    0  501  0.00000000000E+00  0.00000000000E+00 -0.57939698022E+03  0.57939698024E+03  0.50400001928E-02 0. -1.
    10030    2    1    2    0    0  0.00000000000E+00  0.00000000000E+00  0.11655398063E+04  0.23243337667E+04  0.20109809594E+04 0.  0.
        5    1    3    3  502    0 -0.52251610521E+03 -0.85709068355E+03  0.64978254709E+03  0.11957704498E+04  0.46999998093E+01 0. -1.
       -5    1    3    3    0  502  0.52251610521E+03  0.85709068355E+03  0.51575725919E+03  0.11285633170E+04  0.46999998093E+01 0.  1.
</event>
<event>
 5   0  0.1834645E-04  0.2061820E+04  0.7818609E-02  0.8578251E-01
        2   -1    0    0  501    0  0.00000000000E+00  0.00000000000E+00  0.79319459373E+03  0.79319459373E+03  0.25500000920E-02 0. -1.
       -2   -1    0    0    0  501  0.00000000000E+00  0.00000000000E+00 -0.13398667595E+04  0.13398667595E+04  0.25500000920E-02 0.  1.
    10030    2    1    2    0    0  0.00000000000E+00  0.00000000000E+00 -0.54667216575E+03  0.21330613532E+04  0.20618196526E+04 0.  0.
        1    1    3    3  502    0  0.40912859172E+03 -0.74839674932E+03 -0.87238699138E+03  0.12200585895E+04  0.50400001928E-02 0.  1.
       -1    1    3    3    0  502 -0.40912859172E+03  0.74839674932E+03  0.32571482563E+03  0.91300276375E+03  0.50400001928E-02 0. -1.
</event>
<event>
 5   0  0.8765057E-05  0.2006241E+04  0.7818609E-02  0.8603708E-01
       -1   -1    0    0    0  501  0.00000000000E+00  0.00000000000E+00  0.79802349714E+03  0.79802349716E+03  0.50400001928E-02 0.  1.
        1   -1    0    0  501    0  0.00000000000E+00  0.00000000000E+00 -0.12609285660E+04  0.12609285660E+04  0.50400001928E-02 0. -1.
    10030    2    1    2    0    0  0.00000000000E+00  0.00000000000E+00 -0.46290506885E+03  0.20589520632E+04  0.20062408867E+04 0.  0.
        3    1    3    3  502    0  0.30857834695E+03  0.23319798131E+03  0.71841827894E+03  0.81592078562E+03  0.10100000352E+00 0.  1.
       -3    1    3    3    0  502 -0.30857834695E+03 -0.23319798131E+03 -0.11813233478E+04  0.12430312775E+04  0.10100000352E+00 0. -1.
</event>
<event>
 5   0  0.8577422E-05  0.2006376E+04  0.7818609E-02  0.8603646E-01
        1   -1    0    0  501    0  0.00000000000E+00  0.00000000000E+00  0.94590282328E+03  0.94590282330E+03  0.50400001928E-02 0. -1.
       -1   -1    0    0    0  501  0.00000000000E+00  0.00000000000E+00 -0.10639421065E+04  0.10639421065E+04  0.50400001928E-02 0.  1.
    10030    2    1    2    0    0  0.00000000000E+00  0.00000000000E+00 -0.11803928317E+03  0.20098449298E+04  0.20063756800E+04 0.  0.
        2    1    3    3  502    0 -0.64154258701E+03 -0.63734625835E+03 -0.49405007621E+03  0.10304720383E+04  0.25500000920E-02 0.  1.
       -2    1    3    3    0  502  0.64154258701E+03  0.63734625835E+03  0.37601079304E+03  0.97937289143E+03  0.25500000920E-02 0. -1.
</event>
<event>
 5   0  0.8958919E-05  0.2136000E+04  0.7818609E-02  0.8545549E-01
       -1   -1    0    0    0  501  0.00000000000E+00  0.00000000000E+00  0.79141126962E+03  0.79141126964E+03  0.50400001928E-02 0. -1.
        1   -1    0    0  501    0  0.00000000000E+00  0.00000000000E+00 -0.14412535657E+04  0.14412535658E+04  0.50400001928E-02 0.  1.
    10030    2    1    2    0    0  0.00000000000E+00  0.00000000000E+00 -0.64984229613E+03  0.22326648354E+04  0.21360002943E+04 0.  0.
        4    1    3    3  502    0 -0.39068277991E+03  0.48155431695E+03 -0.12338092910E+04  0.13808745686E+04  0.12699999809E+01 0.  1.
       -4    1    3    3    0  502  0.39068277991E+03 -0.48155431695E+03  0.58396699486E+03  0.85179026683E+03  0.12699999809E+01 0. -1.
</event>
<event>
 5   0  0.8958919E-05  0.1983209E+04  0.7818609E-02  0.8614512E-01
        1   -1    0    0  501    0  0.00000000000E+00  0.00000000000E+00  0.14718392184E+04  0.14718392184E+04  0.50400001928E-02 0.  1.
       -1   -1    0    0    0  501  0.00000000000E+00  0.00000000000E+00 -0.66806154801E+03  0.66806154803E+03  0.50400001928E-02 0. -1.
    10030    2    1    2    0    0  0.00000000000E+00  0.00000000000E+00  0.80377767037E+03  0.21399007664E+04  0.19832086997E+04 0.  0.
        4    1    3    3  502    0  0.64251797930E+03 -0.59883718885E+03  0.89851717276E+03  0.12564911679E+04  0.12699999809E+01 0.  1.
       -4    1    3    3    0  502 -0.64251797930E+03  0.59883718885E+03 -0.94739502389E+02  0.88340959848E+03  0.12699999809E+01 0. -1.
</event>
<event>
 5   0  0.8861350E-05  0.2000711E+04  0.7818609E-02  0.8606288E-01
        1   -1    0    0  501    0  0.00000000000E+00  0.00000000000E+00  0.15953539088E+04  0.15953539089E+04  0.50400001928E-02 0. -1.
       -1   -1    0    0    0  501  0.00000000000E+00  0.00000000000E+00 -0.62726568614E+03  0.62726568616E+03  0.50400001928E-02 0.  1.
    10030    2    1    2    0    0  0.00000000000E+00  0.00000000000E+00  0.96808822271E+03  0.22226195950E+04  0.20007106380E+04 0.  0.
        1    1    3    3  502    0 -0.66698267040E+03 -0.73201078851E+03  0.32691701627E+03  0.10428712349E+04  0.50400001928E-02 0. -1.
       -1    1    3    3    0  502  0.66698267040E+03  0.73201078851E+03  0.64117120644E+03  0.11797483601E+04  0.50400001928E-02 0.  1.
</event>
<event>
 5   0  0.8765057E-05  0.2000086E+04  0.7818609E-02  0.8606580E-01
        1   -1    0    0  501    0  0.00000000000E+00  0.00000000000E+00  0.20151120526E+04  0.20151120526E+04  0.50400001928E-02 0. -1.
       -1   -1    0    0    0  501  0.00000000000E+00  0.00000000000E+00 -0.49629299743E+03  0.49629299745E+03  0.50400001928E-02 0.  1.
    10030    2    1    2    0    0  0.00000000000E+00  0.00000000000E+00  0.15188190552E+04  0.25114050500E+04  0.20000859989E+04 0.  0.
        3    1    3    3  502    0 -0.45628892053E+02 -0.98669787495E+03  0.56314520165E+03  0.11370080125E+04  0.10100000352E+00 0. -1.
       -3    1    3    3    0  502  0.45628892053E+02  0.98669787495E+03  0.95567385350E+03  0.13743970375E+04  0.10100000352E+00 0.  1.
</event>
<event>
 5   0  0.8958919E-05  0.2004502E+04  0.7818609E-02  0.8604519E-01
       -1   -1    0    0    0  501  0.00000000000E+00  0.00000000000E+00  0.12969403313E+04  0.12969403313E+04  0.50400001928E-02 0. -1.
        1   -1    0    0  501    0  0.00000000000E+00  0.00000000000E+00 -0.77452077448E+03  0.77452077449E+03  0.50400001928E-02 0.  1.
    10030    2    1    2    0    0  0.00000000000E+00  0.00000000000E+00  0.52241955679E+03  0.20714611058E+04  0.20045021625E+04 0.  0.
        4    1    3    3  502    0  0.56989449026E+03  0.79857749840E+03  0.47299429519E+03  0.10891423080E+04  0.12699999809E+01 0. -1.
       -4    1    3    3    0  502 -0.56989449026E+03 -0.79857749840E+03  0.49425261599E+02  0.98231879773E+03  0.12699999809E+01 0.  1.
</event>
<event>
 5   0  0.1812865E-04  0.1997191E+04  0.7818609E-02  0.8607935E-01
        2   -1    0    0  501    0  0.00000000000E+00  0.00000000000E+00  0.15116422712E+04  0.15116422712E+04  0.25500000920E-02 0.  1.
       -2   -1    0    0    0  501  0.00000000000E+00  0.00000000000E+00 -0.65967511990E+03  0.65967511991E+03  0.25500000920E-02 0. -1.
    10030    2    1    2    0    0  0.00000000000E+00  0.00000000000E+00  0.85196715126E+03  0.21713173911E+04  0.19971908236E+04 0.  0.
        3    1    3    3  502    0  0.13187122144E+03  0.35763207936E+03 -0.57747300148E+03  0.69192904324E+03  0.10100000352E+00 0. -1.
       -3    1    3    3    0  502 -0.13187122144E+03 -0.35763207936E+03  0.14294401527E+04  0.14793883478E+04  0.10100000352E+00 0.  1.
</event>
<event>
 5   0  0.8577422E-05  0.1930984E+04  0.7818609E-02  0.8639586E-01
        1   -1    0    0  501    0  0.00000000000E+00  0.00000000000E+00  0.11472899336E+04  0.11472899336E+04  0.50400001928E-02 0.  1.
       -1   -1    0    0    0  501  0.00000000000E+00  0.00000000000E+00 -0.81250120919E+03  0.81250120920E+03  0.50400001928E-02 0. -1.
    10030    2    1    2    0    0  0.00000000000E+00  0.00000000000E+00  0.33478872437E+03  0.19597911428E+04  0.19309836440E+04 0.  0.
        2    1    3    3  502    0  0.42153413231E+03 -0.81314349166E+03 -0.14258159837E+03  0.92694275710E+03  0.25500000920E-02 0. -1.
       -2    1    3    3    0  502 -0.42153413231E+03  0.81314349166E+03  0.47737032274E+03  0.10328483857E+04  0.25500000920E-02 0.  1.
</event>
<event>
 5   0  0.8765057E-05  0.1999893E+04  0.7818609E-02  0.8606671E-01
        1   -1    0    0  501    0  0.00000000000E+00  0.00000000000E+00  0.14696833263E+04  0.14696833263E+04  0.50400001928E-02 0.  1.
       -1   -1    0    0    0  501  0.00000000000E+00  0.00000000000E+00 -0.68034576197E+03  0.68034576199E+03  0.50400001928E-02 0. -1.
    10030    2    1    2    0    0  0.00000000000E+00  0.00000000000E+00  0.78933756429E+03  0.21500290883E+04  0.19998928196E+04 0.  0.
        3    1    3    3  502    0  0.81761843210E+03 -0.59982736372E+02 -0.22084639452E+03  0.84904120592E+03  0.10100000352E+00 0. -1.
       -3    1    3    3    0  502 -0.81761843210E+03  0.59982736372E+02  0.10101839588E+04  0.13009878823E+04  0.10100000352E+00 0.  1.
</event>
<event>
 5   0  0.8577422E-05  0.1939157E+04  0.7818609E-02  0.8635607E-01
       -1   -1    0    0    0  501  0.00000000000E+00  0.00000000000E+00  0.79562702458E+03  0.79562702460E+03  0.50400001928E-02 0.  1.
        1   -1    0    0  501    0  0.00000000000E+00  0.00000000000E+00 -0.11815621607E+04  0.11815621607E+04  0.50400001928E-02 0. -1.
    10030    2    1    2    0    0  0.00000000000E+00  0.00000000000E+00 -0.38593513616E+03  0.19771891853E+04  0.19391573287E+04 0.  0.
        2    1    3    3  502    0  0.13102124196E+03 -0.84275690280E+03 -0.66318147219E+03  0.10803774471E+04  0.25500000920E-02 0. -1.
       -2    1    3    3    0  502 -0.13102124196E+03  0.84275690280E+03  0.27724633603E+03  0.89681173828E+03  0.25500000920E-02 0.  1.
</event>
<event>
 5   0  0.1834645E-04  0.1973515E+04  0.7818609E-02  0.8619104E-01
        2   -1    0    0  501    0  0.00000000000E+00  0.00000000000E+00  0.11640012669E+04  0.11640012669E+04  0.25500000920E-02 0. -1.
       -2   -1    0    0    0  501  0.00000000000E+00  0.00000000000E+00 -0.83650289472E+03  0.83650289473E+03  0.25500000920E-02 0.  1.
    10030    2    1    2    0    0  0.00000000000E+00  0.00000000000E+00  0.32749837215E+03  0.20005041616E+04  0.19735150663E+04 0.  0.
        1    1    3    3  502    0 -0.67961769824E+03  0.65177354250E+03  0.46274305993E+03  0.10491997455E+04  0.50400001928E-02 0. -1.
       -1    1    3    3    0  502  0.67961769824E+03 -0.65177354250E+03 -0.13524468777E+03  0.95130441608E+03  0.50400001928E-02 0.  1.
</event>
<event>
 5   0  0.8861350E-05  0.1943680E+04  0.7818609E-02  0.8633415E-01
        1   -1    0    0  501    0  0.00000000000E+00  0.00000000000E+00  0.13619425955E+04  0.13619425955E+04  0.50400001928E-02 0.  1.
       -1   -1    0    0    0  501  0.00000000000E+00  0.00000000000E+00 -0.69347460225E+03  0.69347460227E+03  0.50400001928E-02 0. -1.
    10030    2    1    2    0    0  0.00000000000E+00  0.00000000000E+00  0.66846799321E+03  0.20554171977E+04  0.19436796029E+04 0.  0.
        1    1    3    3  502    0 -0.12793491570E+03  0.82437695246E+02 -0.68079402631E+03  0.69759861133E+03  0.50400001928E-02 0. -1.
       -1    1    3    3    0  502  0.12793491570E+03 -0.82437695246E+02  0.13492620195E+04  0.13578185864E+04  0.50400001928E-02 0.  1.
</event>
<event>
 5   0  0.1782172E-04  0.1981239E+04  0.7818609E-02  0.8615443E-01
        2   -1    0    0  501    0  0.00000000000E+00  0.00000000000E+00  0.39323053934E+03  0.39323053935E+03  0.25500000920E-02 0. -1.
       -2   -1    0    0    0  501  0.00000000000E+00  0.00000000000E+00 -0.24955511554E+04  0.24955511554E+04  0.25500000920E-02 0.  1.
    10030    2    1    2    0    0  0.00000000000E+00  0.00000000000E+00 -0.21023206161E+04  0.28887816948E+04  0.19812389324E+04 0.  0.
        2    1    3    3  502    0 -0.56371223644E+03 -0.20453731803E+03  0.98515157721E+02  0.60771065178E+03  0.25500000920E-02 0. -1.
       -2    1    3    3    0  502  0.56371223644E+03  0.20453731803E+03 -0.22008357738E+04  0.22810710430E+04  0.25500000920E-02 0.  1.
</event>
<event>
 5   0  0.6531625E-05  0.1941103E+04  0.7818609E-02  0.8634663E-01
       -3   -1    0    0    0  501  0.00000000000E+00  0.00000000000E+00  0.88256510089E+03  0.88256510667E+03  0.10100000352E+00 0. -1.
        3   -1    0    0  501    0  0.00000000000E+00  0.00000000000E+00 -0.10673099867E+04  0.10673099914E+04  0.10100000352E+00 0.  1.
    10030    2    1    2    0    0  0.00000000000E+00  0.00000000000E+00 -0.18474488578E+03  0.19498750981E+04  0.19411033526E+04 0.  0.
        2    1    3    3  502    0  0.57105751150E+03  0.76351981583E+03 -0.27457945910E+03  0.99220112375E+03  0.25500000920E-02 0. -1.
       -2    1    3    3    0  502 -0.57105751150E+03 -0.76351981583E+03  0.89834573322E+02  0.95767397436E+03  0.25500000920E-02 0.  1.
</event>
<event>
 5   0  0.8861350E-05  0.2004106E+04  0.7818609E-02  0.8604703E-01
        1   -1    0    0  501    0  0.00000000000E+00  0.00000000000E+00  0.10083990685E+04  0.10083990685E+04  0.50400001928E-02 0. -1.
       -1   -1    0    0    0  501  0.00000000000E+00  0.00000000000E+00 -0.99574726388E+03  0.99574726390E+03  0.50400001928E-02 0.  1.
    10030    2    1    2    0    0  0.00000000000E+00  0.00000000000E+00  0.12651804627E+02  0.20041463324E+04  0.20041063978E+04 0.  0.
        1    1    3    3  502    0 -0.36921040807E+03  0.87692160273E+02 -0.92111069978E+03  0.99621843070E+03  0.50400001928E-02 0.  1.
       -1    1    3    3    0  502  0.36921040807E+03 -0.87692160273E+02  0.93376250440E+03  0.10079279017E+04  0.50400001928E-02 0. -1.
</event>
<event>
 5   0  0.8765057E-05  0.1923752E+04  0.7818609E-02  0.8643123E-01
       -1   -1    0    0    0  501  0.00000000000E+00  0.00000000000E+00  0.56586643378E+03  0.56586643381E+03  0.50400001928E-02 0.  1.
        1   -1    0    0  501    0  0.00000000000E+00  0.00000000000E+00 -0.16350238981E+04  0.16350238981E+04  0.50400001928E-02 0. -1.
    10030    2    1    2    0    0  0.00000000000E+00  0.00000000000E+00 -0.10691574643E+04  0.22008903319E+04  0.19237516913E+04 0.  0.
        3    1    3    3  502    0 -0.30191624685E+03  0.89175714113E+03 -0.30916401759E+03  0.99094228835E+03  0.10100000352E+00 0.  1.
       -3    1    3    3    0  502  0.30191624685E+03 -0.89175714113E+03 -0.75999344673E+03  0.12099480436E+04  0.10100000352E+00 0. -1.
</event>
<event>
 5   0  0.1812865E-04  0.2154450E+04  0.7818609E-02  0.8537630E-01
        2   -1    0    0  501    0  0.00000000000E+00  0.00000000000E+00  0.13696265121E+04  0.13696265121E+04  0.25500000920E-02 0. -1.
       -2   -1    0    0    0  501  0.00000000000E+00  0.00000000000E+00 -0.84724819430E+03  0.84724819431E+03  0.25500000920E-02 0.  1.
    10030    2    1    2    0    0  0.00000000000E+00  0.00000000000E+00  0.52237831783E+03  0.22168747064E+04  0.21544498966E+04 0.  0.
        3    1    3    3  502    0  0.60192664334E+03  0.76613098499E+03 -0.21162584713E+03  0.99702451298E+03  0.10100000352E+00 0.  1.
       -3    1    3    3    0  502 -0.60192664334E+03 -0.76613098499E+03  0.73400416496E+03  0.12198501935E+04  0.10100000352E+00 0. -1.
</event>
<event>
 5   0  0.1893687E-04  0.1990307E+04  0.7818609E-02  0.8611166E-01
        2   -1    0    0  501    0  0.00000000000E+00  0.00000000000E+00  0.99119480413E+03  0.99119480414E+03  0.25500000920E-02 0.  1.
       -2   -1    0    0    0  501  0.00000000000E+00  0.00000000000E+00 -0.99912777639E+03  0.99912777639E+03  0.25500000920E-02 0. -1.
    10030    2    1    2    0    0  0.00000000000E+00  0.00000000000E+00 -0.79329722531E+01  0.19903225805E+04  0.19903067710E+04 0.  0.
        4    1    3    3  502    0 -0.89500176022E+03 -0.43406392836E+03  0.25849904410E+02  0.99504244892E+03  0.12699999809E+01 0.  1.
       -4    1    3    3    0  502  0.89500176022E+03  0.43406392836E+03 -0.33782876663E+02  0.99528013160E+03  0.12699999809E+01 0. -1.
</event>
<event>
 5   0  0.8861350E-05  0.1982590E+04  0.7818609E-02  0.8614804E-01
        1   -1    0    0  501    0  0.00000000000E+00  0.00000000000E+00  0.91687827473E+03  0.91687827474E+03  0.50400001928E-02 0.  1.
       -1   -1    0    0    0  501  0.00000000000E+00  0.00000000000E+00 -0.10717515395E+04  0.10717515395E+04  0.50400001928E-02 0. -1.
    10030    2    1    2    0    0  0.00000000000E+00  0.00000000000E+00 -0.15487326477E+03  0.19886298143E+04  0.19825899248E+04 0.  0.
        1    1    3    3  502    0  0.41032593965E+03  0.43916725102E+03  0.71327352323E+03  0.93273488735E+03  0.50400001928E-02 0.  1.
       -1    1    3    3    0  502 -0.41032593965E+03 -0.43916725102E+03 -0.86814678800E+03  0.10558949269E+04  0.50400001928E-02 0. -1.
</event>
<event>
 5   0  0.8881384E-05  0.2000397E+04  0.7818609E-02  0.8606435E-01
        1   -1    0    0  501    0  0.00000000000E+00  0.00000000000E+00  0.80980877254E+03  0.80980877256E+03  0.50400001928E-02 0.  1.
       -1   -1    0    0    0  501  0.00000000000E+00  0.00000000000E+00 -0.12353502040E+04  0.12353502040E+04  0.50400001928E-02 0. -1.
    10030    2    1    2    0    0  0.00000000000E+00  0.00000000000E+00 -0.42554143147E+03  0.20451589766E+04  0.20003973929E+04 0.  0.
        5    1    3    3  502    0 -0.79888046758E+03 -0.49634154187E+03  0.13515345541E+03  0.95018602082E+03  0.46999998093E+01 0.  1.
       -5    1    3    3    0  502  0.79888046758E+03  0.49634154187E+03 -0.56069488689E+03  0.10949729558E+04  0.46999998093E+01 0. -1.
</event>
<event>
 5   0  0.1812865E-04  0.2005892E+04  0.7818609E-02  0.8603871E-01
       -2   -1    0    0    0  501  0.00000000000E+00  0.00000000000E+00  0.84806154508E+03  0.84806154509E+03  0.25500000920E-02 0.  1.
        2   -1    0    0  501    0  0.00000000000E+00  0.00000000000E+00 -0.11861176784E+04  0.11861176784E+04  0.25500000920E-02 0. -1.
    10030    2    1    2    0    0  0.00000000000E+00  0.00000000000E+00 -0.33805613332E+03  0.20341792235E+04  0.20058921118E+04 0.  0.
        3    1    3    3  502    0 -0.65713581091E+03 -0.73573115656E+03  0.14557932642E+02  0.98657982562E+03  0.10100000352E+00 0. -1.
       -3    1    3    3    0  502  0.65713581091E+03  0.73573115656E+03 -0.35261406596E+03  0.10475993979E+04  0.10100000352E+00 0.  1.
</event>
<event>
 5   0  0.8958919E-05  0.1972611E+04  0.7818609E-02  0.8619534E-01
        1   -1    0    0  501    0  0.00000000000E+00  0.00000000000E+00  0.96359341893E+03  0.96359341894E+03  0.50400001928E-02 0.  1.
       -1   -1    0    0    0  501  0.00000000000E+00  0.00000000000E+00 -0.10095528791E+04  0.10095528791E+04  0.50400001928E-02 0. -1.
    10030    2    1    2    0    0  0.00000000000E+00  0.00000000000E+00 -0.45959460139E+02  0.19731462980E+04  0.19726109706E+04 0.  0.
        4    1    3    3  502    0 -0.85737135149E+03 -0.29539395718E+03  0.36500911579E+03  0.97753592865E+03  0.12699999809E+01 0.  1.
       -4    1    3    3    0  502  0.85737135149E+03  0.29539395718E+03 -0.41096857593E+03  0.99561036937E+03  0.12699999809E+01 0. -1.
</event>
<event>
 5   0  0.1812865E-04  0.1927213E+04  0.7818609E-02  0.8641428E-01
        2   -1    0    0  501    0  0.00000000000E+00  0.00000000000E+00  0.13585479852E+04  0.13585479852E+04  0.25500000920E-02 0. -1.
       -2   -1    0    0    0  501  0.00000000000E+00  0.00000000000E+00 -0.68347786685E+03  0.68347786686E+03  0.25500000920E-02 0.  1.
    10030    2    1    2    0    0  0.00000000000E+00  0.00000000000E+00  0.67507011837E+03  0.20420258521E+04  0.19272129918E+04 0.  0.
        3    1    3    3  502    0 -0.65909465068E+03 -0.50054132375E+03  0.86048646192E+03  0.11938946087E+04  0.10100000352E+00 0. -1.
       -3    1    3    3    0  502  0.65909465068E+03  0.50054132375E+03 -0.18541634355E+03  0.84813124338E+03  0.10100000352E+00 0.  1.
</event>
<event>
 5   0  0.6531625E-05  0.1970740E+04  0.7818609E-02  0.8620424E-01
       -3   -1    0    0    0  501  0.00000000000E+00  0.00000000000E+00  0.10265828636E+04  0.10265828685E+04  0.10100000352E+00 0. -1.
        3   -1    0    0  501    0  0.00000000000E+00  0.00000000000E+00 -0.94581199842E+03  0.94581200381E+03  0.10100000352E+00 0.  1.
    10030    2    1    2    0    0  0.00000000000E+00  0.00000000000E+00  0.80770865143E+02  0.19723948723E+04  0.19707403684E+04 0.  0.
        2    1    3    3  502    0 -0.51629416833E+03 -0.64148530776E+02 -0.79714427361E+03  0.95190004476E+03  0.25500000920E-02 0.  1.
       -2    1    3    3    0  502  0.51629416833E+03  0.64148530776E+02  0.87791513875E+03  0.10204948276E+04  0.25500000920E-02 0. -1.
</event>
<event>
 5   0  0.8577422E-05  0.2180651E+04  0.7818609E-02  0.8526525E-01
       -1   -1    0    0    0  501  0.00000000000E+00  0.00000000000E+00  0.76260866506E+03  0.76260866507E+03  0.50400001928E-02 0. -1.
        1   -1    0    0  501    0  0.00000000000E+00  0.00000000000E+00 -0.15588722612E+04  0.15588722612E+04  0.50400001928E-02 0.  1.
    10030    2    1    2    0    0  0.00000000000E+00  0.00000000000E+00 -0.79626359615E+03  0.23214809263E+04  0.21806508149E+04 0.  0.
        2    1    3    3  502    0 -0.22673216338E+02 -0.57181033431E+03 -0.13861464053E+04  0.14996276172E+04  0.25500000920E-02 0.  1.
       -2    1    3    3    0  502  0.22673216338E+02  0.57181033431E+03  0.58988280917E+03  0.82185330913E+03  0.25500000920E-02 0. -1.
</event>
<event>
 5   0  0.1807498E-04  0.1995183E+04  0.7818609E-02  0.8608876E-01
        2   -1    0    0  501    0  0.00000000000E+00  0.00000000000E+00  0.13493298471E+04  0.13493298471E+04  0.25500000920E-02 0. -1.
       -2   -1    0    0    0  501  0.00000000000E+00  0.00000000000E+00 -0.73754326088E+03  0.73754326088E+03  0.25500000920E-02 0.  1.
    10030    2    1    2    0    0  0.00000000000E+00  0.00000000000E+00  0.61178658620E+03  0.20868731080E+04  0.19951833354E+04 0.  0.
        5    1    3    3  502    0 -0.52056245060E+03 -0.59685835704E+03  0.94035124755E+03  0.12294339031E+04  0.46999998093E+01 0. -1.
       -5    1    3    3    0  502  0.52056245060E+03  0.59685835704E+03 -0.32856466135E+03  0.85743920486E+03  0.46999998093E+01 0.  1.
</event>
<event>
 5   0  0.8861350E-05  0.2066820E+04  0.7818609E-02  0.8576002E-01
       -1   -1    0    0    0  501  0.00000000000E+00  0.00000000000E+00  0.18564148900E+04  0.18564148900E+04  0.50400001928E-02 0. -1.
        1   -1    0    0  501    0  0.00000000000E+00  0.00000000000E+00 -0.57526808730E+03  0.57526808733E+03  0.50400001928E-02 0.  1.
    10030    2    1    2    0    0  0.00000000000E+00  0.00000000000E+00  0.12811468027E+04  0.24316829773E+04  0.20668200145E+04 0.  0.
        1    1    3    3  502    0 -0.62870420738E+03 -0.81324548017E+03  0.76563537913E+03  0.12817311439E+04  0.50400001928E-02 0.  1.
       -1    1    3    3    0  502  0.62870420738E+03  0.81324548017E+03  0.51551142355E+03  0.11499518334E+04  0.50400001928E-02 0. -1.
</event>
<event>
 5   0  0.8861350E-05  0.2039934E+04  0.7818609E-02  0.8588175E-01
       -1   -1    0    0    0  501  0.00000000000E+00  0.00000000000E+00  0.18911352896E+04  0.18911352896E+04  0.50400001928E-02 0. -1.
        1   -1    0    0  501    0  0.00000000000E+00  0.00000000000E+00 -0.55010990822E+03  0.55010990824E+03  0.50400001928E-02 0.  1.
    10030    2    1    2    0    0  0.00000000000E+00  0.00000000000E+00  0.13410253814E+04  0.24412451979E+04  0.20399335878E+04 0.  0.
        1    1    3    3  502    0  0.22386129170E+03  0.21469849089E+02  0.18610959131E+04  0.18746340523E+04  0.50400001928E-02 0. -1.
       -1    1    3    3    0  502 -0.22386129170E+03 -0.21469849089E+02 -0.52007053167E+03  0.56661114557E+03  0.50400001928E-02 0.  1.
</event>
<event>
 5   0  0.1812865E-04  0.2029496E+04  0.7818609E-02  0.8592953E-01
        2   -1    0    0  501    0  0.00000000000E+00  0.00000000000E+00  0.13975086199E+04  0.13975086199E+04  0.25500000920E-02 0. -1.
       -2   -1    0    0    0  501  0.00000000000E+00  0.00000000000E+00 -0.73682095322E+03  0.73682095323E+03  0.25500000920E-02 0.  1.
    10030    2    1    2    0    0  0.00000000000E+00  0.00000000000E+00  0.66068766664E+03  0.21343295731E+04  0.20294961280E+04 0.  0.
        3    1    3    3  502    0  0.11771529078E+03 -0.89833948920E+03  0.81094310465E+03  0.12159356302E+04  0.10100000352E+00 0. -1.
       -3    1    3    3    0  502 -0.11771529078E+03  0.89833948920E+03 -0.15025543802E+03  0.91839394292E+03  0.10100000352E+00 0.  1.
</event>
<event>
 5   0  0.8958919E-05  0.1771300E+04  0.7818609E-02  0.8721713E-01
        1   -1    0    0  501    0  0.00000000000E+00  0.00000000000E+00  0.12032561183E+04  0.12032561183E+04  0.50400001928E-02 0.  1.
       -1   -1    0    0    0  501  0.00000000000E+00  0.00000000000E+00 -0.65187747269E+03  0.65187747271E+03  0.50400001928E-02 0. -1.
    10030    2    1    2    0    0  0.00000000000E+00  0.00000000000E+00  0.55137864564E+03  0.18551335910E+04  0.17712995878E+04 0.  0.
        4    1    3    3  502    0  0.11676053615E+02 -0.88184501008E+03  0.19068779097E+03  0.90230283085E+03  0.12699999809E+01 0. -1.
       -4    1    3    3    0  502 -0.11676053615E+02  0.88184501008E+03  0.36069085467E+03  0.95283076019E+03  0.12699999809E+01 0.  1.
</event>
<event>
 5   0  0.8861350E-05  0.1998623E+04  0.7818609E-02  0.8607265E-01
       -1   -1    0    0    0  501  0.00000000000E+00  0.00000000000E+00  0.91830824932E+03  0.91830824933E+03  0.50400001928E-02 0.  1.
        1   -1    0    0  501    0  0.00000000000E+00  0.00000000000E+00 -0.10874596509E+04  0.10874596509E+04  0.50400001928E-02 0. -1.
    10030    2    1    2    0    0  0.00000000000E+00  0.00000000000E+00 -0.16915140156E+03  0.20057679002E+04  0.19986226940E+04 0.  0.
        1    1    3    3  502    0 -0.62343721820E+03 -0.77625168425E+03 -0.17080450249E+03  0.10101558397E+04  0.50400001928E-02 0. -1.
       -1    1    3    3    0  502  0.62343721820E+03  0.77625168425E+03  0.16531009363E+01  0.99561206054E+03  0.50400001928E-02 0.  1.
</event>
<event>
 5   0  0.1807498E-04  0.2025396E+04  0.7818609E-02  0.8594838E-01
       -2   -1    0    0    0  501  0.00000000000E+00  0.00000000000E+00  0.63552345074E+03  0.63552345074E+03  0.25500000920E-02 0.  1.
        2   -1    0    0  501    0  0.00000000000E+00  0.00000000000E+00 -0.16137207800E+04  0.16137207800E+04  0.25500000920E-02 0. -1.
    10030    2    1    2    0    0  0.00000000000E+00  0.00000000000E+00 -0.97819732925E+03  0.22492442307E+04  0.20253961574E+04 0.  0.
        5    1    3    3  502    0  0.49817654958E+03  0.70331664776E+03  0.10136122833E+03  0.86783084191E+03  0.46999998093E+01 0. -1.
       -5    1    3    3    0  502 -0.49817654958E+03 -0.70331664776E+03 -0.10795585576E+04  0.13814133888E+04  0.46999998093E+01 0.  1.
</event>
<event>
 5   0  0.8881384E-05  0.2161438E+04  0.7818609E-02  0.8534652E-01
        1   -1    0    0  501    0  0.00000000000E+00  0.00000000000E+00  0.20736857044E+04  0.20736857044E+04  0.50400001928E-02 0.  1.
       -1   -1    0    0    0  501  0.00000000000E+00  0.00000000000E+00 -0.56322608552E+03  0.56322608554E+03  0.50400001928E-02 0. -1.
    10030    2    1    2    0    0  0.00000000000E+00  0.00000000000E+00  0.15104596189E+04  0.26369117899E+04  0.21614383007E+04 0.  0.
        5    1    3    3  502    0 -0.11681175963E+03 -0.28111050184E+02 -0.55504054053E+03  0.56791487915E+03  0.46999998093E+01 0. -1.
       -5    1    3    3    0  502  0.11681175963E+03  0.28111050184E+02  0.20655001594E+04  0.20689969108E+04  0.46999998093E+01 0.  1.
</event>
<event>
 5   0  0.1812865E-04  0.2113144E+04  0.7818609E-02  0.8555475E-01
        2   -1    0    0  501    0  0.00000000000E+00  0.00000000000E+00  0.16962621828E+04  0.16962621828E+04  0.25500000920E-02 0.  1.
       -2   -1    0    0    0  501  0.00000000000E+00  0.00000000000E+00 -0.65812026980E+03  0.65812026981E+03  0.25500000920E-02 0. -1.
    10030    2    1    2    0    0  0.00000000000E+00  0.00000000000E+00  0.10381419130E+04  0.23543824526E+04  0.21131441270E+04 0.  0.
        3    1    3    3  502    0  0.16320425192E+03  0.44189512735E+03 -0.53464343837E+03  0.71256617083E+03  0.10100000352E+00 0. -1.
       -3    1    3    3    0  502 -0.16320425192E+03 -0.44189512735E+03  0.15727853513E+04  0.16418162817E+04  0.10100000352E+00 0.  1.
</event>
<event>
 5   0  0.8577422E-05  0.1969357E+04  0.7818609E-02  0.8621083E-01
        1   -1    0    0  501    0  0.00000000000E+00  0.00000000000E+00  0.11168037640E+04  0.11168037640E+04  0.50400001928E-02 0. -1.
       -1   -1    0    0    0  501  0.00000000000E+00  0.00000000000E+00 -0.86818447818E+03  0.86818447819E+03  0.50400001928E-02 0.  1.
    10030    2    1    2    0    0  0.00000000000E+00  0.00000000000E+00  0.24861928581E+03  0.19849882422E+04  0.19693569439E+04 0.  0.
        2    1    3    3  502    0  0.88849165306E+03  0.16565304187E+03  0.51822275012E+03  0.10418316402E+04  0.25500000920E-02 0. -1.
       -2    1    3    3    0  502 -0.88849165306E+03 -0.16565304187E+03 -0.26960346431E+03  0.94315660196E+03  0.25500000920E-02 0.  1.
</event>
<event>
 5   0  0.8958919E-05  0.2025972E+04  0.7818609E-02  0.8594573E-01
       -1   -1    0    0    0  501  0.00000000000E+00  0.00000000000E+00  0.10032522600E+04  0.10032522600E+04  0.50400001928E-02 0.  1.
        1   -1    0    0  501    0  0.00000000000E+00  0.00000000000E+00 -0.10228143084E+04  0.10228143084E+04  0.50400001928E-02 0. -1.
    10030    2    1    2    0    0  0.00000000000E+00  0.00000000000E+00 -0.19562048418E+02  0.20260665684E+04  0.20259721286E+04 0.  0.
        4    1    3    3  502    0  0.57194149941E+03 -0.72189969435E+03 -0.43156235424E+03  0.10171056612E+04  0.12699999809E+01 0. -1.
       -4    1    3    3    0  502 -0.57194149941E+03  0.72189969435E+03  0.41200030582E+03  0.10089609072E+04  0.12699999809E+01 0.  1.
</event>
<event>
 5   0  0.8861350E-05  0.2152921E+04  0.7818609E-02  0.8538283E-01
       -1   -1    0    0    0  501  0.00000000000E+00  0.00000000000E+00  0.10684171794E+04  0.10684171794E+04  0.50400001928E-02 0.  1.
        1   -1    0    0  501    0  0.00000000000E+00  0.00000000000E+00 -0.10845641949E+04  0.10845641949E+04  0.50400001928E-02 0. -1.
    10030    2    1    2    0    0  0.00000000000E+00  0.00000000000E+00 -0.16147015510E+02  0.21529813744E+04  0.21529208235E+04 0.  0.
        1    1    3    3  502    0  0.30403249436E+03  0.10322126637E+04 -0.37540880533E+02  0.10767116878E+04  0.50400001928E-02 0.  1.
       -1    1    3    3    0  502 -0.30403249436E+03 -0.10322126637E+04  0.21393865024E+02  0.10762696866E+04  0.50400001928E-02 0. -1.
</event>
<event>
 5   0  0.8958919E-05  0.2023939E+04  0.7818609E-02  0.8595509E-01
        1   -1    0    0  501    0  0.00000000000E+00  0.00000000000E+00  0.19351511867E+04  0.19351511867E+04  0.50400001928E-02 0.  1.
       -1   -1    0    0    0  501  0.00000000000E+00  0.00000000000E+00 -0.52920027558E+03  0.52920027561E+03  0.50400001928E-02 0. -1.
    10030    2    1    2    0    0  0.00000000000E+00  0.00000000000E+00  0.14059509111E+04  0.24643514623E+04  0.20239392692E+04 0.  0.
        4    1    3    3  502    0  0.34521965241E+03  0.48189357584E+03 -0.29566777855E+03  0.66243420429E+03  0.12699999809E+01 0. -1.
       -4    1    3    3    0  502 -0.34521965241E+03 -0.48189357584E+03  0.17016186896E+04  0.18019172580E+04  0.12699999809E+01 0.  1.
</event>
<event>
 5   0  0.1782172E-04  0.1969480E+04  0.7818609E-02  0.8621024E-01
        2   -1    0    0  501    0  0.00000000000E+00  0.00000000000E+00  0.78062658509E+03  0.78062658510E+03  0.25500000920E-02 0. -1.
       -2   -1    0    0    0  501  0.00000000000E+00  0.00000000000E+00 -0.12422234060E+04  0.12422234061E+04  0.25500000920E-02 0.  1.
    10030    2    1    2    0    0  0.00000000000E+00  0.00000000000E+00 -0.46159682096E+03  0.20228499911E+04  0.19694797439E+04 0.  0.
        2    1    3    3  502    0 -0.71691531747E+03 -0.36985350308E+03 -0.81086225595E+03  0.11437905334E+04  0.25500000920E-02 0.  1.
       -2    1    3    3    0  502  0.71691531747E+03  0.36985350308E+03  0.34926543500E+03  0.87905945775E+03  0.25500000920E-02 0. -1.
</event>
<event>
 5   0  0.1834645E-04  0.1991760E+04  0.7818609E-02  0.8610483E-01
        2   -1    0    0  501    0  0.00000000000E+00  0.00000000000E+00  0.12296932177E+04  0.12296932177E+04  0.25500000920E-02 0. -1.
       -2   -1    0    0    0  501  0.00000000000E+00  0.00000000000E+00 -0.80652428525E+03  0.80652428526E+03  0.25500000920E-02 0.  1.
    10030    2    1    2    0    0  0.00000000000E+00  0.00000000000E+00  0.42316893242E+03  0.20362175029E+04  0.19917604710E+04 0.  0.
        1    1    3    3  502    0 -0.43592057815E+03  0.82199013348E+03 -0.15142268031E+03  0.94266821212E+03  0.50400001928E-02 0. -1.
       -1    1    3    3    0  502  0.43592057815E+03 -0.82199013348E+03  0.57459161274E+03  0.10935492908E+04  0.50400001928E-02 0.  1.
</event>
<event>
 5   0  0.1812865E-04  0.1888781E+04  0.7818609E-02  0.8660461E-01
       -2   -1    0    0    0  501  0.00000000000E+00  0.00000000000E+00  0.44377313299E+03  0.44377313300E+03  0.25500000920E-02 0. -1.
        2   -1    0    0  501    0  0.00000000000E+00  0.00000000000E+00 -0.20097516448E+04  0.20097516448E+04  0.25500000920E-02 0.  1.
    10030    2    1    2    0    0  0.00000000000E+00  0.00000000000E+00 -0.15659785118E+04  0.24535247778E+04  0.18887813891E+04 0.  0.
        3    1    3    3  502    0  0.34119045754E+03  0.62782859322E+03  0.19129732994E+02  0.71480460804E+03  0.10100000352E+00 0.  1.
       -3    1    3    3    0  502 -0.34119045754E+03 -0.62782859322E+03 -0.15851082448E+04  0.17387201697E+04  0.10100000352E+00 0. -1.
</event>
<event>
 5   0  0.1834645E-04  0.2004755E+04  0.7818609E-02  0.8604401E-01
       -2   -1    0    0    0  501  0.00000000000E+00  0.00000000000E+00  0.67909238423E+03  0.67909238424E+03  0.25500000920E-02 0.  1.
        2   -1    0    0  501    0  0.00000000000E+00  0.00000000000E+00 -0.14795642536E+04  0.14795642536E+04  0.25500000920E-02 0. -1.
    10030    2    1    2    0    0  0.00000000000E+00  0.00000000000E+00 -0.80047186937E+03  0.21586566378E+04  0.20047551637E+04 0.  0.
        1    1    3    3  502    0 -0.79953987164E+03  0.49776732409E+03 -0.76968592256E+03  0.12163275606E+04  0.50400001928E-02 0. -1.
       -1    1    3    3    0  502  0.79953987164E+03 -0.49776732409E+03 -0.30785946814E+02  0.94232907724E+03  0.50400001928E-02 0.  1.
</event>
<event>
 5   0  0.1893687E-04  0.1970766E+04  0.7818609E-02  0.8620412E-01
       -2   -1    0    0    0  501  0.00000000000E+00  0.00000000000E+00  0.73188970558E+03  0.73188970558E+03  0.25500000920E-02 0.  1.
        2   -1    0    0  501    0  0.00000000000E+00  0.00000000000E+00 -0.13266747566E+04  0.13266747566E+04  0.25500000920E-02 0. -1.
    10030    2    1    2    0    0  0.00000000000E+00  0.00000000000E+00 -0.59478505101E+03  0.20585644622E+04  0.19707659394E+04 0.  0.
        4    1    3    3  502    0  0.82167900500E+03 -0.19549934844E+03 -0.82754855220E+03  0.11824612474E+04  0.12699999809E+01 0. -1.
       -4    1    3    3    0  502 -0.82167900500E+03  0.19549934844E+03  0.23276350119E+03  0.87610321475E+03  0.12699999809E+01 0.  1.
</event>
<event>
 5   0  0.8765057E-05  0.1955498E+04  0.7818609E-02  0.8627714E-01
        1   -1    0    0  501    0  0.00000000000E+00  0.00000000000E+00  0.13896244347E+04  0.13896244347E+04  0.50400001928E-02 0. -1.
       -1   -1    0    0    0  501  0.00000000000E+00  0.00000000000E+00 -0.68795043584E+03  0.68795043586E+03  0.50400001928E-02 0.  1.
    10030    2    1    2    0    0  0.00000000000E+00  0.00000000000E+00  0.70167399882E+03  0.20775748705E+04  0.19554976201E+04 0.  0.
        3    1    3    3  502    0 -0.47664439096E+03  0.80844465465E+03  0.59452586028E+02  0.94037612435E+03  0.10100000352E+00 0.  1.
       -3    1    3    3    0  502  0.47664439096E+03 -0.80844465465E+03  0.64222141280E+03  0.11371987462E+04  0.10100000352E+00 0. -1.
</event>
<event>
 5   0  0.8861350E-05  0.2014520E+04  0.7818609E-02  0.8599862E-01
        1   -1    0    0  501    0  0.00000000000E+00  0.00000000000E+00  0.17456214642E+04  0.17456214642E+04  0.50400001928E-02 0. -1.
       -1   -1    0    0    0  501  0.00000000000E+00  0.00000000000E+00 -0.58121012840E+03  0.58121012842E+03  0.50400001928E-02 0.  1.
    10030    2    1    2    0    0  0.00000000000E+00  0.00000000000E+00  0.11644113358E+04  0.23268315927E+04  0.20145201666E+04 0.  0.
        1    1    3    3  502    0  0.28075045720E+03 -0.79930965362E+03  0.12115181502E+04  0.14783412901E+04  0.50400001928E-02 0. -1.
       -1    1    3    3    0  502 -0.28075045720E+03  0.79930965362E+03 -0.47106814396E+02  0.84849030258E+03  0.50400001928E-02 0.  1.
</event>
<event>
 5   0  0.6531625E-05  0.2012002E+04  0.7818609E-02  0.8601030E-01
        3   -1    0    0  501    0  0.00000000000E+00  0.00000000000E+00  0.12630586721E+04  0.12630586761E+04  0.10100000352E+00 0. -1.
       -3   -1    0    0    0  501  0.00000000000E+00  0.00000000000E+00 -0.80126003953E+03  0.80126004590E+03  0.10100000352E+00 0.  1.
    10030    2    1    2    0    0  0.00000000000E+00  0.00000000000E+00  0.46179863252E+03  0.20643187220E+04  0.20120024376E+04 0.  0.
        4    1    3    3  502    0  0.79020253509E+03 -0.51800187012E+03  0.58526513581E+03  0.11114328032E+04  0.12699999809E+01 0. -1.
       -4    1    3    3    0  502 -0.79020253509E+03  0.51800187012E+03 -0.12346650329E+03  0.95288591880E+03  0.12699999809E+01 0.  1.
</event>
<event>
 5   0  0.8861350E-05  0.1996751E+04  0.7818609E-02  0.8608141E-01
        1   -1    0    0  501    0  0.00000000000E+00  0.00000000000E+00  0.18309491358E+04  0.18309491358E+04  0.50400001928E-02 0. -1.
       -1   -1    0    0    0  501  0.00000000000E+00  0.00000000000E+00 -0.54439167705E+03  0.54439167707E+03  0.50400001928E-02 0.  1.
    10030    2    1    2    0    0  0.00000000000E+00  0.00000000000E+00  0.12865574588E+04  0.23753408129E+04  0.19967508314E+04 0.  0.
        1    1    3    3  502    0  0.49377839282E+03  0.66904823544E+03  0.13005931504E+04  0.15436920630E+04  0.50400001928E-02 0. -1.
       -1    1    3    3    0  502 -0.49377839282E+03 -0.66904823544E+03 -0.14035691581E+02  0.83164874991E+03  0.50400001928E-02 0.  1.
</event>
<event>
 5   0  0.8958919E-05  0.1921938E+04  0.7818609E-02  0.8644013E-01
        1   -1    0    0  501    0  0.00000000000E+00  0.00000000000E+00  0.83712537784E+03  0.83712537786E+03  0.50400001928E-02 0.  1.
       -1   -1    0    0    0  501  0.00000000000E+00  0.00000000000E+00 -0.11031339845E+04  0.11031339845E+04  0.50400001928E-02 0. -1.
    10030    2    1    2    0    0  0.00000000000E+00  0.00000000000E+00 -0.26600860661E+03  0.19402593623E+04  0.19219380360E+04 0.  0.
        4    1    3    3  502    0 -0.89578006860E+03  0.28365273774E+03 -0.33636698342E+03  0.99801060483E+03  0.12699999809E+01 0. -1.
       -4    1    3    3    0  502  0.89578006860E+03 -0.28365273774E+03  0.70358376808E+02  0.94224875750E+03  0.12699999809E+01 0.  1.
</event>
<event>
 5   0  0.8765057E-05  0.2026520E+04  0.7818609E-02  0.8594321E-01
        1   -1    0    0  501    0  0.00000000000E+00  0.00000000000E+00  0.16060881212E+04  0.16060881212E+04  0.50400001928E-02 0.  1.
       -1   -1    0    0    0  501  0.00000000000E+00  0.00000000000E+00 -0.63925221831E+03  0.63925221833E+03  0.50400001928E-02 0. -1.
    10030    2    1    2    0    0  0.00000000000E+00  0.00000000000E+00  0.96683590286E+03  0.22453403395E+04  0.20265195724E+04 0.  0.
        3    1    3    3  502    0 -0.20820149274E+03 -0.88650188229E+02  0.15777332995E+04  0.15938786316E+04  0.10100000352E+00 0.  1.
       -3    1    3    3    0  502  0.20820149274E+03  0.88650188229E+02 -0.61089739668E+03  0.65146170795E+03  0.10100000352E+00 0. -1.
</event>
<event>
 5   0  0.1893687E-04  0.1595625E+04  0.7818609E-02  0.8823240E-01
        2   -1    0    0  501    0  0.00000000000E+00  0.00000000000E+00  0.41378370975E+03  0.41378370976E+03  0.25500000920E-02 0. -1.
       -2   -1    0    0    0  501  0.00000000000E+00  0.00000000000E+00 -0.15382550787E+04  0.15382550787E+04  0.25500000920E-02 0.  1.
    10030    2    1    2    0    0  0.00000000000E+00  0.00000000000E+00 -0.11244713690E+04  0.19520387885E+04  0.15956251352E+04 0.  0.
        4    1    3    3  502    0  0.57831457493E+03 -0.15275654594E+02  0.10986316972E+03  0.58885704730E+03  0.12699999809E+01 0. -1.
       -4    1    3    3    0  502 -0.57831457493E+03  0.15275654594E+02 -0.12343345387E+04  0.13631817412E+04  0.12699999809E+01 0.  1.
</event>
<event>
 5   0  0.8577422E-05  0.1996539E+04  0.7818609E-02  0.8608241E-01
        1   -1    0    0  501    0  0.00000000000E+00  0.00000000000E+00  0.14634168660E+04  0.14634168660E+04  0.50400001928E-02 0. -1.
       -1   -1    0    0    0  501  0.00000000000E+00  0.00000000000E+00 -0.68096913737E+03  0.68096913739E+03  0.50400001928E-02 0.  1.
    10030    2    1    2    0    0  0.00000000000E+00  0.00000000000E+00  0.78244772863E+03  0.21443860034E+04  0.19965387258E+04 0.  0.
        2    1    3    3  502    0  0.16748117286E+03 -0.79208850789E+02 -0.66234251742E+03  0.68776565464E+03  0.25500000920E-02 0.  1.
       -2    1    3    3    0  502 -0.16748117286E+03  0.79208850789E+02  0.14447902461E+04  0.14566203488E+04  0.25500000920E-02 0. -1.
</event>
<event>
 5   0  0.8765057E-05  0.2073167E+04  0.7818609E-02  0.8573157E-01
       -1   -1    0    0    0  501  0.00000000000E+00  0.00000000000E+00  0.88580578669E+03  0.88580578670E+03  0.50400001928E-02 0. -1.
        1   -1    0    0  501    0  0.00000000000E+00  0.00000000000E+00 -0.12130256262E+04  0.12130256262E+04  0.50400001928E-02 0.  1.
    10030    2    1    2    0    0  0.00000000000E+00  0.00000000000E+00 -0.32721983952E+03  0.20988314129E+04  0.20731667749E+04 0.  0.
        3    1    3    3  502    0 -0.89170375494E+03  0.49107962881E+03 -0.36150438860E+03  0.10802685877E+04  0.10100000352E+00 0.  1.
       -3    1    3    3    0  502  0.89170375494E+03 -0.49107962881E+03  0.34284549082E+02  0.10185628252E+04  0.10100000352E+00 0. -1.
</event>
<event>
 5   0  0.1807498E-04  0.2005957E+04  0.7818609E-02  0.8603841E-01
       -2   -1    0    0    0  501  0.00000000000E+00  0.00000000000E+00  0.11264062190E+04  0.11264062190E+04  0.25500000920E-02 0. -1.
        2   -1    0    0  501    0  0.00000000000E+00  0.00000000000E+00 -0.89307544748E+03  0.89307544749E+03  0.25500000920E-02 0.  1.
    10030    2    1    2    0    0  0.00000000000E+00  0.00000000000E+00  0.23333077152E+03  0.20194816665E+04  0.20059568670E+04 0.  0.
        5    1    3    3  502    0 -0.39924593053E+03 -0.88490736879E+03  0.37032706130E+03  0.10390488856E+04  0.46999998093E+01 0. -1.
       -5    1    3    3    0  502  0.39924593053E+03  0.88490736879E+03 -0.13699628978E+03  0.98043278087E+03  0.46999998093E+01 0.  1.
</event>
<event>
 5   0  0.8577422E-05  0.1985762E+04  0.7818609E-02  0.8613307E-01
        1   -1    0    0  501    0  0.00000000000E+00  0.00000000000E+00  0.93121415232E+03  0.93121415234E+03  0.50400001928E-02 0.  1.
       -1   -1    0    0    0  501  0.00000000000E+00  0.00000000000E+00 -0.10586313867E+04  0.10586313867E+04  0.50400001928E-02 0. -1.
    10030    2    1    2    0    0  0.00000000000E+00  0.00000000000E+00 -0.12741723434E+03  0.19898455390E+04  0.19857618481E+04 0.  0.
        2    1    3    3  502    0 -0.61302252684E+03  0.48996115305E+02 -0.84480846076E+03  0.10449395069E+04  0.25500000920E-02 0. -1.
       -2    1    3    3    0  502  0.61302252684E+03 -0.48996115305E+02  0.71739122642E+03  0.94490603209E+03  0.25500000920E-02 0.  1.
</event>
<event>
 5   0  0.8881384E-05  0.1865506E+04  0.7818609E-02  0.8672219E-01
        1   -1    0    0  501    0  0.00000000000E+00  0.00000000000E+00  0.14336749391E+04  0.14336749391E+04  0.50400001928E-02 0.  1.
       -1   -1    0    0    0  501  0.00000000000E+00  0.00000000000E+00 -0.60685185401E+03  0.60685185403E+03  0.50400001928E-02 0. -1.
    10030    2    1    2    0    0  0.00000000000E+00  0.00000000000E+00  0.82682308513E+03  0.20405267932E+04  0.18655061457E+04 0.  0.
        5    1    3    3  502    0 -0.41149073674E+03  0.47838211312E+02 -0.50069240103E+03  0.64986774911E+03  0.46999998093E+01 0. -1.
       -5    1    3    3    0  502  0.41149073674E+03 -0.47838211312E+02  0.13275154862E+04  0.13906590441E+04  0.46999998093E+01 0.  1.
</event>
<event>
 5   0  0.8881384E-05  0.2037024E+04  0.7818609E-02  0.8589504E-01
       -1   -1    0    0    0  501  0.00000000000E+00  0.00000000000E+00  0.82142459785E+03  0.82142459786E+03  0.50400001928E-02 0.  1.
        1   -1    0    0  501    0  0.00000000000E+00  0.00000000000E+00 -0.12628873672E+04  0.12628873672E+04  0.50400001928E-02 0. -1.
    10030    2    1    2    0    0  0.00000000000E+00  0.00000000000E+00 -0.44146276931E+03  0.20843119650E+04  0.20370240526E+04 0.  0.
        5    1    3    3  502    0 -0.11889215008E+02  0.94787053936E+03  0.16040010818E+03  0.96143132751E+03  0.46999998093E+01 0.  1.
       -5    1    3    3    0  502  0.11889215008E+02 -0.94787053936E+03 -0.60186287749E+03  0.11228806375E+04  0.46999998093E+01 0. -1.
</event>
<event>
 5   0  0.1782172E-04  0.2018850E+04  0.7818609E-02  0.8597858E-01
        2   -1    0    0  501    0  0.00000000000E+00  0.00000000000E+00  0.98022111874E+03  0.98022111875E+03  0.25500000920E-02 0.  1.
       -2   -1    0    0    0  501  0.00000000000E+00  0.00000000000E+00 -0.10394988279E+04  0.10394988279E+04  0.25500000920E-02 0. -1.
    10030    2    1    2    0    0  0.00000000000E+00  0.00000000000E+00 -0.59277709172E+02  0.20197199467E+04  0.20188498746E+04 0.  0.
        2    1    3    3  502    0  0.61453637573E+03  0.73012357968E+03  0.29944561949E+03  0.10002015186E+04  0.25500000920E-02 0.  1.
       -2    1    3    3    0  502 -0.61453637573E+03 -0.73012357968E+03 -0.35872332866E+03  0.10195184281E+04  0.25500000920E-02 0. -1.
</event>
<event>
 5   0  0.1782172E-04  0.1977426E+04  0.7818609E-02  0.8617248E-01
       -2   -1    0    0    0  501  0.00000000000E+00  0.00000000000E+00  0.13993177190E+04  0.13993177190E+04  0.25500000920E-02 0. -1.
        2   -1    0    0  501    0  0.00000000000E+00  0.00000000000E+00 -0.69859290430E+03  0.69859290430E+03  0.25500000920E-02 0.  1.
    10030    2    1    2    0    0  0.00000000000E+00  0.00000000000E+00  0.70072481471E+03  0.20979106233E+04  0.19774260334E+04 0.  0.
        2    1    3    3  502    0  0.96884736098E+03 -0.64245830929E+02  0.15256028278E+03  0.98288726493E+03  0.25500000920E-02 0.  1.
       -2    1    3    3    0  502 -0.96884736098E+03  0.64245830929E+02  0.54816453193E+03  0.11150233584E+04  0.25500000920E-02 0. -1.
</event>
<event>
 5   0  0.1807498E-04  0.1928313E+04  0.7818609E-02  0.8640890E-01
       -2   -1    0    0    0  501  0.00000000000E+00  0.00000000000E+00  0.77059443157E+03  0.77059443157E+03  0.25500000920E-02 0. -1.
        2   -1    0    0  501    0  0.00000000000E+00  0.00000000000E+00 -0.12063383403E+04  0.12063383404E+04  0.25500000920E-02 0.  1.
    10030    2    1    2    0    0  0.00000000000E+00  0.00000000000E+00 -0.43574390878E+03  0.19769327719E+04  0.19283128456E+04 0.  0.
        5    1    3    3  502    0  0.71314945680E+03  0.54294703941E+03 -0.58207814440E+03  0.10687425750E+04  0.46999998093E+01 0.  1.
       -5    1    3    3    0  502 -0.71314945680E+03 -0.54294703941E+03  0.14633423562E+03  0.90819019696E+03  0.46999998093E+01 0. -1.
</event>
<event>
 5   0  0.1893687E-04  0.1999236E+04  0.7818609E-02  0.8606978E-01
       -2   -1    0    0    0  501  0.00000000000E+00  0.00000000000E+00  0.11074075086E+04  0.11074075086E+04  0.25500000920E-02 0.  1.
        2   -1    0    0  501    0  0.00000000000E+00  0.00000000000E+00 -0.90231978905E+03  0.90231978905E+03  0.25500000920E-02 0. -1.
    10030    2    1    2    0    0  0.00000000000E+00  0.00000000000E+00  0.20508771959E+03  0.20097272977E+04  0.19992355635E+04 0.  0.
        4    1    3    3  502    0  0.10618419937E+03  0.86976753852E+02 -0.89280081611E+03  0.90329117679E+03  0.12699999809E+01 0. -1.
       -4    1    3    3    0  502 -0.10618419937E+03 -0.86976753852E+02  0.10978885357E+04  0.11064361209E+04  0.12699999809E+01 0.  1.
</event>
<event>
 5   0  0.8861350E-05  0.2005693E+04  0.7818609E-02  0.8603963E-01
       -1   -1    0    0    0  501  0.00000000000E+00  0.00000000000E+00  0.77731000685E+03  0.77731000687E+03  0.50400001928E-02 0. -1.
        1   -1    0    0  501    0  0.00000000000E+00  0.00000000000E+00 -0.12938227977E+04  0.12938227977E+04  0.50400001928E-02 0.  1.
    10030    2    1    2    0    0  0.00000000000E+00  0.00000000000E+00 -0.51651279082E+03  0.20711328046E+04  0.20056933043E+04 0.  0.
        1    1    3    3  502    0 -0.69469530624E+03 -0.24643025777E+03  0.44390859293E+03  0.86045585555E+03  0.50400001928E-02 0. -1.
       -1    1    3    3    0  502  0.69469530624E+03  0.24643025777E+03 -0.96042138375E+03  0.12106769490E+04  0.50400001928E-02 0.  1.
</event>
<event>
 5   0  0.1893687E-04  0.2008417E+04  0.7818609E-02  0.8602695E-01
       -2   -1    0    0    0  501  0.00000000000E+00  0.00000000000E+00  0.79503581647E+03  0.79503581647E+03  0.25500000920E-02 0. -1.
        2   -1    0    0  501    0  0.00000000000E+00  0.00000000000E+00 -0.12684146054E+04  0.12684146054E+04  0.25500000920E-02 0.  1.
    10030    2    1    2    0    0  0.00000000000E+00  0.00000000000E+00 -0.47337878898E+03  0.20634504219E+04  0.20084173286E+04 0.  0.
        4    1    3    3  502    0 -0.80803921377E+02 -0.81409361619E+03 -0.83501785868E+03  0.11689885059E+04  0.12699999809E+01 0.  1.
       -4    1    3    3    0  502  0.80803921377E+02  0.81409361619E+03  0.36163906970E+03  0.89446191605E+03  0.12699999809E+01 0. -1.
</event>
<event>
 5   0  0.8958919E-05  0.2215001E+04  0.7818609E-02  0.8512210E-01
       -1   -1    0    0    0  501  0.00000000000E+00  0.00000000000E+00  0.11723246013E+04  0.11723246013E+04  0.50400001928E-02 0.  1.
        1   -1    0    0  501    0  0.00000000000E+00  0.00000000000E+00 -0.10462610454E+04  0.10462610455E+04  0.50400001928E-02 0. -1.
    10030    2    1    2    0    0  0.00000000000E+00  0.00000000000E+00  0.12606355588E+03  0.22185856468E+04  0.22150011856E+04 0.  0.
        4    1    3    3  502    0 -0.42690712905E+03  0.53810198261E+03  0.93320260419E+03  0.11587373101E+04  0.12699999809E+01 0.  1.
       -4    1    3    3    0  502  0.42690712905E+03 -0.53810198261E+03 -0.80713904831E+03  0.10598483367E+04  0.12699999809E+01 0. -1.
</event>
<event>
 5   0  0.1834645E-04  0.1580512E+04  0.7818609E-02  0.8832610E-01
        2   -1    0    0  501    0  0.00000000000E+00  0.00000000000E+00  0.11679588724E+04  0.11679588724E+04  0.25500000920E-02 0.  1.
       -2   -1    0    0    0  501  0.00000000000E+00  0.00000000000E+00 -0.53469741851E+03  0.53469741851E+03  0.25500000920E-02 0. -1.
    10030    2    1    2    0    0  0.00000000000E+00  0.00000000000E+00  0.63326145388E+03  0.17026562909E+04  0.15805120613E+04 0.  0.
        1    1    3    3  502    0 -0.62010207556E+01 -0.35076214484E+03  0.10794738255E+04  0.11350490187E+04  0.50400001928E-02 0.  1.
       -1    1    3    3    0  502  0.62010207556E+01  0.35076214484E+03 -0.44621237158E+03  0.56760727223E+03  0.50400001928E-02 0. -1.
</event>
<event>
 5   0  0.8765057E-05  0.1992624E+04  0.7818609E-02  0.8610077E-01
       -1   -1    0    0    0  501  0.00000000000E+00  0.00000000000E+00  0.10178987462E+04  0.10178987462E+04  0.50400001928E-02 0. -1.
        1   -1    0    0  501    0  0.00000000000E+00  0.00000000000E+00 -0.97518316003E+03  0.97518316004E+03  0.50400001928E-02 0.  1.
    10030    2    1    2    0    0  0.00000000000E+00  0.00000000000E+00  0.42715586162E+02  0.19930819062E+04  0.19926241150E+04 0.  0.
        3    1    3    3  502    0 -0.51783877119E+03  0.15165228236E+03 -0.81638002760E+03  0.97858661720E+03  0.10100000352E+00 0.  1.
       -3    1    3    3    0  502  0.51783877119E+03 -0.15165228236E+03  0.85909561377E+03  0.10144952890E+04  0.10100000352E+00 0. -1.
</event>
<event>
 5   0  0.1812865E-04  0.1928492E+04  0.7818609E-02  0.8640803E-01
       -2   -1    0    0    0  501  0.00000000000E+00  0.00000000000E+00  0.87543001201E+03  0.87543001201E+03  0.25500000920E-02 0. -1.
        2   -1    0    0  501    0  0.00000000000E+00  0.00000000000E+00 -0.10620726574E+04  0.10620726574E+04  0.25500000920E-02 0.  1.
    10030    2    1    2    0    0  0.00000000000E+00  0.00000000000E+00 -0.18664264535E+03  0.19375026694E+04  0.19284919281E+04 0.  0.
        3    1    3    3  502    0  0.62677253051E+03 -0.63825821827E+03  0.26829503847E+03  0.93391626823E+03  0.10100000352E+00 0. -1.
       -3    1    3    3    0  502 -0.62677253051E+03  0.63825821827E+03 -0.45493768382E+03  0.10035864011E+04  0.10100000352E+00 0.  1.
</event>
<event>
 5   0  0.8881384E-05  0.1872069E+04  0.7818609E-02  0.8668885E-01
        1   -1    0    0  501    0  0.00000000000E+00  0.00000000000E+00  0.97734698537E+03  0.97734698538E+03  0.50400001928E-02 0.  1.
       -1   -1    0    0    0  501  0.00000000000E+00  0.00000000000E+00 -0.89646863740E+03  0.89646863742E+03  0.50400001928E-02 0. -1.
    10030    2    1    2    0    0  0.00000000000E+00  0.00000000000E+00  0.80878347966E+02  0.18738156228E+04  0.18720693580E+04 0.  0.
        5    1    3    3  502    0 -0.93306201903E+03 -0.32169529193E+02  0.10757797021E+03  0.93980568185E+03  0.46999998093E+01 0.  1.
       -5    1    3    3    0  502  0.93306201903E+03  0.32169529193E+02 -0.26699622243E+02  0.93400994095E+03  0.46999998093E+01 0. -1.
</event>
<event>
 5   0  0.1834645E-04  0.2010763E+04  0.7818609E-02  0.8601605E-01
       -2   -1    0    0    0  501  0.00000000000E+00  0.00000000000E+00  0.83427401323E+03  0.83427401323E+03  0.25500000920E-02 0.  1.
        2   -1    0    0  501    0  0.00000000000E+00  0.00000000000E+00 -0.12115824866E+04  0.12115824866E+04  0.25500000920E-02 0. -1.
    10030    2    1    2    0    0  0.00000000000E+00  0.00000000000E+00 -0.37730847342E+03  0.20458564999E+04  0.20107628239E+04 0.  0.
        1    1    3    3  502    0  0.41816189943E+02  0.20502733054E+03  0.81187348530E+03  0.83840524579E+03  0.50400001928E-02 0.  1.
       -1    1    3    3    0  502 -0.41816189943E+02 -0.20502733054E+03 -0.11891819587E+04  0.12074512541E+04  0.50400001928E-02 0. -1.
</event>
<event>
 5   0  0.1812865E-04  0.2001912E+04  0.7818609E-02  0.8605727E-01
        2   -1    0    0  501    0  0.00000000000E+00  0.00000000000E+00  0.15855656987E+04  0.15855656987E+04  0.25500000920E-02 0. -1.
       -2   -1    0    0    0  501  0.00000000000E+00  0.00000000000E+00 -0.63189602276E+03  0.63189602277E+03  0.25500000920E-02 0.  1.
    10030    2    1    2    0    0  0.00000000000E+00  0.00000000000E+00  0.95366967591E+03  0.22174617214E+04  0.20019117451E+04 0.  0.
        3    1    3    3  502    0  0.67785293385E+03  0.53739976498E+03  0.10346767261E+04  0.13486434092E+04  0.10100000352E+00 0. -1.
       -3    1    3    3    0  502 -0.67785293385E+03 -0.53739976498E+03 -0.81007050217E+02  0.86881831226E+03  0.10100000352E+00 0.  1.
</event>
<event>
 5   0  0.6531625E-05  0.2016680E+04  0.7818609E-02  0.8598862E-01
        3   -1    0    0  501    0  0.00000000000E+00  0.00000000000E+00  0.64564642949E+03  0.64564643739E+03  0.10100000352E+00 0. -1.
       -3   -1    0    0    0  501  0.00000000000E+00  0.00000000000E+00 -0.15747780920E+04  0.15747780953E+04  0.10100000352E+00 0.  1.
    10030    2    1    2    0    0  0.00000000000E+00  0.00000000000E+00 -0.92913166254E+03  0.22204245327E+04  0.20166803066E+04 0.  0.
        4    1    3    3  502    0  0.82957663929E+03  0.53461373302E+03 -0.69218622895E+03  0.12054595109E+04  0.12699999809E+01 0.  1.
       -4    1    3    3    0  502 -0.82957663929E+03 -0.53461373302E+03 -0.23694543359E+03  0.10149650218E+04  0.12699999809E+01 0. -1.
</event>
<event>
 5   0  0.8958919E-05  0.1912897E+04  0.7818609E-02  0.8648463E-01
       -1   -1    0    0    0  501  0.00000000000E+00  0.00000000000E+00  0.90704990578E+03  0.90704990579E+03  0.50400001928E-02 0.  1.
        1   -1    0    0  501    0  0.00000000000E+00  0.00000000000E+00 -0.10085374230E+04  0.10085374230E+04  0.50400001928E-02 0. -1.
    10030    2    1    2    0    0  0.00000000000E+00  0.00000000000E+00 -0.10148751720E+03  0.19155873288E+04  0.19128970432E+04 0.  0.
        4    1    3    3  502    0 -0.83139803667E+03  0.37005694028E+03  0.24399538490E+03  0.94217843065E+03  0.12699999809E+01 0.  1.
       -4    1    3    3    0  502  0.83139803667E+03 -0.37005694028E+03 -0.34548290209E+03  0.97340889814E+03  0.12699999809E+01 0. -1.
</event>
<event>
 5   0  0.8577422E-05  0.1831533E+04  0.7818609E-02  0.8689708E-01
        1   -1    0    0  501    0  0.00000000000E+00  0.00000000000E+00  0.73545457223E+03  0.73545457225E+03  0.50400001928E-02 0. -1.
       -1   -1    0    0    0  501  0.00000000000E+00  0.00000000000E+00 -0.11402855812E+04  0.11402855812E+04  0.50400001928E-02 0.  1.
    10030    2    1    2    0    0  0.00000000000E+00  0.00000000000E+00 -0.40483100896E+03  0.18757401535E+04  0.18315329583E+04 0.  0.
        2    1    3    3  502    0  0.69479585863E+03 -0.57460260820E+03 -0.38173852989E+02  0.90242267568E+03  0.25500000920E-02 0.  1.
       -2    1    3    3    0  502 -0.69479585863E+03  0.57460260820E+03 -0.36665715597E+03  0.97331747778E+03  0.25500000920E-02 0. -1.
</event>
<event>
 5   0  0.1893687E-04  0.2015191E+04  0.7818609E-02  0.8599551E-01
        2   -1    0    0  501    0  0.00000000000E+00  0.00000000000E+00  0.25685129382E+04  0.25685129382E+04  0.25500000920E-02 0.  1.
       -2   -1    0    0    0  501  0.00000000000E+00  0.00000000000E+00 -0.39526712162E+03  0.39526712163E+03  0.25500000920E-02 0. -1.
    10030    2    1    2    0    0  0.00000000000E+00  0.00000000000E+00  0.21732458165E+04  0.29637800598E+04  0.20151910241E+04 0.  0.
        4    1    3    3  502    0 -0.11251386612E+03  0.63395163739E+03  0.22264948326E+04  0.23177219206E+04  0.12699999809E+01 0.  1.
       -4    1    3    3    0  502  0.11251386612E+03 -0.63395163739E+03 -0.53249016066E+02  0.64605813921E+03  0.12699999809E+01 0. -1.
</event>
<event>
 5   0  0.1834645E-04  0.2001122E+04  0.7818609E-02  0.8606096E-01
        2   -1    0    0  501    0  0.00000000000E+00  0.00000000000E+00  0.11746168874E+04  0.11746168874E+04  0.25500000920E-02 0.  1.
       -2   -1    0    0    0  501  0.00000000000E+00  0.00000000000E+00 -0.85229669837E+03  0.85229669837E+03  0.25500000920E-02 0. -1.
    10030    2    1    2    0    0  0.00000000000E+00  0.00000000000E+00  0.32232018900E+03  0.20269135857E+04  0.20011217804E+04 0.  0.
        1    1    3    3  502    0 -0.82295123143E+03  0.80542845931E+02  0.73179159887E+03  0.11041987247E+04  0.50400001928E-02 0.  1.
       -1    1    3    3    0  502  0.82295123143E+03 -0.80542845931E+02 -0.40947140987E+03  0.92271486108E+03  0.50400001928E-02 0. -1.
</event>
<event>
 5   0  0.8861350E-05  0.2150112E+04  0.7818609E-02  0.8539484E-01
        1   -1    0    0  501    0  0.00000000000E+00  0.00000000000E+00  0.87372524174E+03  0.87372524176E+03  0.50400001928E-02 0.  1.
       -1   -1    0    0    0  501  0.00000000000E+00  0.00000000000E+00 -0.13227792391E+04  0.13227792391E+04  0.50400001928E-02 0. -1.
    10030    2    1    2    0    0  0.00000000000E+00  0.00000000000E+00 -0.44905399731E+03  0.21965044808E+04  0.21501121928E+04 0.  0.
        1    1    3    3  502    0 -0.76229356190E+03  0.74095955628E+03 -0.60969184041E+02  0.10648144345E+04  0.50400001928E-02 0.  1.
       -1    1    3    3    0  502  0.76229356190E+03 -0.74095955628E+03 -0.38808481327E+03  0.11316900463E+04  0.50400001928E-02 0. -1.
</event>
<event>
 5   0  0.1807498E-04  0.1993711E+04  0.7818609E-02  0.8609567E-01
        2   -1    0    0  501    0  0.00000000000E+00  0.00000000000E+00  0.24146790094E+04  0.24146790094E+04  0.25500000920E-02 0. -1.
       -2   -1    0    0    0  501  0.00000000000E+00  0.00000000000E+00 -0.41153314423E+03  0.41153314423E+03  0.25500000920E-02 0.  1.
    10030    2    1    2    0    0  0.00000000000E+00  0.00000000000E+00  0.20031458651E+04  0.28262121536E+04  0.19937105558E+04 0.  0.
        5    1    3    3  502    0 -0.46382599888E+03  0.22708634829E+03  0.22102451488E+04  0.22697815918E+04  0.46999998093E+01 0. -1.
       -5    1    3    3    0  502  0.46382599888E+03 -0.22708634829E+03 -0.20709928364E+03  0.55643056179E+03  0.46999998093E+01 0.  1.
</event>
<event>
 5   0  0.8958919E-05  0.2018743E+04  0.7818609E-02  0.8597907E-01
        1   -1    0    0  501    0  0.00000000000E+00  0.00000000000E+00  0.10146517636E+04  0.10146517636E+04  0.50400001928E-02 0.  1.
       -1   -1    0    0    0  501  0.00000000000E+00  0.00000000000E+00 -0.10041190106E+04  0.10041190106E+04  0.50400001928E-02 0. -1.
    10030    2    1    2    0    0  0.00000000000E+00  0.00000000000E+00  0.10532753019E+02  0.20187707742E+04  0.20187432972E+04 0.  0.
        4    1    3    3  502    0 -0.68511380774E+03 -0.31489607981E+03  0.67631130737E+03  0.10128865030E+04  0.12699999809E+01 0.  1.
       -4    1    3    3    0  502  0.68511380774E+03  0.31489607981E+03 -0.66577855435E+03  0.10058842712E+04  0.12699999809E+01 0. -1.
</event>
<event>
 5   0  0.8765057E-05  0.2010044E+04  0.7818609E-02  0.8601939E-01
        1   -1    0    0  501    0  0.00000000000E+00  0.00000000000E+00  0.91078316166E+03  0.91078316167E+03  0.50400001928E-02 0.  1.
       -1   -1    0    0    0  501  0.00000000000E+00  0.00000000000E+00 -0.11090116842E+04  0.11090116842E+04  0.50400001928E-02 0. -1.
    10030    2    1    2    0    0  0.00000000000E+00  0.00000000000E+00 -0.19822852252E+03  0.20197948459E+04  0.20100439478E+04 0.  0.
        3    1    3    3  502    0 -0.55196481022E+03 -0.25475284101E+03  0.70508369948E+03  0.93097110331E+03  0.10100000352E+00 0.  1.
       -3    1    3    3    0  502  0.55196481022E+03  0.25475284101E+03 -0.90331222200E+03  0.10888237426E+04  0.10100000352E+00 0. -1.
</event>
<event>
 5   0  0.8577422E-05  0.1962351E+04  0.7818609E-02  0.8624428E-01
        1   -1    0    0  501    0  0.00000000000E+00  0.00000000000E+00  0.24589925022E+04  0.24589925022E+04  0.50400001928E-02 0.  1.
       -1   -1    0    0    0  501  0.00000000000E+00  0.00000000000E+00 -0.39150394073E+03  0.39150394076E+03  0.50400001928E-02 0. -1.
    10030    2    1    2    0    0  0.00000000000E+00  0.00000000000E+00  0.20674885615E+04  0.28504964430E+04  0.19623508910E+04 0.  0.
        2    1    3    3  502    0  0.92295533167E+03 -0.15340701376E+03  0.60449148679E+03  0.11139076325E+04  0.25500000920E-02 0.  1.
       -2    1    3    3    0  502 -0.92295533167E+03  0.15340701376E+03  0.14629970747E+04  0.17365888105E+04  0.25500000920E-02 0. -1.
</event>
<event>
 5   0  0.1893687E-04  0.2061527E+04  0.7818609E-02  0.8578383E-01
        2   -1    0    0  501    0  0.00000000000E+00  0.00000000000E+00  0.10770353740E+04  0.10770353741E+04  0.25500000920E-02 0. -1.
       -2   -1    0    0    0  501  0.00000000000E+00  0.00000000000E+00 -0.98648001563E+03  0.98648001564E+03  0.25500000920E-02 0.  1.
    10030    2    1    2    0    0  0.00000000000E+00  0.00000000000E+00  0.90555358418E+02  0.20635153897E+04  0.20615274654E+04 0.  0.
        4    1    3    3  502    0 -0.68245779915E+03 -0.60634018570E+03  0.52435721047E+03  0.10527816324E+04  0.12699999809E+01 0. -1.
       -4    1    3    3    0  502  0.68245779915E+03  0.60634018570E+03 -0.43380185205E+03  0.10107337573E+04  0.12699999809E+01 0.  1.
</event>
<event>
 5   0  0.8861350E-05  0.2042064E+04  0.7818609E-02  0.8587203E-01
        1   -1    0    0  501    0  0.00000000000E+00  0.00000000000E+00  0.68541021557E+03  0.68541021559E+03  0.50400001928E-02 0. -1.
       -1   -1    0    0    0  501  0.00000000000E+00  0.00000000000E+00 -0.15209957737E+04  0.15209957737E+04  0.50400001928E-02 0.  1.
    10030    2    1    2    0    0  0.00000000000E+00  0.00000000000E+00 -0.83558555808E+03  0.22064059892E+04  0.20420637024E+04 0.  0.
        1    1    3    3  502    0 -0.11180499424E+03 -0.93734747650E+03  0.26027878861E+01  0.94399545707E+03  0.50400001928E-02 0. -1.
       -1    1    3    3    0  502  0.11180499424E+03  0.93734747650E+03 -0.83818834597E+03  0.12624105322E+04  0.50400001928E-02 0.  1.
</event>
<event>
 5   0  0.8765057E-05  0.1966302E+04  0.7818609E-02  0.8622540E-01
        1   -1    0    0  501    0  0.00000000000E+00  0.00000000000E+00  0.27058563098E+04  0.27058563098E+04  0.50400001928E-02 0.  1.
       -1   -1    0    0    0  501  0.00000000000E+00  0.00000000000E+00 -0.35721988105E+03  0.35721988109E+03  0.50400001928E-02 0. -1.
    10030    2    1    2    0    0  0.00000000000E+00  0.00000000000E+00  0.23486364288E+04  0.30630761909E+04  0.19663017766E+04 0.  0.
        3    1    3    3  502    0  0.49548332084E+03  0.67311081355E+03  0.36786703763E+03  0.91318566355E+03  0.10100000352E+00 0. -1.
       -3    1    3    3    0  502 -0.49548332084E+03 -0.67311081355E+03  0.19807693911E+04  0.21498905274E+04  0.10100000352E+00 0.  1.
</event>
<event>
 5   0  0.1782172E-04  0.1981986E+04  0.7818609E-02  0.8615089E-01
        2   -1    0    0  501    0  0.00000000000E+00  0.00000000000E+00  0.10561929245E+04  0.10561929245E+04  0.25500000920E-02 0. -1.
       -2   -1    0    0    0  501  0.00000000000E+00  0.00000000000E+00 -0.92981772757E+03  0.92981772757E+03  0.25500000920E-02 0.  1.
    10030    2    1    2    0    0  0.00000000000E+00  0.00000000000E+00  0.12637519696E+03  0.19860106521E+04  0.19819857769E+04 0.  0.
        2    1    3    3  502    0 -0.26195235610E+03 -0.99899029053E+02  0.10156271896E+04  0.10536116178E+04  0.25500000920E-02 0. -1.
       -2    1    3    3    0  502  0.26195235610E+03  0.99899029053E+02 -0.88925199261E+03  0.93239903435E+03  0.25500000920E-02 0.  1.
</event>
<event>
 5   0  0.1893687E-04  0.2005009E+04  0.7818609E-02  0.8604283E-01
       -2   -1    0    0    0  501  0.00000000000E+00  0.00000000000E+00  0.56793165835E+03  0.56793165836E+03  0.25500000920E-02 0. -1.
        2   -1    0    0  501    0  0.00000000000E+00  0.00000000000E+00 -0.17696051843E+04  0.17696051843E+04  0.25500000920E-02 0.  1.
    10030    2    1    2    0    0  0.00000000000E+00  0.00000000000E+00 -0.12016735259E+04  0.23375368426E+04  0.20050085356E+04 0.  0.
        4    1    3    3  502    0 -0.69030415030E+03 -0.98059588065E+02  0.23896104814E+03  0.73704782624E+03  0.12699999809E+01 0. -1.
       -4    1    3    3    0  502  0.69030415030E+03  0.98059588065E+02 -0.14406345741E+04  0.16004890164E+04  0.12699999809E+01 0.  1.
</event>
<event>
 5   0  0.8881384E-05  0.1985545E+04  0.7818609E-02  0.8613409E-01
        1   -1    0    0  501    0  0.00000000000E+00  0.00000000000E+00  0.16792861635E+04  0.16792861635E+04  0.50400001928E-02 0.  1.
       -1   -1    0    0    0  501  0.00000000000E+00  0.00000000000E+00 -0.58691424152E+03  0.58691424155E+03  0.50400001928E-02 0. -1.
    10030    2    1    2    0    0  0.00000000000E+00  0.00000000000E+00  0.10923719220E+04  0.22662004050E+04  0.19855447262E+04 0.  0.
        5    1    3    3  502    0 -0.12431872898E+03  0.73155823794E+03 -0.20653575981E+03  0.77026729903E+03  0.46999998093E+01 0. -1.
       -5    1    3    3    0  502  0.12431872898E+03 -0.73155823794E+03  0.12989076818E+04  0.14959331060E+04  0.46999998093E+01 0.  1.
</event>
<event>
 5   0  0.1893687E-04  0.2002066E+04  0.7818609E-02  0.8605655E-01
       -2   -1    0    0    0  501  0.00000000000E+00  0.00000000000E+00  0.72881942286E+03  0.72881942287E+03  0.25500000920E-02 0.  1.
        2   -1    0    0  501    0  0.00000000000E+00  0.00000000000E+00 -0.13749186671E+04  0.13749186671E+04  0.25500000920E-02 0. -1.
    10030    2    1    2    0    0  0.00000000000E+00  0.00000000000E+00 -0.64609924424E+03  0.21037380900E+04  0.20020663620E+04 0.  0.
        4    1    3    3  502    0  0.89280977839E+03 -0.44759968018E+03 -0.25169653590E+03  0.10299551122E+04  0.12699999809E+01 0. -1.
       -4    1    3    3    0  502 -0.89280977839E+03  0.44759968018E+03 -0.39440270834E+03  0.10737829778E+04  0.12699999809E+01 0.  1.
</event>
<event>
 5   0  0.8577422E-05  0.1908274E+04  0.7818609E-02  0.8650749E-01
       -1   -1    0    0    0  501  0.00000000000E+00  0.00000000000E+00  0.62995858209E+03  0.62995858211E+03  0.50400001928E-02 0.  1.
        1   -1    0    0  501    0  0.00000000000E+00  0.00000000000E+00 -0.14451377924E+04  0.14451377924E+04  0.50400001928E-02 0. -1.
    10030    2    1    2    0    0  0.00000000000E+00  0.00000000000E+00 -0.81517921028E+03  0.20750963745E+04  0.19082735177E+04 0.  0.
        2    1    3    3  502    0  0.63749911293E+03  0.38406657844E+03  0.24165135615E+03  0.78250088409E+03  0.25500000920E-02 0.  1.
       -2    1    3    3    0  502 -0.63749911293E+03 -0.38406657844E+03 -0.10568305664E+04  0.12925954904E+04  0.25500000920E-02 0. -1.
</event>
<event>
 5   0  0.1807498E-04  0.2018239E+04  0.7818609E-02  0.8598141E-01
        2   -1    0    0  501    0  0.00000000000E+00  0.00000000000E+00  0.11204956498E+04  0.11204956498E+04  0.25500000920E-02 0.  1.
       -2   -1    0    0    0  501  0.00000000000E+00  0.00000000000E+00 -0.90881362754E+03  0.90881362754E+03  0.25500000920E-02 0. -1.
    10030    2    1    2    0    0  0.00000000000E+00  0.00000000000E+00  0.21168202222E+03  0.20293092773E+04  0.20182385549E+04 0.  0.
        5    1    3    3  502    0 -0.50854422841E+02 -0.53092062785E+03  0.96718270145E+03  0.11045032156E+04  0.46999998093E+01 0.  1.
       -5    1    3    3    0  502  0.50854422841E+02  0.53092062785E+03 -0.75550067922E+03  0.92480606167E+03  0.46999998093E+01 0. -1.
</event>
<event>
 5   0  0.8958919E-05  0.1714757E+04  0.7818609E-02  0.8752992E-01
        1   -1    0    0  501    0  0.00000000000E+00  0.00000000000E+00  0.11858892960E+04  0.11858892960E+04  0.50400001928E-02 0.  1.
       -1   -1    0    0    0  501  0.00000000000E+00  0.00000000000E+00 -0.61987082920E+03  0.61987082922E+03  0.50400001928E-02 0. -1.
    10030    2    1    2    0    0  0.00000000000E+00  0.00000000000E+00  0.56601846681E+03  0.18057601252E+04  0.17147573371E+04 0.  0.
        4    1    3    3  502    0  0.79723724641E+03  0.16673306942E+03  0.56500689604E+03  0.99127269153E+03  0.12699999809E+01 0.  1.
       -4    1    3    3    0  502 -0.79723724641E+03 -0.16673306942E+03  0.10115707691E+01  0.81448743371E+03  0.12699999809E+01 0. -1.
</event>
<event>
 5   0  0.1812865E-04  0.2013381E+04  0.7818609E-02  0.8600390E-01
        2   -1    0    0  501    0  0.00000000000E+00  0.00000000000E+00  0.96760111177E+03  0.96760111177E+03  0.25500000920E-02 0.  1.
       -2   -1    0    0    0  501  0.00000000000E+00  0.00000000000E+00 -0.10473593509E+04  0.10473593509E+04  0.25500000920E-02 0. -1.
    10030    2    1    2    0    0  0.00000000000E+00  0.00000000000E+00 -0.79758239130E+02  0.20149604627E+04  0.20133813075E+04 0.  0.
        3    1    3    3  502    0 -0.76731030473E+03 -0.62296746307E+03  0.15151024972E+03  0.99990446032E+03  0.10100000352E+00 0.  1.
       -3    1    3    3    0  502  0.76731030473E+03  0.62296746307E+03 -0.23126848885E+03  0.10150560024E+04  0.10100000352E+00 0. -1.
</event>
<event>
 5   0  0.6531625E-05  0.1437122E+04  0.7818609E-02  0.8927378E-01
        4   -1    0    0  501    0  0.00000000000E+00  0.00000000000E+00  0.56280951872E+03  0.56281095161E+03  0.12699999809E+01 0.  1.
       -4   -1    0    0    0  501  0.00000000000E+00  0.00000000000E+00 -0.91741152499E+03  0.91741240404E+03  0.12699999809E+01 0. -1.
    10030    2    1    2    0    0  0.00000000000E+00  0.00000000000E+00 -0.35460200627E+03  0.14802233556E+04  0.14371216371E+04 0.  0.
        3    1    3    3  502    0  0.12673542784E+03 -0.26301273097E+02  0.55070425090E+03  0.56571088711E+03  0.10100000352E+00 0.  1.
       -3    1    3    3    0  502 -0.12673542784E+03  0.26301273097E+02 -0.90530625717E+03  0.91451246854E+03  0.10100000352E+00 0. -1.
</event>
<event>
 5   0  0.1782172E-04  0.1994312E+04  0.7818609E-02  0.8609285E-01
       -2   -1    0    0    0  501  0.00000000000E+00  0.00000000000E+00  0.68596062492E+03  0.68596062492E+03  0.25500000920E-02 0.  1.
        2   -1    0    0  501    0  0.00000000000E+00  0.00000000000E+00 -0.14495287566E+04  0.14495287566E+04  0.25500000920E-02 0. -1.
    10030    2    1    2    0    0  0.00000000000E+00  0.00000000000E+00 -0.76356813168E+03  0.21354893815E+04  0.19943115621E+04 0.  0.
        2    1    3    3  502    0 -0.94654709304E+03 -0.32995623505E+02 -0.47808137268E+02  0.94832785918E+03  0.25500000920E-02 0.  1.
       -2    1    3    3    0  502  0.94654709304E+03  0.32995623505E+02 -0.71575999441E+03  0.11871615223E+04  0.25500000920E-02 0. -1.
</event>
<event>
 5   0  0.6531625E-05  0.2029350E+04  0.7818609E-02  0.8593020E-01
        3   -1    0    0  501    0  0.00000000000E+00  0.00000000000E+00  0.20459316063E+04  0.20459316088E+04  0.10100000352E+00 0.  1.
       -3   -1    0    0    0  501  0.00000000000E+00  0.00000000000E+00 -0.50322548877E+03  0.50322549890E+03  0.10100000352E+00 0. -1.
    10030    2    1    2    0    0  0.00000000000E+00  0.00000000000E+00  0.15427061175E+04  0.25491571077E+04  0.20293495989E+04 0.  0.
        3    1    3    3  502    0  0.56865935793E+03 -0.53885331651E+03 -0.38669097402E+02  0.78436705143E+03  0.10100000352E+00 0. -1.
       -3    1    3    3    0  502 -0.56865935793E+03  0.53885331651E+03  0.15813752149E+04  0.17647900562E+04  0.10100000352E+00 0.  1.
</event>
<event>
 5   0  0.1893687E-04  0.1989679E+04  0.7818609E-02  0.8611461E-01
        2   -1    0    0  501    0  0.00000000000E+00  0.00000000000E+00  0.76979601316E+03  0.76979601317E+03  0.25500000920E-02 0.  1.
       -2   -1    0    0    0  501  0.00000000000E+00  0.00000000000E+00 -0.12856725117E+04  0.12856725117E+04  0.25500000920E-02 0. -1.
    10030    2    1    2    0    0  0.00000000000E+00  0.00000000000E+00 -0.51587649851E+03  0.20554685248E+04  0.19896789427E+04 0.  0.
        4    1    3    3  502    0  0.19569189738E+03  0.51539130986E+03  0.59756246025E+03  0.81302277199E+03  0.12699999809E+01 0.  1.
       -4    1    3    3    0  502 -0.19569189738E+03 -0.51539130986E+03 -0.11134389588E+04  0.12424457528E+04  0.12699999809E+01 0. -1.
</event>
<event>
 5   0  0.1807498E-04  0.2000925E+04  0.7818609E-02  0.8606188E-01
       -2   -1    0    0    0  501  0.00000000000E+00  0.00000000000E+00  0.57627057002E+03  0.57627057003E+03  0.25500000920E-02 0. -1.
        2   -1    0    0  501    0  0.00000000000E+00  0.00000000000E+00 -0.17369017814E+04  0.17369017814E+04  0.25500000920E-02 0.  1.
    10030    2    1    2    0    0  0.00000000000E+00  0.00000000000E+00 -0.11606312114E+04  0.23131723515E+04  0.20009251657E+04 0.  0.
        5    1    3    3  502    0 -0.35672715498E+03  0.57289193332E+03 -0.14341077896E+04  0.15849752908E+04  0.46999998093E+01 0.  1.
       -5    1    3    3    0  502  0.35672715498E+03 -0.57289193332E+03  0.27347657815E+03  0.72819706066E+03  0.46999998093E+01 0. -1.
</event>
<event>
 5   0  0.8958919E-05  0.1997565E+04  0.7818609E-02  0.8607760E-01
        1   -1    0    0  501    0  0.00000000000E+00  0.00000000000E+00  0.50941472627E+03  0.50941472629E+03  0.50400001928E-02 0. -1.
       -1   -1    0    0    0  501  0.00000000000E+00  0.00000000000E+00 -0.19582593922E+04  0.19582593922E+04  0.50400001928E-02 0.  1.
    10030    2    1    2    0    0  0.00000000000E+00  0.00000000000E+00 -0.14488446659E+04  0.24676741185E+04  0.19975646896E+04 0.  0.
        4    1    3    3  502    0  0.73340141443E+03 -0.24877663743E+03 -0.15035663948E+04  0.16912956473E+04  0.12699999809E+01 0.  1.
       -4    1    3    3    0  502 -0.73340141443E+03  0.24877663743E+03  0.54721728892E+02  0.77637847119E+03  0.12699999809E+01 0. -1.
</event>
<event>
 5   0  0.8577422E-05  0.2007810E+04  0.7818609E-02  0.8602978E-01
       -1   -1    0    0    0  501  0.00000000000E+00  0.00000000000E+00  0.81076100259E+03  0.81076100260E+03  0.50400001928E-02 0. -1.
        1   -1    0    0  501    0  0.00000000000E+00  0.00000000000E+00 -0.12430605626E+04  0.12430605626E+04  0.50400001928E-02 0.  1.
    10030    2    1    2    0    0  0.00000000000E+00  0.00000000000E+00 -0.43229956001E+03  0.20538215652E+04  0.20078097799E+04 0.  0.
        2    1    3    3  502    0  0.32855430404E+03  0.37756104243E+03 -0.11063367259E+04  0.12142821841E+04  0.25500000920E-02 0.  1.
       -2    1    3    3    0  502 -0.32855430404E+03 -0.37756104243E+03  0.67403716589E+03  0.83953938114E+03  0.25500000920E-02 0. -1.
</event>
<event>
 5   0  0.1807498E-04  0.2101279E+04  0.7818609E-02  0.8560680E-01
        2   -1    0    0  501    0  0.00000000000E+00  0.00000000000E+00  0.15385824081E+04  0.15385824081E+04  0.25500000920E-02 0. -1.
       -2   -1    0    0    0  501  0.00000000000E+00  0.00000000000E+00 -0.71744163847E+03  0.71744163848E+03  0.25500000920E-02 0.  1.
    10030    2    1    2    0    0  0.00000000000E+00  0.00000000000E+00  0.82114076958E+03  0.22560240465E+04  0.21012787381E+04 0.  0.
        5    1    3    3  502    0 -0.24164193139E+03  0.10215810003E+04  0.36498880841E+03  0.11114213798E+04  0.46999998093E+01 0. -1.
       -5    1    3    3    0  502  0.24164193139E+03 -0.10215810003E+04  0.45615196117E+03  0.11446026668E+04  0.46999998093E+01 0.  1.
</event>
<event>
 5   0  0.8765057E-05  0.1977502E+04  0.7818609E-02  0.8617212E-01
       -1   -1    0    0    0  501  0.00000000000E+00  0.00000000000E+00  0.10176768226E+04  0.10176768226E+04  0.50400001928E-02 0.  1.
        1   -1    0    0  501    0  0.00000000000E+00  0.00000000000E+00 -0.96064696656E+03  0.96064696657E+03  0.50400001928E-02 0. -1.
    10030    2    1    2    0    0  0.00000000000E+00  0.00000000000E+00  0.57029856053E+02  0.19783237892E+04  0.19775016082E+04 0.  0.
        3    1    3    3  502    0 -0.59605411646E+03  0.41134015836E+03  0.70195667953E+03  0.10085754438E+04  0.10100000352E+00 0.  1.
       -3    1    3    3    0  502  0.59605411646E+03 -0.41134015836E+03 -0.64492682348E+03  0.96974834543E+03  0.10100000352E+00 0. -1.
</event>
<event>
 5   0  0.1834645E-04  0.2009150E+04  0.7818609E-02  0.8602355E-01
       -2   -1    0    0    0  501  0.00000000000E+00  0.00000000000E+00  0.34342099515E+03  0.34342099516E+03  0.25500000920E-02 0. -1.
        2   -1    0    0  501    0  0.00000000000E+00  0.00000000000E+00 -0.29385829750E+04  0.29385829750E+04  0.25500000920E-02 0.  1.
    10030    2    1    2    0    0  0.00000000000E+00  0.00000000000E+00 -0.25951619798E+04  0.32820039701E+04  0.20091501583E+04 0.  0.
        1    1    3    3  502    0 -0.40235166693E+03  0.30520813995E+02  0.20522320819E+03  0.45269741459E+03  0.50400001928E-02 0. -1.
       -1    1    3    3    0  502  0.40235166693E+03 -0.30520813995E+02 -0.28003851880E+04  0.28293065555E+04  0.50400001928E-02 0.  1.
</event>
<event>
 5   0  0.8861350E-05  0.1993583E+04  0.7818609E-02  0.8609627E-01
        1   -1    0    0  501    0  0.00000000000E+00  0.00000000000E+00  0.10646868191E+04  0.10646868191E+04  0.50400001928E-02 0. -1.
       -1   -1    0    0    0  501  0.00000000000E+00  0.00000000000E+00 -0.93322541351E+03  0.93322541353E+03  0.50400001928E-02 0.  1.
    10030    2    1    2    0    0  0.00000000000E+00  0.00000000000E+00  0.13146140560E+03  0.19979122326E+04  0.19935825010E+04 0.  0.
        1    1    3    3  502    0  0.28779559830E+03  0.12925994413E+03 -0.88186946002E+03  0.93660460393E+03  0.50400001928E-02 0.  1.
       -1    1    3    3    0  502 -0.28779559830E+03 -0.12925994413E+03  0.10133308656E+04  0.10613076287E+04  0.50400001928E-02 0. -1.
</event>
<event>
 5   0  0.1834645E-04  0.2017029E+04  0.7818609E-02  0.8598700E-01
       -2   -1    0    0    0  501  0.00000000000E+00  0.00000000000E+00  0.35179903245E+03  0.35179903246E+03  0.25500000920E-02 0. -1.
        2   -1    0    0  501    0  0.00000000000E+00  0.00000000000E+00 -0.28911422202E+04  0.28911422202E+04  0.25500000920E-02 0.  1.
    10030    2    1    2    0    0  0.00000000000E+00  0.00000000000E+00 -0.25393431877E+04  0.32429412526E+04  0.20170285429E+04 0.  0.
        1    1    3    3  502    0  0.72864144003E+03  0.25413118065E+03 -0.22572722927E+03  0.80402349913E+03  0.50400001928E-02 0. -1.
       -1    1    3    3    0  502 -0.72864144003E+03 -0.25413118065E+03 -0.23136159585E+04  0.24389177535E+04  0.50400001928E-02 0.  1.
</event>
<event>
 5   0  0.1834645E-04  0.1993573E+04  0.7818609E-02  0.8609631E-01
       -2   -1    0    0    0  501  0.00000000000E+00  0.00000000000E+00  0.60396412188E+03  0.60396412188E+03  0.25500000920E-02 0. -1.
        2   -1    0    0  501    0  0.00000000000E+00  0.00000000000E+00 -0.16451031050E+04  0.16451031050E+04  0.25500000920E-02 0.  1.
    10030    2    1    2    0    0  0.00000000000E+00  0.00000000000E+00 -0.10411389832E+04  0.22490672269E+04  0.19935729254E+04 0.  0.
        1    1    3    3  502    0  0.10427006042E+03 -0.30971301590E+03 -0.15829508054E+04  0.16163315408E+04  0.50400001928E-02 0.  1.
       -1    1    3    3    0  502 -0.10427006042E+03  0.30971301590E+03  0.54181182221E+03  0.63273568607E+03  0.50400001928E-02 0. -1.
</event>
<event>
 5   0  0.1807498E-04  0.1999711E+04  0.7818609E-02  0.8606756E-01
       -2   -1    0    0    0  501  0.00000000000E+00  0.00000000000E+00  0.50761432639E+03  0.50761432639E+03  0.25500000920E-02 0. -1.
        2   -1    0    0  501    0  0.00000000000E+00  0.00000000000E+00 -0.19694293821E+04  0.19694293821E+04  0.25500000920E-02 0.  1.
    10030    2    1    2    0    0  0.00000000000E+00  0.00000000000E+00 -0.14618150557E+04  0.24770437085E+04  0.19997105482E+04 0.  0.
        5    1    3    3  502    0  0.38731612747E+03 -0.58954397842E+03  0.14683489641E+03  0.72052651713E+03  0.46999998093E+01 0. -1.
       -5    1    3    3    0  502 -0.38731612747E+03  0.58954397842E+03 -0.16086499521E+04  0.17565171913E+04  0.46999998093E+01 0.  1.
</event>
<event>
 5   0  0.1812865E-04  0.2130304E+04  0.7818609E-02  0.8548010E-01
       -2   -1    0    0    0  501  0.00000000000E+00  0.00000000000E+00  0.10229229769E+04  0.10229229769E+04  0.25500000920E-02 0.  1.
        2   -1    0    0  501    0  0.00000000000E+00  0.00000000000E+00 -0.11091247656E+04  0.11091247656E+04  0.25500000920E-02 0. -1.
    10030    2    1    2    0    0  0.00000000000E+00  0.00000000000E+00 -0.86201788675E+02  0.21320477424E+04  0.21303043979E+04 0.  0.
        3    1    3    3  502    0  0.58835404025E+03 -0.88791119407E+03 -0.41540300619E+02  0.10659607741E+04  0.10100000352E+00 0. -1.
       -3    1    3    3    0  502 -0.58835404025E+03  0.88791119407E+03 -0.44661488056E+02  0.10660869683E+04  0.10100000352E+00 0.  1.
</event>
<event>
 5   0  0.8577422E-05  0.2023656E+04  0.7818609E-02  0.8595640E-01
        1   -1    0    0  501    0  0.00000000000E+00  0.00000000000E+00  0.12408405547E+04  0.12408405547E+04  0.50400001928E-02 0. -1.
       -1   -1    0    0    0  501  0.00000000000E+00  0.00000000000E+00 -0.82508277176E+03  0.82508277177E+03  0.50400001928E-02 0.  1.
    10030    2    1    2    0    0  0.00000000000E+00  0.00000000000E+00  0.41575778295E+03  0.20659233265E+04  0.20236562596E+04 0.  0.
        2    1    3    3  502    0 -0.92693139336E+03  0.36502674747E+03  0.27121923236E+02  0.99658513590E+03  0.25500000920E-02 0.  1.
       -2    1    3    3    0  502  0.92693139336E+03 -0.36502674747E+03  0.38863585971E+03  0.10693381906E+04  0.25500000920E-02 0. -1.
</event>
<event>
 5   0  0.8765057E-05  0.1990472E+04  0.7818609E-02  0.8611088E-01
        1   -1    0    0  501    0  0.00000000000E+00  0.00000000000E+00  0.91546410742E+03  0.91546410743E+03  0.50400001928E-02 0.  1.
       -1   -1    0    0    0  501  0.00000000000E+00  0.00000000000E+00 -0.10819588079E+04  0.10819588079E+04  0.50400001928E-02 0. -1.
    10030    2    1    2    0    0  0.00000000000E+00  0.00000000000E+00 -0.16649470051E+03  0.19974229154E+04  0.19904717575E+04 0.  0.
        3    1    3    3  502    0  0.59341078669E+02 -0.76902218288E+02 -0.10771906259E+04  0.10815613573E+04  0.10100000352E+00 0. -1.
       -3    1    3    3    0  502 -0.59341078669E+02  0.76902218288E+02  0.91069592542E+03  0.91586155808E+03  0.10100000352E+00 0.  1.
</event>
<event>
 5   0  0.6531625E-05  0.1992972E+04  0.7818609E-02  0.8609913E-01
       -3   -1    0    0    0  501  0.00000000000E+00  0.00000000000E+00  0.18280007584E+04  0.18280007612E+04  0.10100000352E+00 0.  1.
        3   -1    0    0  501    0  0.00000000000E+00  0.00000000000E+00 -0.54320805170E+03  0.54320806109E+03  0.10100000352E+00 0. -1.
    10030    2    1    2    0    0  0.00000000000E+00  0.00000000000E+00  0.12847927067E+04  0.23712088223E+04  0.19929723981E+04 0.  0.
        5    1    3    3  502    0 -0.27888909886E+03  0.81400644722E+03  0.44445563740E+02  0.86161657581E+03  0.46999998093E+01 0. -1.
       -5    1    3    3    0  502  0.27888909886E+03 -0.81400644722E+03  0.12403471430E+04  0.15095922465E+04  0.46999998093E+01 0.  1.
</event>
<event>
 5   0  0.8577422E-05  0.2000669E+04  0.7818609E-02  0.8606308E-01
        1   -1    0    0  501    0  0.00000000000E+00  0.00000000000E+00  0.24551342932E+04  0.24551342932E+04  0.50400001928E-02 0. -1.
       -1   -1    0    0    0  501  0.00000000000E+00  0.00000000000E+00 -0.40758207696E+03  0.40758207699E+03  0.50400001928E-02 0.  1.
    10030    2    1    2    0    0  0.00000000000E+00  0.00000000000E+00  0.20475522163E+04  0.28627163702E+04  0.20006686227E+04 0.  0.
        2    1    3    3  502    0 -0.67592171485E+03 -0.57695211210E+03  0.36662232164E+03  0.96133024034E+03  0.25500000920E-02 0.  1.
       -2    1    3    3    0  502  0.67592171485E+03  0.57695211210E+03  0.16809298946E+04  0.19013861299E+04  0.25500000920E-02 0. -1.
</event>
<event>
 5   0  0.8861350E-05  0.1993616E+04  0.7818609E-02  0.8609611E-01
       -1   -1    0    0    0  501  0.00000000000E+00  0.00000000000E+00  0.68990909252E+03  0.68990909254E+03  0.50400001928E-02 0.  1.
        1   -1    0    0  501    0  0.00000000000E+00  0.00000000000E+00 -0.14402270150E+04  0.14402270150E+04  0.50400001928E-02 0. -1.
    10030    2    1    2    0    0  0.00000000000E+00  0.00000000000E+00 -0.75031792244E+03  0.21301361075E+04  0.19936155226E+04 0.  0.
        1    1    3    3  502    0  0.78032596260E+03  0.49110190571E+03  0.29646536797E+02  0.92247959700E+03  0.50400001928E-02 0.  1.
       -1    1    3    3    0  502 -0.78032596260E+03 -0.49110190571E+03 -0.77996445924E+03  0.12076565105E+04  0.50400001928E-02 0. -1.
</event>
<event>
 5   0  0.1834645E-04  0.1964476E+04  0.7818609E-02  0.8623412E-01
       -2   -1    0    0    0  501  0.00000000000E+00  0.00000000000E+00  0.53596467078E+03  0.53596467079E+03  0.25500000920E-02 0. -1.
        2   -1    0    0  501    0  0.00000000000E+00  0.00000000000E+00 -0.18001023077E+04  0.18001023077E+04  0.25500000920E-02 0.  1.
    10030    2    1    2    0    0  0.00000000000E+00  0.00000000000E+00 -0.12641376369E+04  0.23360669785E+04  0.19644757476E+04 0.  0.
        1    1    3    3  502    0 -0.74511134229E+03 -0.23903621988E+03  0.73915050640E+02  0.78599787631E+03  0.50400001928E-02 0. -1.
       -1    1    3    3    0  502  0.74511134229E+03  0.23903621988E+03 -0.13380526875E+04  0.15500691022E+04  0.50400001928E-02 0.  1.
</event>
<event>
 5   0  0.8765057E-05  0.1957912E+04  0.7818609E-02  0.8626555E-01
       -1   -1    0    0    0  501  0.00000000000E+00  0.00000000000E+00  0.94953450967E+03  0.94953450968E+03  0.50400001928E-02 0.  1.
        1   -1    0    0  501    0  0.00000000000E+00  0.00000000000E+00 -0.10092891225E+04  0.10092891225E+04  0.50400001928E-02 0. -1.
    10030    2    1    2    0    0  0.00000000000E+00  0.00000000000E+00 -0.59754612811E+02  0.19588236322E+04  0.19579120022E+04 0.  0.
        3    1    3    3  502    0 -0.39159458129E+03 -0.23183116992E+03  0.83728046086E+03  0.95295885943E+03  0.10100000352E+00 0.  1.
       -3    1    3    3    0  502  0.39159458129E+03  0.23183116992E+03 -0.89703507367E+03  0.10058647727E+04  0.10100000352E+00 0. -1.
</event>
<event>
 5   0  0.1782172E-04  0.2003232E+04  0.7818609E-02  0.8605111E-01
        2   -1    0    0  501    0  0.00000000000E+00  0.00000000000E+00  0.73186520472E+03  0.73186520473E+03  0.25500000920E-02 0. -1.
       -2   -1    0    0    0  501  0.00000000000E+00  0.00000000000E+00 -0.13707909552E+04  0.13707909552E+04  0.25500000920E-02 0.  1.
    10030    2    1    2    0    0  0.00000000000E+00  0.00000000000E+00 -0.63892575052E+03  0.21026561600E+04  0.20032315923E+04 0.  0.
        2    1    3    3  502    0  0.55936760202E+02 -0.27808221319E+03  0.68882638655E+03  0.74494323894E+03  0.25500000920E-02 0. -1.
       -2    1    3    3    0  502 -0.55936760202E+02  0.27808221319E+03 -0.13277521371E+04  0.13577129210E+04  0.25500000920E-02 0.  1.
</event>
<event>
 5   0  0.8881384E-05  0.1966154E+04  0.7818609E-02  0.8622610E-01
       -1   -1    0    0    0  501  0.00000000000E+00  0.00000000000E+00  0.57786689278E+03  0.57786689281E+03  0.50400001928E-02 0. -1.
        1   -1    0    0  501    0  0.00000000000E+00  0.00000000000E+00 -0.16724266106E+04  0.16724266106E+04  0.50400001928E-02 0.  1.
    10030    2    1    2    0    0  0.00000000000E+00  0.00000000000E+00 -0.10945597178E+04  0.22502935034E+04  0.19661535737E+04 0.  0.
        5    1    3    3  502    0 -0.71873149828E+03  0.63190719230E+03 -0.80456995831E+03  0.12502945949E+04  0.46999998093E+01 0.  1.
       -5    1    3    3    0  502  0.71873149828E+03 -0.63190719230E+03 -0.28998975946E+03  0.99999890844E+03  0.46999998093E+01 0. -1.
</event>
<event>
 5   0  0.1893687E-04  0.1976574E+04  0.7818609E-02  0.8617652E-01
        2   -1    0    0  501    0  0.00000000000E+00  0.00000000000E+00  0.15723968982E+04  0.15723968982E+04  0.25500000920E-02 0. -1.
       -2   -1    0    0    0  501  0.00000000000E+00  0.00000000000E+00 -0.62116041128E+03  0.62116041129E+03  0.25500000920E-02 0.  1.
    10030    2    1    2    0    0  0.00000000000E+00  0.00000000000E+00  0.95123648695E+03  0.21935573095E+04  0.19765735038E+04 0.  0.
        4    1    3    3  502    0 -0.92550866775E+03 -0.23206220159E+03  0.76135084912E+03  0.12206866461E+04  0.12699999809E+01 0. -1.
       -4    1    3    3    0  502  0.92550866775E+03  0.23206220159E+03  0.18988563783E+03  0.97287066347E+03  0.12699999809E+01 0.  1.
</event>
<event>
 5   0  0.1834645E-04  0.1998315E+04  0.7818609E-02  0.8607409E-01
        2   -1    0    0  501    0  0.00000000000E+00  0.00000000000E+00  0.66350840383E+03  0.66350840384E+03  0.25500000920E-02 0. -1.
       -2   -1    0    0    0  501  0.00000000000E+00  0.00000000000E+00 -0.15046011134E+04  0.15046011134E+04  0.25500000920E-02 0.  1.
    10030    2    1    2    0    0  0.00000000000E+00  0.00000000000E+00 -0.84109270958E+03  0.21681095172E+04  0.19983147732E+04 0.  0.
        1    1    3    3  502    0 -0.33468482989E+03 -0.51577930049E+03  0.43394730898E+03  0.75256394358E+03  0.50400001928E-02 0. -1.
       -1    1    3    3    0  502  0.33468482989E+03  0.51577930049E+03 -0.12750400186E+04  0.14155455737E+04  0.50400001928E-02 0.  1.
</event>
<event>
 5   0  0.1834645E-04  0.2019238E+04  0.7818609E-02  0.8597679E-01
       -2   -1    0    0    0  501  0.00000000000E+00  0.00000000000E+00  0.58908829492E+03  0.58908829493E+03  0.25500000920E-02 0.  1.
        2   -1    0    0  501    0  0.00000000000E+00  0.00000000000E+00 -0.17303520611E+04  0.17303520611E+04  0.25500000920E-02 0. -1.
    10030    2    1    2    0    0  0.00000000000E+00  0.00000000000E+00 -0.11412637662E+04  0.23194403560E+04  0.20192376237E+04 0.  0.
        1    1    3    3  502    0 -0.55620900517E+03  0.56329642097E+03 -0.12904179963E+04  0.15138857026E+04  0.50400001928E-02 0. -1.
       -1    1    3    3    0  502  0.55620900517E+03 -0.56329642097E+03  0.14915423010E+03  0.80555465345E+03  0.50400001928E-02 0.  1.
</event>
<event>
 5   0  0.8958919E-05  0.1979102E+04  0.7818609E-02  0.8616454E-01
       -1   -1    0    0    0  501  0.00000000000E+00  0.00000000000E+00  0.15760767234E+04  0.15760767234E+04  0.50400001928E-02 0. -1.
        1   -1    0    0  501    0  0.00000000000E+00  0.00000000000E+00 -0.62129677508E+03  0.62129677510E+03  0.50400001928E-02 0.  1.
    10030    2    1    2    0    0  0.00000000000E+00  0.00000000000E+00  0.95477994834E+03  0.21973734985E+04  0.19791022061E+04 0.  0.
        4    1    3    3  502    0 -0.52684462963E+03  0.83962438822E+02 -0.44795022379E+03  0.69661752116E+03  0.12699999809E+01 0.  1.
       -4    1    3    3    0  502  0.52684462963E+03 -0.83962438822E+02  0.14027301721E+04  0.15007559774E+04  0.12699999809E+01 0. -1.
</event>
<event>
 5   0  0.1893687E-04  0.1983262E+04  0.7818609E-02  0.8614487E-01
       -2   -1    0    0    0  501  0.00000000000E+00  0.00000000000E+00  0.99267480324E+03  0.99267480324E+03  0.25500000920E-02 0. -1.
        2   -1    0    0  501    0  0.00000000000E+00  0.00000000000E+00 -0.99058801240E+03  0.99058801240E+03  0.25500000920E-02 0.  1.
    10030    2    1    2    0    0  0.00000000000E+00  0.00000000000E+00  0.20867908375E+01  0.19832628156E+04  0.19832617178E+04 0.  0.
        4    1    3    3  502    0  0.70480371541E+03 -0.68500242496E+03 -0.13068954333E+03  0.99149279831E+03  0.12699999809E+01 0.  1.
       -4    1    3    3    0  502 -0.70480371541E+03  0.68500242496E+03  0.13277633417E+03  0.99177001733E+03  0.12699999809E+01 0. -1.
</event>
<event>
 5   0  0.1893687E-04  0.2087825E+04  0.7818609E-02  0.8566626E-01
       -2   -1    0    0    0  501  0.00000000000E+00  0.00000000000E+00  0.77343287534E+03  0.77343287535E+03  0.25500000920E-02 0.  1.
        2   -1    0    0  501    0  0.00000000000E+00  0.00000000000E+00 -0.14089821396E+04  0.14089821396E+04  0.25500000920E-02 0. -1.
    10030    2    1    2    0    0  0.00000000000E+00  0.00000000000E+00 -0.63554926424E+03  0.21824150149E+04  0.20878248083E+04 0.  0.
        4    1    3    3  502    0  0.58474339956E+03 -0.85152649754E+02 -0.12173302279E+04  0.13531704674E+04  0.12699999809E+01 0. -1.
       -4    1    3    3    0  502 -0.58474339956E+03  0.85152649754E+02  0.58178096366E+03  0.82924454757E+03  0.12699999809E+01 0.  1.
</event>
<event>
 5   0  0.8577422E-05  0.2016026E+04  0.7818609E-02  0.8599164E-01
        1   -1    0    0  501    0  0.00000000000E+00  0.00000000000E+00  0.95679510277E+03  0.95679510278E+03  0.50400001928E-02 0. -1.
       -1   -1    0    0    0  501  0.00000000000E+00  0.00000000000E+00 -0.10619728163E+04  0.10619728163E+04  0.50400001928E-02 0.  1.
    10030    2    1    2    0    0  0.00000000000E+00  0.00000000000E+00 -0.10517771357E+03  0.20187679191E+04  0.20160261803E+04 0.  0.
        2    1    3    3  502    0 -0.72782472481E+02 -0.92602051109E+03  0.33945235117E+03  0.98895863108E+03  0.25500000920E-02 0. -1.
       -2    1    3    3    0  502  0.72782472481E+02  0.92602051109E+03 -0.44463006474E+03  0.10298092880E+04  0.25500000920E-02 0.  1.
</event>
<event>
 5   0  0.1834645E-04  0.1964939E+04  0.7818609E-02  0.8623190E-01
       -2   -1    0    0    0  501  0.00000000000E+00  0.00000000000E+00  0.46995507085E+03  0.46995507085E+03  0.25500000920E-02 0.  1.
        2   -1    0    0  501    0  0.00000000000E+00  0.00000000000E+00 -0.20539122052E+04  0.20539122052E+04  0.25500000920E-02 0. -1.
    10030    2    1    2    0    0  0.00000000000E+00  0.00000000000E+00 -0.15839571344E+04  0.25238672761E+04  0.19649391399E+04 0.  0.
        1    1    3    3  502    0  0.26105640442E+03  0.50348551378E+03  0.23846655839E+03  0.61523524637E+03  0.50400001928E-02 0.  1.
       -1    1    3    3    0  502 -0.26105640442E+03 -0.50348551378E+03 -0.18224236927E+04  0.19086320297E+04  0.50400001928E-02 0. -1.
</event>
<event>
 5   0  0.8881384E-05  0.1984618E+04  0.7818609E-02  0.8613846E-01
       -1   -1    0    0    0  501  0.00000000000E+00  0.00000000000E+00  0.74241630782E+03  0.74241630784E+03  0.50400001928E-02 0.  1.
        1   -1    0    0  501    0  0.00000000000E+00  0.00000000000E+00 -0.13263144865E+04  0.13263144865E+04  0.50400001928E-02 0. -1.
    10030    2    1    2    0    0  0.00000000000E+00  0.00000000000E+00 -0.58389817866E+03  0.20687307943E+04  0.19846183553E+04 0.  0.
        5    1    3    3  502    0 -0.18255119526E+03  0.23113101605E+03 -0.12796901788E+04  0.13131548002E+04  0.46999998093E+01 0. -1.
       -5    1    3    3    0  502  0.18255119526E+03 -0.23113101605E+03  0.69579200015E+03  0.75557599416E+03  0.46999998093E+01 0.  1.
</event>
<event>
 5   0  0.8881384E-05  0.2008629E+04  0.7818609E-02  0.8602597E-01
        1   -1    0    0  501    0  0.00000000000E+00  0.00000000000E+00  0.29426307461E+04  0.29426307462E+04  0.50400001928E-02 0.  1.
       -1   -1    0    0    0  501  0.00000000000E+00  0.00000000000E+00 -0.34277078919E+03  0.34277078922E+03  0.50400001928E-02 0. -1.
    10030    2    1    2    0    0  0.00000000000E+00  0.00000000000E+00  0.25998599570E+04  0.32854015354E+04  0.20086292472E+04 0.  0.
        5    1    3    3  502    0 -0.15732256140E+03  0.11894455411E+03  0.29106258555E+04  0.29173040904E+04  0.46999998093E+01 0.  1.
       -5    1    3    3    0  502  0.15732256140E+03 -0.11894455411E+03 -0.31076589855E+03  0.36809744495E+03  0.46999998093E+01 0. -1.
</event>
<event>
 5   0  0.8881384E-05  0.2007325E+04  0.7818609E-02  0.8603204E-01
       -1   -1    0    0    0  501  0.00000000000E+00  0.00000000000E+00  0.10064183062E+04  0.10064183062E+04  0.50400001928E-02 0.  1.
        1   -1    0    0  501    0  0.00000000000E+00  0.00000000000E+00 -0.10009141517E+04  0.10009141517E+04  0.50400001928E-02 0. -1.
    10030    2    1    2    0    0  0.00000000000E+00  0.00000000000E+00  0.55041544267E+01  0.20073324579E+04  0.20073249116E+04 0.  0.
        5    1    3    3  502    0  0.87242343518E+03 -0.44399754506E+03 -0.21874314580E+03  0.10030588837E+04  0.46999998093E+01 0. -1.
       -5    1    3    3    0  502 -0.87242343518E+03  0.44399754506E+03  0.22424730022E+03  0.10042735742E+04  0.46999998093E+01 0.  1.
</event>
<event>
 5   0  0.8577422E-05  0.1994522E+04  0.7818609E-02  0.8609186E-01
        1   -1    0    0  501    0  0.00000000000E+00  0.00000000000E+00  0.20817131586E+04  0.20817131586E+04  0.50400001928E-02 0. -1.
       -1   -1    0    0    0  501  0.00000000000E+00  0.00000000000E+00 -0.47774554050E+03  0.47774554052E+03  0.50400001928E-02 0.  1.
    10030    2    1    2    0    0  0.00000000000E+00  0.00000000000E+00  0.16039676181E+04  0.25594586991E+04  0.19945216751E+04 0.  0.
        2    1    3    3  502    0  0.12629672110E+03  0.30635544573E+02  0.20708002512E+04  0.20748742320E+04  0.25500000920E-02 0. -1.
       -2    1    3    3    0  502 -0.12629672110E+03 -0.30635544573E+02 -0.46683263314E+03  0.48458446706E+03  0.25500000920E-02 0.  1.
</event>
<event>
 5   0  0.1812865E-04  0.2002669E+04  0.7818609E-02  0.8605374E-01
       -2   -1    0    0    0  501  0.00000000000E+00  0.00000000000E+00  0.45374764194E+03  0.45374764195E+03  0.25500000920E-02 0.  1.
        2   -1    0    0  501    0  0.00000000000E+00  0.00000000000E+00 -0.22097544110E+04  0.22097544110E+04  0.25500000920E-02 0. -1.
    10030    2    1    2    0    0  0.00000000000E+00  0.00000000000E+00 -0.17560067691E+04  0.26635020530E+04  0.20026690723E+04 0.  0.
        3    1    3    3  502    0  0.10935641263E+03  0.62930046807E+03 -0.19036322517E+04  0.20079326841E+04  0.10100000352E+00 0. -1.
       -3    1    3    3    0  502 -0.10935641263E+03 -0.62930046807E+03  0.14762548258E+03  0.65556936887E+03  0.10100000352E+00 0.  1.
</event>
<event>
 5   0  0.1807498E-04  0.1995396E+04  0.7818609E-02  0.8608776E-01
       -2   -1    0    0    0  501  0.00000000000E+00  0.00000000000E+00  0.14702976233E+04  0.14702976233E+04  0.25500000920E-02 0. -1.
        2   -1    0    0  501    0  0.00000000000E+00  0.00000000000E+00 -0.67700700908E+03  0.67700700908E+03  0.25500000920E-02 0.  1.
    10030    2    1    2    0    0  0.00000000000E+00  0.00000000000E+00  0.79329061419E+03  0.21473046324E+04  0.19953964983E+04 0.  0.
        5    1    3    3  502    0  0.44064841928E+03  0.56196964669E+03  0.11463906924E+04  0.13506348962E+04  0.46999998093E+01 0. -1.
       -5    1    3    3    0  502 -0.44064841928E+03 -0.56196964669E+03 -0.35310007823E+03  0.79666973613E+03  0.46999998093E+01 0.  1.
</event>
<event>
 5   0  0.1782172E-04  0.2006628E+04  0.7818609E-02  0.8603528E-01
       -2   -1    0    0    0  501  0.00000000000E+00  0.00000000000E+00  0.63610874564E+03  0.63610874564E+03  0.25500000920E-02 0. -1.
        2   -1    0    0  501    0  0.00000000000E+00  0.00000000000E+00 -0.15824950478E+04  0.15824950478E+04  0.25500000920E-02 0.  1.
    10030    2    1    2    0    0  0.00000000000E+00  0.00000000000E+00 -0.94638630215E+03  0.22186037934E+04  0.20066279574E+04 0.  0.
        2    1    3    3  502    0 -0.24630059018E+03 -0.82240482696E+03  0.10091429637E+03  0.86440579322E+03  0.25500000920E-02 0. -1.
       -2    1    3    3    0  502  0.24630059018E+03  0.82240482696E+03 -0.10473005985E+04  0.13541980002E+04  0.25500000920E-02 0.  1.
</event>
<event>
 5   0  0.8577422E-05  0.2061040E+04  0.7818609E-02  0.8578602E-01
       -1   -1    0    0    0  501  0.00000000000E+00  0.00000000000E+00  0.66085347947E+03  0.66085347949E+03  0.50400001928E-02 0. -1.
        1   -1    0    0  501    0  0.00000000000E+00  0.00000000000E+00 -0.16069700608E+04  0.16069700609E+04  0.50400001928E-02 0.  1.
    10030    2    1    2    0    0  0.00000000000E+00  0.00000000000E+00 -0.94611658137E+03  0.22678235403E+04  0.20610402773E+04 0.  0.
        2    1    3    3  502    0  0.20844119528E+03 -0.47632993718E+03 -0.14520633782E+04  0.15423443180E+04  0.25500000920E-02 0.  1.
       -2    1    3    3    0  502 -0.20844119528E+03  0.47632993718E+03  0.50594679678E+03  0.72547922239E+03  0.25500000920E-02 0. -1.
</event>
<event>
 5   0  0.1834645E-04  0.2008993E+04  0.7818609E-02  0.8602428E-01
        2   -1    0    0  501    0  0.00000000000E+00  0.00000000000E+00  0.17972439092E+04  0.17972439092E+04  0.25500000920E-02 0.  1.
       -2   -1    0    0    0  501  0.00000000000E+00  0.00000000000E+00 -0.56142262348E+03  0.56142262349E+03  0.25500000920E-02 0. -1.
    10030    2    1    2    0    0  0.00000000000E+00  0.00000000000E+00  0.12358212857E+04  0.23586665327E+04  0.20089931713E+04 0.  0.
        1    1    3    3  502    0 -0.10027490904E+04 -0.27702782888E+02  0.55645243985E+03  0.11471322941E+04  0.50400001928E-02 0.  1.
       -1    1    3    3    0  502  0.10027490904E+04  0.27702782888E+02  0.67936884583E+03  0.12115342385E+04  0.50400001928E-02 0. -1.
</event>
<event>
 5   0  0.8577422E-05  0.2015686E+04  0.7818609E-02  0.8599322E-01
       -1   -1    0    0    0  501  0.00000000000E+00  0.00000000000E+00  0.18306425110E+04  0.18306425110E+04  0.50400001928E-02 0.  1.
        1   -1    0    0  501    0  0.00000000000E+00  0.00000000000E+00 -0.55485857354E+03  0.55485857356E+03  0.50400001928E-02 0. -1.
    10030    2    1    2    0    0  0.00000000000E+00  0.00000000000E+00  0.12757839374E+04  0.23855010845E+04  0.20156861783E+04 0.  0.
        2    1    3    3  502    0 -0.41609153492E+03 -0.31601248526E+03  0.16578410921E+04  0.17382270114E+04  0.25500000920E-02 0.  1.
       -2    1    3    3    0  502  0.41609153492E+03  0.31601248526E+03 -0.38205715473E+03  0.64727407314E+03  0.25500000920E-02 0. -1.
</event>
<event>
 5   0  0.8861350E-05  0.1975168E+04  0.7818609E-02  0.8618319E-01
       -1   -1    0    0    0  501  0.00000000000E+00  0.00000000000E+00  0.12440527422E+04  0.12440527422E+04  0.50400001928E-02 0. -1.
        1   -1    0    0  501    0  0.00000000000E+00  0.00000000000E+00 -0.78398785255E+03  0.78398785256E+03  0.50400001928E-02 0.  1.
    10030    2    1    2    0    0  0.00000000000E+00  0.00000000000E+00  0.46006488964E+03  0.20280405948E+04  0.19751680818E+04 0.  0.
        1    1    3    3  502    0 -0.43316934913E+03  0.85219695639E+03  0.48455283177E+03  0.10717587342E+04  0.50400001928E-02 0.  1.
       -1    1    3    3    0  502  0.43316934913E+03 -0.85219695639E+03 -0.24487942135E+02  0.95628186056E+03  0.50400001928E-02 0. -1.
</event>
<event>
 5   0  0.8765057E-05  0.1683428E+04  0.7818609E-02  0.8770873E-01
        1   -1    0    0  501    0  0.00000000000E+00  0.00000000000E+00  0.16775819193E+04  0.16775819193E+04  0.50400001928E-02 0. -1.
       -1   -1    0    0    0  501  0.00000000000E+00  0.00000000000E+00 -0.42232371744E+03  0.42232371747E+03  0.50400001928E-02 0.  1.
    10030    2    1    2    0    0  0.00000000000E+00  0.00000000000E+00  0.12552582018E+04  0.20999056367E+04  0.16834282075E+04 0.  0.
        3    1    3    3  502    0 -0.63423646027E+03 -0.23185987505E+03  0.85921836089E+00  0.67528929922E+03  0.10100000352E+00 0.  1.
       -3    1    3    3    0  502  0.63423646027E+03  0.23185987505E+03  0.12543989835E+04  0.14246163375E+04  0.10100000352E+00 0. -1.
</event>
<event>
 5   0  0.8577422E-05  0.2273740E+04  0.7818609E-02  0.8488348E-01
        1   -1    0    0  501    0  0.00000000000E+00  0.00000000000E+00  0.12969352220E+04  0.12969352220E+04  0.50400001928E-02 0.  1.
       -1   -1    0    0    0  501  0.00000000000E+00  0.00000000000E+00 -0.99655941078E+03  0.99655941079E+03  0.50400001928E-02 0. -1.
    10030    2    1    2    0    0  0.00000000000E+00  0.00000000000E+00  0.30037581125E+03  0.22934946328E+04  0.22737396515E+04 0.  0.
        2    1    3    3  502    0  0.32901713934E+03  0.10798908249E+04  0.14645831322E+02  0.11289955589E+04  0.25500000920E-02 0. -1.
       -2    1    3    3    0  502 -0.32901713934E+03 -0.10798908249E+04  0.28572997993E+03  0.11644990739E+04  0.25500000920E-02 0.  1.
</event>
<event>
 5   0  0.8765057E-05  0.2014932E+04  0.7818609E-02  0.8599671E-01
       -1   -1    0    0    0  501  0.00000000000E+00  0.00000000000E+00  0.10074419080E+04  0.10074419080E+04  0.50400001928E-02 0. -1.
        1   -1    0    0  501    0  0.00000000000E+00  0.00000000000E+00 -0.10074903889E+04  0.10074903889E+04  0.50400001928E-02 0.  1.
    10030    2    1    2    0    0  0.00000000000E+00  0.00000000000E+00 -0.48480911574E-01  0.20149322970E+04  0.20149322964E+04 0.  0.
        3    1    3    3  502    0 -0.38266988161E+03 -0.98794278854E+02 -0.92673427183E+03  0.10074884459E+04  0.10100000352E+00 0.  1.
       -3    1    3    3    0  502  0.38266988161E+03  0.98794278854E+02  0.92668579091E+03  0.10074438511E+04  0.10100000352E+00 0. -1.
</event>
<event>
 5   0  0.8861350E-05  0.2028489E+04  0.7818609E-02  0.8593416E-01
       -1   -1    0    0    0  501  0.00000000000E+00  0.00000000000E+00  0.47500654756E+03  0.47500654758E+03  0.50400001928E-02 0.  1.
        1   -1    0    0  501    0  0.00000000000E+00  0.00000000000E+00 -0.21656369769E+04  0.21656369769E+04  0.50400001928E-02 0. -1.
    10030    2    1    2    0    0  0.00000000000E+00  0.00000000000E+00 -0.16906304293E+04  0.26406435244E+04  0.20284888402E+04 0.  0.
        1    1    3    3  502    0  0.17258376109E+03  0.32130612130E+03 -0.20773158100E+04  0.21090907407E+04  0.50400001928E-02 0. -1.
       -1    1    3    3    0  502 -0.17258376109E+03 -0.32130612130E+03  0.38668538071E+03  0.53155278370E+03  0.50400001928E-02 0.  1.
</event>
<event>
 5   0  0.8577422E-05  0.2020404E+04  0.7818609E-02  0.8597140E-01
        1   -1    0    0  501    0  0.00000000000E+00  0.00000000000E+00  0.13422741214E+04  0.13422741214E+04  0.50400001928E-02 0.  1.
       -1   -1    0    0    0  501  0.00000000000E+00  0.00000000000E+00 -0.76028325605E+03  0.76028325607E+03  0.50400001928E-02 0. -1.
    10030    2    1    2    0    0  0.00000000000E+00  0.00000000000E+00  0.58199086533E+03  0.21025573775E+04  0.20204044541E+04 0.  0.
        2    1    3    3  502    0 -0.58003425720E+03 -0.33173228257E+03  0.10794451361E+04  0.12695226853E+04  0.25500000920E-02 0.  1.
       -2    1    3    3    0  502  0.58003425720E+03  0.33173228257E+03 -0.49745427072E+03  0.83303469213E+03  0.25500000920E-02 0. -1.
</event>
<event>
 5   0  0.1782172E-04  0.1994195E+04  0.7818609E-02  0.8609339E-01
       -2   -1    0    0    0  501  0.00000000000E+00  0.00000000000E+00  0.53256761503E+03  0.53256761504E+03  0.25500000920E-02 0.  1.
        2   -1    0    0  501    0  0.00000000000E+00  0.00000000000E+00 -0.18668119335E+04  0.18668119335E+04  0.25500000920E-02 0. -1.
    10030    2    1    2    0    0  0.00000000000E+00  0.00000000000E+00 -0.13342443184E+04  0.23993795485E+04  0.19941951551E+04 0.  0.
        2    1    3    3  502    0 -0.51528214747E+03  0.28354041858E+03 -0.16358836523E+04  0.17383975910E+04  0.25500000920E-02 0. -1.
       -2    1    3    3    0  502  0.51528214747E+03 -0.28354041858E+03  0.30163933385E+03  0.66098195754E+03  0.25500000920E-02 0.  1.
</event>
<event>
 5   0  0.8577422E-05  0.1973849E+04  0.7818609E-02  0.8618946E-01
       -1   -1    0    0    0  501  0.00000000000E+00  0.00000000000E+00  0.82429286407E+03  0.82429286409E+03  0.50400001928E-02 0. -1.
        1   -1    0    0  501    0  0.00000000000E+00  0.00000000000E+00 -0.11816433528E+04  0.11816433528E+04  0.50400001928E-02 0.  1.
    10030    2    1    2    0    0  0.00000000000E+00  0.00000000000E+00 -0.35735048868E+03  0.20059362169E+04  0.19738492177E+04 0.  0.
        2    1    3    3  502    0  0.37980535772E+03  0.64495310042E+02  0.74472546695E+03  0.83846751631E+03  0.25500000920E-02 0. -1.
       -2    1    3    3    0  502 -0.37980535772E+03 -0.64495310042E+02 -0.11020759556E+04  0.11674687006E+04  0.25500000920E-02 0.  1.
</event>
<event>
 5   0  0.8881384E-05  0.1958772E+04  0.7818609E-02  0.8626143E-01
       -1   -1    0    0    0  501  0.00000000000E+00  0.00000000000E+00  0.10247174170E+04  0.10247174170E+04  0.50400001928E-02 0.  1.
        1   -1    0    0  501    0  0.00000000000E+00  0.00000000000E+00 -0.93605954322E+03  0.93605954323E+03  0.50400001928E-02 0. -1.
    10030    2    1    2    0    0  0.00000000000E+00  0.00000000000E+00  0.88657873751E+02  0.19607769602E+04  0.19587715714E+04 0.  0.
        5    1    3    3  502    0 -0.95920706210E+02  0.54901121916E+03  0.85048586795E+03  0.10168394181E+04  0.46999998093E+01 0.  1.
       -5    1    3    3    0  502  0.95920706210E+02 -0.54901121916E+03 -0.76182799420E+03  0.94393754210E+03  0.46999998093E+01 0. -1.
</event>
<event>
 5   0  0.6531625E-05  0.1998809E+04  0.7818609E-02  0.8607178E-01
       -3   -1    0    0    0  501  0.00000000000E+00  0.00000000000E+00  0.15748738161E+04  0.15748738194E+04  0.10100000352E+00 0.  1.
        3   -1    0    0  501    0  0.00000000000E+00  0.00000000000E+00 -0.63421562942E+03  0.63421563746E+03  0.10100000352E+00 0. -1.
    10030    2    1    2    0    0  0.00000000000E+00  0.00000000000E+00  0.94065818672E+03  0.22090894568E+04  0.19988092465E+04 0.  0.
        5    1    3    3  502    0 -0.70109549486E+03  0.32392328743E+03 -0.23069214644E+03  0.80604103213E+03  0.46999998093E+01 0. -1.
       -5    1    3    3    0  502  0.70109549486E+03 -0.32392328743E+03  0.11713503332E+04  0.14030484247E+04  0.46999998093E+01 0.  1.
</event>
<event>
 5   0  0.1812865E-04  0.2001979E+04  0.7818609E-02  0.8605696E-01
       -2   -1    0    0    0  501  0.00000000000E+00  0.00000000000E+00  0.48718703390E+03  0.48718703391E+03  0.25500000920E-02 0. -1.
        2   -1    0    0  501    0  0.00000000000E+00  0.00000000000E+00 -0.20566631945E+04  0.20566631945E+04  0.25500000920E-02 0.  1.
    10030    2    1    2    0    0  0.00000000000E+00  0.00000000000E+00 -0.15694761606E+04  0.25438502284E+04  0.20019786627E+04 0.  0.
        3    1    3    3  502    0 -0.22800590499E+03 -0.90778973489E+03 -0.12356206792E+04  0.15501055992E+04  0.10100000352E+00 0.  1.
       -3    1    3    3    0  502  0.22800590499E+03  0.90778973489E+03 -0.33385548137E+03  0.99374462923E+03  0.10100000352E+00 0. -1.
</event>
<event>
 5   0  0.1812865E-04  0.2000521E+04  0.7818609E-02  0.8606377E-01
        2   -1    0    0  501    0  0.00000000000E+00  0.00000000000E+00  0.17195750774E+04  0.17195750774E+04  0.25500000920E-02 0. -1.
       -2   -1    0    0    0  501  0.00000000000E+00  0.00000000000E+00 -0.58184226961E+03  0.58184226961E+03  0.25500000920E-02 0.  1.
    10030    2    1    2    0    0  0.00000000000E+00  0.00000000000E+00  0.11377328078E+04  0.23014173470E+04  0.20005213978E+04 0.  0.
        3    1    3    3  502    0 -0.99257841761E+03 -0.10761662655E+03  0.63910921911E+03  0.11854340376E+04  0.10100000352E+00 0. -1.
       -3    1    3    3    0  502  0.99257841761E+03  0.10761662655E+03  0.49862358866E+03  0.11159833094E+04  0.10100000352E+00 0.  1.
</event>
<event>
 5   0  0.1893687E-04  0.1981412E+04  0.7818609E-02  0.8615361E-01
       -2   -1    0    0    0  501  0.00000000000E+00  0.00000000000E+00  0.19603900866E+04  0.19603900866E+04  0.25500000920E-02 0. -1.
        2   -1    0    0  501    0  0.00000000000E+00  0.00000000000E+00 -0.50066461579E+03  0.50066461580E+03  0.25500000920E-02 0.  1.
    10030    2    1    2    0    0  0.00000000000E+00  0.00000000000E+00  0.14597254708E+04  0.24610547024E+04  0.19814115671E+04 0.  0.
        4    1    3    3  502    0  0.80036252290E+02  0.12024067043E+03  0.19472402043E+04  0.19525904964E+04  0.12699999809E+01 0. -1.
       -4    1    3    3    0  502 -0.80036252290E+02 -0.12024067043E+03 -0.48751473349E+03  0.50846420600E+03  0.12699999809E+01 0.  1.
</event>
<event>
 5   0  0.1812865E-04  0.1639574E+04  0.7818609E-02  0.8796598E-01
        2   -1    0    0  501    0  0.00000000000E+00  0.00000000000E+00  0.18916402581E+04  0.18916402581E+04  0.25500000920E-02 0.  1.
       -2   -1    0    0    0  501  0.00000000000E+00  0.00000000000E+00 -0.35527414631E+03  0.35527414632E+03  0.25500000920E-02 0. -1.
    10030    2    1    2    0    0  0.00000000000E+00  0.00000000000E+00  0.15363661118E+04  0.22469144045E+04  0.16395741860E+04 0.  0.
        3    1    3    3  502    0  0.58418159538E+03  0.17884922930E+03  0.19078192436E+02  0.61124395362E+03  0.10100000352E+00 0. -1.
       -3    1    3    3    0  502 -0.58418159538E+03 -0.17884922930E+03  0.15172879194E+04  0.16356704508E+04  0.10100000352E+00 0.  1.
</event>
<event>
 5   0  0.1834645E-04  0.1995219E+04  0.7818609E-02  0.8608859E-01
       -2   -1    0    0    0  501  0.00000000000E+00  0.00000000000E+00  0.13398042928E+04  0.13398042928E+04  0.25500000920E-02 0. -1.
        2   -1    0    0  501    0  0.00000000000E+00  0.00000000000E+00 -0.74281370146E+03  0.74281370147E+03  0.25500000920E-02 0.  1.
    10030    2    1    2    0    0  0.00000000000E+00  0.00000000000E+00  0.59699059133E+03  0.20826179943E+04  0.19952192721E+04 0.  0.
        1    1    3    3  502    0  0.65548996262E+03  0.64928796034E+03 -0.97577171764E+02  0.92777327565E+03  0.50400001928E-02 0. -1.
       -1    1    3    3    0  502 -0.65548996262E+03 -0.64928796034E+03  0.69456776309E+03  0.11548447186E+04  0.50400001928E-02 0.  1.
</event>
<event>
 5   0  0.1812865E-04  0.1935396E+04  0.7818609E-02  0.8637435E-01
        2   -1    0    0  501    0  0.00000000000E+00  0.00000000000E+00  0.86000265863E+03  0.86000265864E+03  0.25500000920E-02 0.  1.
       -2   -1    0    0    0  501  0.00000000000E+00  0.00000000000E+00 -0.10888795057E+04  0.10888795058E+04  0.25500000920E-02 0. -1.
    10030    2    1    2    0    0  0.00000000000E+00  0.00000000000E+00 -0.22887684712E+03  0.19488821644E+04  0.19353958457E+04 0.  0.
        3    1    3    3  502    0 -0.20890230014E+03 -0.23816637660E+03 -0.10351818357E+04  0.10825732479E+04  0.10100000352E+00 0. -1.
       -3    1    3    3    0  502  0.20890230014E+03  0.23816637660E+03  0.80630498858E+03  0.86630891647E+03  0.10100000352E+00 0.  1.
</event>
<event>
 5   0  0.1807498E-04  0.1987852E+04  0.7818609E-02  0.8612321E-01
       -2   -1    0    0    0  501  0.00000000000E+00  0.00000000000E+00  0.73316034327E+03  0.73316034327E+03  0.25500000920E-02 0.  1.
        2   -1    0    0  501    0  0.00000000000E+00  0.00000000000E+00 -0.13474390092E+04  0.13474390092E+04  0.25500000920E-02 0. -1.
    10030    2    1    2    0    0  0.00000000000E+00  0.00000000000E+00 -0.61427866596E+03  0.20805993525E+04  0.19878519528E+04 0.  0.
        5    1    3    3  502    0  0.60911494717E+03 -0.58359349686E+02 -0.11269063505E+04  0.12823286807E+04  0.46999998093E+01 0. -1.
       -5    1    3    3    0  502 -0.60911494717E+03  0.58359349686E+02  0.51262768451E+03  0.79827067182E+03  0.46999998093E+01 0.  1.
</event>
<event>
 5   0  0.8765057E-05  0.2016893E+04  0.7818609E-02  0.8598763E-01
        1   -1    0    0  501    0  0.00000000000E+00  0.00000000000E+00  0.16368203797E+04  0.16368203797E+04  0.50400001928E-02 0. -1.
       -1   -1    0    0    0  501  0.00000000000E+00  0.00000000000E+00 -0.62130464490E+03  0.62130464492E+03  0.50400001928E-02 0.  1.
    10030    2    1    2    0    0  0.00000000000E+00  0.00000000000E+00  0.10155157348E+04  0.22581250246E+04  0.20168927634E+04 0.  0.
        3    1    3    3  502    0  0.38858181099E+02  0.25285195426E+03  0.15998873778E+04  0.16202110050E+04  0.10100000352E+00 0. -1.
       -3    1    3    3    0  502 -0.38858181099E+02 -0.25285195426E+03 -0.58437164301E+03  0.63791401958E+03  0.10100000352E+00 0.  1.
</event>
<event>
 5   0  0.8861350E-05  0.1983328E+04  0.7818609E-02  0.8614455E-01
       -1   -1    0    0    0  501  0.00000000000E+00  0.00000000000E+00  0.77031503902E+03  0.77031503904E+03  0.50400001928E-02 0.  1.
        1   -1    0    0  501    0  0.00000000000E+00  0.00000000000E+00 -0.12766172193E+04  0.12766172193E+04  0.50400001928E-02 0. -1.
    10030    2    1    2    0    0  0.00000000000E+00  0.00000000000E+00 -0.50630218026E+03  0.20469322583E+04  0.19833279538E+04 0.  0.
        1    1    3    3  502    0  0.61487066445E+03 -0.42844848143E+03 -0.92341121955E+03  0.11892528392E+04  0.50400001928E-02 0. -1.
       -1    1    3    3    0  502 -0.61487066445E+03  0.42844848143E+03  0.41710903929E+03  0.85767941909E+03  0.50400001928E-02 0.  1.
</event>
<event>
 5   0  0.8765057E-05  0.1991585E+04  0.7818609E-02  0.8610565E-01
       -1   -1    0    0    0  501  0.00000000000E+00  0.00000000000E+00  0.10190390017E+04  0.10190390017E+04  0.50400001928E-02 0. -1.
        1   -1    0    0  501    0  0.00000000000E+00  0.00000000000E+00 -0.97307654293E+03  0.97307654294E+03  0.50400001928E-02 0.  1.
    10030    2    1    2    0    0  0.00000000000E+00  0.00000000000E+00  0.45962458808E+02  0.19921155447E+04  0.19915852469E+04 0.  0.
        3    1    3    3  502    0 -0.66234568046E+03 -0.35819349180E+03  0.67476701160E+03  0.10110958946E+04  0.10100000352E+00 0. -1.
       -3    1    3    3    0  502  0.66234568046E+03  0.35819349180E+03 -0.62880455279E+03  0.98101965006E+03  0.10100000352E+00 0.  1.
</event>
<event>
 5   0  0.8861350E-05  0.2007507E+04  0.7818609E-02  0.8603119E-01
        1   -1    0    0  501    0  0.00000000000E+00  0.00000000000E+00  0.22252642860E+04  0.22252642860E+04  0.50400001928E-02 0. -1.
       -1   -1    0    0    0  501  0.00000000000E+00  0.00000000000E+00 -0.45276483103E+03  0.45276483106E+03  0.50400001928E-02 0.  1.
    10030    2    1    2    0    0  0.00000000000E+00  0.00000000000E+00  0.17724994550E+04  0.26780291171E+04  0.20075073185E+04 0.  0.
        1    1    3    3  502    0 -0.83373891934E+03 -0.45375055405E+03  0.13216171348E+04  0.16271699364E+04  0.50400001928E-02 0. -1.
       -1    1    3    3    0  502  0.83373891934E+03  0.45375055405E+03  0.45088232017E+03  0.10508591807E+04  0.50400001928E-02 0.  1.
</event>
<event>
 5   0  0.8958919E-05  0.1966881E+04  0.7818609E-02  0.8622263E-01
       -1   -1    0    0    0  501  0.00000000000E+00  0.00000000000E+00  0.58953878809E+03  0.58953878811E+03  0.50400001928E-02 0.  1.
        1   -1    0    0  501    0  0.00000000000E+00  0.00000000000E+00 -0.16405283903E+04  0.16405283903E+04  0.50400001928E-02 0. -1.
    10030    2    1    2    0    0  0.00000000000E+00  0.00000000000E+00 -0.10509896022E+04  0.22300671784E+04  0.19668809004E+04 0.  0.
        4    1    3    3  502    0 -0.25219167823E+03 -0.82987516332E+02 -0.15991262353E+04  0.16210163170E+04  0.12699999809E+01 0. -1.
       -4    1    3    3    0  502  0.25219167823E+03  0.82987516332E+02  0.54813663309E+03  0.60905086148E+03  0.12699999809E+01 0.  1.
</event>
<event>
 5   0  0.1893687E-04  0.2374291E+04  0.7818609E-02  0.8449192E-01
        2   -1    0    0  501    0  0.00000000000E+00  0.00000000000E+00  0.20023514521E+04  0.20023514521E+04  0.25500000920E-02 0. -1.
       -2   -1    0    0    0  501  0.00000000000E+00  0.00000000000E+00 -0.70382970721E+03  0.70382970722E+03  0.25500000920E-02 0.  1.
    10030    2    1    2    0    0  0.00000000000E+00  0.00000000000E+00  0.12985217449E+04  0.27061811593E+04  0.23742909984E+04 0.  0.
        4    1    3    3  502    0 -0.74914470955E+03  0.88125910244E+03  0.95398536317E+03  0.14993082030E+04  0.12699999809E+01 0. -1.
       -4    1    3    3    0  502  0.74914470955E+03 -0.88125910244E+03  0.34453638169E+03  0.12068729563E+04  0.12699999809E+01 0.  1.
</event>
<event>
 5   0  0.1807498E-04  0.1991476E+04  0.7818609E-02  0.8610616E-01
        2   -1    0    0  501    0  0.00000000000E+00  0.00000000000E+00  0.29517800627E+04  0.29517800627E+04  0.25500000920E-02 0.  1.
       -2   -1    0    0    0  501  0.00000000000E+00  0.00000000000E+00 -0.33589701579E+03  0.33589701580E+03  0.25500000920E-02 0. -1.
    10030    2    1    2    0    0  0.00000000000E+00  0.00000000000E+00  0.26158830469E+04  0.32876770785E+04  0.19914759495E+04 0.  0.
        5    1    3    3  502    0 -0.33221884769E+03 -0.56330582567E+03  0.25475155486E+04  0.26301217418E+04  0.46999998093E+01 0.  1.
       -5    1    3    3    0  502  0.33221884769E+03  0.56330582567E+03  0.68367498244E+02  0.65755533669E+03  0.46999998093E+01 0. -1.
</event>
<event>
 5   0  0.8861350E-05  0.1973232E+04  0.7818609E-02  0.8619239E-01
        1   -1    0    0  501    0  0.00000000000E+00  0.00000000000E+00  0.21817168324E+04  0.21817168324E+04  0.50400001928E-02 0.  1.
       -1   -1    0    0    0  501  0.00000000000E+00  0.00000000000E+00 -0.44616740233E+03  0.44616740236E+03  0.50400001928E-02 0. -1.
    10030    2    1    2    0    0  0.00000000000E+00  0.00000000000E+00  0.17355494301E+04  0.26278842348E+04  0.19732317976E+04 0.  0.
        1    1    3    3  502    0 -0.68522535812E+03 -0.70926108710E+03  0.90604651490E+03  0.13392181929E+04  0.50400001928E-02 0.  1.
       -1    1    3    3    0  502  0.68522535812E+03  0.70926108710E+03  0.82950291518E+03  0.12886660418E+04  0.50400001928E-02 0. -1.
</event>
<event>
 5   0  0.1812865E-04  0.1996701E+04  0.7818609E-02  0.8608165E-01
       -2   -1    0    0    0  501  0.00000000000E+00  0.00000000000E+00  0.64735425203E+03  0.64735425204E+03  0.25500000920E-02 0. -1.
        2   -1    0    0  501    0  0.00000000000E+00  0.00000000000E+00 -0.15396565657E+04  0.15396565657E+04  0.25500000920E-02 0.  1.
    10030    2    1    2    0    0  0.00000000000E+00  0.00000000000E+00 -0.89230231367E+03  0.21870108177E+04  0.19967005028E+04 0.  0.
        3    1    3    3  502    0 -0.95307651783E+03 -0.14000922972E+03 -0.15896663515E+03  0.97633387452E+03  0.10100000352E+00 0. -1.
       -3    1    3    3    0  502  0.95307651783E+03  0.14000922972E+03 -0.73333567852E+03  0.12106769432E+04  0.10100000352E+00 0.  1.
</event>
<event>
 5   0  0.1834645E-04  0.2025855E+04  0.7818609E-02  0.8594627E-01
       -2   -1    0    0    0  501  0.00000000000E+00  0.00000000000E+00  0.99720634812E+03  0.99720634813E+03  0.25500000920E-02 0. -1.
        2   -1    0    0  501    0  0.00000000000E+00  0.00000000000E+00 -0.10288965749E+04  0.10288965749E+04  0.25500000920E-02 0.  1.
    10030    2    1    2    0    0  0.00000000000E+00  0.00000000000E+00 -0.31690226821E+02  0.20261029231E+04  0.20258550749E+04 0.  0.
        1    1    3    3  502    0 -0.32815471077E+03 -0.51806317317E+03 -0.82213679299E+03  0.10256626502E+04  0.50400001928E-02 0.  1.
       -1    1    3    3    0  502  0.32815471077E+03  0.51806317317E+03  0.79044656617E+03  0.10004402729E+04  0.50400001928E-02 0. -1.
</event>
<event>
 5   0  0.1782172E-04  0.1979042E+04  0.7818609E-02  0.8616482E-01
       -2   -1    0    0    0  501  0.00000000000E+00  0.00000000000E+00  0.18251916766E+04  0.18251916766E+04  0.25500000920E-02 0.  1.
        2   -1    0    0  501    0  0.00000000000E+00  0.00000000000E+00 -0.53646504231E+03  0.53646504232E+03  0.25500000920E-02 0. -1.
    10030    2    1    2    0    0  0.00000000000E+00  0.00000000000E+00  0.12887266342E+04  0.23616567189E+04  0.19790417176E+04 0.  0.
        2    1    3    3  502    0 -0.33564196562E+03 -0.92879934905E+03  0.57053299799E+03  0.11405400746E+04  0.25500000920E-02 0. -1.
       -2    1    3    3    0  502  0.33564196562E+03  0.92879934905E+03  0.71819363626E+03  0.12211166443E+04  0.25500000920E-02 0.  1.
</event>
<event>
 5   0  0.8577422E-05  0.1972221E+04  0.7818609E-02  0.8619720E-01
        1   -1    0    0  501    0  0.00000000000E+00  0.00000000000E+00  0.15860156608E+04  0.15860156608E+04  0.50400001928E-02 0.  1.
       -1   -1    0    0    0  501  0.00000000000E+00  0.00000000000E+00 -0.61311722300E+03  0.61311722302E+03  0.50400001928E-02 0. -1.
    10030    2    1    2    0    0  0.00000000000E+00  0.00000000000E+00  0.97289843780E+03  0.21991328838E+04  0.19722205938E+04 0.  0.
        2    1    3    3  502    0 -0.40320139838E+03  0.31315734728E+03  0.14271840714E+04  0.15157484176E+04  0.25500000920E-02 0.  1.
       -2    1    3    3    0  502  0.40320139838E+03 -0.31315734728E+03 -0.45428563358E+03  0.68338446624E+03  0.25500000920E-02 0. -1.
</event>
<event>
 5   0  0.8958919E-05  0.1980773E+04  0.7818609E-02  0.8615663E-01
        1   -1    0    0  501    0  0.00000000000E+00  0.00000000000E+00  0.10487140928E+04  0.10487140928E+04  0.50400001928E-02 0.  1.
       -1   -1    0    0    0  501  0.00000000000E+00  0.00000000000E+00 -0.93530260762E+03  0.93530260763E+03  0.50400001928E-02 0. -1.
    10030    2    1    2    0    0  0.00000000000E+00  0.00000000000E+00  0.11341148517E+03  0.19840167004E+04  0.19807726025E+04 0.  0.
        4    1    3    3  502    0 -0.10649165326E+03  0.84698882696E+03  0.55965646322E+03  0.10207583039E+04  0.12699999809E+01 0.  1.
       -4    1    3    3    0  502  0.10649165326E+03 -0.84698882696E+03 -0.44624497805E+03  0.96325839656E+03  0.12699999809E+01 0. -1.
</event>
<event>
 5   0  0.1807498E-04  0.2004044E+04  0.7818609E-02  0.8604732E-01
       -2   -1    0    0    0  501  0.00000000000E+00  0.00000000000E+00  0.72031914247E+03  0.72031914248E+03  0.25500000920E-02 0.  1.
        2   -1    0    0  501    0  0.00000000000E+00  0.00000000000E+00 -0.13938939840E+04  0.13938939840E+04  0.25500000920E-02 0. -1.
    10030    2    1    2    0    0  0.00000000000E+00  0.00000000000E+00 -0.67357484157E+03  0.21142131265E+04  0.20040444299E+04 0.  0.
        5    1    3    3  502    0  0.42607077934E+03  0.19384813293E+03 -0.12714442558E+04  0.13548822802E+04  0.46999998093E+01 0. -1.
       -5    1    3    3    0  502 -0.42607077934E+03 -0.19384813293E+03  0.59786941424E+03  0.75933084629E+03  0.46999998093E+01 0.  1.
</event>
<event>
 5   0  0.6531625E-05  0.1930453E+04  0.7818609E-02  0.8639845E-01
        4   -1    0    0  501    0  0.00000000000E+00  0.00000000000E+00  0.13385934710E+04  0.13385940735E+04  0.12699999809E+01 0. -1.
       -4   -1    0    0    0  501  0.00000000000E+00  0.00000000000E+00 -0.69599984003E+03  0.69600099872E+03  0.12699999809E+01 0.  1.
    10030    2    1    2    0    0  0.00000000000E+00  0.00000000000E+00  0.64259363100E+03  0.20345950722E+04  0.19304534528E+04 0.  0.
        3    1    3    3  502    0 -0.51188362596E+03 -0.75276921315E+03  0.65950745919E+03  0.11241158453E+04  0.10100000352E+00 0. -1.
       -3    1    3    3    0  502  0.51188362596E+03  0.75276921315E+03 -0.16913828184E+02  0.91047922688E+03  0.10100000352E+00 0.  1.
</event>
<event>
 5   0  0.8881384E-05  0.1915541E+04  0.7818609E-02  0.8647159E-01
       -1   -1    0    0    0  501  0.00000000000E+00  0.00000000000E+00  0.12555988223E+04  0.12555988223E+04  0.50400001928E-02 0. -1.
        1   -1    0    0  501    0  0.00000000000E+00  0.00000000000E+00 -0.73058729907E+03  0.73058729908E+03  0.50400001928E-02 0.  1.
    10030    2    1    2    0    0  0.00000000000E+00  0.00000000000E+00  0.52501152323E+03  0.19861861214E+04  0.19155412314E+04 0.  0.
        5    1    3    3  502    0  0.11805801597E+03 -0.81712625886E+03  0.76586735685E+03  0.11261473777E+04  0.46999998093E+01 0. -1.
       -5    1    3    3    0  502 -0.11805801597E+03  0.81712625886E+03 -0.24085583361E+03  0.86003874368E+03  0.46999998093E+01 0.  1.
</event>
<event>
 5   0  0.8958919E-05  0.2015025E+04  0.7818609E-02  0.8599628E-01
       -1   -1    0    0    0  501  0.00000000000E+00  0.00000000000E+00  0.13360345624E+04  0.13360345624E+04  0.50400001928E-02 0.  1.
        1   -1    0    0  501    0  0.00000000000E+00  0.00000000000E+00 -0.75977162888E+03  0.75977162889E+03  0.50400001928E-02 0. -1.
    10030    2    1    2    0    0  0.00000000000E+00  0.00000000000E+00  0.57626293352E+03  0.20958061913E+04  0.20150247202E+04 0.  0.
        4    1    3    3  502    0  0.63763086288E+03  0.39111167968E+02  0.10984518541E+04  0.12707088138E+04  0.12699999809E+01 0.  1.
       -4    1    3    3    0  502 -0.63763086288E+03 -0.39111167968E+02 -0.52218892056E+03  0.82509737753E+03  0.12699999809E+01 0. -1.
</event>
<event>
 5   0  0.8765057E-05  0.1996299E+04  0.7818609E-02  0.8608353E-01
        1   -1    0    0  501    0  0.00000000000E+00  0.00000000000E+00  0.15922653727E+04  0.15922653728E+04  0.50400001928E-02 0. -1.
       -1   -1    0    0    0  501  0.00000000000E+00  0.00000000000E+00 -0.62571355499E+03  0.62571355501E+03  0.50400001928E-02 0.  1.
    10030    2    1    2    0    0  0.00000000000E+00  0.00000000000E+00  0.96655181776E+03  0.22179789278E+04  0.19962986018E+04 0.  0.
        3    1    3    3  502    0  0.60449155301E+03  0.24754103882E+03  0.13218139688E+04  0.14744079428E+04  0.10100000352E+00 0. -1.
       -3    1    3    3    0  502 -0.60449155301E+03 -0.24754103882E+03 -0.35526215100E+03  0.74357098497E+03  0.10100000352E+00 0.  1.
</event>
<event>
 5   0  0.8881384E-05  0.1708469E+04  0.7818609E-02  0.8756549E-01
       -1   -1    0    0    0  501  0.00000000000E+00  0.00000000000E+00  0.10214122016E+04  0.10214122016E+04  0.50400001928E-02 0.  1.
        1   -1    0    0  501    0  0.00000000000E+00  0.00000000000E+00 -0.71441949527E+03  0.71441949529E+03  0.50400001928E-02 0. -1.
    10030    2    1    2    0    0  0.00000000000E+00  0.00000000000E+00  0.30699270636E+03  0.17358316969E+04  0.17084692442E+04 0.  0.
        5    1    3    3  502    0 -0.63261978665E+03  0.23230210388E+02 -0.42922856246E+03  0.76485729778E+03  0.46999998093E+01 0. -1.
       -5    1    3    3    0  502  0.63261978665E+03 -0.23230210388E+02  0.73622126882E+03  0.97097439915E+03  0.46999998093E+01 0.  1.
</event>
<event>
 5   0  0.8861350E-05  0.1987368E+04  0.7818609E-02  0.8612549E-01
        1   -1    0    0  501    0  0.00000000000E+00  0.00000000000E+00  0.17608888865E+04  0.17608888865E+04  0.50400001928E-02 0. -1.
       -1   -1    0    0    0  501  0.00000000000E+00  0.00000000000E+00 -0.56074409869E+03  0.56074409872E+03  0.50400001928E-02 0.  1.
    10030    2    1    2    0    0  0.00000000000E+00  0.00000000000E+00  0.12001447878E+04  0.23216329852E+04  0.19873681607E+04 0.  0.
        1    1    3    3  502    0 -0.65730203907E+02  0.82876996649E+03  0.12358836949E+04  0.14894927407E+04  0.50400001928E-02 0. -1.
       -1    1    3    3    0  502  0.65730203907E+02 -0.82876996649E+03 -0.35738907161E+02  0.83214024453E+03  0.50400001928E-02 0.  1.
</event>
<event>
 5   0  0.6531625E-05  0.1880167E+04  0.7818609E-02  0.8664792E-01
       -3   -1    0    0    0  501  0.00000000000E+00  0.00000000000E+00  0.11850053352E+04  0.11850053395E+04  0.10100000352E+00 0.  1.
        3   -1    0    0  501    0  0.00000000000E+00  0.00000000000E+00 -0.74578349382E+03  0.74578350066E+03  0.10100000352E+00 0. -1.
    10030    2    1    2    0    0  0.00000000000E+00  0.00000000000E+00  0.43922184138E+03  0.19307888402E+04  0.18801674711E+04 0.  0.
        5    1    3    3  502    0  0.70941219560E+03  0.61056105574E+03  0.30963457018E+03  0.98587327943E+03  0.46999998093E+01 0. -1.
       -5    1    3    3    0  502 -0.70941219560E+03 -0.61056105574E+03  0.12958727120E+03  0.94491556072E+03  0.46999998093E+01 0.  1.
</event>
<event>
 5   0  0.1834645E-04  0.2088803E+04  0.7818609E-02  0.8566192E-01
       -2   -1    0    0    0  501  0.00000000000E+00  0.00000000000E+00  0.74802697790E+03  0.74802697791E+03  0.25500000920E-02 0. -1.
        2   -1    0    0  501    0  0.00000000000E+00  0.00000000000E+00 -0.14582027740E+04  0.14582027740E+04  0.25500000920E-02 0.  1.
    10030    2    1    2    0    0  0.00000000000E+00  0.00000000000E+00 -0.71017579605E+03  0.22062297519E+04  0.20888034988E+04 0.  0.
        1    1    3    3  502    0  0.25629783840E+03  0.26731559367E+03 -0.13865251941E+04  0.14351300716E+04  0.50400001928E-02 0.  1.
       -1    1    3    3    0  502 -0.25629783840E+03 -0.26731559367E+03  0.67634939805E+03  0.77109968023E+03  0.50400001928E-02 0. -1.
</event>
<event>
 5   0  0.8861350E-05  0.1954504E+04  0.7818609E-02  0.8628192E-01
        1   -1    0    0  501    0  0.00000000000E+00  0.00000000000E+00  0.88035072619E+03  0.88035072620E+03  0.50400001928E-02 0. -1.
       -1   -1    0    0    0  501  0.00000000000E+00  0.00000000000E+00 -0.10848188070E+04  0.10848188070E+04  0.50400001928E-02 0.  1.
    10030    2    1    2    0    0  0.00000000000E+00  0.00000000000E+00 -0.20446808079E+03  0.19651695332E+04  0.19545035426E+04 0.  0.
        1    1    3    3  502    0 -0.94490993779E+03 -0.23185837476E+03 -0.19442918571E+03  0.99217730510E+03  0.50400001928E-02 0.  1.
       -1    1    3    3    0  502  0.94490993779E+03  0.23185837476E+03 -0.10038895082E+02  0.97299222809E+03  0.50400001928E-02 0. -1.
</event>
<event>
 5   0  0.1893687E-04  0.1766666E+04  0.7818609E-02  0.8724230E-01
        2   -1    0    0  501    0  0.00000000000E+00  0.00000000000E+00  0.71772158803E+03  0.71772158803E+03  0.25500000920E-02 0. -1.
       -2   -1    0    0    0  501  0.00000000000E+00  0.00000000000E+00 -0.10871589284E+04  0.10871589284E+04  0.25500000920E-02 0.  1.
    10030    2    1    2    0    0  0.00000000000E+00  0.00000000000E+00 -0.36943734038E+03  0.18048805164E+04  0.17666662758E+04 0.  0.
        4    1    3    3  502    0 -0.55481385765E+03 -0.48119947996E+03  0.31671831231E+03  0.79980213703E+03  0.12699999809E+01 0. -1.
       -4    1    3    3    0  502  0.55481385765E+03  0.48119947996E+03 -0.68615565269E+03  0.10050783794E+04  0.12699999809E+01 0.  1.
</event>
<event>
 5   0  0.1807498E-04  0.2015395E+04  0.7818609E-02  0.8599457E-01
       -2   -1    0    0    0  501  0.00000000000E+00  0.00000000000E+00  0.10119297956E+04  0.10119297956E+04  0.25500000920E-02 0.  1.
        2   -1    0    0  501    0  0.00000000000E+00  0.00000000000E+00 -0.10034825817E+04  0.10034825817E+04  0.25500000920E-02 0. -1.
    10030    2    1    2    0    0  0.00000000000E+00  0.00000000000E+00  0.84472138797E+01  0.20154123773E+04  0.20153946748E+04 0.  0.
        5    1    3    3  502    0 -0.10021366366E+04  0.32105392998E+02 -0.96391585415E+02  0.10072844794E+04  0.46999998093E+01 0. -1.
       -5    1    3    3    0  502  0.10021366366E+04 -0.32105392998E+02  0.10483879929E+03  0.10081278979E+04  0.46999998093E+01 0.  1.
</event>
<event>
 5   0  0.8577422E-05  0.1985459E+04  0.7818609E-02  0.8613449E-01
       -1   -1    0    0    0  501  0.00000000000E+00  0.00000000000E+00  0.81466339624E+03  0.81466339625E+03  0.50400001928E-02 0. -1.
        1   -1    0    0  501    0  0.00000000000E+00  0.00000000000E+00 -0.12097170393E+04  0.12097170393E+04  0.50400001928E-02 0.  1.
    10030    2    1    2    0    0  0.00000000000E+00  0.00000000000E+00 -0.39505364304E+03  0.20243804355E+04  0.19854593340E+04 0.  0.
        2    1    3    3  502    0 -0.63239688665E+03  0.75812010613E+03 -0.91369178300E+02  0.99147377389E+03  0.25500000920E-02 0. -1.
       -2    1    3    3    0  502  0.63239688665E+03 -0.75812010613E+03 -0.30368446474E+03  0.10329066617E+04  0.25500000920E-02 0.  1.
</event>
<event>
 5   0  0.8861350E-05  0.2052241E+04  0.7818609E-02  0.8582578E-01
        1   -1    0    0  501    0  0.00000000000E+00  0.00000000000E+00  0.17502365047E+04  0.17502365047E+04  0.50400001928E-02 0. -1.
       -1   -1    0    0    0  501  0.00000000000E+00  0.00000000000E+00 -0.60158923565E+03  0.60158923567E+03  0.50400001928E-02 0.  1.
    10030    2    1    2    0    0  0.00000000000E+00  0.00000000000E+00  0.11486472690E+04  0.23518257404E+04  0.20522411565E+04 0.  0.
        1    1    3    3  502    0  0.30854378953E+03 -0.60081985547E+03  0.14595802934E+04  0.16082780859E+04  0.50400001928E-02 0. -1.
       -1    1    3    3    0  502 -0.30854378953E+03  0.60081985547E+03 -0.31093302434E+03  0.74354765445E+03  0.50400001928E-02 0.  1.
</event>
<event>
 5   0  0.1782172E-04  0.1920118E+04  0.7818609E-02  0.8644907E-01
       -2   -1    0    0    0  501  0.00000000000E+00  0.00000000000E+00  0.82769560488E+03  0.82769560488E+03  0.25500000920E-02 0. -1.
        2   -1    0    0  501    0  0.00000000000E+00  0.00000000000E+00 -0.11135896775E+04  0.11135896775E+04  0.25500000920E-02 0.  1.
    10030    2    1    2    0    0  0.00000000000E+00  0.00000000000E+00 -0.28589407265E+03  0.19412852824E+04  0.19201179982E+04 0.  0.
        2    1    3    3  502    0  0.47818622638E+03  0.13824289142E+03  0.68704150803E+03  0.84840980539E+03  0.25500000920E-02 0. -1.
       -2    1    3    3    0  502 -0.47818622638E+03 -0.13824289142E+03 -0.97293558068E+03  0.10928754770E+04  0.25500000920E-02 0.  1.
</event>
<event>
 5   0  0.8765057E-05  0.1915604E+04  0.7818609E-02  0.8647128E-01
        1   -1    0    0  501    0  0.00000000000E+00  0.00000000000E+00  0.17581447643E+04  0.17581447643E+04  0.50400001928E-02 0.  1.
       -1   -1    0    0    0  501  0.00000000000E+00  0.00000000000E+00 -0.52179152757E+03  0.52179152759E+03  0.50400001928E-02 0. -1.
    10030    2    1    2    0    0  0.00000000000E+00  0.00000000000E+00  0.12363532367E+04  0.22799362919E+04  0.19156043874E+04 0.  0.
        3    1    3    3  502    0  0.79697092912E+03 -0.50626829575E+03  0.80977448819E+03  0.12438669467E+04  0.10100000352E+00 0. -1.
       -3    1    3    3    0  502 -0.79697092912E+03  0.50626829575E+03  0.42657874851E+03  0.10360693452E+04  0.10100000352E+00 0.  1.
</event>
<event>
 5   0  0.8765057E-05  0.2096694E+04  0.7818609E-02  0.8562701E-01
       -1   -1    0    0    0  501  0.00000000000E+00  0.00000000000E+00  0.11393479526E+04  0.11393479526E+04  0.50400001928E-02 0.  1.
        1   -1    0    0  501    0  0.00000000000E+00  0.00000000000E+00 -0.96461399371E+03  0.96461399372E+03  0.50400001928E-02 0. -1.
    10030    2    1    2    0    0  0.00000000000E+00  0.00000000000E+00  0.17473395890E+03  0.21039619463E+04  0.20966935673E+04 0.  0.
        3    1    3    3  502    0  0.59250902166E+03  0.79835117393E+03  0.42108477347E+03  0.10796962232E+04  0.10100000352E+00 0.  1.
       -3    1    3    3    0  502 -0.59250902166E+03 -0.79835117393E+03 -0.24635081457E+03  0.10242657232E+04  0.10100000352E+00 0. -1.
</event>
<event>
 5   0  0.1782172E-04  0.1964661E+04  0.7818609E-02  0.8623323E-01
       -2   -1    0    0    0  501  0.00000000000E+00  0.00000000000E+00  0.75517454930E+03  0.75517454930E+03  0.25500000920E-02 0. -1.
        2   -1    0    0  501    0  0.00000000000E+00  0.00000000000E+00 -0.12778146490E+04  0.12778146490E+04  0.25500000920E-02 0.  1.
    10030    2    1    2    0    0  0.00000000000E+00  0.00000000000E+00 -0.52264009973E+03  0.20329891983E+04  0.19646608885E+04 0.  0.
        2    1    3    3  502    0 -0.41942608970E+03 -0.16967217705E+03 -0.11635771655E+04  0.12484465197E+04  0.25500000920E-02 0.  1.
       -2    1    3    3    0  502  0.41942608970E+03  0.16967217705E+03  0.64093706577E+03  0.78454267867E+03  0.25500000920E-02 0. -1.
</event>
<event>
 5   0  0.8881384E-05  0.1976095E+04  0.7818609E-02  0.8617879E-01
       -1   -1    0    0    0  501  0.00000000000E+00  0.00000000000E+00  0.13674959663E+04  0.13674959663E+04  0.50400001928E-02 0. -1.
        1   -1    0    0  501    0  0.00000000000E+00  0.00000000000E+00 -0.71388746468E+03  0.71388746469E+03  0.50400001928E-02 0.  1.
    10030    2    1    2    0    0  0.00000000000E+00  0.00000000000E+00  0.65360850160E+03  0.20813834310E+04  0.19760953705E+04 0.  0.
        5    1    3    3  502    0  0.81258457411E+02 -0.97546216872E+03  0.46845685605E+03  0.10851743157E+04  0.46999998093E+01 0. -1.
       -5    1    3    3    0  502 -0.81258457411E+02  0.97546216872E+03  0.18515164556E+03  0.99620911527E+03  0.46999998093E+01 0.  1.
</event>
<event>
 5   0  0.1812865E-04  0.1982713E+04  0.7818609E-02  0.8614746E-01
       -2   -1    0    0    0  501  0.00000000000E+00  0.00000000000E+00  0.66075699863E+03  0.66075699863E+03  0.25500000920E-02 0.  1.
        2   -1    0    0  501    0  0.00000000000E+00  0.00000000000E+00 -0.14873665156E+04  0.14873665156E+04  0.25500000920E-02 0. -1.
    10030    2    1    2    0    0  0.00000000000E+00  0.00000000000E+00 -0.82660951693E+03  0.21481235142E+04  0.19827131257E+04 0.  0.
        3    1    3    3  502    0  0.19746884791E+03 -0.83849493937E+03 -0.94486875594E+03  0.12786104510E+04  0.10100000352E+00 0. -1.
       -3    1    3    3    0  502 -0.19746884791E+03  0.83849493937E+03  0.11825923902E+03  0.86951306319E+03  0.10100000352E+00 0.  1.
</event>
<event>
 5   0  0.1812865E-04  0.2001310E+04  0.7818609E-02  0.8606009E-01
       -2   -1    0    0    0  501  0.00000000000E+00  0.00000000000E+00  0.10610161657E+04  0.10610161657E+04  0.25500000920E-02 0. -1.
        2   -1    0    0  501    0  0.00000000000E+00  0.00000000000E+00 -0.94372761556E+03  0.94372761557E+03  0.25500000920E-02 0.  1.
    10030    2    1    2    0    0  0.00000000000E+00  0.00000000000E+00  0.11728855018E+03  0.20047437813E+04  0.20013098273E+04 0.  0.
        3    1    3    3  502    0 -0.48158769290E+03  0.32665929675E+03 -0.75680241768E+03  0.95466376893E+03  0.10100000352E+00 0.  1.
       -3    1    3    3    0  502  0.48158769290E+03 -0.32665929675E+03  0.87409096786E+03  0.10500800124E+04  0.10100000352E+00 0. -1.
</event>
<event>
 5   0  0.1782172E-04  0.2015989E+04  0.7818609E-02  0.8599182E-01
       -2   -1    0    0    0  501  0.00000000000E+00  0.00000000000E+00  0.11271396903E+04  0.11271396903E+04  0.25500000920E-02 0.  1.
        2   -1    0    0  501    0  0.00000000000E+00  0.00000000000E+00 -0.90144327277E+03  0.90144327277E+03  0.25500000920E-02 0. -1.
    10030    2    1    2    0    0  0.00000000000E+00  0.00000000000E+00  0.22569641756E+03  0.20285829631E+04  0.20159885826E+04 0.  0.
        2    1    3    3  502    0 -0.11633241483E+03 -0.94855972445E+03  0.43540297282E+03  0.10501783326E+04  0.25500000920E-02 0.  1.
       -2    1    3    3    0  502  0.11633241483E+03  0.94855972445E+03 -0.20970655526E+03  0.97840463047E+03  0.25500000920E-02 0. -1.
</event>
<event>
 5   0  0.8958919E-05  0.1808244E+04  0.7818609E-02  0.8701928E-01
       -1   -1    0    0    0  501  0.00000000000E+00  0.00000000000E+00  0.41243533611E+03  0.41243533614E+03  0.50400001928E-02 0. -1.
        1   -1    0    0  501    0  0.00000000000E+00  0.00000000000E+00 -0.19819748152E+04  0.19819748152E+04  0.50400001928E-02 0.  1.
    10030    2    1    2    0    0  0.00000000000E+00  0.00000000000E+00 -0.15695394791E+04  0.23944101513E+04  0.18082438432E+04 0.  0.
        4    1    3    3  502    0  0.57820350910E+03 -0.41442727923E+03 -0.15236547271E+04  0.16815453036E+04  0.12699999809E+01 0.  1.
       -4    1    3    3    0  502 -0.57820350910E+03  0.41442727923E+03 -0.45884751908E+02  0.71286484769E+03  0.12699999809E+01 0. -1.
</event>
<event>
 5   0  0.1834645E-04  0.1974718E+04  0.7818609E-02  0.8618533E-01
       -2   -1    0    0    0  501  0.00000000000E+00  0.00000000000E+00  0.80584221663E+03  0.80584221663E+03  0.25500000920E-02 0.  1.
        2   -1    0    0  501    0  0.00000000000E+00  0.00000000000E+00 -0.12097621623E+04  0.12097621623E+04  0.25500000920E-02 0. -1.
    10030    2    1    2    0    0  0.00000000000E+00  0.00000000000E+00 -0.40391994571E+03  0.20156043790E+04  0.19747176228E+04 0.  0.
        1    1    3    3  502    0  0.90136345440E+03 -0.38146923481E+03 -0.33466172060E+03  0.10343951476E+04  0.50400001928E-02 0. -1.
       -1    1    3    3    0  502 -0.90136345440E+03  0.38146923481E+03 -0.69258225103E+02  0.98120923141E+03  0.50400001928E-02 0.  1.
</event>
<event>
 5   0  0.1782172E-04  0.1985920E+04  0.7818609E-02  0.8613232E-01
        2   -1    0    0  501    0  0.00000000000E+00  0.00000000000E+00  0.87064911730E+03  0.87064911731E+03  0.25500000920E-02 0.  1.
       -2   -1    0    0    0  501  0.00000000000E+00  0.00000000000E+00 -0.11324534799E+04  0.11324534799E+04  0.25500000920E-02 0. -1.
    10030    2    1    2    0    0  0.00000000000E+00  0.00000000000E+00 -0.26180436260E+03  0.20031025972E+04  0.19859200615E+04 0.  0.
        2    1    3    3  502    0  0.59165689560E+03 -0.28562408480E+03 -0.88187785035E+03  0.10997033886E+04  0.25500000920E-02 0. -1.
       -2    1    3    3    0  502 -0.59165689560E+03  0.28562408480E+03  0.62007348775E+03  0.90339920863E+03  0.25500000920E-02 0.  1.
</event>
<event>
 5   0  0.1834645E-04  0.1997144E+04  0.7818609E-02  0.8607957E-01
       -2   -1    0    0    0  501  0.00000000000E+00  0.00000000000E+00  0.13907125281E+04  0.13907125281E+04  0.25500000920E-02 0. -1.
        2   -1    0    0  501    0  0.00000000000E+00  0.00000000000E+00 -0.71700367345E+03  0.71700367346E+03  0.25500000920E-02 0.  1.
    10030    2    1    2    0    0  0.00000000000E+00  0.00000000000E+00  0.67370885469E+03  0.21077162016E+04  0.19971439521E+04 0.  0.
        1    1    3    3  502    0  0.16612240242E+03 -0.76995468545E+03  0.98461065414E+03  0.12609064242E+04  0.50400001928E-02 0. -1.
       -1    1    3    3    0  502 -0.16612240242E+03  0.76995468545E+03 -0.31090179945E+03  0.84680977743E+03  0.50400001928E-02 0.  1.
</event>
<event>
 5   0  0.1812865E-04  0.2045656E+04  0.7818609E-02  0.8585567E-01
       -2   -1    0    0    0  501  0.00000000000E+00  0.00000000000E+00  0.13365229000E+04  0.13365229000E+04  0.25500000920E-02 0.  1.
        2   -1    0    0  501    0  0.00000000000E+00  0.00000000000E+00 -0.78276045880E+03  0.78276045880E+03  0.25500000920E-02 0. -1.
    10030    2    1    2    0    0  0.00000000000E+00  0.00000000000E+00  0.55376244122E+03  0.21192833588E+04  0.20456561572E+04 0.  0.
        3    1    3    3  502    0 -0.10042847517E+02  0.19546338773E+02 -0.78251585873E+03  0.78282437207E+03  0.10100000352E+00 0. -1.
       -3    1    3    3    0  502  0.10042847517E+02 -0.19546338773E+02  0.13362782999E+04  0.13364589867E+04  0.10100000352E+00 0.  1.
</event>
<event>
 5   0  0.8577422E-05  0.1993985E+04  0.7818609E-02  0.8609438E-01
       -1   -1    0    0    0  501  0.00000000000E+00  0.00000000000E+00  0.14737620838E+04  0.14737620838E+04  0.50400001928E-02 0. -1.
        1   -1    0    0  501    0  0.00000000000E+00  0.00000000000E+00 -0.67446060504E+03  0.67446060506E+03  0.50400001928E-02 0.  1.
    10030    2    1    2    0    0  0.00000000000E+00  0.00000000000E+00  0.79930147878E+03  0.21482226889E+04  0.19939854230E+04 0.  0.
        2    1    3    3  502    0 -0.90886959670E+03 -0.34176327741E+03  0.15599688630E+03  0.98345366446E+03  0.25500000920E-02 0.  1.
       -2    1    3    3    0  502  0.90886959670E+03  0.34176327741E+03  0.64330459248E+03  0.11647690244E+04  0.25500000920E-02 0. -1.
</event>
<event>
 5   0  0.1834645E-04  0.2035239E+04  0.7818609E-02  0.8590320E-01
       -2   -1    0    0    0  501  0.00000000000E+00  0.00000000000E+00  0.11033398803E+04  0.11033398803E+04  0.25500000920E-02 0. -1.
        2   -1    0    0  501    0  0.00000000000E+00  0.00000000000E+00 -0.93855919206E+03  0.93855919207E+03  0.25500000920E-02 0.  1.
    10030    2    1    2    0    0  0.00000000000E+00  0.00000000000E+00  0.16478068825E+03  0.20418990724E+04  0.20352393340E+04 0.  0.
        1    1    3    3  502    0  0.39247274579E+03 -0.88435399395E+03 -0.23397137954E+03  0.99541923292E+03  0.50400001928E-02 0.  1.
       -1    1    3    3    0  502 -0.39247274579E+03  0.88435399395E+03  0.39875206779E+03  0.10464798395E+04  0.50400001928E-02 0. -1.
</event>
<event>
 5   0  0.1893687E-04  0.1939689E+04  0.7818609E-02  0.8635349E-01
       -2   -1    0    0    0  501  0.00000000000E+00  0.00000000000E+00  0.88028761312E+03  0.88028761312E+03  0.25500000920E-02 0. -1.
        2   -1    0    0  501    0  0.00000000000E+00  0.00000000000E+00 -0.10685130879E+04  0.10685130879E+04  0.25500000920E-02 0.  1.
    10030    2    1    2    0    0  0.00000000000E+00  0.00000000000E+00 -0.18822547481E+03  0.19488007011E+04  0.19396894966E+04 0.  0.
        4    1    3    3  502    0 -0.33006378632E+03 -0.72060305574E+03 -0.65565344065E+03  0.10286369205E+04  0.12699999809E+01 0.  1.
       -4    1    3    3    0  502  0.33006378632E+03  0.72060305574E+03  0.46742796583E+03  0.92016378060E+03  0.12699999809E+01 0. -1.
</event>
<event>
 5   0  0.8861350E-05  0.2016852E+04  0.7818609E-02  0.8598782E-01
        1   -1    0    0  501    0  0.00000000000E+00  0.00000000000E+00  0.14072766798E+04  0.14072766798E+04  0.50400001928E-02 0. -1.
       -1   -1    0    0    0  501  0.00000000000E+00  0.00000000000E+00 -0.72261773674E+03  0.72261773676E+03  0.50400001928E-02 0.  1.
    10030    2    1    2    0    0  0.00000000000E+00  0.00000000000E+00  0.68465894306E+03  0.21298944166E+04  0.20168520911E+04 0.  0.
        1    1    3    3  502    0  0.88911657513E+03  0.10791696979E+03 -0.14705403702E+03  0.90763387242E+03  0.50400001928E-02 0.  1.
       -1    1    3    3    0  502 -0.88911657513E+03 -0.10791696979E+03  0.83171298008E+03  0.12222605442E+04  0.50400001928E-02 0. -1.
</event>
<event>
 5   0  0.8577422E-05  0.2030476E+04  0.7818609E-02  0.8592503E-01
        1   -1    0    0  501    0  0.00000000000E+00  0.00000000000E+00  0.19538513400E+04  0.19538513400E+04  0.50400001928E-02 0.  1.
       -1   -1    0    0    0  501  0.00000000000E+00  0.00000000000E+00 -0.52752651413E+03  0.52752651416E+03  0.50400001928E-02 0. -1.
    10030    2    1    2    0    0  0.00000000000E+00  0.00000000000E+00  0.14263248259E+04  0.24813778542E+04  0.20304761871E+04 0.  0.
        2    1    3    3  502    0 -0.54898210286E+03  0.59312875071E+02 -0.32797051455E+03  0.64223362169E+03  0.25500000920E-02 0. -1.
       -2    1    3    3    0  502  0.54898210286E+03 -0.59312875071E+02  0.17542953404E+04  0.18391442325E+04  0.25500000920E-02 0.  1.
</event>
<event>
 5   0  0.8881384E-05  0.1908574E+04  0.7818609E-02  0.8650600E-01
       -1   -1    0    0    0  501  0.00000000000E+00  0.00000000000E+00  0.80466972410E+03  0.80466972411E+03  0.50400001928E-02 0. -1.
        1   -1    0    0  501    0  0.00000000000E+00  0.00000000000E+00 -0.11317238760E+04  0.11317238761E+04  0.50400001928E-02 0.  1.
    10030    2    1    2    0    0  0.00000000000E+00  0.00000000000E+00 -0.32705415194E+03  0.19363936002E+04  0.19085742732E+04 0.  0.
        5    1    3    3  502    0 -0.12040980661E+03  0.93915048433E+03 -0.42883389359E+02  0.94782025132E+03  0.46999998093E+01 0.  1.
       -5    1    3    3    0  502  0.12040980661E+03 -0.93915048433E+03 -0.28417076258E+03  0.98857334884E+03  0.46999998093E+01 0. -1.
</event>
<event>
 5   0  0.6531625E-05  0.2001850E+04  0.7818609E-02  0.8605756E-01
        3   -1    0    0  501    0  0.00000000000E+00  0.00000000000E+00  0.10755101103E+04  0.10755101150E+04  0.10100000352E+00 0.  1.
       -3   -1    0    0    0  501  0.00000000000E+00  0.00000000000E+00 -0.93151210338E+03  0.93151210886E+03  0.10100000352E+00 0. -1.
    10030    2    1    2    0    0  0.00000000000E+00  0.00000000000E+00  0.14399800690E+03  0.20070222239E+04  0.20018498398E+04 0.  0.
        3    1    3    3  502    0  0.38157465093E+03 -0.24595745951E+03  0.96635568050E+03  0.10676786022E+04  0.10100000352E+00 0.  1.
       -3    1    3    3    0  502 -0.38157465093E+03  0.24595745951E+03 -0.82235767359E+03  0.93934362171E+03  0.10100000352E+00 0. -1.
</event>
<event>
 5   0  0.8765057E-05  0.1966302E+04  0.7818609E-02  0.8622540E-01
        1   -1    0    0  501    0  0.00000000000E+00  0.00000000000E+00  0.17649770198E+04  0.17649770198E+04  0.50400001928E-02 0.  1.
       -1   -1    0    0    0  501  0.00000000000E+00  0.00000000000E+00 -0.54764789357E+03  0.54764789359E+03  0.50400001928E-02 0. -1.
    10030    2    1    2    0    0  0.00000000000E+00  0.00000000000E+00  0.12173291262E+04  0.23126249134E+04  0.19663020593E+04 0.  0.
        3    1    3    3  502    0  0.54452682632E+02  0.40181650754E+03  0.16620483768E+04  0.17107970124E+04  0.10100000352E+00 0.  1.
       -3    1    3    3    0  502 -0.54452682632E+02 -0.40181650754E+03 -0.44471925062E+03  0.60182790102E+03  0.10100000352E+00 0. -1.
</event>
<event>
 5   0  0.1893687E-04  0.2025544E+04  0.7818609E-02  0.8594770E-01
       -2   -1    0    0    0  501  0.00000000000E+00  0.00000000000E+00  0.76005727749E+03  0.76005727749E+03  0.25500000920E-02 0.  1.
        2   -1    0    0  501    0  0.00000000000E+00  0.00000000000E+00 -0.13495133814E+04  0.13495133814E+04  0.25500000920E-02 0. -1.
    10030    2    1    2    0    0  0.00000000000E+00  0.00000000000E+00 -0.58945610388E+03  0.21095706589E+04  0.20255443383E+04 0.  0.
        4    1    3    3  502    0 -0.77523411005E+03 -0.76440915771E+00 -0.97346629588E+03  0.12444383278E+04  0.12699999809E+01 0. -1.
       -4    1    3    3    0  502  0.77523411005E+03  0.76440915771E+00  0.38401019201E+03  0.86513233101E+03  0.12699999809E+01 0.  1.
</event>
<event>
 5   0  0.8861350E-05  0.1915384E+04  0.7818609E-02  0.8647236E-01
       -1   -1    0    0    0  501  0.00000000000E+00  0.00000000000E+00  0.79513732219E+03  0.79513732221E+03  0.50400001928E-02 0. -1.
        1   -1    0    0  501    0  0.00000000000E+00  0.00000000000E+00 -0.11534788231E+04  0.11534788231E+04  0.50400001928E-02 0.  1.
    10030    2    1    2    0    0  0.00000000000E+00  0.00000000000E+00 -0.35834150087E+03  0.19486161453E+04  0.19153841000E+04 0.  0.
        1    1    3    3  502    0  0.61917292614E+03  0.72427379465E+03 -0.81449944389E+02  0.95633766816E+03  0.50400001928E-02 0. -1.
       -1    1    3    3    0  502 -0.61917292614E+03 -0.72427379465E+03 -0.27689155648E+03  0.99227847712E+03  0.50400001928E-02 0.  1.
</event>
<event>
 5   0  0.1807498E-04  0.2005322E+04  0.7818609E-02  0.8604136E-01
        2   -1    0    0  501    0  0.00000000000E+00  0.00000000000E+00  0.11200438948E+04  0.11200438948E+04  0.25500000920E-02 0. -1.
       -2   -1    0    0    0  501  0.00000000000E+00  0.00000000000E+00 -0.89758037946E+03  0.89758037946E+03  0.25500000920E-02 0.  1.
    10030    2    1    2    0    0  0.00000000000E+00  0.00000000000E+00  0.22246351539E+03  0.20176242743E+04  0.20053223423E+04 0.  0.
        5    1    3    3  502    0 -0.30017659390E+03  0.65631417581E+03  0.81152824621E+03  0.10860269192E+04  0.46999998093E+01 0. -1.
       -5    1    3    3    0  502  0.30017659390E+03 -0.65631417581E+03 -0.58906473082E+03  0.93159735508E+03  0.46999998093E+01 0.  1.
</event>
<event>
 5   0  0.1807498E-04  0.2003231E+04  0.7818609E-02  0.8605112E-01
       -2   -1    0    0    0  501  0.00000000000E+00  0.00000000000E+00  0.95755184617E+03  0.95755184618E+03  0.25500000920E-02 0.  1.
        2   -1    0    0  501    0  0.00000000000E+00  0.00000000000E+00 -0.10477063124E+04  0.10477063124E+04  0.25500000920E-02 0. -1.
    10030    2    1    2    0    0  0.00000000000E+00  0.00000000000E+00 -0.90154466248E+02  0.20052581586E+04  0.20032305047E+04 0.  0.
        5    1    3    3  502    0  0.47615575764E+03  0.57705187763E+03  0.62155318402E+03  0.97265802087E+03  0.46999998093E+01 0. -1.
       -5    1    3    3    0  502 -0.47615575764E+03 -0.57705187763E+03 -0.71170765027E+03  0.10326001377E+04  0.46999998093E+01 0.  1.
</event>
<event>
 5   0  0.1807498E-04  0.1973492E+04  0.7818609E-02  0.8619115E-01
        2   -1    0    0  501    0  0.00000000000E+00  0.00000000000E+00  0.94681356244E+03  0.94681356245E+03  0.25500000920E-02 0. -1.
       -2   -1    0    0    0  501  0.00000000000E+00  0.00000000000E+00 -0.10283628203E+04  0.10283628203E+04  0.25500000920E-02 0.  1.
    10030    2    1    2    0    0  0.00000000000E+00  0.00000000000E+00 -0.81549257812E+02  0.19751763827E+04  0.19734921995E+04 0.  0.
        5    1    3    3  502    0  0.84605910769E+03  0.48389574776E+03  0.11322242374E+03  0.98123010330E+03  0.46999998093E+01 0.  1.
       -5    1    3    3    0  502 -0.84605910769E+03 -0.48389574776E+03 -0.19477168156E+03  0.99394627940E+03  0.46999998093E+01 0. -1.
</event>
<event>
 5   0  0.1782172E-04  0.1797602E+04  0.7818609E-02  0.8707576E-01
        2   -1    0    0  501    0  0.00000000000E+00  0.00000000000E+00  0.17893155782E+04  0.17893155782E+04  0.25500000920E-02 0.  1.
       -2   -1    0    0    0  501  0.00000000000E+00  0.00000000000E+00 -0.45148150415E+03  0.45148150416E+03  0.25500000920E-02 0. -1.
    10030    2    1    2    0    0  0.00000000000E+00  0.00000000000E+00  0.13378340740E+04  0.22407970823E+04  0.17976016118E+04 0.  0.
        2    1    3    3  502    0 -0.62699864962E+03  0.14058603047E+03  0.14523119966E+04  0.15881126767E+04  0.25500000920E-02 0.  1.
       -2    1    3    3    0  502  0.62699864962E+03 -0.14058603047E+03 -0.11447792253E+03  0.65268440562E+03  0.25500000920E-02 0. -1.
</event>
<event>
 5   0  0.8958919E-05  0.1975138E+04  0.7818609E-02  0.8618333E-01
       -1   -1    0    0    0  501  0.00000000000E+00  0.00000000000E+00  0.71594671532E+03  0.71594671533E+03  0.50400001928E-02 0.  1.
        1   -1    0    0  501    0  0.00000000000E+00  0.00000000000E+00 -0.13622423070E+04  0.13622423070E+04  0.50400001928E-02 0. -1.
    10030    2    1    2    0    0  0.00000000000E+00  0.00000000000E+00 -0.64629559170E+03  0.20781890224E+04  0.19751383802E+04 0.  0.
        4    1    3    3  502    0 -0.24487903750E+03  0.38366774420E+03  0.59900600053E+03  0.75231408502E+03  0.12699999809E+01 0.  1.
       -4    1    3    3    0  502  0.24487903750E+03 -0.38366774420E+03 -0.12453015922E+04  0.13258749373E+04  0.12699999809E+01 0. -1.
</event>
<event>
 5   0  0.1834645E-04  0.1988193E+04  0.7818609E-02  0.8612161E-01
        2   -1    0    0  501    0  0.00000000000E+00  0.00000000000E+00  0.34622891257E+03  0.34622891258E+03  0.25500000920E-02 0. -1.
       -2   -1    0    0    0  501  0.00000000000E+00  0.00000000000E+00 -0.28542617129E+04  0.28542617129E+04  0.25500000920E-02 0.  1.
    10030    2    1    2    0    0  0.00000000000E+00  0.00000000000E+00 -0.25080328004E+04  0.32004906255E+04  0.19881930782E+04 0.  0.
        1    1    3    3  502    0  0.60159771888E+03 -0.78038891566E+03 -0.10422793817E+04  0.14343196940E+04  0.50400001928E-02 0.  1.
       -1    1    3    3    0  502 -0.60159771888E+03  0.78038891566E+03 -0.14657534186E+04  0.17661709315E+04  0.50400001928E-02 0. -1.
</event>
<event>
 5   0  0.1807498E-04  0.2005143E+04  0.7818609E-02  0.8604220E-01
        2   -1    0    0  501    0  0.00000000000E+00  0.00000000000E+00  0.21265421822E+04  0.21265421822E+04  0.25500000920E-02 0.  1.
       -2   -1    0    0    0  501  0.00000000000E+00  0.00000000000E+00 -0.47266833292E+03  0.47266833292E+03  0.25500000920E-02 0. -1.
    10030    2    1    2    0    0  0.00000000000E+00  0.00000000000E+00  0.16538738493E+04  0.25992105151E+04  0.20051425367E+04 0.  0.
        5    1    3    3  502    0  0.19461382826E+03  0.21613205457E+03  0.20706420037E+04  0.20909729804E+04  0.46999998093E+01 0.  1.
       -5    1    3    3    0  502 -0.19461382826E+03 -0.21613205457E+03 -0.41676815443E+03  0.50823753474E+03  0.46999998093E+01 0. -1.
</event>
<event>
 5   0  0.1893687E-04  0.1971034E+04  0.7818609E-02  0.8620284E-01
        2   -1    0    0  501    0  0.00000000000E+00  0.00000000000E+00  0.11137591860E+04  0.11137591860E+04  0.25500000920E-02 0. -1.
       -2   -1    0    0    0  501  0.00000000000E+00  0.00000000000E+00 -0.87204093934E+03  0.87204093934E+03  0.25500000920E-02 0.  1.
    10030    2    1    2    0    0  0.00000000000E+00  0.00000000000E+00  0.24171824670E+03  0.19858001254E+04  0.19710338473E+04 0.  0.
        4    1    3    3  502    0  0.12358758158E+02  0.57718245200E+03  0.92556034538E+03  0.10908509924E+04  0.12699999809E+01 0. -1.
       -4    1    3    3    0  502 -0.12358758158E+02 -0.57718245200E+03 -0.68384209868E+03  0.89494913298E+03  0.12699999809E+01 0.  1.
</event>
<event>
 5   0  0.1812865E-04  0.1976694E+04  0.7818609E-02  0.8617595E-01
        2   -1    0    0  501    0  0.00000000000E+00  0.00000000000E+00  0.10619871034E+04  0.10619871034E+04  0.25500000920E-02 0. -1.
       -2   -1    0    0    0  501  0.00000000000E+00  0.00000000000E+00 -0.91981324535E+03  0.91981324536E+03  0.25500000920E-02 0.  1.
    10030    2    1    2    0    0  0.00000000000E+00  0.00000000000E+00  0.14217385803E+03  0.19818003487E+04  0.19766940118E+04 0.  0.
        3    1    3    3  502    0  0.59766208470E+03 -0.74240525041E+03  0.33341963957E+03  0.10097198570E+04  0.10100000352E+00 0. -1.
       -3    1    3    3    0  502 -0.59766208470E+03  0.74240525041E+03 -0.19124578154E+03  0.97208049177E+03  0.10100000352E+00 0.  1.
</event>
<event>
 5   0  0.1807498E-04  0.1973914E+04  0.7818609E-02  0.8618915E-01
       -2   -1    0    0    0  501  0.00000000000E+00  0.00000000000E+00  0.65812859563E+03  0.65812859563E+03  0.25500000920E-02 0. -1.
        2   -1    0    0  501    0  0.00000000000E+00  0.00000000000E+00 -0.14800824420E+04  0.14800824420E+04  0.25500000920E-02 0.  1.
    10030    2    1    2    0    0  0.00000000000E+00  0.00000000000E+00 -0.82195384638E+03  0.21382110376E+04  0.19739144652E+04 0.  0.
        5    1    3    3  502    0  0.37924858185E+00  0.54558345179E+02 -0.14784354828E+04  0.14794493312E+04  0.46999998093E+01 0.  1.
       -5    1    3    3    0  502 -0.37924858185E+00 -0.54558345179E+02  0.65648163643E+03  0.65876170641E+03  0.46999998093E+01 0. -1.
</event>
<event>
 5   0  0.8958919E-05  0.1926395E+04  0.7818609E-02  0.8641829E-01
        1   -1    0    0  501    0  0.00000000000E+00  0.00000000000E+00  0.13024056057E+04  0.13024056057E+04  0.50400001928E-02 0. -1.
       -1   -1    0    0    0  501  0.00000000000E+00  0.00000000000E+00 -0.71233495722E+03  0.71233495724E+03  0.50400001928E-02 0.  1.
    10030    2    1    2    0    0  0.00000000000E+00  0.00000000000E+00  0.59007064850E+03  0.20147405630E+04  0.19263946028E+04 0.  0.
        4    1    3    3  502    0 -0.56258699407E+01 -0.95401092353E+03  0.15636926636E+03  0.96675821847E+03  0.12699999809E+01 0. -1.
       -4    1    3    3    0  502  0.56258699407E+01  0.95401092353E+03  0.43370138214E+03  0.10479823445E+04  0.12699999809E+01 0.  1.
</event>
<event>
 5   0  0.8765057E-05  0.2025059E+04  0.7818609E-02  0.8594993E-01
       -1   -1    0    0    0  501  0.00000000000E+00  0.00000000000E+00  0.16710986017E+04  0.16710986017E+04  0.50400001928E-02 0. -1.
        1   -1    0    0  501    0  0.00000000000E+00  0.00000000000E+00 -0.61349849904E+03  0.61349849906E+03  0.50400001928E-02 0.  1.
    10030    2    1    2    0    0  0.00000000000E+00  0.00000000000E+00  0.10576001027E+04  0.22845971008E+04  0.20250594894E+04 0.  0.
        3    1    3    3  502    0  0.27834895666E+03  0.35199981812E+03  0.15527808489E+04  0.16163262012E+04  0.10100000352E+00 0. -1.
       -3    1    3    3    0  502 -0.27834895666E+03 -0.35199981812E+03 -0.49518074624E+03  0.66827089962E+03  0.10100000352E+00 0.  1.
</event>
<event>
 5   0  0.8881384E-05  0.2009547E+04  0.7818609E-02  0.8602170E-01
        1   -1    0    0  501    0  0.00000000000E+00  0.00000000000E+00  0.13251020346E+04  0.13251020346E+04  0.50400001928E-02 0.  1.
       -1   -1    0    0    0  501  0.00000000000E+00  0.00000000000E+00 -0.76188045683E+03  0.76188045685E+03  0.50400001928E-02 0. -1.
    10030    2    1    2    0    0  0.00000000000E+00  0.00000000000E+00  0.56322157779E+03  0.20869824915E+04  0.20095465593E+04 0.  0.
        5    1    3    3  502    0  0.88514344112E+03  0.20013600837E+03  0.72952357054E+03  0.11643711020E+04  0.46999998093E+01 0.  1.
       -5    1    3    3    0  502 -0.88514344112E+03 -0.20013600837E+03 -0.16630199275E+03  0.92261138948E+03  0.46999998093E+01 0. -1.
</event>
<event>
 5   0  0.1834645E-04  0.1944923E+04  0.7818609E-02  0.8632813E-01
       -2   -1    0    0    0  501  0.00000000000E+00  0.00000000000E+00  0.88247627340E+03  0.88247627341E+03  0.25500000920E-02 0. -1.
        2   -1    0    0  501    0  0.00000000000E+00  0.00000000000E+00 -0.10716222030E+04  0.10716222030E+04  0.25500000920E-02 0.  1.
    10030    2    1    2    0    0  0.00000000000E+00  0.00000000000E+00 -0.18914592957E+03  0.19540984764E+04  0.19449227935E+04 0.  0.
        1    1    3    3  502    0 -0.33633123547E+03 -0.45439172027E+03 -0.88956482703E+03  0.10540000555E+04  0.50400001928E-02 0.  1.
       -1    1    3    3    0  502  0.33633123547E+03  0.45439172027E+03  0.70041889746E+03  0.90009842092E+03  0.50400001928E-02 0. -1.
</event>
<event>
 5   0  0.1807498E-04  0.2033731E+04  0.7818609E-02  0.8591011E-01
        2   -1    0    0  501    0  0.00000000000E+00  0.00000000000E+00  0.15727344315E+04  0.15727344315E+04  0.25500000920E-02 0.  1.
       -2   -1    0    0    0  501  0.00000000000E+00  0.00000000000E+00 -0.65746368021E+03  0.65746368021E+03  0.25500000920E-02 0. -1.
    10030    2    1    2    0    0  0.00000000000E+00  0.00000000000E+00  0.91527075134E+03  0.22301981118E+04  0.20337313169E+04 0.  0.
        5    1    3    3  502    0  0.44244404486E+03 -0.80796795721E+03 -0.14573003155E+02  0.92130527792E+03  0.46999998093E+01 0. -1.
       -5    1    3    3    0  502 -0.44244404486E+03  0.80796795721E+03  0.92984375449E+03  0.13088928338E+04  0.46999998093E+01 0.  1.
</event>
<event>
 5   0  0.8881384E-05  0.2016879E+04  0.7818609E-02  0.8598769E-01
       -1   -1    0    0    0  501  0.00000000000E+00  0.00000000000E+00  0.14638090617E+04  0.14638090617E+04  0.50400001928E-02 0. -1.
        1   -1    0    0  501    0  0.00000000000E+00  0.00000000000E+00 -0.69472891888E+03  0.69472891889E+03  0.50400001928E-02 0.  1.
    10030    2    1    2    0    0  0.00000000000E+00  0.00000000000E+00  0.76908014285E+03  0.21585379806E+04  0.20168792596E+04 0.  0.
        5    1    3    3  502    0  0.70923209108E+03 -0.69911017779E+03  0.21476938465E+03  0.10187802404E+04  0.46999998093E+01 0. -1.
       -5    1    3    3    0  502 -0.70923209108E+03  0.69911017779E+03  0.55431075819E+03  0.11397577402E+04  0.46999998093E+01 0.  1.
</event>
<event>
 5   0  0.8861350E-05  0.1982640E+04  0.7818609E-02  0.8614780E-01
       -1   -1    0    0    0  501  0.00000000000E+00  0.00000000000E+00  0.86825932151E+03  0.86825932153E+03  0.50400001928E-02 0.  1.
        1   -1    0    0  501    0  0.00000000000E+00  0.00000000000E+00 -0.11318220322E+04  0.11318220322E+04  0.50400001928E-02 0. -1.
    10030    2    1    2    0    0  0.00000000000E+00  0.00000000000E+00 -0.26356271071E+03  0.20000813538E+04  0.19826396847E+04 0.  0.
        1    1    3    3  502    0  0.13133190983E+02 -0.15450021809E+03 -0.11195129374E+04  0.11301999890E+04  0.50400001928E-02 0. -1.
       -1    1    3    3    0  502 -0.13133190983E+02  0.15450021809E+03  0.85595022671E+03  0.86988136474E+03  0.50400001928E-02 0.  1.
</event>
<event>
 5   0  0.1782172E-04  0.1992024E+04  0.7818609E-02  0.8610359E-01
       -2   -1    0    0    0  501  0.00000000000E+00  0.00000000000E+00  0.88353554437E+03  0.88353554437E+03  0.25500000920E-02 0. -1.
        2   -1    0    0  501    0  0.00000000000E+00  0.00000000000E+00 -0.11228066917E+04  0.11228066917E+04  0.25500000920E-02 0.  1.
    10030    2    1    2    0    0  0.00000000000E+00  0.00000000000E+00 -0.23927114729E+03  0.20063422360E+04  0.19920237163E+04 0.  0.
        2    1    3    3  502    0 -0.82875385015E+03 -0.45203248973E+03 -0.43952408103E+03  0.10413201879E+04  0.25500000920E-02 0.  1.
       -2    1    3    3    0  502  0.82875385015E+03  0.45203248973E+03  0.20025293374E+03  0.96502204813E+03  0.25500000920E-02 0. -1.
</event>
<event>
 5   0  0.8861350E-05  0.2119057E+04  0.7818609E-02  0.8552895E-01
        1   -1    0    0  501    0  0.00000000000E+00  0.00000000000E+00  0.14731917387E+04  0.14731917387E+04  0.50400001928E-02 0. -1.
       -1   -1    0    0    0  501  0.00000000000E+00  0.00000000000E+00 -0.76201919357E+03  0.76201919359E+03  0.50400001928E-02 0.  1.
    10030    2    1    2    0    0  0.00000000000E+00  0.00000000000E+00  0.71117254516E+03  0.22352109323E+04  0.21190567531E+04 0.  0.
        1    1    3    3  502    0  0.88961106363E+03 -0.19909516262E+03 -0.21396807044E+03  0.93639151187E+03  0.50400001928E-02 0.  1.
       -1    1    3    3    0  502 -0.88961106363E+03  0.19909516262E+03  0.92514061559E+03  0.12988194205E+04  0.50400001928E-02 0. -1.
</event>
<event>
 5   0  0.1893687E-04  0.2021354E+04  0.7818609E-02  0.8596702E-01
       -2   -1    0    0    0  501  0.00000000000E+00  0.00000000000E+00  0.46759243360E+03  0.46759243361E+03  0.25500000920E-02 0. -1.
        2   -1    0    0  501    0  0.00000000000E+00  0.00000000000E+00 -0.21845261891E+04  0.21845261891E+04  0.25500000920E-02 0.  1.
    10030    2    1    2    0    0  0.00000000000E+00  0.00000000000E+00 -0.17169337555E+04  0.26521186227E+04  0.20213539196E+04 0.  0.
        4    1    3    3  502    0  0.82587893895E+03  0.43843679498E+02 -0.16206632757E+04  0.18194915104E+04  0.12699999809E+01 0.  1.
       -4    1    3    3    0  502 -0.82587893895E+03 -0.43843679498E+02 -0.96270479739E+02  0.83262711233E+03  0.12699999809E+01 0. -1.
</event>
<event>
 5   0  0.1834645E-04  0.2169045E+04  0.7818609E-02  0.8531424E-01
       -2   -1    0    0    0  501  0.00000000000E+00  0.00000000000E+00  0.13664662079E+04  0.13664662079E+04  0.25500000920E-02 0. -1.
        2   -1    0    0  501    0  0.00000000000E+00  0.00000000000E+00 -0.86075229234E+03  0.86075229234E+03  0.25500000920E-02 0.  1.
    10030    2    1    2    0    0  0.00000000000E+00  0.00000000000E+00  0.50571391555E+03  0.22272185002E+04  0.21690448781E+04 0.  0.
        1    1    3    3  502    0 -0.83911327520E+03  0.68146270336E+03  0.16283338725E+03  0.10931684302E+04  0.50400001928E-02 0.  1.
       -1    1    3    3    0  502  0.83911327520E+03 -0.68146270336E+03  0.34288052830E+03  0.11340500701E+04  0.50400001928E-02 0. -1.
</event>
<event>
 5   0  0.6531625E-05  0.1831193E+04  0.7818609E-02  0.8689885E-01
       -4   -1    0    0    0  501  0.00000000000E+00  0.00000000000E+00  0.10042267767E+04  0.10042275797E+04  0.12699999809E+01 0. -1.
        4   -1    0    0  501    0  0.00000000000E+00  0.00000000000E+00 -0.83478671714E+03  0.83478768319E+03  0.12699999809E+01 0.  1.
    10030    2    1    2    0    0  0.00000000000E+00  0.00000000000E+00  0.16944005953E+03  0.18390152629E+04  0.18311928362E+04 0.  0.
        1    1    3    3  502    0  0.73430394484E+03 -0.49175745396E+03  0.32509394836E+03  0.94165479461E+03  0.50400001928E-02 0. -1.
       -1    1    3    3    0  502 -0.73430394484E+03  0.49175745396E+03 -0.15565388883E+03  0.89736046830E+03  0.50400001928E-02 0.  1.
</event>
<event>
 5   0  0.8861350E-05  0.2003228E+04  0.7818609E-02  0.8605113E-01
       -1   -1    0    0    0  501  0.00000000000E+00  0.00000000000E+00  0.10318335837E+04  0.10318335837E+04  0.50400001928E-02 0. -1.
        1   -1    0    0  501    0  0.00000000000E+00  0.00000000000E+00 -0.97227951950E+03  0.97227951951E+03  0.50400001928E-02 0.  1.
    10030    2    1    2    0    0  0.00000000000E+00  0.00000000000E+00  0.59554064154E+02  0.20041131032E+04  0.20032280559E+04 0.  0.
        1    1    3    3  502    0 -0.10620631332E+03 -0.55431090356E+03 -0.79804869994E+03  0.97745694856E+03  0.50400001928E-02 0.  1.
       -1    1    3    3    0  502  0.10620631332E+03  0.55431090356E+03  0.85760276409E+03  0.10266561546E+04  0.50400001928E-02 0. -1.
</event>
<event>
 5   0  0.6531625E-05  0.2041547E+04  0.7818609E-02  0.8587439E-01
        3   -1    0    0  501    0  0.00000000000E+00  0.00000000000E+00  0.17000947618E+04  0.17000947648E+04  0.10100000352E+00 0. -1.
       -3   -1    0    0    0  501  0.00000000000E+00  0.00000000000E+00 -0.61289426928E+03  0.61289427760E+03  0.10100000352E+00 0.  1.
    10030    2    1    2    0    0  0.00000000000E+00  0.00000000000E+00  0.10872004925E+04  0.23129890424E+04  0.20415468154E+04 0.  0.
        1    1    3    3  502    0  0.57651568738E+02 -0.21881338963E+03  0.16713216619E+04  0.16865702181E+04  0.50400001928E-02 0. -1.
       -1    1    3    3    0  502 -0.57651568738E+02  0.21881338963E+03 -0.58412116942E+03  0.62641882431E+03  0.50400001928E-02 0.  1.
</event>
<event>
 5   0  0.1893687E-04  0.1956172E+04  0.7818609E-02  0.8627390E-01
       -2   -1    0    0    0  501  0.00000000000E+00  0.00000000000E+00  0.51387793436E+03  0.51387793437E+03  0.25500000920E-02 0. -1.
        2   -1    0    0  501    0  0.00000000000E+00  0.00000000000E+00 -0.18616328858E+04  0.18616328858E+04  0.25500000920E-02 0.  1.
    10030    2    1    2    0    0  0.00000000000E+00  0.00000000000E+00 -0.13477549515E+04  0.23755108202E+04  0.19561718349E+04 0.  0.
        4    1    3    3  502    0  0.94563698233E+03 -0.40327210060E+02 -0.37445565101E+03  0.10178773176E+04  0.12699999809E+01 0. -1.
       -4    1    3    3    0  502 -0.94563698233E+03  0.40327210060E+02 -0.97329930047E+03  0.13576335026E+04  0.12699999809E+01 0.  1.
</event>
<event>
 5   0  0.8958919E-05  0.1987911E+04  0.7818609E-02  0.8612294E-01
       -1   -1    0    0    0  501  0.00000000000E+00  0.00000000000E+00  0.11924663697E+04  0.11924663697E+04  0.50400001928E-02 0.  1.
        1   -1    0    0  501    0  0.00000000000E+00  0.00000000000E+00 -0.82849087370E+03  0.82849087371E+03  0.50400001928E-02 0. -1.
    10030    2    1    2    0    0  0.00000000000E+00  0.00000000000E+00  0.36397549604E+03  0.20209572435E+04  0.19879109684E+04 0.  0.
        4    1    3    3  502    0  0.76018686535E+03 -0.43102888754E+03  0.66343811093E+03  0.10971880933E+04  0.12699999809E+01 0.  1.
       -4    1    3    3    0  502 -0.76018686535E+03  0.43102888754E+03 -0.29946261490E+03  0.92376915015E+03  0.12699999809E+01 0. -1.
</event>
<event>
 5   0  0.1893687E-04  0.2031713E+04  0.7818609E-02  0.8591936E-01
        2   -1    0    0  501    0  0.00000000000E+00  0.00000000000E+00  0.11111598530E+04  0.11111598530E+04  0.25500000920E-02 0.  1.
       -2   -1    0    0    0  501  0.00000000000E+00  0.00000000000E+00 -0.92872739208E+03  0.92872739208E+03  0.25500000920E-02 0. -1.
    10030    2    1    2    0    0  0.00000000000E+00  0.00000000000E+00  0.18243246095E+03  0.20398872451E+04  0.20317131613E+04 0.  0.
        4    1    3    3  502    0  0.77329360313E+03 -0.63464042576E+03 -0.86162351639E+02  0.10040801912E+04  0.12699999809E+01 0. -1.
       -4    1    3    3    0  502 -0.77329360313E+03  0.63464042576E+03  0.26859481258E+03  0.10358070539E+04  0.12699999809E+01 0.  1.
</event>
<event>
 5   0  0.8577422E-05  0.1994584E+04  0.7818609E-02  0.8609157E-01
        1   -1    0    0  501    0  0.00000000000E+00  0.00000000000E+00  0.27812620934E+04  0.27812620934E+04  0.50400001928E-02 0.  1.
       -1   -1    0    0    0  501  0.00000000000E+00  0.00000000000E+00 -0.35760422674E+03  0.35760422678E+03  0.50400001928E-02 0. -1.
    10030    2    1    2    0    0  0.00000000000E+00  0.00000000000E+00  0.24236578667E+04  0.31388663202E+04  0.19945837464E+04 0.  0.
        2    1    3    3  502    0  0.71776221253E+02  0.67959703445E+03  0.23548852786E+04  0.24520376486E+04  0.25500000920E-02 0. -1.
       -2    1    3    3    0  502 -0.71776221253E+02 -0.67959703445E+03  0.68772588095E+02  0.68682867154E+03  0.25500000920E-02 0.  1.
</event>
<event>
 5   0  0.1834645E-04  0.1997762E+04  0.7818609E-02  0.8607668E-01
        2   -1    0    0  501    0  0.00000000000E+00  0.00000000000E+00  0.89495316148E+03  0.89495316148E+03  0.25500000920E-02 0.  1.
       -2   -1    0    0    0  501  0.00000000000E+00  0.00000000000E+00 -0.11148772315E+04  0.11148772315E+04  0.25500000920E-02 0. -1.
    10030    2    1    2    0    0  0.00000000000E+00  0.00000000000E+00 -0.21992407006E+03  0.20098303930E+04  0.19977616505E+04 0.  0.
        1    1    3    3  502    0  0.12788906748E+03  0.90543632320E+03 -0.51437599747E+03  0.10491678682E+04  0.50400001928E-02 0. -1.
       -1    1    3    3    0  502 -0.12788906748E+03 -0.90543632320E+03  0.29445192741E+03  0.96066252479E+03  0.50400001928E-02 0.  1.
</event>
<event>
 5   0  0.8765057E-05  0.1974143E+04  0.7818609E-02  0.8618806E-01
       -1   -1    0    0    0  501  0.00000000000E+00  0.00000000000E+00  0.86499093748E+03  0.86499093750E+03  0.50400001928E-02 0. -1.
        1   -1    0    0  501    0  0.00000000000E+00  0.00000000000E+00 -0.11263817987E+04  0.11263817988E+04  0.50400001928E-02 0.  1.
    10030    2    1    2    0    0  0.00000000000E+00  0.00000000000E+00 -0.26139086127E+03  0.19913727363E+04  0.19741429007E+04 0.  0.
        3    1    3    3  502    0 -0.18244409330E+03  0.92771496764E+03 -0.41666419760E+03  0.10332230989E+04  0.10100000352E+00 0. -1.
       -3    1    3    3    0  502  0.18244409330E+03 -0.92771496764E+03  0.15527333633E+03  0.95814963734E+03  0.10100000352E+00 0.  1.
</event>
<event>
 5   0  0.8861350E-05  0.1922749E+04  0.7818609E-02  0.8643615E-01
       -1   -1    0    0    0  501  0.00000000000E+00  0.00000000000E+00  0.12229226956E+04  0.12229226956E+04  0.50400001928E-02 0. -1.
        1   -1    0    0  501    0  0.00000000000E+00  0.00000000000E+00 -0.75576383166E+03  0.75576383167E+03  0.50400001928E-02 0.  1.
    10030    2    1    2    0    0  0.00000000000E+00  0.00000000000E+00  0.46715886392E+03  0.19786865273E+04  0.19227488055E+04 0.  0.
        1    1    3    3  502    0  0.91353804302E+03 -0.11304439073E+03 -0.51815144946E+02  0.92196290576E+03  0.50400001928E-02 0.  1.
       -1    1    3    3    0  502 -0.91353804302E+03  0.11304439073E+03  0.51897400886E+03  0.10567236215E+04  0.50400001928E-02 0. -1.
</event>
<event>
 5   0  0.8765057E-05  0.1993400E+04  0.7818609E-02  0.8609713E-01
        1   -1    0    0  501    0  0.00000000000E+00  0.00000000000E+00  0.77301327250E+03  0.77301327252E+03  0.50400001928E-02 0. -1.
       -1   -1    0    0    0  501  0.00000000000E+00  0.00000000000E+00 -0.12851149436E+04  0.12851149436E+04  0.50400001928E-02 0.  1.
    10030    2    1    2    0    0  0.00000000000E+00  0.00000000000E+00 -0.51210167109E+03  0.20581282161E+04  0.19934000182E+04 0.  0.
        3    1    3    3  502    0  0.37715502387E+03  0.18810903009E+02  0.69629470296E+03  0.79210232021E+03  0.10100000352E+00 0. -1.
       -3    1    3    3    0  502 -0.37715502387E+03 -0.18810903009E+02 -0.12083963741E+04  0.12660258959E+04  0.10100000352E+00 0.  1.
</event>
<event>
 5   0  0.1812865E-04  0.1872384E+04  0.7818609E-02  0.8668726E-01
        2   -1    0    0  501    0  0.00000000000E+00  0.00000000000E+00  0.18266955289E+04  0.18266955289E+04  0.25500000920E-02 0.  1.
       -2   -1    0    0    0  501  0.00000000000E+00  0.00000000000E+00 -0.47980400119E+03  0.47980400120E+03  0.25500000920E-02 0. -1.
    10030    2    1    2    0    0  0.00000000000E+00  0.00000000000E+00  0.13468915277E+04  0.23064995301E+04  0.18723843876E+04 0.  0.
        3    1    3    3  502    0  0.32887603378E+03  0.86500562153E+03  0.84792413745E+03  0.12551372530E+04  0.10100000352E+00 0.  1.
       -3    1    3    3    0  502 -0.32887603378E+03 -0.86500562153E+03  0.49896739023E+03  0.10513622770E+04  0.10100000352E+00 0. -1.
</event>
<event>
 5   0  0.1782172E-04  0.1998282E+04  0.7818609E-02  0.8607424E-01
       -2   -1    0    0    0  501  0.00000000000E+00  0.00000000000E+00  0.11463341591E+04  0.11463341591E+04  0.25500000920E-02 0. -1.
        2   -1    0    0  501    0  0.00000000000E+00  0.00000000000E+00 -0.87084790223E+03  0.87084790223E+03  0.25500000920E-02 0.  1.
    10030    2    1    2    0    0  0.00000000000E+00  0.00000000000E+00  0.27548625689E+03  0.20171820614E+04  0.19982819598E+04 0.  0.
        2    1    3    3  502    0 -0.85038895267E+03  0.47300922232E+03 -0.91080361166E+02  0.97734064042E+03  0.25500000920E-02 0. -1.
       -2    1    3    3    0  502  0.85038895267E+03 -0.47300922232E+03  0.36656661806E+03  0.10398414209E+04  0.25500000920E-02 0.  1.
</event>
<event>
 5   0  0.8958919E-05  0.1982385E+04  0.7818609E-02  0.8614901E-01
       -1   -1    0    0    0  501  0.00000000000E+00  0.00000000000E+00  0.47474690242E+03  0.47474690245E+03  0.50400001928E-02 0.  1.
        1   -1    0    0  501    0  0.00000000000E+00  0.00000000000E+00 -0.20694450684E+04  0.20694450684E+04  0.50400001928E-02 0. -1.
    10030    2    1    2    0    0  0.00000000000E+00  0.00000000000E+00 -0.15946981660E+04  0.25441919709E+04  0.19823850645E+04 0.  0.
        4    1    3    3  502    0  0.44854581240E+02  0.45908592395E+03  0.32860209132E+03  0.56635039185E+03  0.12699999809E+01 0.  1.
       -4    1    3    3    0  502 -0.44854581240E+02 -0.45908592395E+03 -0.19233002573E+04  0.19778415790E+04  0.12699999809E+01 0. -1.
</event>
<event>
 5   0  0.1834645E-04  0.1996252E+04  0.7818609E-02  0.8608375E-01
        2   -1    0    0  501    0  0.00000000000E+00  0.00000000000E+00  0.97655703039E+03  0.97655703039E+03  0.25500000920E-02 0. -1.
       -2   -1    0    0    0  501  0.00000000000E+00  0.00000000000E+00 -0.10201714399E+04  0.10201714399E+04  0.25500000920E-02 0.  1.
    10030    2    1    2    0    0  0.00000000000E+00  0.00000000000E+00 -0.43614409465E+02  0.19967284702E+04  0.19962520801E+04 0.  0.
        1    1    3    3  502    0  0.40440522911E+03  0.54426923069E+03 -0.75443200133E+03  0.10143669107E+04  0.50400001928E-02 0.  1.
       -1    1    3    3    0  502 -0.40440522911E+03 -0.54426923069E+03  0.71081759187E+03  0.98236155958E+03  0.50400001928E-02 0. -1.
</event>
<event>
 5   0  0.1807498E-04  0.1991966E+04  0.7818609E-02  0.8610386E-01
       -2   -1    0    0    0  501  0.00000000000E+00  0.00000000000E+00  0.68719824048E+03  0.68719824049E+03  0.25500000920E-02 0. -1.
        2   -1    0    0  501    0  0.00000000000E+00  0.00000000000E+00 -0.14435166320E+04  0.14435166320E+04  0.25500000920E-02 0.  1.
    10030    2    1    2    0    0  0.00000000000E+00  0.00000000000E+00 -0.75631839156E+03  0.21307148725E+04  0.19919659532E+04 0.  0.
        5    1    3    3  502    0  0.17491280689E+03  0.93343123784E+03 -0.69918315491E+03  0.11793080768E+04  0.46999998093E+01 0.  1.
       -5    1    3    3    0  502 -0.17491280689E+03 -0.93343123784E+03 -0.57135236653E+02  0.95140679578E+03  0.46999998093E+01 0. -1.
</event>
<event>
 5   0  0.8958919E-05  0.2018400E+04  0.7818609E-02  0.8598066E-01
       -1   -1    0    0    0  501  0.00000000000E+00  0.00000000000E+00  0.72225867428E+03  0.72225867430E+03  0.50400001928E-02 0.  1.
        1   -1    0    0  501    0  0.00000000000E+00  0.00000000000E+00 -0.14101388442E+04  0.14101388442E+04  0.50400001928E-02 0. -1.
    10030    2    1    2    0    0  0.00000000000E+00  0.00000000000E+00 -0.68788016995E+03  0.21323975185E+04  0.20184003688E+04 0.  0.
        4    1    3    3  502    0 -0.20975487174E+02 -0.69069002742E+03  0.43312206793E+03  0.81552990360E+03  0.12699999809E+01 0.  1.
       -4    1    3    3    0  502  0.20975487174E+02  0.69069002742E+03 -0.11210022379E+04  0.13168676149E+04  0.12699999809E+01 0. -1.
</event>
<event>
 5   0  0.1834645E-04  0.2081358E+04  0.7818609E-02  0.8569500E-01
        2   -1    0    0  501    0  0.00000000000E+00  0.00000000000E+00  0.19090263014E+04  0.19090263014E+04  0.25500000920E-02 0.  1.
       -2   -1    0    0    0  501  0.00000000000E+00  0.00000000000E+00 -0.56731140174E+03  0.56731140175E+03  0.25500000920E-02 0. -1.
    10030    2    1    2    0    0  0.00000000000E+00  0.00000000000E+00  0.13417148997E+04  0.24763377031E+04  0.20813576214E+04 0.  0.
        1    1    3    3  502    0 -0.66987468289E+03  0.75624882473E+03  0.37372908671E+03  0.10771804890E+04  0.50400001928E-02 0. -1.
       -1    1    3    3    0  502  0.66987468289E+03 -0.75624882473E+03  0.96798581295E+03  0.13991572141E+04  0.50400001928E-02 0.  1.
</event>
<event>
 5   0  0.8861350E-05  0.2059044E+04  0.7818609E-02  0.8579502E-01
        1   -1    0    0  501    0  0.00000000000E+00  0.00000000000E+00  0.12082484806E+04  0.12082484807E+04  0.50400001928E-02 0.  1.
       -1   -1    0    0    0  501  0.00000000000E+00  0.00000000000E+00 -0.87723330507E+03  0.87723330508E+03  0.50400001928E-02 0. -1.
    10030    2    1    2    0    0  0.00000000000E+00  0.00000000000E+00  0.33101517558E+03  0.20854817857E+04  0.20590442521E+04 0.  0.
        1    1    3    3  502    0  0.40681831038E+03  0.10357000197E+03 -0.78660910873E+03  0.89161750372E+03  0.50400001928E-02 0. -1.
       -1    1    3    3    0  502 -0.40681831038E+03 -0.10357000197E+03  0.11176242843E+04  0.11938642820E+04  0.50400001928E-02 0.  1.
</event>
<event>
 5   0  0.1834645E-04  0.2022362E+04  0.7818609E-02  0.8596236E-01
        2   -1    0    0  501    0  0.00000000000E+00  0.00000000000E+00  0.19513925649E+04  0.19513925649E+04  0.25500000920E-02 0. -1.
       -2   -1    0    0    0  501  0.00000000000E+00  0.00000000000E+00 -0.52397837754E+03  0.52397837755E+03  0.25500000920E-02 0.  1.
    10030    2    1    2    0    0  0.00000000000E+00  0.00000000000E+00  0.14274141874E+04  0.24753709425E+04  0.20223624899E+04 0.  0.
        1    1    3    3  502    0  0.25596612864E+03  0.45202009939E+03  0.17755905688E+04  0.18500169452E+04  0.50400001928E-02 0. -1.
       -1    1    3    3    0  502 -0.25596612864E+03 -0.45202009939E+03 -0.34817638148E+03  0.62535399728E+03  0.50400001928E-02 0.  1.
</event>
<event>
 5   0  0.8958919E-05  0.2024012E+04  0.7818609E-02  0.8595476E-01
        1   -1    0    0  501    0  0.00000000000E+00  0.00000000000E+00  0.19559672564E+04  0.19559672564E+04  0.50400001928E-02 0. -1.
       -1   -1    0    0    0  501  0.00000000000E+00  0.00000000000E+00 -0.52360611548E+03  0.52360611550E+03  0.50400001928E-02 0.  1.
    10030    2    1    2    0    0  0.00000000000E+00  0.00000000000E+00  0.14323611410E+04  0.24795733719E+04  0.20240122699E+04 0.  0.
        4    1    3    3  502    0  0.62270877912E+03  0.46246739028E+03  0.15124931944E+04  0.16997881005E+04  0.12699999809E+01 0. -1.
       -4    1    3    3    0  502 -0.62270877912E+03 -0.46246739028E+03 -0.80132053427E+02  0.77978527144E+03  0.12699999809E+01 0.  1.
</event>
<event>
 5   0  0.1782172E-04  0.1992498E+04  0.7818609E-02  0.8610136E-01
       -2   -1    0    0    0  501  0.00000000000E+00  0.00000000000E+00  0.12378154870E+04  0.12378154870E+04  0.25500000920E-02 0.  1.
        2   -1    0    0  501    0  0.00000000000E+00  0.00000000000E+00 -0.80182573552E+03  0.80182573552E+03  0.25500000920E-02 0. -1.
    10030    2    1    2    0    0  0.00000000000E+00  0.00000000000E+00  0.43598975146E+03  0.20396412225E+04  0.19924982442E+04 0.  0.
        2    1    3    3  502    0 -0.61626158004E+02  0.63184149235E+03 -0.56795413336E+03  0.85181767556E+03  0.25500000920E-02 0. -1.
       -2    1    3    3    0  502  0.61626158004E+02 -0.63184149235E+03  0.10039438848E+04  0.11878235469E+04  0.25500000920E-02 0.  1.
</event>
<event>
 5   0  0.1782172E-04  0.2005882E+04  0.7818609E-02  0.8603876E-01
       -2   -1    0    0    0  501  0.00000000000E+00  0.00000000000E+00  0.14230661254E+04  0.14230661254E+04  0.25500000920E-02 0.  1.
        2   -1    0    0  501    0  0.00000000000E+00  0.00000000000E+00 -0.70684749595E+03  0.70684749596E+03  0.25500000920E-02 0. -1.
    10030    2    1    2    0    0  0.00000000000E+00  0.00000000000E+00  0.71621862946E+03  0.21299136214E+04  0.20058820776E+04 0.  0.
        2    1    3    3  502    0 -0.29144433967E+02 -0.96714182582E+03  0.77821325873E+02  0.97070534564E+03  0.25500000920E-02 0.  1.
       -2    1    3    3    0  502  0.29144433967E+02  0.96714182582E+03  0.63839730359E+03  0.11592082757E+04  0.25500000920E-02 0. -1.
</event>
<event>
 5   0  0.8958919E-05  0.2025924E+04  0.7818609E-02  0.8594596E-01
       -1   -1    0    0    0  501  0.00000000000E+00  0.00000000000E+00  0.14080216582E+04  0.14080216582E+04  0.50400001928E-02 0.  1.
        1   -1    0    0  501    0  0.00000000000E+00  0.00000000000E+00 -0.72874703504E+03  0.72874703506E+03  0.50400001928E-02 0. -1.
    10030    2    1    2    0    0  0.00000000000E+00  0.00000000000E+00  0.67927462315E+03  0.21367686933E+04  0.20259236004E+04 0.  0.
        4    1    3    3  502    0 -0.82472829262E+03  0.41419847385E+03 -0.10076439223E+03  0.92838149919E+03  0.12699999809E+01 0. -1.
       -4    1    3    3    0  502  0.82472829262E+03 -0.41419847385E+03  0.78003901538E+03  0.12083871941E+04  0.12699999809E+01 0.  1.
</event>
<event>
 5   0  0.8881384E-05  0.1994844E+04  0.7818609E-02  0.8609035E-01
       -1   -1    0    0    0  501  0.00000000000E+00  0.00000000000E+00  0.66395600054E+03  0.66395600056E+03  0.50400001928E-02 0. -1.
        1   -1    0    0  501    0  0.00000000000E+00  0.00000000000E+00 -0.14983690715E+04  0.14983690715E+04  0.50400001928E-02 0.  1.
    10030    2    1    2    0    0  0.00000000000E+00  0.00000000000E+00 -0.83441307097E+03  0.21623250721E+04  0.19948444913E+04 0.  0.
        5    1    3    3  502    0  0.32899460646E+03 -0.93581336967E+03 -0.30432436331E+03  0.10376027766E+04  0.46999998093E+01 0. -1.
       -5    1    3    3    0  502 -0.32899460646E+03  0.93581336967E+03 -0.53008870766E+03  0.11247222955E+04  0.46999998093E+01 0.  1.
</event>
<event>
 5   0  0.8577422E-05  0.1956206E+04  0.7818609E-02  0.8627374E-01
        1   -1    0    0  501    0  0.00000000000E+00  0.00000000000E+00  0.10863988219E+04  0.10863988219E+04  0.50400001928E-02 0.  1.
       -1   -1    0    0    0  501  0.00000000000E+00  0.00000000000E+00 -0.88060264787E+03  0.88060264788E+03  0.50400001928E-02 0. -1.
    10030    2    1    2    0    0  0.00000000000E+00  0.00000000000E+00  0.20579617400E+03  0.19670014698E+04  0.19562062051E+04 0.  0.
        2    1    3    3  502    0  0.79698189926E+03  0.38065466092E+03 -0.31966805673E+03  0.93929004313E+03  0.25500000920E-02 0. -1.
       -2    1    3    3    0  502 -0.79698189926E+03 -0.38065466092E+03  0.52546423074E+03  0.10277114266E+04  0.25500000920E-02 0.  1.
</event>
<event>
 5   0  0.1812865E-04  0.1997717E+04  0.7818609E-02  0.8607689E-01
        2   -1    0    0  501    0  0.00000000000E+00  0.00000000000E+00  0.19594609177E+04  0.19594609177E+04  0.25500000920E-02 0. -1.
       -2   -1    0    0    0  501  0.00000000000E+00  0.00000000000E+00 -0.50918006476E+03  0.50918006477E+03  0.25500000920E-02 0.  1.
    10030    2    1    2    0    0  0.00000000000E+00  0.00000000000E+00  0.14502808530E+04  0.24686409825E+04  0.19977171341E+04 0.  0.
        3    1    3    3  502    0  0.73342233414E+03 -0.43407835145E+03  0.81389698586E+02  0.85612886218E+03  0.10100000352E+00 0.  1.
       -3    1    3    3    0  502 -0.73342233414E+03  0.43407835145E+03  0.13688911544E+04  0.16125121203E+04  0.10100000352E+00 0. -1.
</event>
<event>
 5   0  0.8577422E-05  0.2033727E+04  0.7818609E-02  0.8591013E-01
       -1   -1    0    0    0  501  0.00000000000E+00  0.00000000000E+00  0.87271711185E+03  0.87271711186E+03  0.50400001928E-02 0.  1.
        1   -1    0    0  501    0  0.00000000000E+00  0.00000000000E+00 -0.11848184774E+04  0.11848184774E+04  0.50400001928E-02 0. -1.
    10030    2    1    2    0    0  0.00000000000E+00  0.00000000000E+00 -0.31210136552E+03  0.20575355892E+04  0.20337269823E+04 0.  0.
        2    1    3    3  502    0 -0.55090505959E+03 -0.77228567359E+03 -0.52652030152E+03  0.10849632133E+04  0.25500000920E-02 0. -1.
       -2    1    3    3    0  502  0.55090505959E+03  0.77228567359E+03  0.21441893599E+03  0.97257237594E+03  0.25500000920E-02 0.  1.
</event>
<event>
 5   0  0.8861350E-05  0.2013732E+04  0.7818609E-02  0.8600228E-01
        1   -1    0    0  501    0  0.00000000000E+00  0.00000000000E+00  0.14137779602E+04  0.14137779602E+04  0.50400001928E-02 0. -1.
       -1   -1    0    0    0  501  0.00000000000E+00  0.00000000000E+00 -0.71707063498E+03  0.71707063500E+03  0.50400001928E-02 0.  1.
    10030    2    1    2    0    0  0.00000000000E+00  0.00000000000E+00  0.69670732521E+03  0.21308485952E+04  0.20137315210E+04 0.  0.
        1    1    3    3  502    0  0.16308808182E+03  0.11206683469E+03 -0.69629227831E+03  0.72386437592E+03  0.50400001928E-02 0.  1.
       -1    1    3    3    0  502 -0.16308808182E+03 -0.11206683469E+03  0.13929996035E+04  0.14069842193E+04  0.50400001928E-02 0. -1.
</event>
<event>
 5   0  0.1834645E-04  0.2002865E+04  0.7818609E-02  0.8605282E-01
        2   -1    0    0  501    0  0.00000000000E+00  0.00000000000E+00  0.11951717629E+04  0.11951717629E+04  0.25500000920E-02 0.  1.
       -2   -1    0    0    0  501  0.00000000000E+00  0.00000000000E+00 -0.83909875240E+03  0.83909875240E+03  0.25500000920E-02 0. -1.
    10030    2    1    2    0    0  0.00000000000E+00  0.00000000000E+00  0.35607301046E+03  0.20342705153E+04  0.20028650830E+04 0.  0.
        1    1    3    3  502    0  0.66118573734E+03 -0.44781365954E+03 -0.43572645961E+03  0.90970390818E+03  0.50400001928E-02 0. -1.
       -1    1    3    3    0  502 -0.66118573734E+03  0.44781365954E+03  0.79179947007E+03  0.11245666071E+04  0.50400001928E-02 0.  1.
</event>
<event>
 5   0  0.6531625E-05  0.2000614E+04  0.7818609E-02  0.8606334E-01
        3   -1    0    0  501    0  0.00000000000E+00  0.00000000000E+00  0.63126086159E+03  0.63126086967E+03  0.10100000352E+00 0. -1.
       -3   -1    0    0    0  501  0.00000000000E+00  0.00000000000E+00 -0.15851035182E+04  0.15851035214E+04  0.10100000352E+00 0.  1.
    10030    2    1    2    0    0  0.00000000000E+00  0.00000000000E+00 -0.95384265664E+03  0.22163643911E+04  0.20006137310E+04 0.  0.
        2    1    3    3  502    0 -0.26943736184E+03 -0.78600764147E+03  0.14010733649E+03  0.84263549068E+03  0.25500000920E-02 0. -1.
       -2    1    3    3    0  502  0.26943736184E+03  0.78600764147E+03 -0.10939499931E+04  0.13737289004E+04  0.25500000920E-02 0.  1.
</event>
<event>
 5   0  0.8881384E-05  0.2008409E+04  0.7818609E-02  0.8602699E-01
       -1   -1    0    0    0  501  0.00000000000E+00  0.00000000000E+00  0.13080678467E+04  0.13080678468E+04  0.50400001928E-02 0.  1.
        1   -1    0    0  501    0  0.00000000000E+00  0.00000000000E+00 -0.77092864183E+03  0.77092864184E+03  0.50400001928E-02 0. -1.
    10030    2    1    2    0    0  0.00000000000E+00  0.00000000000E+00  0.53713920491E+03  0.20789964886E+04  0.20084092895E+04 0.  0.
        5    1    3    3  502    0  0.45361131614E+03  0.69489070865E+03  0.85392470959E+03  0.11907333130E+04  0.46999998093E+01 0.  1.
       -5    1    3    3    0  502 -0.45361131614E+03 -0.69489070865E+03 -0.31678550468E+03  0.88826317557E+03  0.46999998093E+01 0. -1.
</event>
<event>
 5   0  0.1782172E-04  0.1981467E+04  0.7818609E-02  0.8615335E-01
       -2   -1    0    0    0  501  0.00000000000E+00  0.00000000000E+00  0.41864262903E+03  0.41864262904E+03  0.25500000920E-02 0.  1.
        2   -1    0    0  501    0  0.00000000000E+00  0.00000000000E+00 -0.23446074804E+04  0.23446074804E+04  0.25500000920E-02 0. -1.
    10030    2    1    2    0    0  0.00000000000E+00  0.00000000000E+00 -0.19259648514E+04  0.27632501095E+04  0.19814667695E+04 0.  0.
        2    1    3    3  502    0  0.93197845418E+02  0.65834900433E+01 -0.23384502005E+04  0.23403159019E+04  0.25500000920E-02 0. -1.
       -2    1    3    3    0  502 -0.93197845418E+02 -0.65834900433E+01  0.41248534905E+03  0.42293420756E+03  0.25500000920E-02 0.  1.
</event>
<event>
 5   0  0.1782172E-04  0.2109495E+04  0.7818609E-02  0.8557072E-01
       -2   -1    0    0    0  501  0.00000000000E+00  0.00000000000E+00  0.47573772884E+03  0.47573772884E+03  0.25500000920E-02 0.  1.
        2   -1    0    0  501    0  0.00000000000E+00  0.00000000000E+00 -0.23384567160E+04  0.23384567160E+04  0.25500000920E-02 0. -1.
    10030    2    1    2    0    0  0.00000000000E+00  0.00000000000E+00 -0.18627189872E+04  0.28141944448E+04  0.21094948088E+04 0.  0.
        2    1    3    3  502    0 -0.68368757287E+03  0.80196856056E+03 -0.98965990093E+03  0.14456863384E+04  0.25500000920E-02 0.  1.
       -2    1    3    3    0  502  0.68368757287E+03 -0.80196856056E+03 -0.87305908622E+03  0.13685081065E+04  0.25500000920E-02 0. -1.
</event>
<event>
 5   0  0.8765057E-05  0.1990711E+04  0.7818609E-02  0.8610976E-01
        1   -1    0    0  501    0  0.00000000000E+00  0.00000000000E+00  0.21869173427E+04  0.21869173427E+04  0.50400001928E-02 0.  1.
       -1   -1    0    0    0  501  0.00000000000E+00  0.00000000000E+00 -0.45302678129E+03  0.45302678132E+03  0.50400001928E-02 0. -1.
    10030    2    1    2    0    0  0.00000000000E+00  0.00000000000E+00  0.17338905614E+04  0.26399441240E+04  0.19907105513E+04 0.  0.
        3    1    3    3  502    0  0.35930793545E+03 -0.93806628222E+02  0.20916119885E+04  0.21243216792E+04  0.10100000352E+00 0.  1.
       -3    1    3    3    0  502 -0.35930793545E+03  0.93806628222E+02 -0.35772142712E+03  0.51562244482E+03  0.10100000352E+00 0. -1.
</event>
<event>
 5   0  0.1807498E-04  0.1947401E+04  0.7818609E-02  0.8631615E-01
        2   -1    0    0  501    0  0.00000000000E+00  0.00000000000E+00  0.18904694478E+04  0.18904694478E+04  0.25500000920E-02 0.  1.
       -2   -1    0    0    0  501  0.00000000000E+00  0.00000000000E+00 -0.50151197866E+03  0.50151197866E+03  0.25500000920E-02 0. -1.
    10030    2    1    2    0    0  0.00000000000E+00  0.00000000000E+00  0.13889574691E+04  0.23919814265E+04  0.19474014207E+04 0.  0.
        5    1    3    3  502    0  0.18409284411E+03  0.95469117175E+03  0.75883916692E+03  0.12333630365E+04  0.46999998093E+01 0.  1.
       -5    1    3    3    0  502 -0.18409284411E+03 -0.95469117175E+03  0.63011830221E+03  0.11586183899E+04  0.46999998093E+01 0. -1.
</event>
<event>
 5   0  0.8958919E-05  0.1988287E+04  0.7818609E-02  0.8612117E-01
        1   -1    0    0  501    0  0.00000000000E+00  0.00000000000E+00  0.87200993396E+03  0.87200993398E+03  0.50400001928E-02 0.  1.
       -1   -1    0    0    0  501  0.00000000000E+00  0.00000000000E+00 -0.11333829894E+04  0.11333829894E+04  0.50400001928E-02 0. -1.
    10030    2    1    2    0    0  0.00000000000E+00  0.00000000000E+00 -0.26137305545E+03  0.20053929234E+04  0.19882869268E+04 0.  0.
        4    1    3    3  502    0  0.39117439921E+03  0.39014622043E+03 -0.96428860869E+03  0.11113440591E+04  0.12699999809E+01 0. -1.
       -4    1    3    3    0  502 -0.39117439921E+03 -0.39014622043E+03  0.70291555324E+03  0.89404886432E+03  0.12699999809E+01 0.  1.
</event>
<event>
 5   0  0.1782172E-04  0.2007194E+04  0.7818609E-02  0.8603265E-01
       -2   -1    0    0    0  501  0.00000000000E+00  0.00000000000E+00  0.74011187258E+03  0.74011187258E+03  0.25500000920E-02 0.  1.
        2   -1    0    0  501    0  0.00000000000E+00  0.00000000000E+00 -0.13608842819E+04  0.13608842819E+04  0.25500000920E-02 0. -1.
    10030    2    1    2    0    0  0.00000000000E+00  0.00000000000E+00 -0.62077240935E+03  0.21009961545E+04  0.20071936770E+04 0.  0.
        2    1    3    3  502    0 -0.40510999345E+02 -0.50968388351E+03  0.59356214902E+03  0.78341229690E+03  0.25500000920E-02 0.  1.
       -2    1    3    3    0  502  0.40510999345E+02  0.50968388351E+03 -0.12143345584E+04  0.13175838576E+04  0.25500000920E-02 0. -1.
</event>
<event>
 5   0  0.8881384E-05  0.1907728E+04  0.7818609E-02  0.8651019E-01
       -1   -1    0    0    0  501  0.00000000000E+00  0.00000000000E+00  0.79390785561E+03  0.79390785563E+03  0.50400001928E-02 0. -1.
        1   -1    0    0  501    0  0.00000000000E+00  0.00000000000E+00 -0.11460477660E+04  0.11460477660E+04  0.50400001928E-02 0.  1.
    10030    2    1    2    0    0  0.00000000000E+00  0.00000000000E+00 -0.35213991041E+03  0.19399556217E+04  0.19077277839E+04 0.  0.
        5    1    3    3  502    0  0.40792951326E+03  0.10737330787E+03  0.69389324866E+03  0.81206246408E+03  0.46999998093E+01 0. -1.
       -5    1    3    3    0  502 -0.40792951326E+03 -0.10737330787E+03 -0.10460331591E+04  0.11278931576E+04  0.46999998093E+01 0.  1.
</event>
<event>
 5   0  0.6531625E-05  0.2024277E+04  0.7818609E-02  0.8595354E-01
       -3   -1    0    0    0  501  0.00000000000E+00  0.00000000000E+00  0.93383406883E+03  0.93383407429E+03  0.10100000352E+00 0. -1.
        3   -1    0    0  501    0  0.00000000000E+00  0.00000000000E+00 -0.10970089136E+04  0.10970089182E+04  0.10100000352E+00 0.  1.
    10030    2    1    2    0    0  0.00000000000E+00  0.00000000000E+00 -0.16317484476E+03  0.20308429925E+04  0.20242769648E+04 0.  0.
        2    1    3    3  502    0  0.95060256325E+03 -0.17985309846E+03  0.21675223407E+03  0.99145040283E+03  0.25500000920E-02 0. -1.
       -2    1    3    3    0  502 -0.95060256325E+03  0.17985309846E+03 -0.37992707883E+03  0.10393925897E+04  0.25500000920E-02 0.  1.
</event>
<event>
 5   0  0.8577422E-05  0.2009460E+04  0.7818609E-02  0.8602210E-01
       -1   -1    0    0    0  501  0.00000000000E+00  0.00000000000E+00  0.96346556118E+03  0.96346556119E+03  0.50400001928E-02 0. -1.
        1   -1    0    0  501    0  0.00000000000E+00  0.00000000000E+00 -0.10477618886E+04  0.10477618886E+04  0.50400001928E-02 0.  1.
    10030    2    1    2    0    0  0.00000000000E+00  0.00000000000E+00 -0.84296327425E+02  0.20112274498E+04  0.20094601225E+04 0.  0.
        2    1    3    3  502    0  0.63579128065E+03  0.77763436239E+03 -0.18960097072E+02  0.10046418463E+04  0.25500000920E-02 0. -1.
       -2    1    3    3    0  502 -0.63579128065E+03 -0.77763436239E+03 -0.65336230353E+02  0.10065856035E+04  0.25500000920E-02 0.  1.
</event>
<event>
 5   0  0.8881384E-05  0.2016123E+04  0.7818609E-02  0.8599120E-01
       -1   -1    0    0    0  501  0.00000000000E+00  0.00000000000E+00  0.96029239357E+03  0.96029239359E+03  0.50400001928E-02 0. -1.
        1   -1    0    0  501    0  0.00000000000E+00  0.00000000000E+00 -0.10582065225E+04  0.10582065225E+04  0.50400001928E-02 0.  1.
    10030    2    1    2    0    0  0.00000000000E+00  0.00000000000E+00 -0.97914128917E+02  0.20184989161E+04  0.20161226891E+04 0.  0.
        5    1    3    3  502    0 -0.67761258835E+02 -0.72884339189E+03 -0.74285496261E+03  0.10429093266E+04  0.46999998093E+01 0.  1.
       -5    1    3    3    0  502  0.67761258835E+02  0.72884339189E+03  0.64494083369E+03  0.97558958946E+03  0.46999998093E+01 0. -1.
</event>
<event>
 5   0  0.1782172E-04  0.2024448E+04  0.7818609E-02  0.8595275E-01
        2   -1    0    0  501    0  0.00000000000E+00  0.00000000000E+00  0.62052123878E+03  0.62052123879E+03  0.25500000920E-02 0. -1.
       -2   -1    0    0    0  501  0.00000000000E+00  0.00000000000E+00 -0.16511881617E+04  0.16511881617E+04  0.25500000920E-02 0.  1.
    10030    2    1    2    0    0  0.00000000000E+00  0.00000000000E+00 -0.10306669229E+04  0.22717094005E+04  0.20244478986E+04 0.  0.
        2    1    3    3  502    0  0.16028123738E+02  0.97552089241E+03 -0.81789353556E+03  0.12731251894E+04  0.25500000920E-02 0.  1.
       -2    1    3    3    0  502 -0.16028123738E+02 -0.97552089241E+03 -0.21277338732E+03  0.99858421109E+03  0.25500000920E-02 0. -1.
</event>
<event>
 5   0  0.1782172E-04  0.2012845E+04  0.7818609E-02  0.8600639E-01
       -2   -1    0    0    0  501  0.00000000000E+00  0.00000000000E+00  0.65001327499E+03  0.65001327499E+03  0.25500000920E-02 0. -1.
        2   -1    0    0  501    0  0.00000000000E+00  0.00000000000E+00 -0.15582547540E+04  0.15582547540E+04  0.25500000920E-02 0.  1.
    10030    2    1    2    0    0  0.00000000000E+00  0.00000000000E+00 -0.90824147905E+03  0.22082680290E+04  0.20128450273E+04 0.  0.
        2    1    3    3  502    0  0.62782972799E+03 -0.67890439518E+03 -0.18306184534E+02  0.92488726964E+03  0.25500000920E-02 0. -1.
       -2    1    3    3    0  502 -0.62782972799E+03  0.67890439518E+03 -0.88993529451E+03  0.12833807594E+04  0.25500000920E-02 0.  1.
</event>
<event>
 5   0  0.8958919E-05  0.1989765E+04  0.7818609E-02  0.8611421E-01
       -1   -1    0    0    0  501  0.00000000000E+00  0.00000000000E+00  0.13779271761E+04  0.13779271761E+04  0.50400001928E-02 0. -1.
        1   -1    0    0  501    0  0.00000000000E+00  0.00000000000E+00 -0.71831919664E+03  0.71831919666E+03  0.50400001928E-02 0.  1.
    10030    2    1    2    0    0  0.00000000000E+00  0.00000000000E+00  0.65960797946E+03  0.20962463728E+04  0.19897653552E+04 0.  0.
        4    1    3    3  502    0  0.11561063771E+03  0.77817659856E+02  0.13675923828E+04  0.13746752148E+04  0.12699999809E+01 0. -1.
       -4    1    3    3    0  502 -0.11561063771E+03 -0.77817659856E+02 -0.70798440335E+03  0.72157115798E+03  0.12699999809E+01 0.  1.
</event>
<event>
 5   0  0.1893687E-04  0.2027189E+04  0.7818609E-02  0.8594013E-01
       -2   -1    0    0    0  501  0.00000000000E+00  0.00000000000E+00  0.81861715524E+03  0.81861715524E+03  0.25500000920E-02 0. -1.
        2   -1    0    0  501    0  0.00000000000E+00  0.00000000000E+00 -0.12550115666E+04  0.12550115666E+04  0.25500000920E-02 0.  1.
    10030    2    1    2    0    0  0.00000000000E+00  0.00000000000E+00 -0.43639441135E+03  0.20736287218E+04  0.20271891855E+04 0.  0.
        4    1    3    3  502    0 -0.70278456959E+03  0.65502839595E+03 -0.54871539148E+03  0.11063717931E+04  0.12699999809E+01 0.  1.
       -4    1    3    3    0  502  0.70278456959E+03 -0.65502839595E+03  0.11232098014E+03  0.96725692876E+03  0.12699999809E+01 0. -1.
</event>
<event>
 5   0  0.6531625E-05  0.2074050E+04  0.7818609E-02  0.8572762E-01
       -3   -1    0    0    0  501  0.00000000000E+00  0.00000000000E+00  0.95894893897E+03  0.95894894429E+03  0.10100000352E+00 0.  1.
        3   -1    0    0  501    0  0.00000000000E+00  0.00000000000E+00 -0.11214575462E+04  0.11214575507E+04  0.10100000352E+00 0. -1.
    10030    2    1    2    0    0  0.00000000000E+00  0.00000000000E+00 -0.16250860721E+03  0.20804064950E+04  0.20740496949E+04 0.  0.
        3    1    3    3  502    0  0.14665789439E+03  0.66055329018E+03 -0.86952634757E+03  0.11017782293E+04  0.10100000352E+00 0. -1.
       -3    1    3    3    0  502 -0.14665789439E+03 -0.66055329018E+03  0.70701774036E+03  0.97862826576E+03  0.10100000352E+00 0.  1.
</event>
<event>
 5   0  0.6531625E-05  0.1959888E+04  0.7818609E-02  0.8625607E-01
        3   -1    0    0  501    0  0.00000000000E+00  0.00000000000E+00  0.77496854955E+03  0.77496855613E+03  0.10100000352E+00 0. -1.
       -3   -1    0    0    0  501  0.00000000000E+00  0.00000000000E+00 -0.12391343174E+04  0.12391343215E+04  0.10100000352E+00 0.  1.
    10030    2    1    2    0    0  0.00000000000E+00  0.00000000000E+00 -0.46416576783E+03  0.20141028776E+04  0.19598878901E+04 0.  0.
        2    1    3    3  502    0 -0.10992016902E+03 -0.90341412013E+03 -0.60552271836E+03  0.10931135707E+04  0.25500000920E-02 0.  1.
       -2    1    3    3    0  502  0.10992016902E+03  0.90341412013E+03  0.14135695053E+03  0.92098930693E+03  0.25500000920E-02 0. -1.
</event>
<event>
 5   0  0.8765057E-05  0.2014117E+04  0.7818609E-02  0.8600049E-01
        1   -1    0    0  501    0  0.00000000000E+00  0.00000000000E+00  0.10321349275E+04  0.10321349275E+04  0.50400001928E-02 0.  1.
       -1   -1    0    0    0  501  0.00000000000E+00  0.00000000000E+00 -0.98259162388E+03  0.98259162389E+03  0.50400001928E-02 0. -1.
    10030    2    1    2    0    0  0.00000000000E+00  0.00000000000E+00  0.49543303628E+02  0.20147265514E+04  0.20141173099E+04 0.  0.
        3    1    3    3  502    0 -0.55598055034E+03 -0.55812606800E+03  0.65229548835E+03  0.10227944537E+04  0.10100000352E+00 0.  1.
       -3    1    3    3    0  502  0.55598055034E+03  0.55812606800E+03 -0.60275218473E+03  0.99193209774E+03  0.10100000352E+00 0. -1.
</event>
<event>
 5   0  0.1782172E-04  0.2014810E+04  0.7818609E-02  0.8599728E-01
       -2   -1    0    0    0  501  0.00000000000E+00  0.00000000000E+00  0.84204088660E+03  0.84204088660E+03  0.25500000920E-02 0.  1.
        2   -1    0    0  501    0  0.00000000000E+00  0.00000000000E+00 -0.12052440817E+04  0.12052440817E+04  0.25500000920E-02 0. -1.
    10030    2    1    2    0    0  0.00000000000E+00  0.00000000000E+00 -0.36320319506E+03  0.20472849683E+04  0.20148099614E+04 0.  0.
        2    1    3    3  502    0 -0.10491350398E+03 -0.91870066728E+03 -0.58785452339E+03  0.10957146983E+04  0.25500000920E-02 0. -1.
       -2    1    3    3    0  502  0.10491350398E+03  0.91870066728E+03  0.22465132833E+03  0.95157026998E+03  0.25500000920E-02 0.  1.
</event>
<event>
 5   0  0.8861350E-05  0.1993357E+04  0.7818609E-02  0.8609733E-01
        1   -1    0    0  501    0  0.00000000000E+00  0.00000000000E+00  0.13940474682E+04  0.13940474682E+04  0.50400001928E-02 0. -1.
       -1   -1    0    0    0  501  0.00000000000E+00  0.00000000000E+00 -0.71257805153E+03  0.71257805154E+03  0.50400001928E-02 0.  1.
    10030    2    1    2    0    0  0.00000000000E+00  0.00000000000E+00  0.68146941670E+03  0.21066255198E+04  0.19933565950E+04 0.  0.
        1    1    3    3  502    0 -0.41818707144E+03  0.80720738917E+03 -0.91017908192E+02  0.91364569472E+03  0.50400001928E-02 0.  1.
       -1    1    3    3    0  502  0.41818707144E+03 -0.80720738917E+03  0.77248732489E+03  0.11929798251E+04  0.50400001928E-02 0. -1.
</event>
<event>
 5   0  0.1782172E-04  0.1993391E+04  0.7818609E-02  0.8609717E-01
        2   -1    0    0  501    0  0.00000000000E+00  0.00000000000E+00  0.16379138581E+04  0.16379138581E+04  0.25500000920E-02 0. -1.
       -2   -1    0    0    0  501  0.00000000000E+00  0.00000000000E+00 -0.60650439167E+03  0.60650439168E+03  0.25500000920E-02 0.  1.
    10030    2    1    2    0    0  0.00000000000E+00  0.00000000000E+00  0.10314094664E+04  0.22444182497E+04  0.19933910285E+04 0.  0.
        2    1    3    3  502    0 -0.87138848542E+03 -0.13507478972E+03  0.10387943603E+04  0.13625919471E+04  0.25500000920E-02 0. -1.
       -2    1    3    3    0  502  0.87138848542E+03  0.13507478972E+03 -0.73848939110E+01  0.88182630262E+03  0.25500000920E-02 0.  1.
</event>
<event>
 5   0  0.1782172E-04  0.1957834E+04  0.7818609E-02  0.8626593E-01
       -2   -1    0    0    0  501  0.00000000000E+00  0.00000000000E+00  0.13863564132E+04  0.13863564132E+04  0.25500000920E-02 0.  1.
        2   -1    0    0  501    0  0.00000000000E+00  0.00000000000E+00 -0.69122057974E+03  0.69122057975E+03  0.25500000920E-02 0. -1.
    10030    2    1    2    0    0  0.00000000000E+00  0.00000000000E+00  0.69513583347E+03  0.20775769930E+04  0.19578335820E+04 0.  0.
        2    1    3    3  502    0 -0.48750790894E+03  0.72988274803E+03  0.80753605673E+03  0.11926890920E+04  0.25500000920E-02 0. -1.
       -2    1    3    3    0  502  0.48750790894E+03 -0.72988274803E+03 -0.11240022327E+03  0.88488790100E+03  0.25500000920E-02 0.  1.
</event>
<event>
 5   0  0.8765057E-05  0.1533407E+04  0.7818609E-02  0.8862537E-01
       -1   -1    0    0    0  501  0.00000000000E+00  0.00000000000E+00  0.11051483481E+04  0.11051483481E+04  0.50400001928E-02 0. -1.
        1   -1    0    0  501    0  0.00000000000E+00  0.00000000000E+00 -0.53190500634E+03  0.53190500637E+03  0.50400001928E-02 0.  1.
    10030    2    1    2    0    0  0.00000000000E+00  0.00000000000E+00  0.57324334179E+03  0.16370533545E+04  0.15334065856E+04 0.  0.
        3    1    3    3  502    0  0.22877949126E+03 -0.73025654600E+03  0.33691480021E+03  0.83613771079E+03  0.10100000352E+00 0.  1.
       -3    1    3    3    0  502 -0.22877949126E+03  0.73025654600E+03  0.23632854159E+03  0.80091564373E+03  0.10100000352E+00 0. -1.
</event>
<event>
 5   0  0.8861350E-05  0.2000078E+04  0.7818609E-02  0.8606584E-01
       -1   -1    0    0    0  501  0.00000000000E+00  0.00000000000E+00  0.11070549467E+04  0.11070549467E+04  0.50400001928E-02 0. -1.
        1   -1    0    0  501    0  0.00000000000E+00  0.00000000000E+00 -0.90336836362E+03  0.90336836363E+03  0.50400001928E-02 0.  1.
    10030    2    1    2    0    0  0.00000000000E+00  0.00000000000E+00  0.20368658309E+03  0.20104233104E+04  0.20000784141E+04 0.  0.
        1    1    3    3  502    0 -0.66789898240E+03  0.59117878919E+03 -0.35270911714E+03  0.95915855458E+03  0.50400001928E-02 0.  1.
       -1    1    3    3    0  502  0.66789898240E+03 -0.59117878919E+03  0.55639570023E+03  0.10512647558E+04  0.50400001928E-02 0. -1.
</event>
<event>
 5   0  0.8765057E-05  0.1991366E+04  0.7818609E-02  0.8610668E-01
       -1   -1    0    0    0  501  0.00000000000E+00  0.00000000000E+00  0.73628574497E+03  0.73628574499E+03  0.50400001928E-02 0. -1.
        1   -1    0    0  501    0  0.00000000000E+00  0.00000000000E+00 -0.13464665784E+04  0.13464665785E+04  0.50400001928E-02 0.  1.
    10030    2    1    2    0    0  0.00000000000E+00  0.00000000000E+00 -0.61018083347E+03  0.20827523234E+04  0.19913655092E+04 0.  0.
        3    1    3    3  502    0  0.34598944594E+03  0.22024857638E+03 -0.12540120776E+04  0.13193803216E+04  0.10100000352E+00 0.  1.
       -3    1    3    3    0  502 -0.34598944594E+03 -0.22024857638E+03  0.64383124411E+03  0.76337200184E+03  0.10100000352E+00 0. -1.
</event>
<event>
 5   0  0.6531625E-05  0.2000044E+04  0.7818609E-02  0.8606600E-01
        3   -1    0    0  501    0  0.00000000000E+00  0.00000000000E+00  0.74253861921E+03  0.74253862608E+03  0.10100000352E+00 0. -1.
       -3   -1    0    0    0  501  0.00000000000E+00  0.00000000000E+00 -0.13467905054E+04  0.13467905092E+04  0.10100000352E+00 0.  1.
    10030    2    1    2    0    0  0.00000000000E+00  0.00000000000E+00 -0.60425188617E+03  0.20893291352E+04  0.20000439729E+04 0.  0.
        4    1    3    3  502    0  0.25986713485E+03 -0.43813880513E+02 -0.13098622868E+04  0.13361105520E+04  0.12699999809E+01 0.  1.
       -4    1    3    3    0  502 -0.25986713485E+03  0.43813880513E+02  0.70561040058E+03  0.75321858328E+03  0.12699999809E+01 0. -1.
</event>
<event>
 5   0  0.8958919E-05  0.1875480E+04  0.7818609E-02  0.8667159E-01
        1   -1    0    0  501    0  0.00000000000E+00  0.00000000000E+00  0.92637832114E+03  0.92637832115E+03  0.50400001928E-02 0. -1.
       -1   -1    0    0    0  501  0.00000000000E+00  0.00000000000E+00 -0.94924129019E+03  0.94924129020E+03  0.50400001928E-02 0.  1.
    10030    2    1    2    0    0  0.00000000000E+00  0.00000000000E+00 -0.22862969050E+02  0.18756196114E+04  0.18754802615E+04 0.  0.
        4    1    3    3  502    0 -0.35469669170E+03 -0.50701888992E+03 -0.71609510795E+03  0.94639934191E+03  0.12699999809E+01 0.  1.
       -4    1    3    3    0  502  0.35469669170E+03  0.50701888992E+03  0.69323213890E+03  0.92922026944E+03  0.12699999809E+01 0. -1.
</event>
<event>
 5   0  0.8958919E-05  0.1974480E+04  0.7818609E-02  0.8618646E-01
       -1   -1    0    0    0  501  0.00000000000E+00  0.00000000000E+00  0.98242463243E+03  0.98242463244E+03  0.50400001928E-02 0.  1.
        1   -1    0    0  501    0  0.00000000000E+00  0.00000000000E+00 -0.99207922880E+03  0.99207922881E+03  0.50400001928E-02 0. -1.
    10030    2    1    2    0    0  0.00000000000E+00  0.00000000000E+00 -0.96545963650E+01  0.19745038613E+04  0.19744802574E+04 0.  0.
        4    1    3    3  502    0  0.74675094173E+03 -0.56740129920E+03 -0.31314941597E+03  0.98875951218E+03  0.12699999809E+01 0.  1.
       -4    1    3    3    0  502 -0.74675094173E+03  0.56740129920E+03  0.30349481960E+03  0.98574434907E+03  0.12699999809E+01 0. -1.
</event>
<event>
 5   0  0.1834645E-04  0.1985175E+04  0.7818609E-02  0.8613583E-01
        2   -1    0    0  501    0  0.00000000000E+00  0.00000000000E+00  0.11727360858E+04  0.11727360858E+04  0.25500000920E-02 0. -1.
       -2   -1    0    0    0  501  0.00000000000E+00  0.00000000000E+00 -0.84011221151E+03  0.84011221151E+03  0.25500000920E-02 0.  1.
    10030    2    1    2    0    0  0.00000000000E+00  0.00000000000E+00  0.33262387430E+03  0.20128482973E+04  0.19851749611E+04 0.  0.
        1    1    3    3  502    0  0.31613491809E+03  0.37506129172E+02 -0.78694369209E+03  0.84889832766E+03  0.50400001928E-02 0.  1.
       -1    1    3    3    0  502 -0.31613491809E+03 -0.37506129172E+02  0.11195675664E+04  0.11639499697E+04  0.50400001928E-02 0. -1.
</event>
<event>
 5   0  0.1812865E-04  0.2010672E+04  0.7818609E-02  0.8601647E-01
        2   -1    0    0  501    0  0.00000000000E+00  0.00000000000E+00  0.12147801289E+04  0.12147801290E+04  0.25500000920E-02 0.  1.
       -2   -1    0    0    0  501  0.00000000000E+00  0.00000000000E+00 -0.83200286251E+03  0.83200286251E+03  0.25500000920E-02 0. -1.
    10030    2    1    2    0    0  0.00000000000E+00  0.00000000000E+00  0.38277726644E+03  0.20467829915E+04  0.20106720713E+04 0.  0.
        3    1    3    3  502    0  0.54696088525E+03  0.72749187346E+02  0.10468635647E+04  0.11833773649E+04  0.10100000352E+00 0.  1.
       -3    1    3    3    0  502 -0.54696088525E+03 -0.72749187346E+02 -0.66408629831E+03  0.86340562661E+03  0.10100000352E+00 0. -1.
</event>
<event>
 5   0  0.6531625E-05  0.2051983E+04  0.7818609E-02  0.8582695E-01
       -3   -1    0    0    0  501  0.00000000000E+00  0.00000000000E+00  0.10008755553E+04  0.10008755604E+04  0.10100000352E+00 0.  1.
        3   -1    0    0  501    0  0.00000000000E+00  0.00000000000E+00 -0.10517381693E+04  0.10517381742E+04  0.10100000352E+00 0. -1.
    10030    2    1    2    0    0  0.00000000000E+00  0.00000000000E+00 -0.50862614074E+02  0.20526137345E+04  0.20519834643E+04 0.  0.
        2    1    3    3  502    0  0.28545629204E+03  0.98546137462E+03 -0.19135019538E+02  0.10261508488E+04  0.25500000920E-02 0.  1.
       -2    1    3    3    0  502 -0.28545629204E+03 -0.98546137462E+03 -0.31727594536E+02  0.10264628857E+04  0.25500000920E-02 0. -1.
</event>
<event>
 5   0  0.1782172E-04  0.1990091E+04  0.7818609E-02  0.8611267E-01
        2   -1    0    0  501    0  0.00000000000E+00  0.00000000000E+00  0.11987985849E+04  0.11987985849E+04  0.25500000920E-02 0.  1.
       -2   -1    0    0    0  501  0.00000000000E+00  0.00000000000E+00 -0.82592352064E+03  0.82592352065E+03  0.25500000920E-02 0. -1.
    10030    2    1    2    0    0  0.00000000000E+00  0.00000000000E+00  0.37287506422E+03  0.20247221055E+04  0.19900914027E+04 0.  0.
        2    1    3    3  502    0  0.21705418989E+02  0.26654564179E+03 -0.78867605120E+03  0.83278305585E+03  0.25500000920E-02 0. -1.
       -2    1    3    3    0  502 -0.21705418989E+02 -0.26654564179E+03  0.11615511154E+04  0.11919390497E+04  0.25500000920E-02 0.  1.
</event>
<event>
 5   0  0.1893687E-04  0.1953481E+04  0.7818609E-02  0.8628684E-01
       -2   -1    0    0    0  501  0.00000000000E+00  0.00000000000E+00  0.13809540352E+04  0.13809540352E+04  0.25500000920E-02 0.  1.
        2   -1    0    0  501    0  0.00000000000E+00  0.00000000000E+00 -0.69084294361E+03  0.69084294362E+03  0.25500000920E-02 0. -1.
    10030    2    1    2    0    0  0.00000000000E+00  0.00000000000E+00  0.69011109158E+03  0.20717969788E+04  0.19534813546E+04 0.  0.
        4    1    3    3  502    0 -0.29337281947E+03 -0.37720402889E+03 -0.55840165492E+03  0.73495885036E+03  0.12699999809E+01 0. -1.
       -4    1    3    3    0  502  0.29337281947E+03  0.37720402889E+03  0.12485127465E+04  0.13368381285E+04  0.12699999809E+01 0.  1.
</event>
<event>
 5   0  0.8958919E-05  0.1998107E+04  0.7818609E-02  0.8607506E-01
        1   -1    0    0  501    0  0.00000000000E+00  0.00000000000E+00  0.14365279478E+04  0.14365279478E+04  0.50400001928E-02 0. -1.
       -1   -1    0    0    0  501  0.00000000000E+00  0.00000000000E+00 -0.69480595276E+03  0.69480595278E+03  0.50400001928E-02 0.  1.
    10030    2    1    2    0    0  0.00000000000E+00  0.00000000000E+00  0.74172199501E+03  0.21313339006E+04  0.19981072738E+04 0.  0.
        4    1    3    3  502    0  0.19332685865E+03  0.97809644375E+03  0.30290584861E+03  0.10420179910E+04  0.12699999809E+01 0.  1.
       -4    1    3    3    0  502 -0.19332685865E+03 -0.97809644375E+03  0.43881614639E+03  0.10893159095E+04  0.12699999809E+01 0. -1.
</event>
<event>
 5   0  0.1807498E-04  0.2022941E+04  0.7818609E-02  0.8595969E-01
        2   -1    0    0  501    0  0.00000000000E+00  0.00000000000E+00  0.88979616035E+03  0.88979616036E+03  0.25500000920E-02 0.  1.
       -2   -1    0    0    0  501  0.00000000000E+00  0.00000000000E+00 -0.11497834163E+04  0.11497834163E+04  0.25500000920E-02 0. -1.
    10030    2    1    2    0    0  0.00000000000E+00  0.00000000000E+00 -0.25998725597E+03  0.20395795767E+04  0.20229412934E+04 0.  0.
        5    1    3    3  502    0 -0.31964871053E-01  0.65208703448E+03  0.64956255031E+03  0.92041897977E+03  0.46999998093E+01 0.  1.
       -5    1    3    3    0  502  0.31964871053E-01 -0.65208703448E+03 -0.90954980628E+03  0.11191605969E+04  0.46999998093E+01 0. -1.
</event>
<event>
 5   0  0.1812865E-04  0.2106809E+04  0.7818609E-02  0.8558250E-01
        2   -1    0    0  501    0  0.00000000000E+00  0.00000000000E+00  0.12250046285E+04  0.12250046285E+04  0.25500000920E-02 0.  1.
       -2   -1    0    0    0  501  0.00000000000E+00  0.00000000000E+00 -0.90584206433E+03  0.90584206434E+03  0.25500000920E-02 0. -1.
    10030    2    1    2    0    0  0.00000000000E+00  0.00000000000E+00  0.31916256414E+03  0.21308466928E+04  0.21068086970E+04 0.  0.
        3    1    3    3  502    0  0.37732267068E+03  0.53491087439E+03 -0.67515875969E+03  0.94039428025E+03  0.10100000352E+00 0. -1.
       -3    1    3    3    0  502 -0.37732267068E+03 -0.53491087439E+03  0.99432132382E+03  0.11904524126E+04  0.10100000352E+00 0.  1.
</event>
<event>
 5   0  0.8958919E-05  0.1960461E+04  0.7818609E-02  0.8625333E-01
       -1   -1    0    0    0  501  0.00000000000E+00  0.00000000000E+00  0.20142396147E+04  0.20142396148E+04  0.50400001928E-02 0. -1.
        1   -1    0    0  501    0  0.00000000000E+00  0.00000000000E+00 -0.47702974660E+03  0.47702974663E+03  0.50400001928E-02 0.  1.
    10030    2    1    2    0    0  0.00000000000E+00  0.00000000000E+00  0.15372098681E+04  0.24912693614E+04  0.19604613876E+04 0.  0.
        4    1    3    3  502    0  0.88360949929E+03  0.36132914070E+03  0.48580488470E+03  0.10711360763E+04  0.12699999809E+01 0.  1.
       -4    1    3    3    0  502 -0.88360949929E+03 -0.36132914070E+03  0.10514049834E+04  0.14201332850E+04  0.12699999809E+01 0. -1.
</event>
<event>
 5   0  0.8765057E-05  0.2012007E+04  0.7818609E-02  0.8601027E-01
        1   -1    0    0  501    0  0.00000000000E+00  0.00000000000E+00  0.11975448679E+04  0.11975448679E+04  0.50400001928E-02 0. -1.
       -1   -1    0    0    0  501  0.00000000000E+00  0.00000000000E+00 -0.84509833898E+03  0.84509833899E+03  0.50400001928E-02 0.  1.
    10030    2    1    2    0    0  0.00000000000E+00  0.00000000000E+00  0.35244652895E+03  0.20426432069E+04  0.20120071359E+04 0.  0.
        3    1    3    3  502    0 -0.64396176422E+03  0.67484648346E+03  0.55870730185E+03  0.10873170602E+04  0.10100000352E+00 0. -1.
       -3    1    3    3    0  502  0.64396176422E+03 -0.67484648346E+03 -0.20626077290E+03  0.95532614675E+03  0.10100000352E+00 0.  1.
</event>
<event>
 5   0  0.1893687E-04  0.2163255E+04  0.7818609E-02  0.8533880E-01
        2   -1    0    0  501    0  0.00000000000E+00  0.00000000000E+00  0.12936858515E+04  0.12936858515E+04  0.25500000920E-02 0.  1.
       -2   -1    0    0    0  501  0.00000000000E+00  0.00000000000E+00 -0.90432929942E+03  0.90432929942E+03  0.25500000920E-02 0. -1.
    10030    2    1    2    0    0  0.00000000000E+00  0.00000000000E+00  0.38935655207E+03  0.21980151509E+04  0.21632549732E+04 0.  0.
        4    1    3    3  502    0  0.81843713602E+03 -0.20516017951E+03  0.88229945356E+03  0.12208128372E+04  0.12699999809E+01 0.  1.
       -4    1    3    3    0  502 -0.81843713602E+03  0.20516017951E+03 -0.49294290149E+03  0.97720231370E+03  0.12699999809E+01 0. -1.
</event>
<event>
 5   0  0.1812865E-04  0.1986249E+04  0.7818609E-02  0.8613077E-01
       -2   -1    0    0    0  501  0.00000000000E+00  0.00000000000E+00  0.10690834975E+04  0.10690834976E+04  0.25500000920E-02 0.  1.
        2   -1    0    0  501    0  0.00000000000E+00  0.00000000000E+00 -0.92256281007E+03  0.92256281007E+03  0.25500000920E-02 0. -1.
    10030    2    1    2    0    0  0.00000000000E+00  0.00000000000E+00  0.14652068748E+03  0.19916463076E+04  0.19862494060E+04 0.  0.
        3    1    3    3  502    0  0.22035947853E+03 -0.63205618138E+03 -0.66238378177E+03  0.94170356310E+03  0.10100000352E+00 0. -1.
       -3    1    3    3    0  502 -0.22035947853E+03  0.63205618138E+03  0.80890446925E+03  0.10499427445E+04  0.10100000352E+00 0.  1.
</event>
<event>
 5   0  0.1782172E-04  0.1998339E+04  0.7818609E-02  0.8607398E-01
       -2   -1    0    0    0  501  0.00000000000E+00  0.00000000000E+00  0.12413738347E+04  0.12413738347E+04  0.25500000920E-02 0.  1.
        2   -1    0    0  501    0  0.00000000000E+00  0.00000000000E+00 -0.80422128176E+03  0.80422128176E+03  0.25500000920E-02 0. -1.
    10030    2    1    2    0    0  0.00000000000E+00  0.00000000000E+00  0.43715255296E+03  0.20455951165E+04  0.19983385664E+04 0.  0.
        2    1    3    3  502    0 -0.42191892178E+03 -0.36322982483E+03 -0.63073557145E+03  0.84129593087E+03  0.25500000920E-02 0. -1.
       -2    1    3    3    0  502  0.42191892178E+03  0.36322982483E+03  0.10678881244E+04  0.12042991856E+04  0.25500000920E-02 0.  1.
</event>
<event>
 5   0  0.1782172E-04  0.2040272E+04  0.7818609E-02  0.8588020E-01
        2   -1    0    0  501    0  0.00000000000E+00  0.00000000000E+00  0.15690567659E+04  0.15690567659E+04  0.25500000920E-02 0.  1.
       -2   -1    0    0    0  501  0.00000000000E+00  0.00000000000E+00 -0.66325028573E+03  0.66325028574E+03  0.25500000920E-02 0. -1.
    10030    2    1    2    0    0  0.00000000000E+00  0.00000000000E+00  0.90580648014E+03  0.22323070516E+04  0.20402718920E+04 0.  0.
        2    1    3    3  502    0  0.20855761086E+03 -0.57517029152E+02 -0.63786202829E+03  0.67355211590E+03  0.25500000920E-02 0. -1.
       -2    1    3    3    0  502 -0.20855761086E+03  0.57517029152E+02  0.15436685084E+04  0.15587549357E+04  0.25500000920E-02 0.  1.
</event>
<event>
 5   0  0.1893687E-04  0.2003575E+04  0.7818609E-02  0.8604951E-01
        2   -1    0    0  501    0  0.00000000000E+00  0.00000000000E+00  0.10663813119E+04  0.10663813119E+04  0.25500000920E-02 0.  1.
       -2   -1    0    0    0  501  0.00000000000E+00  0.00000000000E+00 -0.94110619371E+03  0.94110619371E+03  0.25500000920E-02 0. -1.
    10030    2    1    2    0    0  0.00000000000E+00  0.00000000000E+00  0.12527511818E+03  0.20074875056E+04  0.20035748626E+04 0.  0.
        4    1    3    3  502    0 -0.20302512476E+03  0.94819035147E+03  0.31470846254E+03  0.10194739689E+04  0.12699999809E+01 0.  1.
       -4    1    3    3    0  502  0.20302512476E+03 -0.94819035147E+03 -0.18943334436E+03  0.98801353673E+03  0.12699999809E+01 0. -1.
</event>
<event>
 5   0  0.1807498E-04  0.2046863E+04  0.7818609E-02  0.8585019E-01
       -2   -1    0    0    0  501  0.00000000000E+00  0.00000000000E+00  0.78149514919E+03  0.78149514919E+03  0.25500000920E-02 0.  1.
        2   -1    0    0  501    0  0.00000000000E+00  0.00000000000E+00 -0.13402672725E+04  0.13402672725E+04  0.25500000920E-02 0. -1.
    10030    2    1    2    0    0  0.00000000000E+00  0.00000000000E+00 -0.55877212333E+03  0.21217624217E+04  0.20468633292E+04 0.  0.
        5    1    3    3  502    0 -0.84436228553E+03  0.35848124004E+03 -0.74979085539E+03  0.11847636412E+04  0.46999998093E+01 0. -1.
       -5    1    3    3    0  502  0.84436228553E+03 -0.35848124004E+03  0.19101873206E+03  0.93699878052E+03  0.46999998093E+01 0.  1.
</event>
<event>
 5   0  0.1807498E-04  0.1981690E+04  0.7818609E-02  0.8615229E-01
       -2   -1    0    0    0  501  0.00000000000E+00  0.00000000000E+00  0.31950151093E+03  0.31950151094E+03  0.25500000920E-02 0. -1.
        2   -1    0    0  501    0  0.00000000000E+00  0.00000000000E+00 -0.30728311745E+04  0.30728311745E+04  0.25500000920E-02 0.  1.
    10030    2    1    2    0    0  0.00000000000E+00  0.00000000000E+00 -0.27533296636E+04  0.33923326854E+04  0.19816903927E+04 0.  0.
        5    1    3    3  502    0  0.68397554038E+03  0.71357913134E+03 -0.12588784857E+04  0.16005670396E+04  0.46999998093E+01 0. -1.
       -5    1    3    3    0  502 -0.68397554038E+03 -0.71357913134E+03 -0.14944511779E+04  0.17917656458E+04  0.46999998093E+01 0.  1.
</event>
<event>
 5   0  0.1812865E-04  0.1982752E+04  0.7818609E-02  0.8614727E-01
        2   -1    0    0  501    0  0.00000000000E+00  0.00000000000E+00  0.93931543173E+03  0.93931543173E+03  0.25500000920E-02 0. -1.
       -2   -1    0    0    0  501  0.00000000000E+00  0.00000000000E+00 -0.10463217316E+04  0.10463217316E+04  0.25500000920E-02 0.  1.
    10030    2    1    2    0    0  0.00000000000E+00  0.00000000000E+00 -0.10700629984E+03  0.19856371633E+04  0.19827517737E+04 0.  0.
        3    1    3    3  502    0 -0.59284473212E+03  0.45963756456E+03 -0.70259339200E+03  0.10277981572E+04  0.10100000352E+00 0.  1.
       -3    1    3    3    0  502  0.59284473212E+03 -0.45963756456E+03  0.59558709216E+03  0.95783900616E+03  0.10100000352E+00 0. -1.
</event>
<event>
 5   0  0.8861350E-05  0.2006705E+04  0.7818609E-02  0.8603492E-01
       -1   -1    0    0    0  501  0.00000000000E+00  0.00000000000E+00  0.10143865744E+04  0.10143865744E+04  0.50400001928E-02 0.  1.
        1   -1    0    0  501    0  0.00000000000E+00  0.00000000000E+00 -0.99243861789E+03  0.99243861791E+03  0.50400001928E-02 0. -1.
    10030    2    1    2    0    0  0.00000000000E+00  0.00000000000E+00  0.21947956463E+02  0.20068251923E+04  0.20067051701E+04 0.  0.
        1    1    3    3  502    0  0.33029300371E+03  0.23069480655E+03 -0.90799493271E+03  0.99336214943E+03  0.50400001928E-02 0. -1.
       -1    1    3    3    0  502 -0.33029300371E+03 -0.23069480655E+03  0.92994288917E+03  0.10134630428E+04  0.50400001928E-02 0.  1.
</event>
<event>
 5   0  0.8861350E-05  0.2004482E+04  0.7818609E-02  0.8604528E-01
        1   -1    0    0  501    0  0.00000000000E+00  0.00000000000E+00  0.16028043224E+04  0.16028043224E+04  0.50400001928E-02 0.  1.
       -1   -1    0    0    0  501  0.00000000000E+00  0.00000000000E+00 -0.62670568974E+03  0.62670568976E+03  0.50400001928E-02 0. -1.
    10030    2    1    2    0    0  0.00000000000E+00  0.00000000000E+00  0.97609863264E+03  0.22295100121E+04  0.20044815673E+04 0.  0.
        1    1    3    3  502    0  0.44675140370E+03 -0.48791176189E+03 -0.34936103812E+03  0.74812956035E+03  0.50400001928E-02 0. -1.
       -1    1    3    3    0  502 -0.44675140370E+03  0.48791176189E+03  0.13254596708E+04  0.14813804518E+04  0.50400001928E-02 0.  1.
</event>
<event>
 5   0  0.1782172E-04  0.1908920E+04  0.7818609E-02  0.8650429E-01
        2   -1    0    0  501    0  0.00000000000E+00  0.00000000000E+00  0.77119701776E+03  0.77119701777E+03  0.25500000920E-02 0. -1.
       -2   -1    0    0    0  501  0.00000000000E+00  0.00000000000E+00 -0.11812730424E+04  0.11812730424E+04  0.25500000920E-02 0.  1.
    10030    2    1    2    0    0  0.00000000000E+00  0.00000000000E+00 -0.41007602459E+03  0.19524700601E+04  0.19089203728E+04 0.  0.
        2    1    3    3  502    0 -0.30647902697E+03 -0.19790484156E+03 -0.11071449953E+04  0.11657039766E+04  0.25500000920E-02 0.  1.
       -2    1    3    3    0  502  0.30647902697E+03  0.19790484156E+03  0.69706897073E+03  0.78676608357E+03  0.25500000920E-02 0. -1.
</event>
<event>
 5   0  0.1893687E-04  0.1692079E+04  0.7818609E-02  0.8765895E-01
        2   -1    0    0  501    0  0.00000000000E+00  0.00000000000E+00  0.73967985086E+03  0.73967985086E+03  0.25500000920E-02 0. -1.
       -2   -1    0    0    0  501  0.00000000000E+00  0.00000000000E+00 -0.96769332354E+03  0.96769332354E+03  0.25500000920E-02 0.  1.
    10030    2    1    2    0    0  0.00000000000E+00  0.00000000000E+00 -0.22801347268E+03  0.17073731744E+04  0.16920794937E+04 0.  0.
        4    1    3    3  502    0 -0.35247788382E+03 -0.36910562270E+03 -0.79486620328E+03  0.94461289071E+03  0.12699999809E+01 0.  1.
       -4    1    3    3    0  502  0.35247788382E+03  0.36910562270E+03  0.56685273060E+03  0.76276028369E+03  0.12699999809E+01 0. -1.
</event>
<event>
 5   0  0.8881384E-05  0.1653993E+04  0.7818609E-02  0.8788048E-01
        1   -1    0    0  501    0  0.00000000000E+00  0.00000000000E+00  0.25648048381E+04  0.25648048381E+04  0.50400001928E-02 0. -1.
       -1   -1    0    0    0  501  0.00000000000E+00  0.00000000000E+00 -0.26665711385E+03  0.26665711390E+03  0.50400001928E-02 0.  1.
    10030    2    1    2    0    0  0.00000000000E+00  0.00000000000E+00  0.22981477242E+04  0.28314619520E+04  0.16539932960E+04 0.  0.
        5    1    3    3  502    0  0.54199718688E+03  0.62456721531E+03  0.11619083640E+04  0.14261480615E+04  0.46999998093E+01 0. -1.
       -5    1    3    3    0  502 -0.54199718688E+03 -0.62456721531E+03  0.11362393602E+04  0.14053138904E+04  0.46999998093E+01 0.  1.
</event>
<event>
 5   0  0.1834645E-04  0.2017405E+04  0.7818609E-02  0.8598526E-01
        2   -1    0    0  501    0  0.00000000000E+00  0.00000000000E+00  0.85304805881E+03  0.85304805882E+03  0.25500000920E-02 0.  1.
       -2   -1    0    0    0  501  0.00000000000E+00  0.00000000000E+00 -0.11927595007E+04  0.11927595007E+04  0.25500000920E-02 0. -1.
    10030    2    1    2    0    0  0.00000000000E+00  0.00000000000E+00 -0.33971144184E+03  0.20458075595E+04  0.20174054393E+04 0.  0.
        1    1    3    3  502    0 -0.10015262237E+04 -0.10611903435E+03 -0.22690744494E+03  0.10323773606E+04  0.50400001928E-02 0.  1.
       -1    1    3    3    0  502  0.10015262237E+04  0.10611903435E+03 -0.11280399690E+03  0.10134301988E+04  0.50400001928E-02 0. -1.
</event>
<event>
 5   0  0.8881384E-05  0.1972484E+04  0.7818609E-02  0.8619594E-01
       -1   -1    0    0    0  501  0.00000000000E+00  0.00000000000E+00  0.91961917630E+03  0.91961917631E+03  0.50400001928E-02 0. -1.
        1   -1    0    0  501    0  0.00000000000E+00  0.00000000000E+00 -0.10576914591E+04  0.10576914591E+04  0.50400001928E-02 0.  1.
    10030    2    1    2    0    0  0.00000000000E+00  0.00000000000E+00 -0.13807228284E+03  0.19773106355E+04  0.19724840668E+04 0.  0.
        5    1    3    3  502    0  0.21154712245E+03 -0.40589885013E+03  0.80668328945E+03  0.92750529973E+03  0.46999998093E+01 0. -1.
       -5    1    3    3    0  502 -0.21154712245E+03  0.40589885013E+03 -0.94475557229E+03  0.10498053357E+04  0.46999998093E+01 0.  1.
</event>
<event>
 5   0  0.8958919E-05  0.1879319E+04  0.7818609E-02  0.8665219E-01
        1   -1    0    0  501    0  0.00000000000E+00  0.00000000000E+00  0.12039087140E+04  0.12039087140E+04  0.50400001928E-02 0.  1.
       -1   -1    0    0    0  501  0.00000000000E+00  0.00000000000E+00 -0.73341139072E+03  0.73341139073E+03  0.50400001928E-02 0. -1.
    10030    2    1    2    0    0  0.00000000000E+00  0.00000000000E+00  0.47049732331E+03  0.19373201048E+04  0.18793194133E+04 0.  0.
        4    1    3    3  502    0  0.61686268467E+02  0.90355878482E+03 -0.22951200867E+02  0.90595366541E+03  0.12699999809E+01 0. -1.
       -4    1    3    3    0  502 -0.61686268467E+02 -0.90355878482E+03  0.49344852418E+03  0.10313664394E+04  0.12699999809E+01 0.  1.
</event>
<event>
 5   0  0.8861350E-05  0.2033187E+04  0.7818609E-02  0.8591260E-01
        1   -1    0    0  501    0  0.00000000000E+00  0.00000000000E+00  0.17018191990E+04  0.17018191990E+04  0.50400001928E-02 0.  1.
       -1   -1    0    0    0  501  0.00000000000E+00  0.00000000000E+00 -0.60726934796E+03  0.60726934798E+03  0.50400001928E-02 0. -1.
    10030    2    1    2    0    0  0.00000000000E+00  0.00000000000E+00  0.10945498511E+04  0.23090885470E+04  0.20331872864E+04 0.  0.
        1    1    3    3  502    0  0.85841524925E+03 -0.50528453777E+03  0.77800196239E+03  0.12639130737E+04  0.50400001928E-02 0.  1.
       -1    1    3    3    0  502 -0.85841524925E+03  0.50528453777E+03  0.31654788868E+03  0.10451754734E+04  0.50400001928E-02 0. -1.
</event>
<event>
 5   0  0.8861350E-05  0.1996559E+04  0.7818609E-02  0.8608231E-01
       -1   -1    0    0    0  501  0.00000000000E+00  0.00000000000E+00  0.90466455701E+03  0.90466455702E+03  0.50400001928E-02 0. -1.
        1   -1    0    0  501    0  0.00000000000E+00  0.00000000000E+00 -0.11015818955E+04  0.11015818955E+04  0.50400001928E-02 0.  1.
    10030    2    1    2    0    0  0.00000000000E+00  0.00000000000E+00 -0.19691733848E+03  0.20062464525E+04  0.19965591376E+04 0.  0.
        1    1    3    3  502    0 -0.59906928397E+03 -0.77719308979E+03  0.85867980994E+02  0.98503117514E+03  0.50400001928E-02 0.  1.
       -1    1    3    3    0  502  0.59906928397E+03  0.77719308979E+03 -0.28278531947E+03  0.10212152774E+04  0.50400001928E-02 0. -1.
</event>
<event>
 5   0  0.8861350E-05  0.2013363E+04  0.7818609E-02  0.8600398E-01
        1   -1    0    0  501    0  0.00000000000E+00  0.00000000000E+00  0.68598480680E+03  0.68598480681E+03  0.50400001928E-02 0. -1.
       -1   -1    0    0    0  501  0.00000000000E+00  0.00000000000E+00 -0.14773034805E+04  0.14773034805E+04  0.50400001928E-02 0.  1.
    10030    2    1    2    0    0  0.00000000000E+00  0.00000000000E+00 -0.79131867368E+03  0.21632882873E+04  0.20133630996E+04 0.  0.
        1    1    3    3  502    0  0.80503233098E+03  0.39528345782E+03  0.95644641970E+02  0.90192791481E+03  0.50400001928E-02 0. -1.
       -1    1    3    3    0  502 -0.80503233098E+03 -0.39528345782E+03 -0.88696331565E+03  0.12613603725E+04  0.50400001928E-02 0.  1.
</event>
<event>
 5   0  0.8577422E-05  0.2074872E+04  0.7818609E-02  0.8572394E-01
       -1   -1    0    0    0  501  0.00000000000E+00  0.00000000000E+00  0.64091580549E+03  0.64091580551E+03  0.50400001928E-02 0.  1.
        1   -1    0    0  501    0  0.00000000000E+00  0.00000000000E+00 -0.16792739417E+04  0.16792739417E+04  0.50400001928E-02 0. -1.
    10030    2    1    2    0    0  0.00000000000E+00  0.00000000000E+00 -0.10383581362E+04  0.23201897472E+04  0.20748717657E+04 0.  0.
        2    1    3    3  502    0 -0.20962436104E+03 -0.91943622040E+03 -0.10027005106E+04  0.13764859789E+04  0.25500000920E-02 0. -1.
       -2    1    3    3    0  502  0.20962436104E+03  0.91943622040E+03 -0.35657625626E+02  0.94370376835E+03  0.25500000920E-02 0.  1.
</event>
<event>
 5   0  0.8881384E-05  0.2004520E+04  0.7818609E-02  0.8604510E-01
        1   -1    0    0  501    0  0.00000000000E+00  0.00000000000E+00  0.15785055540E+04  0.15785055540E+04  0.50400001928E-02 0. -1.
       -1   -1    0    0    0  501  0.00000000000E+00  0.00000000000E+00 -0.63637738284E+03  0.63637738286E+03  0.50400001928E-02 0.  1.
    10030    2    1    2    0    0  0.00000000000E+00  0.00000000000E+00  0.94212817114E+03  0.22148829368E+04  0.20045201254E+04 0.  0.
        5    1    3    3  502    0 -0.44788190012E+01  0.25118462977E+03 -0.60101049895E+03  0.65142112945E+03  0.46999998093E+01 0.  1.
       -5    1    3    3    0  502  0.44788190012E+01 -0.25118462977E+03  0.15431386701E+04  0.15634618074E+04  0.46999998093E+01 0. -1.
</event>
<event>
 5   0  0.1812865E-04  0.2014015E+04  0.7818609E-02  0.8600096E-01
        2   -1    0    0  501    0  0.00000000000E+00  0.00000000000E+00  0.14563981846E+04  0.14563981846E+04  0.25500000920E-02 0.  1.
       -2   -1    0    0    0  501  0.00000000000E+00  0.00000000000E+00 -0.69628189674E+03  0.69628189674E+03  0.25500000920E-02 0. -1.
    10030    2    1    2    0    0  0.00000000000E+00  0.00000000000E+00  0.76011628790E+03  0.21526800814E+04  0.20140145882E+04 0.  0.
        3    1    3    3  502    0 -0.10348910062E+03 -0.98385469408E+03  0.17900167281E+03  0.10053465383E+04  0.10100000352E+00 0. -1.
       -3    1    3    3    0  502  0.10348910062E+03  0.98385469408E+03  0.58111461510E+03  0.11473335431E+04  0.10100000352E+00 0.  1.
</event>
<event>
 5   0  0.8765057E-05  0.1863492E+04  0.7818609E-02  0.8673245E-01
       -1   -1    0    0    0  501  0.00000000000E+00  0.00000000000E+00  0.79367032392E+03  0.79367032393E+03  0.50400001928E-02 0. -1.
        1   -1    0    0  501    0  0.00000000000E+00  0.00000000000E+00 -0.10938425381E+04  0.10938425381E+04  0.50400001928E-02 0.  1.
    10030    2    1    2    0    0  0.00000000000E+00  0.00000000000E+00 -0.30017221414E+03  0.18875128620E+04  0.18634917349E+04 0.  0.
        3    1    3    3  502    0  0.65844199016E+02 -0.38928280721E+03  0.70475604753E+03  0.80781041047E+03  0.10100000352E+00 0. -1.
       -3    1    3    3    0  502 -0.65844199016E+02  0.38928280721E+03 -0.10049282617E+04  0.10797024515E+04  0.10100000352E+00 0.  1.
</event>
<event>
 5   0  0.8577422E-05  0.1750205E+04  0.7818609E-02  0.8733237E-01
        1   -1    0    0  501    0  0.00000000000E+00  0.00000000000E+00  0.74610476758E+03  0.74610476759E+03  0.50400001928E-02 0. -1.
       -1   -1    0    0    0  501  0.00000000000E+00  0.00000000000E+00 -0.10264037005E+04  0.10264037005E+04  0.50400001928E-02 0.  1.
    10030    2    1    2    0    0  0.00000000000E+00  0.00000000000E+00 -0.28029893293E+03  0.17725084681E+04  0.17502053530E+04 0.  0.
        2    1    3    3  502    0  0.68173317836E+03 -0.20993620788E+03 -0.65353268635E+03  0.96743904717E+03  0.25500000920E-02 0.  1.
       -2    1    3    3    0  502 -0.68173317836E+03  0.20993620788E+03  0.37323375341E+03  0.80506942095E+03  0.25500000920E-02 0. -1.
</event>
<event>
 5   0  0.1807498E-04  0.1847551E+04  0.7818609E-02  0.8681413E-01
       -2   -1    0    0    0  501  0.00000000000E+00  0.00000000000E+00  0.86651380251E+03  0.86651380252E+03  0.25500000920E-02 0. -1.
        2   -1    0    0  501    0  0.00000000000E+00  0.00000000000E+00 -0.98482095012E+03  0.98482095012E+03  0.25500000920E-02 0.  1.
    10030    2    1    2    0    0  0.00000000000E+00  0.00000000000E+00 -0.11830714761E+03  0.18513347526E+04  0.18475507531E+04 0.  0.
        5    1    3    3  502    0 -0.33374911710E+03  0.57775373608E+02 -0.92033939371E+03  0.98070033984E+03  0.46999998093E+01 0.  1.
       -5    1    3    3    0  502  0.33374911710E+03 -0.57775373608E+02  0.80203224610E+03  0.87063441280E+03  0.46999998093E+01 0. -1.
</event>
<event>
 5   0  0.1812865E-04  0.1994200E+04  0.7818609E-02  0.8609337E-01
        2   -1    0    0  501    0  0.00000000000E+00  0.00000000000E+00  0.17009316752E+04  0.17009316752E+04  0.25500000920E-02 0.  1.
       -2   -1    0    0    0  501  0.00000000000E+00  0.00000000000E+00 -0.58450796768E+03  0.58450796768E+03  0.25500000920E-02 0. -1.
    10030    2    1    2    0    0  0.00000000000E+00  0.00000000000E+00  0.11164237075E+04  0.22854396429E+04  0.19941997058E+04 0.  0.
        3    1    3    3  502    0  0.22988323048E+03  0.83655297021E+03  0.11214557315E+04  0.14178611144E+04  0.10100000352E+00 0.  1.
       -3    1    3    3    0  502 -0.22988323048E+03 -0.83655297021E+03 -0.50320240512E+01  0.86757852849E+03  0.10100000352E+00 0. -1.
</event>
<event>
 5   0  0.8861350E-05  0.1996160E+04  0.7818609E-02  0.8608418E-01
       -1   -1    0    0    0  501  0.00000000000E+00  0.00000000000E+00  0.80345542543E+03  0.80345542544E+03  0.50400001928E-02 0. -1.
        1   -1    0    0  501    0  0.00000000000E+00  0.00000000000E+00 -0.12398497309E+04  0.12398497309E+04  0.50400001928E-02 0.  1.
    10030    2    1    2    0    0  0.00000000000E+00  0.00000000000E+00 -0.43639430547E+03  0.20433051564E+04  0.19961603072E+04 0.  0.
        1    1    3    3  502    0 -0.68858568975E+03 -0.52051487021E+03 -0.73110832025E+03  0.11311964278E+04  0.50400001928E-02 0.  1.
       -1    1    3    3    0  502  0.68858568975E+03  0.52051487021E+03  0.29471401478E+03  0.91210872858E+03  0.50400001928E-02 0. -1.
</event>
<event>
 5   0  0.1893687E-04  0.2014842E+04  0.7818609E-02  0.8599713E-01
       -2   -1    0    0    0  501  0.00000000000E+00  0.00000000000E+00  0.51348264296E+03  0.51348264297E+03  0.25500000920E-02 0. -1.
        2   -1    0    0  501    0  0.00000000000E+00  0.00000000000E+00 -0.19764980873E+04  0.19764980873E+04  0.25500000920E-02 0.  1.
    10030    2    1    2    0    0  0.00000000000E+00  0.00000000000E+00 -0.14630154443E+04  0.24899807303E+04  0.20148423876E+04 0.  0.
        4    1    3    3  502    0 -0.49643863799E+03  0.54419212918E+03  0.11779717661E+03  0.74597197164E+03  0.12699999809E+01 0. -1.
       -4    1    3    3    0  502  0.49643863799E+03 -0.54419212918E+03 -0.15808126209E+04  0.17440087586E+04  0.12699999809E+01 0.  1.
</event>
<event>
 5   0  0.1834645E-04  0.1969364E+04  0.7818609E-02  0.8621079E-01
        2   -1    0    0  501    0  0.00000000000E+00  0.00000000000E+00  0.89126312570E+03  0.89126312570E+03  0.25500000920E-02 0.  1.
       -2   -1    0    0    0  501  0.00000000000E+00  0.00000000000E+00 -0.10878930277E+04  0.10878930277E+04  0.25500000920E-02 0. -1.
    10030    2    1    2    0    0  0.00000000000E+00  0.00000000000E+00 -0.19662990202E+03  0.19791561534E+04  0.19693643038E+04 0.  0.
        1    1    3    3  502    0 -0.92006885258E+03 -0.35061358609E+03 -0.11030574862E+03  0.99076936693E+03  0.50400001928E-02 0.  1.
       -1    1    3    3    0  502  0.92006885258E+03  0.35061358609E+03 -0.86324153398E+02  0.98838678650E+03  0.50400001928E-02 0. -1.
</event>
<event>
 5   0  0.1812865E-04  0.2017627E+04  0.7818609E-02  0.8598423E-01
        2   -1    0    0  501    0  0.00000000000E+00  0.00000000000E+00  0.12011073981E+04  0.12011073981E+04  0.25500000920E-02 0. -1.
       -2   -1    0    0    0  501  0.00000000000E+00  0.00000000000E+00 -0.84730564874E+03  0.84730564874E+03  0.25500000920E-02 0.  1.
    10030    2    1    2    0    0  0.00000000000E+00  0.00000000000E+00  0.35380174937E+03  0.20484130469E+04  0.20176274018E+04 0.  0.
        3    1    3    3  502    0 -0.72810377891E+02 -0.60401026929E+03  0.99390022090E+03  0.11653185898E+04  0.10100000352E+00 0. -1.
       -3    1    3    3    0  502  0.72810377891E+02  0.60401026929E+03 -0.64009847153E+03  0.88309445701E+03  0.10100000352E+00 0.  1.
</event>
<event>
 5   0  0.8881384E-05  0.2023035E+04  0.7818609E-02  0.8595926E-01
        1   -1    0    0  501    0  0.00000000000E+00  0.00000000000E+00  0.21798092739E+04  0.21798092739E+04  0.50400001928E-02 0. -1.
       -1   -1    0    0    0  501  0.00000000000E+00  0.00000000000E+00 -0.46938387124E+03  0.46938387126E+03  0.50400001928E-02 0.  1.
    10030    2    1    2    0    0  0.00000000000E+00  0.00000000000E+00  0.17104254026E+04  0.26491931451E+04  0.20230346666E+04 0.  0.
        5    1    3    3  502    0 -0.47038242940E+03 -0.48453462684E+02  0.20261396837E+04  0.20805940199E+04  0.46999998093E+01 0. -1.
       -5    1    3    3    0  502  0.47038242940E+03  0.48453462684E+02 -0.31571428105E+03  0.56859912522E+03  0.46999998093E+01 0.  1.
</event>
<event>
 5   0  0.8577422E-05  0.1985850E+04  0.7818609E-02  0.8613265E-01
        1   -1    0    0  501    0  0.00000000000E+00  0.00000000000E+00  0.15017148624E+04  0.15017148624E+04  0.50400001928E-02 0.  1.
       -1   -1    0    0    0  501  0.00000000000E+00  0.00000000000E+00 -0.65651643516E+03  0.65651643518E+03  0.50400001928E-02 0. -1.
    10030    2    1    2    0    0  0.00000000000E+00  0.00000000000E+00  0.84519842724E+03  0.21582312976E+04  0.19858504356E+04 0.  0.
        2    1    3    3  502    0  0.62951266619E+03  0.59214752333E+02 -0.40943318731E+03  0.75327824783E+03  0.25500000920E-02 0. -1.
       -2    1    3    3    0  502 -0.62951266619E+03 -0.59214752333E+02  0.12546316145E+04  0.14049530498E+04  0.25500000920E-02 0.  1.
</event>
<event>
 5   0  0.8765057E-05  0.1989505E+04  0.7818609E-02  0.8611543E-01
       -1   -1    0    0    0  501  0.00000000000E+00  0.00000000000E+00  0.65350362711E+03  0.65350362713E+03  0.50400001928E-02 0.  1.
        1   -1    0    0  501    0  0.00000000000E+00  0.00000000000E+00 -0.15141955102E+04  0.15141955102E+04  0.50400001928E-02 0. -1.
    10030    2    1    2    0    0  0.00000000000E+00  0.00000000000E+00 -0.86069188311E+03  0.21676991374E+04  0.19895047204E+04 0.  0.
        3    1    3    3  502    0 -0.93917074302E+03 -0.23478997937E+03 -0.18101774973E+03  0.98485301181E+03  0.10100000352E+00 0.  1.
       -3    1    3    3    0  502  0.93917074302E+03  0.23478997937E+03 -0.67967413337E+03  0.11828461256E+04  0.10100000352E+00 0. -1.
</event>
<event>
 5   0  0.1782172E-04  0.2088888E+04  0.7818609E-02  0.8566154E-01
        2   -1    0    0  501    0  0.00000000000E+00  0.00000000000E+00  0.16676510255E+04  0.16676510255E+04  0.25500000920E-02 0. -1.
       -2   -1    0    0    0  501  0.00000000000E+00  0.00000000000E+00 -0.65413133127E+03  0.65413133128E+03  0.25500000920E-02 0.  1.
    10030    2    1    2    0    0  0.00000000000E+00  0.00000000000E+00  0.10135196942E+04  0.23217823568E+04  0.20888875369E+04 0.  0.
        2    1    3    3  502    0  0.93095806751E+03 -0.97549597009E+02  0.10217346667E+04  0.13856913713E+04  0.25500000920E-02 0. -1.
       -2    1    3    3    0  502 -0.93095806751E+03  0.97549597009E+02 -0.82149724579E+01  0.93609098549E+03  0.25500000920E-02 0.  1.
</event>
<event>
 5   0  0.1893687E-04  0.2004358E+04  0.7818609E-02  0.8604586E-01
       -2   -1    0    0    0  501  0.00000000000E+00  0.00000000000E+00  0.67989526794E+03  0.67989526794E+03  0.25500000920E-02 0. -1.
        2   -1    0    0  501    0  0.00000000000E+00  0.00000000000E+00 -0.14772308684E+04  0.14772308685E+04  0.25500000920E-02 0.  1.
    10030    2    1    2    0    0  0.00000000000E+00  0.00000000000E+00 -0.79733560051E+03  0.21571261364E+04  0.20043575301E+04 0.  0.
        4    1    3    3  502    0  0.74974422000E+03  0.59426448387E+03 -0.71990405822E+03  0.11973011894E+04  0.12699999809E+01 0. -1.
       -4    1    3    3    0  502 -0.74974422000E+03 -0.59426448387E+03 -0.77431542294E+02  0.95982494699E+03  0.12699999809E+01 0.  1.
</event>
<event>
 5   0  0.8577422E-05  0.2020640E+04  0.7818609E-02  0.8597031E-01
        1   -1    0    0  501    0  0.00000000000E+00  0.00000000000E+00  0.13800507600E+04  0.13800507600E+04  0.50400001928E-02 0.  1.
       -1   -1    0    0    0  501  0.00000000000E+00  0.00000000000E+00 -0.73964451279E+03  0.73964451280E+03  0.50400001928E-02 0. -1.
    10030    2    1    2    0    0  0.00000000000E+00  0.00000000000E+00  0.64040624722E+03  0.21196952728E+04  0.20206404648E+04 0.  0.
        2    1    3    3  502    0  0.52151863485E+03 -0.86106095253E+03  0.41007262728E+03  0.10869991767E+04  0.25500000920E-02 0. -1.
       -2    1    3    3    0  502 -0.52151863485E+03  0.86106095253E+03  0.23033361994E+03  0.10326960961E+04  0.25500000920E-02 0.  1.
</event>
<event>
 5   0  0.8881384E-05  0.1989845E+04  0.7818609E-02  0.8611383E-01
       -1   -1    0    0    0  501  0.00000000000E+00  0.00000000000E+00  0.84728485314E+03  0.84728485315E+03  0.50400001928E-02 0.  1.
        1   -1    0    0  501    0  0.00000000000E+00  0.00000000000E+00 -0.11682851170E+04  0.11682851170E+04  0.50400001928E-02 0. -1.
    10030    2    1    2    0    0  0.00000000000E+00  0.00000000000E+00 -0.32100026390E+03  0.20155699702E+04  0.19898445003E+04 0.  0.
        5    1    3    3  502    0 -0.39734847342E+03 -0.66932838482E+03  0.46715748694E+03  0.90782404885E+03  0.46999998093E+01 0. -1.
       -5    1    3    3    0  502  0.39734847342E+03  0.66932838482E+03 -0.78815775084E+03  0.11077459213E+04  0.46999998093E+01 0.  1.
</event>
<event>
 5   0  0.8577422E-05  0.2030817E+04  0.7818609E-02  0.8592347E-01
        1   -1    0    0  501    0  0.00000000000E+00  0.00000000000E+00  0.11851697633E+04  0.11851697633E+04  0.50400001928E-02 0.  1.
       -1   -1    0    0    0  501  0.00000000000E+00  0.00000000000E+00 -0.86996334091E+03  0.86996334092E+03  0.50400001928E-02 0. -1.
    10030    2    1    2    0    0  0.00000000000E+00  0.00000000000E+00  0.31520642243E+03  0.20551331043E+04  0.20308168277E+04 0.  0.
        2    1    3    3  502    0 -0.48163905835E+03 -0.27310905254E+03 -0.70375788416E+03  0.89545513379E+03  0.25500000920E-02 0. -1.
       -2    1    3    3    0  502  0.48163905835E+03  0.27310905254E+03  0.10189643066E+04  0.11596779705E+04  0.25500000920E-02 0.  1.
</event>
<event>
 5   0  0.1782172E-04  0.2018386E+04  0.7818609E-02  0.8598073E-01
        2   -1    0    0  501    0  0.00000000000E+00  0.00000000000E+00  0.22457664490E+04  0.22457664490E+04  0.25500000920E-02 0.  1.
       -2   -1    0    0    0  501  0.00000000000E+00  0.00000000000E+00 -0.45350669904E+03  0.45350669905E+03  0.25500000920E-02 0. -1.
    10030    2    1    2    0    0  0.00000000000E+00  0.00000000000E+00  0.17922597500E+04  0.26992731481E+04  0.20183856214E+04 0.  0.
        2    1    3    3  502    0 -0.39378805711E+03  0.24765737131E+03 -0.30156997082E+03  0.55438944325E+03  0.25500000920E-02 0. -1.
       -2    1    3    3    0  502  0.39378805711E+03 -0.24765737131E+03  0.20938297208E+04  0.21448837048E+04  0.25500000920E-02 0.  1.
</event>
<event>
 5   0  0.1812865E-04  0.1963902E+04  0.7818609E-02  0.8623686E-01
        2   -1    0    0  501    0  0.00000000000E+00  0.00000000000E+00  0.27449014566E+04  0.27449014566E+04  0.25500000920E-02 0.  1.
       -2   -1    0    0    0  501  0.00000000000E+00  0.00000000000E+00 -0.35127972486E+03  0.35127972487E+03  0.25500000920E-02 0. -1.
    10030    2    1    2    0    0  0.00000000000E+00  0.00000000000E+00  0.23936217317E+04  0.30961811815E+04  0.19639024705E+04 0.  0.
        3    1    3    3  502    0 -0.21708193488E+03  0.91174539730E+03  0.16586713233E+04  0.19051495492E+04  0.10100000352E+00 0.  1.
       -3    1    3    3    0  502  0.21708193488E+03 -0.91174539730E+03  0.73495040843E+03  0.11910316322E+04  0.10100000352E+00 0. -1.
</event>
<event>
 5   0  0.1782172E-04  0.1996529E+04  0.7818609E-02  0.8608245E-01
        2   -1    0    0  501    0  0.00000000000E+00  0.00000000000E+00  0.90848532361E+03  0.90848532362E+03  0.25500000920E-02 0. -1.
       -2   -1    0    0    0  501  0.00000000000E+00  0.00000000000E+00 -0.10969161174E+04  0.10969161174E+04  0.25500000920E-02 0.  1.
    10030    2    1    2    0    0  0.00000000000E+00  0.00000000000E+00 -0.18843079382E+03  0.20054014411E+04  0.19965291823E+04 0.  0.
        2    1    3    3  502    0 -0.36592950094E+03  0.49251131229E+02  0.83737695532E+03  0.91516678201E+03  0.25500000920E-02 0. -1.
       -2    1    3    3    0  502  0.36592950094E+03 -0.49251131229E+02 -0.10258077491E+04  0.10902346590E+04  0.25500000920E-02 0.  1.
</event>
<event>
 5   0  0.8765057E-05  0.2024119E+04  0.7818609E-02  0.8595427E-01
        1   -1    0    0  501    0  0.00000000000E+00  0.00000000000E+00  0.11177093842E+04  0.11177093842E+04  0.50400001928E-02 0. -1.
       -1   -1    0    0    0  501  0.00000000000E+00  0.00000000000E+00 -0.91639566923E+03  0.91639566924E+03  0.50400001928E-02 0.  1.
    10030    2    1    2    0    0  0.00000000000E+00  0.00000000000E+00  0.20131371493E+03  0.20341050534E+04  0.20241186123E+04 0.  0.
        3    1    3    3  502    0 -0.94373090000E+03 -0.18613072668E+02 -0.26623283037E+03  0.98074175411E+03  0.10100000352E+00 0.  1.
       -3    1    3    3    0  502  0.94373090000E+03  0.18613072668E+02  0.46754654530E+03  0.10533632993E+04  0.10100000352E+00 0. -1.
</event>
<event>
 5   0  0.8881384E-05  0.1976154E+04  0.7818609E-02  0.8617851E-01
       -1   -1    0    0    0  501  0.00000000000E+00  0.00000000000E+00  0.89270617864E+03  0.89270617865E+03  0.50400001928E-02 0. -1.
        1   -1    0    0  501    0  0.00000000000E+00  0.00000000000E+00 -0.10936366599E+04  0.10936366599E+04  0.50400001928E-02 0.  1.
    10030    2    1    2    0    0  0.00000000000E+00  0.00000000000E+00 -0.20093048129E+03  0.19863428386E+04  0.19761540461E+04 0.  0.
        5    1    3    3  502    0 -0.59230852789E+03 -0.35278934893E+03 -0.81191709048E+03  0.10651390373E+04  0.46999998093E+01 0.  1.
       -5    1    3    3    0  502  0.59230852789E+03  0.35278934893E+03  0.61098660919E+03  0.92120380131E+03  0.46999998093E+01 0. -1.
</event>
<event>
 5   0  0.1807498E-04  0.2003074E+04  0.7818609E-02  0.8605185E-01
        2   -1    0    0  501    0  0.00000000000E+00  0.00000000000E+00  0.13335135257E+04  0.13335135257E+04  0.25500000920E-02 0.  1.
       -2   -1    0    0    0  501  0.00000000000E+00  0.00000000000E+00 -0.75220584954E+03  0.75220584954E+03  0.25500000920E-02 0. -1.
    10030    2    1    2    0    0  0.00000000000E+00  0.00000000000E+00  0.58130767619E+03  0.20857193753E+04  0.20030743116E+04 0.  0.
        5    1    3    3  502    0 -0.89739694870E+03 -0.12956440286E+03  0.73358246232E+03  0.11663076511E+04  0.46999998093E+01 0.  1.
       -5    1    3    3    0  502  0.89739694870E+03  0.12956440286E+03 -0.15227478613E+03  0.91941172416E+03  0.46999998093E+01 0. -1.
</event>
<event>
 5   0  0.8881384E-05  0.1993742E+04  0.7818609E-02  0.8609552E-01
        1   -1    0    0  501    0  0.00000000000E+00  0.00000000000E+00  0.19216740908E+04  0.19216740908E+04  0.50400001928E-02 0.  1.
       -1   -1    0    0    0  501  0.00000000000E+00  0.00000000000E+00 -0.51712818265E+03  0.51712818267E+03  0.50400001928E-02 0. -1.
    10030    2    1    2    0    0  0.00000000000E+00  0.00000000000E+00  0.14045459081E+04  0.24388022735E+04  0.19937420397E+04 0.  0.
        5    1    3    3  502    0  0.90391260784E+03 -0.40550869180E+03  0.56697237793E+03  0.11414793336E+04  0.46999998093E+01 0. -1.
       -5    1    3    3    0  502 -0.90391260784E+03  0.40550869180E+03  0.83757353021E+03  0.12973229398E+04  0.46999998093E+01 0.  1.
</event>
<event>
 5   0  0.8577422E-05  0.1999987E+04  0.7818609E-02  0.8606627E-01
       -1   -1    0    0    0  501  0.00000000000E+00  0.00000000000E+00  0.81354165638E+03  0.81354165639E+03  0.50400001928E-02 0.  1.
        1   -1    0    0  501    0  0.00000000000E+00  0.00000000000E+00 -0.12291772298E+04  0.12291772298E+04  0.50400001928E-02 0. -1.
    10030    2    1    2    0    0  0.00000000000E+00  0.00000000000E+00 -0.41563557345E+03  0.20427188862E+04  0.19999868795E+04 0.  0.
        2    1    3    3  502    0 -0.29385755372E+03  0.83487709853E+03 -0.68318099859E+03  0.11180824247E+04  0.25500000920E-02 0. -1.
       -2    1    3    3    0  502  0.29385755372E+03 -0.83487709853E+03  0.26754542514E+03  0.92463646156E+03  0.25500000920E-02 0.  1.
</event>
<event>
 5   0  0.1807498E-04  0.2090431E+04  0.7818609E-02  0.8565470E-01
        2   -1    0    0  501    0  0.00000000000E+00  0.00000000000E+00  0.17017026820E+04  0.17017026820E+04  0.25500000920E-02 0. -1.
       -2   -1    0    0    0  501  0.00000000000E+00  0.00000000000E+00 -0.64198987205E+03  0.64198987206E+03  0.25500000920E-02 0.  1.
    10030    2    1    2    0    0  0.00000000000E+00  0.00000000000E+00  0.10597128100E+04  0.23436925541E+04  0.20904314264E+04 0.  0.
        5    1    3    3  502    0  0.52007943641E+03  0.15994560420E+03  0.15303797504E+04  0.16242381251E+04  0.46999998093E+01 0. -1.
       -5    1    3    3    0  502 -0.52007943641E+03 -0.15994560420E+03 -0.47066694049E+03  0.71945442896E+03  0.46999998093E+01 0.  1.
</event>
<event>
 5   0  0.8861350E-05  0.1987530E+04  0.7818609E-02  0.8612473E-01
       -1   -1    0    0    0  501  0.00000000000E+00  0.00000000000E+00  0.76970779067E+03  0.76970779068E+03  0.50400001928E-02 0.  1.
        1   -1    0    0  501    0  0.00000000000E+00  0.00000000000E+00 -0.12830440958E+04  0.12830440958E+04  0.50400001928E-02 0. -1.
    10030    2    1    2    0    0  0.00000000000E+00  0.00000000000E+00 -0.51333630510E+03  0.20527518865E+04  0.19875301621E+04 0.  0.
        1    1    3    3  502    0  0.50067776330E+03  0.49032991119E+03 -0.98439449578E+03  0.12083601151E+04  0.50400001928E-02 0. -1.
       -1    1    3    3    0  502 -0.50067776330E+03 -0.49032991119E+03  0.47105819068E+03  0.84439177134E+03  0.50400001928E-02 0.  1.
</event>
<event>
 5   0  0.1812865E-04  0.1998853E+04  0.7818609E-02  0.8607157E-01
       -2   -1    0    0    0  501  0.00000000000E+00  0.00000000000E+00  0.67568531030E+03  0.67568531030E+03  0.25500000920E-02 0. -1.
        2   -1    0    0  501    0  0.00000000000E+00  0.00000000000E+00 -0.14782821574E+04  0.14782821574E+04  0.25500000920E-02 0.  1.
    10030    2    1    2    0    0  0.00000000000E+00  0.00000000000E+00 -0.80259684707E+03  0.21539674677E+04  0.19988532094E+04 0.  0.
        3    1    3    3  502    0 -0.24925142841E+03  0.73853070888E+03  0.27278394077E+03  0.82581170437E+03  0.10100000352E+00 0. -1.
       -3    1    3    3    0  502  0.24925142841E+03 -0.73853070888E+03 -0.10753807878E+04  0.13281557633E+04  0.10100000352E+00 0.  1.
</event>
<event>
 5   0  0.1834645E-04  0.2053983E+04  0.7818609E-02  0.8581790E-01
        2   -1    0    0  501    0  0.00000000000E+00  0.00000000000E+00  0.16217967527E+04  0.16217967527E+04  0.25500000920E-02 0.  1.
       -2   -1    0    0    0  501  0.00000000000E+00  0.00000000000E+00 -0.65033518401E+03  0.65033518402E+03  0.25500000920E-02 0. -1.
    10030    2    1    2    0    0  0.00000000000E+00  0.00000000000E+00  0.97146156873E+03  0.22721319368E+04  0.20539829499E+04 0.  0.
        1    1    3    3  502    0 -0.61181420601E+03 -0.69406300085E+03  0.97879604778E+03  0.13468785302E+04  0.50400001928E-02 0.  1.
       -1    1    3    3    0  502  0.61181420601E+03  0.69406300085E+03 -0.73344790431E+01  0.92525340661E+03  0.50400001928E-02 0. -1.
</event>
<event>
 5   0  0.1812865E-04  0.1957519E+04  0.7818609E-02  0.8626743E-01
        2   -1    0    0  501    0  0.00000000000E+00  0.00000000000E+00  0.95354252030E+03  0.95354252030E+03  0.25500000920E-02 0.  1.
       -2   -1    0    0    0  501  0.00000000000E+00  0.00000000000E+00 -0.10046435629E+04  0.10046435629E+04  0.25500000920E-02 0. -1.
    10030    2    1    2    0    0  0.00000000000E+00  0.00000000000E+00 -0.51101042603E+02  0.19581860832E+04  0.19575192004E+04 0.  0.
        3    1    3    3  502    0  0.67635455389E+02  0.50663057486E+03 -0.86053318339E+03  0.10008828424E+04  0.10100000352E+00 0. -1.
       -3    1    3    3    0  502 -0.67635455389E+02 -0.50663057486E+03  0.80943214078E+03  0.95730324085E+03  0.10100000352E+00 0.  1.
</event>
<event>
 5   0  0.8577422E-05  0.2013061E+04  0.7818609E-02  0.8600538E-01
       -1   -1    0    0    0  501  0.00000000000E+00  0.00000000000E+00  0.79067945732E+03  0.79067945734E+03  0.50400001928E-02 0. -1.
        1   -1    0    0  501    0  0.00000000000E+00  0.00000000000E+00 -0.12813077931E+04  0.12813077931E+04  0.50400001928E-02 0.  1.
    10030    2    1    2    0    0  0.00000000000E+00  0.00000000000E+00 -0.49062833575E+03  0.20719872504E+04  0.20130611024E+04 0.  0.
        2    1    3    3  502    0  0.99953038918E+03 -0.85005403192E+02 -0.33029509218E+03  0.10561163598E+04  0.25500000920E-02 0.  1.
       -2    1    3    3    0  502 -0.99953038918E+03  0.85005403192E+02 -0.16033324357E+03  0.10158708906E+04  0.25500000920E-02 0. -1.
</event>
<event>
 5   0  0.1893687E-04  0.1913804E+04  0.7818609E-02  0.8648016E-01
       -2   -1    0    0    0  501  0.00000000000E+00  0.00000000000E+00  0.45797974054E+03  0.45797974055E+03  0.25500000920E-02 0.  1.
        2   -1    0    0  501    0  0.00000000000E+00  0.00000000000E+00 -0.19993491245E+04  0.19993491245E+04  0.25500000920E-02 0. -1.
    10030    2    1    2    0    0  0.00000000000E+00  0.00000000000E+00 -0.15413693839E+04  0.24573288650E+04  0.19138039537E+04 0.  0.
        4    1    3    3  502    0  0.36540659563E+03 -0.88437158646E+03 -0.76430366306E+03  0.12246619065E+04  0.12699999809E+01 0. -1.
       -4    1    3    3    0  502 -0.36540659563E+03  0.88437158646E+03 -0.77706572087E+03  0.12326669585E+04  0.12699999809E+01 0.  1.
</event>
<event>
 5   0  0.8881384E-05  0.2006493E+04  0.7818609E-02  0.8603591E-01
       -1   -1    0    0    0  501  0.00000000000E+00  0.00000000000E+00  0.59357279251E+03  0.59357279253E+03  0.50400001928E-02 0.  1.
        1   -1    0    0  501    0  0.00000000000E+00  0.00000000000E+00 -0.16956693444E+04  0.16956693444E+04  0.50400001928E-02 0. -1.
    10030    2    1    2    0    0  0.00000000000E+00  0.00000000000E+00 -0.11020965519E+04  0.22892421369E+04  0.20064926493E+04 0.  0.
        5    1    3    3  502    0 -0.75180303176E+03 -0.60854382342E+03 -0.85494314147E+03  0.12909234093E+04  0.46999998093E+01 0. -1.
       -5    1    3    3    0  502  0.75180303176E+03  0.60854382342E+03 -0.24715341039E+03  0.99831872759E+03  0.46999998093E+01 0.  1.
</event>
<event>
 5   0  0.6531625E-05  0.1881874E+04  0.7818609E-02  0.8663932E-01
        4   -1    0    0  501    0  0.00000000000E+00  0.00000000000E+00  0.69571501838E+03  0.69571617755E+03  0.12699999809E+01 0.  1.
       -4   -1    0    0    0  501  0.00000000000E+00  0.00000000000E+00 -0.12725906423E+04  0.12725912761E+04  0.12699999809E+01 0. -1.
    10030    2    1    2    0    0  0.00000000000E+00  0.00000000000E+00 -0.57687562396E+03  0.19683074536E+04  0.18818737328E+04 0.  0.
        5    1    3    3  502    0 -0.79623729127E+03 -0.34455983128E+03  0.92465562256E+02  0.87251777720E+03  0.46999998093E+01 0.  1.
       -5    1    3    3    0  502  0.79623729127E+03  0.34455983128E+03 -0.66934118622E+03  0.10957896764E+04  0.46999998093E+01 0. -1.
</event>
<event>
 5   0  0.6531625E-05  0.1997223E+04  0.7818609E-02  0.8607920E-01
       -3   -1    0    0    0  501  0.00000000000E+00  0.00000000000E+00  0.10807874415E+04  0.10807874462E+04  0.10100000352E+00 0.  1.
        3   -1    0    0  501    0  0.00000000000E+00  0.00000000000E+00 -0.92268380540E+03  0.92268381093E+03  0.10100000352E+00 0. -1.
    10030    2    1    2    0    0  0.00000000000E+00  0.00000000000E+00  0.15810363607E+03  0.20034712571E+04  0.19972231519E+04 0.  0.
        5    1    3    3  502    0 -0.47179712707E+03 -0.75676276069E+03  0.52981332466E+03  0.10373074058E+04  0.46999998093E+01 0.  1.
       -5    1    3    3    0  502  0.47179712707E+03  0.75676276069E+03 -0.37170968859E+03  0.96616385136E+03  0.46999998093E+01 0. -1.
</event>
<event>
 5   0  0.8577422E-05  0.2026515E+04  0.7818609E-02  0.8594324E-01
       -1   -1    0    0    0  501  0.00000000000E+00  0.00000000000E+00  0.54448083683E+03  0.54448083685E+03  0.50400001928E-02 0.  1.
        1   -1    0    0  501    0  0.00000000000E+00  0.00000000000E+00 -0.18856320936E+04  0.18856320936E+04  0.50400001928E-02 0. -1.
    10030    2    1    2    0    0  0.00000000000E+00  0.00000000000E+00 -0.13411512568E+04  0.24301129305E+04  0.20265147819E+04 0.  0.
        2    1    3    3  502    0  0.75854794767E+02 -0.54845123591E+03 -0.16881929572E+04  0.17766677148E+04  0.25500000920E-02 0. -1.
       -2    1    3    3    0  502 -0.75854794767E+02  0.54845123591E+03  0.34704170042E+03  0.65344521568E+03  0.25500000920E-02 0.  1.
</event>
<event>
 5   0  0.8765057E-05  0.1973299E+04  0.7818609E-02  0.8619207E-01
       -1   -1    0    0    0  501  0.00000000000E+00  0.00000000000E+00  0.76021092127E+03  0.76021092129E+03  0.50400001928E-02 0. -1.
        1   -1    0    0  501    0  0.00000000000E+00  0.00000000000E+00 -0.12805357433E+04  0.12805357434E+04  0.50400001928E-02 0.  1.
    10030    2    1    2    0    0  0.00000000000E+00  0.00000000000E+00 -0.52032482208E+03  0.20407466646E+04  0.19732990216E+04 0.  0.
        3    1    3    3  502    0 -0.51641105633E+03 -0.60734042940E+03  0.34102854923E+03  0.86708895614E+03  0.10100000352E+00 0. -1.
       -3    1    3    3    0  502  0.51641105633E+03  0.60734042940E+03 -0.86135337130E+03  0.11736577085E+04  0.10100000352E+00 0.  1.
</event>
<event>
 5   0  0.8881384E-05  0.2012040E+04  0.7818609E-02  0.8601012E-01
        1   -1    0    0  501    0  0.00000000000E+00  0.00000000000E+00  0.22259316307E+04  0.22259316307E+04  0.50400001928E-02 0.  1.
       -1   -1    0    0    0  501  0.00000000000E+00  0.00000000000E+00 -0.45467518252E+03  0.45467518255E+03  0.50400001928E-02 0. -1.
    10030    2    1    2    0    0  0.00000000000E+00  0.00000000000E+00  0.17712564482E+04  0.26806068132E+04  0.20120396323E+04 0.  0.
        5    1    3    3  502    0  0.43104616732E+03  0.73591222419E+03  0.17477525961E+03  0.87059524547E+03  0.46999998093E+01 0.  1.
       -5    1    3    3    0  502 -0.43104616732E+03 -0.73591222419E+03  0.15964811886E+04  0.18100115678E+04  0.46999998093E+01 0. -1.
</event>
<event>
 5   0  0.1807498E-04  0.1959875E+04  0.7818609E-02  0.8625613E-01
        2   -1    0    0  501    0  0.00000000000E+00  0.00000000000E+00  0.64497243910E+03  0.64497243911E+03  0.25500000920E-02 0. -1.
       -2   -1    0    0    0  501  0.00000000000E+00  0.00000000000E+00 -0.14888666841E+04  0.14888666842E+04  0.25500000920E-02 0.  1.
    10030    2    1    2    0    0  0.00000000000E+00  0.00000000000E+00 -0.84389424505E+03  0.21338391233E+04  0.19598754826E+04 0.  0.
        5    1    3    3  502    0  0.45330854225E+03 -0.86644493795E+03 -0.35274067656E+03  0.10395496813E+04  0.46999998093E+01 0. -1.
       -5    1    3    3    0  502 -0.45330854225E+03  0.86644493795E+03 -0.49115356849E+03  0.10942894420E+04  0.46999998093E+01 0.  1.
</event>
<event>
 5   0  0.8861350E-05  0.1992135E+04  0.7818609E-02  0.8610307E-01
       -1   -1    0    0    0  501  0.00000000000E+00  0.00000000000E+00  0.84569519018E+03  0.84569519019E+03  0.50400001928E-02 0. -1.
        1   -1    0    0  501    0  0.00000000000E+00  0.00000000000E+00 -0.11731769545E+04  0.11731769545E+04  0.50400001928E-02 0.  1.
    10030    2    1    2    0    0  0.00000000000E+00  0.00000000000E+00 -0.32748176429E+03  0.20188721447E+04  0.19921346417E+04 0.  0.
        1    1    3    3  502    0 -0.67743380857E+03  0.65394484803E+03 -0.49304780579E+03  0.10628530322E+04  0.50400001928E-02 0.  1.
       -1    1    3    3    0  502  0.67743380857E+03 -0.65394484803E+03  0.16556604151E+03  0.95601911246E+03  0.50400001928E-02 0. -1.
</event>
<event>
 5   0  0.8881384E-05  0.2070415E+04  0.7818609E-02  0.8574389E-01
       -1   -1    0    0    0  501  0.00000000000E+00  0.00000000000E+00  0.69939400694E+03  0.69939400696E+03  0.50400001928E-02 0. -1.
        1   -1    0    0  501    0  0.00000000000E+00  0.00000000000E+00 -0.15322621038E+04  0.15322621038E+04  0.50400001928E-02 0.  1.
    10030    2    1    2    0    0  0.00000000000E+00  0.00000000000E+00 -0.83286809682E+03  0.22316561107E+04  0.20704153520E+04 0.  0.
        5    1    3    3  502    0 -0.55324419207E+03  0.57585742323E+03  0.29361051004E+03  0.85083496023E+03  0.46999998093E+01 0. -1.
       -5    1    3    3    0  502  0.55324419207E+03 -0.57585742323E+03 -0.11264786069E+04  0.13808211505E+04  0.46999998093E+01 0.  1.
</event>
<event>
 5   0  0.8958919E-05  0.2011699E+04  0.7818609E-02  0.8601170E-01
        1   -1    0    0  501    0  0.00000000000E+00  0.00000000000E+00  0.95817201387E+03  0.95817201389E+03  0.50400001928E-02 0.  1.
       -1   -1    0    0    0  501  0.00000000000E+00  0.00000000000E+00 -0.10558994769E+04  0.10558994769E+04  0.50400001928E-02 0. -1.
    10030    2    1    2    0    0  0.00000000000E+00  0.00000000000E+00 -0.97727463043E+02  0.20140714908E+04  0.20116991110E+04 0.  0.
        4    1    3    3  502    0 -0.57827734670E+03  0.55985073152E+03 -0.65281154786E+03  0.10363407071E+04  0.12699999809E+01 0. -1.
       -4    1    3    3    0  502  0.57827734670E+03 -0.55985073152E+03  0.55508408482E+03  0.97773078371E+03  0.12699999809E+01 0.  1.
</event>
<event>
 5   0  0.8577422E-05  0.2000671E+04  0.7818609E-02  0.8606307E-01
       -1   -1    0    0    0  501  0.00000000000E+00  0.00000000000E+00  0.12478243751E+04  0.12478243751E+04  0.50400001928E-02 0. -1.
        1   -1    0    0  501    0  0.00000000000E+00  0.00000000000E+00 -0.80193276980E+03  0.80193276981E+03  0.50400001928E-02 0.  1.
    10030    2    1    2    0    0  0.00000000000E+00  0.00000000000E+00  0.44589160526E+03  0.20497571449E+04  0.20006711447E+04 0.  0.
        2    1    3    3  502    0  0.11244960389E+03 -0.80354977317E+03 -0.37650256928E+03  0.89447824795E+03  0.25500000920E-02 0.  1.
       -2    1    3    3    0  502 -0.11244960389E+03  0.80354977317E+03  0.82239417453E+03  0.11552788969E+04  0.25500000920E-02 0. -1.
</event>
<event>
 5   0  0.1782172E-04  0.2007916E+04  0.7818609E-02  0.8602929E-01
        2   -1    0    0  501    0  0.00000000000E+00  0.00000000000E+00  0.80017396052E+03  0.80017396053E+03  0.25500000920E-02 0.  1.
       -2   -1    0    0    0  501  0.00000000000E+00  0.00000000000E+00 -0.12596405377E+04  0.12596405378E+04  0.25500000920E-02 0. -1.
    10030    2    1    2    0    0  0.00000000000E+00  0.00000000000E+00 -0.45946657723E+03  0.20598144983E+04  0.20079158926E+04 0.  0.
        2    1    3    3  502    0 -0.85228230819E+03 -0.21890152523E+03  0.26611126559E+03  0.91930311447E+03  0.25500000920E-02 0.  1.
       -2    1    3    3    0  502  0.85228230819E+03  0.21890152523E+03 -0.72557784281E+03  0.11405113838E+04  0.25500000920E-02 0. -1.
</event>
<event>
 5   0  0.1812865E-04  0.1982342E+04  0.7818609E-02  0.8614921E-01
        2   -1    0    0  501    0  0.00000000000E+00  0.00000000000E+00  0.18315912167E+04  0.18315912167E+04  0.25500000920E-02 0. -1.
       -2   -1    0    0    0  501  0.00000000000E+00  0.00000000000E+00 -0.53637536157E+03  0.53637536157E+03  0.25500000920E-02 0.  1.
    10030    2    1    2    0    0  0.00000000000E+00  0.00000000000E+00  0.12952158551E+04  0.23679665783E+04  0.19823424539E+04 0.  0.
        3    1    3    3  502    0  0.15762954760E+01 -0.95079697842E+03  0.98208261781E+03  0.13669322065E+04  0.10100000352E+00 0.  1.
       -3    1    3    3    0  502 -0.15762954760E+01  0.95079697842E+03  0.31313323734E+03  0.10010343717E+04  0.10100000352E+00 0. -1.
</event>
<event>
 5   0  0.1893687E-04  0.2034232E+04  0.7818609E-02  0.8590781E-01
       -2   -1    0    0    0  501  0.00000000000E+00  0.00000000000E+00  0.46431266568E+03  0.46431266569E+03  0.25500000920E-02 0. -1.
        2   -1    0    0  501    0  0.00000000000E+00  0.00000000000E+00 -0.22280783388E+04  0.22280783389E+04  0.25500000920E-02 0.  1.
    10030    2    1    2    0    0  0.00000000000E+00  0.00000000000E+00 -0.17637656732E+04  0.26923910045E+04  0.20342320348E+04 0.  0.
        4    1    3    3  502    0  0.94483662211E+02  0.43481396057E+03  0.32865729110E+03  0.55317951031E+03  0.12699999809E+01 0. -1.
       -4    1    3    3    0  502 -0.94483662211E+02 -0.43481396057E+03 -0.20924229643E+04  0.21392114942E+04  0.12699999809E+01 0.  1.
</event>
<event>
 5   0  0.8881384E-05  0.2024699E+04  0.7818609E-02  0.8595159E-01
        1   -1    0    0  501    0  0.00000000000E+00  0.00000000000E+00  0.16089926454E+04  0.16089926454E+04  0.50400001928E-02 0.  1.
       -1   -1    0    0    0  501  0.00000000000E+00  0.00000000000E+00 -0.63695231306E+03  0.63695231308E+03  0.50400001928E-02 0. -1.
    10030    2    1    2    0    0  0.00000000000E+00  0.00000000000E+00  0.97204033237E+03  0.22459449585E+04  0.20246990762E+04 0.  0.
        5    1    3    3  502    0  0.76646710053E+03  0.58002304919E+03  0.13360808315E+03  0.97044925868E+03  0.46999998093E+01 0.  1.
       -5    1    3    3    0  502 -0.76646710053E+03 -0.58002304919E+03  0.83843224922E+03  0.12754956998E+04  0.46999998093E+01 0. -1.
</event>
<event>
 5   0  0.1834645E-04  0.2040795E+04  0.7818609E-02  0.8587782E-01
       -2   -1    0    0    0  501  0.00000000000E+00  0.00000000000E+00  0.13027470539E+04  0.13027470539E+04  0.25500000920E-02 0. -1.
        2   -1    0    0  501    0  0.00000000000E+00  0.00000000000E+00 -0.79924231916E+03  0.79924231916E+03  0.25500000920E-02 0.  1.
    10030    2    1    2    0    0  0.00000000000E+00  0.00000000000E+00  0.50350473476E+03  0.21019893731E+04  0.20407945283E+04 0.  0.
        1    1    3    3  502    0 -0.47629448266E+02  0.94498983437E+03  0.64522342185E+03  0.11452456573E+04  0.50400001928E-02 0. -1.
       -1    1    3    3    0  502  0.47629448266E+02 -0.94498983437E+03 -0.14171868710E+03  0.95674371579E+03  0.50400001928E-02 0.  1.
</event>
<event>
 5   0  0.1807498E-04  0.1992743E+04  0.7818609E-02  0.8610021E-01
        2   -1    0    0  501    0  0.00000000000E+00  0.00000000000E+00  0.91564977427E+03  0.91564977427E+03  0.25500000920E-02 0.  1.
       -2   -1    0    0    0  501  0.00000000000E+00  0.00000000000E+00 -0.10842091281E+04  0.10842091281E+04  0.25500000920E-02 0. -1.
    10030    2    1    2    0    0  0.00000000000E+00  0.00000000000E+00 -0.16855935382E+03  0.19998589024E+04  0.19927426762E+04 0.  0.
        5    1    3    3  502    0 -0.52166784234E+03 -0.65046802685E+03  0.46309245925E+03  0.95379384958E+03  0.46999998093E+01 0.  1.
       -5    1    3    3    0  502  0.52166784234E+03  0.65046802685E+03 -0.63165181307E+03  0.10460650528E+04  0.46999998093E+01 0. -1.
</event>
<event>
 5   0  0.8958919E-05  0.1994610E+04  0.7818609E-02  0.8609145E-01
       -1   -1    0    0    0  501  0.00000000000E+00  0.00000000000E+00  0.37313530098E+03  0.37313530101E+03  0.50400001928E-02 0.  1.
        1   -1    0    0  501    0  0.00000000000E+00  0.00000000000E+00 -0.26655672275E+04  0.26655672275E+04  0.50400001928E-02 0. -1.
    10030    2    1    2    0    0  0.00000000000E+00  0.00000000000E+00 -0.22924319265E+04  0.30387025285E+04  0.19946099666E+04 0.  0.
        4    1    3    3  502    0  0.22685545208E+03 -0.58125599390E+03 -0.23314750017E+04  0.24135242330E+04  0.12699999809E+01 0. -1.
       -4    1    3    3    0  502 -0.22685545208E+03  0.58125599390E+03  0.39043075207E+02  0.62517829554E+03  0.12699999809E+01 0.  1.
</event>
<event>
 5   0  0.8577422E-05  0.1989180E+04  0.7818609E-02  0.8611696E-01
        1   -1    0    0  501    0  0.00000000000E+00  0.00000000000E+00  0.69285649574E+03  0.69285649575E+03  0.50400001928E-02 0. -1.
       -1   -1    0    0    0  501  0.00000000000E+00  0.00000000000E+00 -0.14277266168E+04  0.14277266168E+04  0.50400001928E-02 0.  1.
    10030    2    1    2    0    0  0.00000000000E+00  0.00000000000E+00 -0.73487012103E+03  0.21205831125E+04  0.19891803946E+04 0.  0.
        2    1    3    3  502    0  0.31451188004E+02  0.98087572736E+03 -0.53967297548E+03  0.11199791472E+04  0.25500000920E-02 0.  1.
       -2    1    3    3    0  502 -0.31451188004E+02 -0.98087572736E+03 -0.19519714554E+03  0.10006039653E+04  0.25500000920E-02 0. -1.
</event>
<event>
 5   0  0.8577422E-05  0.2005809E+04  0.7818609E-02  0.8603910E-01
       -1   -1    0    0    0  501  0.00000000000E+00  0.00000000000E+00  0.96226703739E+03  0.96226703740E+03  0.50400001928E-02 0.  1.
        1   -1    0    0  501    0  0.00000000000E+00  0.00000000000E+00 -0.10452577460E+04  0.10452577460E+04  0.50400001928E-02 0. -1.
    10030    2    1    2    0    0  0.00000000000E+00  0.00000000000E+00 -0.82990708634E+02  0.20075247834E+04  0.20058086395E+04 0.  0.
        2    1    3    3  502    0  0.65584626053E+03 -0.42061189897E+03  0.59052603903E+03  0.97763474252E+03  0.25500000920E-02 0.  1.
       -2    1    3    3    0  502 -0.65584626053E+03  0.42061189897E+03 -0.67351674766E+03  0.10298900409E+04  0.25500000920E-02 0. -1.
</event>
<event>
 5   0  0.8881384E-05  0.1993110E+04  0.7818609E-02  0.8609849E-01
        1   -1    0    0  501    0  0.00000000000E+00  0.00000000000E+00  0.32347214232E+04  0.32347214232E+04  0.50400001928E-02 0.  1.
       -1   -1    0    0    0  501  0.00000000000E+00  0.00000000000E+00 -0.30701940937E+03  0.30701940941E+03  0.50400001928E-02 0. -1.
    10030    2    1    2    0    0  0.00000000000E+00  0.00000000000E+00  0.29277020139E+04  0.35417408327E+04  0.19931103943E+04 0.  0.
        5    1    3    3  502    0 -0.73488451570E+03 -0.31331491682E+03  0.25224351407E+04  0.26459256637E+04  0.46999998093E+01 0.  1.
       -5    1    3    3    0  502  0.73488451570E+03  0.31331491682E+03  0.40526687314E+03  0.89581516899E+03  0.46999998093E+01 0. -1.
</event>
<event>
 5   0  0.8577422E-05  0.1642677E+04  0.7818609E-02  0.8794751E-01
        1   -1    0    0  501    0  0.00000000000E+00  0.00000000000E+00  0.21640004324E+04  0.21640004324E+04  0.50400001928E-02 0. -1.
       -1   -1    0    0    0  501  0.00000000000E+00  0.00000000000E+00 -0.31173601617E+03  0.31173601621E+03  0.50400001928E-02 0.  1.
    10030    2    1    2    0    0  0.00000000000E+00  0.00000000000E+00  0.18522644162E+04  0.24757364486E+04  0.16426769297E+04 0.  0.
        2    1    3    3  502    0  0.79790483897E+03  0.19179400728E+03  0.97745897448E+03  0.12762692193E+04  0.25500000920E-02 0. -1.
       -2    1    3    3    0  502 -0.79790483897E+03 -0.19179400728E+03  0.87480544170E+03  0.11994672293E+04  0.25500000920E-02 0.  1.
</event>
<event>
 5   0  0.1782172E-04  0.1960325E+04  0.7818609E-02  0.8625398E-01
       -2   -1    0    0    0  501  0.00000000000E+00  0.00000000000E+00  0.64166888043E+03  0.64166888044E+03  0.25500000920E-02 0. -1.
        2   -1    0    0  501    0  0.00000000000E+00  0.00000000000E+00 -0.14972177676E+04  0.14972177676E+04  0.25500000920E-02 0.  1.
    10030    2    1    2    0    0  0.00000000000E+00  0.00000000000E+00 -0.85554888715E+03  0.21388866480E+04  0.19603245126E+04 0.  0.
        2    1    3    3  502    0  0.60826816873E+03 -0.17419472111E+03 -0.12445499289E+04  0.13961513140E+04  0.25500000920E-02 0.  1.
       -2    1    3    3    0  502 -0.60826816873E+03  0.17419472111E+03  0.38900104176E+03  0.74273533405E+03  0.25500000920E-02 0. -1.
</event>
<event>
 5   0  0.1782172E-04  0.1997135E+04  0.7818609E-02  0.8607961E-01
       -2   -1    0    0    0  501  0.00000000000E+00  0.00000000000E+00  0.58211762751E+03  0.58211762751E+03  0.25500000920E-02 0. -1.
        2   -1    0    0  501    0  0.00000000000E+00  0.00000000000E+00 -0.17129483320E+04  0.17129483320E+04  0.25500000920E-02 0.  1.
    10030    2    1    2    0    0  0.00000000000E+00  0.00000000000E+00 -0.11308307045E+04  0.22950659595E+04  0.19971353676E+04 0.  0.
        2    1    3    3  502    0  0.79563974181E+03  0.19354666605E+03 -0.12221935105E+04  0.14711423751E+04  0.25500000920E-02 0.  1.
       -2    1    3    3    0  502 -0.79563974181E+03 -0.19354666605E+03  0.91362805976E+02  0.82392358445E+03  0.25500000920E-02 0. -1.
</event>
<event>
 5   0  0.1812865E-04  0.1996669E+04  0.7818609E-02  0.8608180E-01
       -2   -1    0    0    0  501  0.00000000000E+00  0.00000000000E+00  0.23408383666E+04  0.23408383666E+04  0.25500000920E-02 0. -1.
        2   -1    0    0  501    0  0.00000000000E+00  0.00000000000E+00 -0.42577551810E+03  0.42577551811E+03  0.25500000920E-02 0.  1.
    10030    2    1    2    0    0  0.00000000000E+00  0.00000000000E+00  0.19150628485E+04  0.27666138847E+04  0.19966688943E+04 0.  0.
        3    1    3    3  502    0 -0.46254629779E+03  0.69059464565E+03  0.19129571456E+03  0.85291506190E+03  0.10100000352E+00 0. -1.
       -3    1    3    3    0  502  0.46254629779E+03 -0.69059464565E+03  0.17237671339E+04  0.19136988228E+04  0.10100000352E+00 0.  1.
</event>
<event>
 5   0  0.8861350E-05  0.2003839E+04  0.7818609E-02  0.8604828E-01
       -1   -1    0    0    0  501  0.00000000000E+00  0.00000000000E+00  0.99304667210E+03  0.99304667211E+03  0.50400001928E-02 0. -1.
        1   -1    0    0  501    0  0.00000000000E+00  0.00000000000E+00 -0.10108720495E+04  0.10108720495E+04  0.50400001928E-02 0.  1.
    10030    2    1    2    0    0  0.00000000000E+00  0.00000000000E+00 -0.17825377377E+02  0.20039187216E+04  0.20038394394E+04 0.  0.
        1    1    3    3  502    0  0.27469087416E+03  0.58997248678E+02 -0.97067178671E+03  0.10105144577E+04  0.50400001928E-02 0.  1.
       -1    1    3    3    0  502 -0.27469087416E+03 -0.58997248678E+02  0.95284640934E+03  0.99340426389E+03  0.50400001928E-02 0. -1.
</event>
<event>
 5   0  0.8577422E-05  0.1972670E+04  0.7818609E-02  0.8619506E-01
        1   -1    0    0  501    0  0.00000000000E+00  0.00000000000E+00  0.12772646144E+04  0.12772646144E+04  0.50400001928E-02 0. -1.
       -1   -1    0    0    0  501  0.00000000000E+00  0.00000000000E+00 -0.76167205404E+03  0.76167205405E+03  0.50400001928E-02 0.  1.
    10030    2    1    2    0    0  0.00000000000E+00  0.00000000000E+00  0.51559256034E+03  0.20389366684E+04  0.19726700306E+04 0.  0.
        2    1    3    3  502    0  0.65320264864E+03  0.48706598923E+03 -0.31670795929E+03  0.87419157485E+03  0.25500000920E-02 0.  1.
       -2    1    3    3    0  502 -0.65320264864E+03 -0.48706598923E+03  0.83230051963E+03  0.11647450936E+04  0.25500000920E-02 0. -1.
</event>
<event>
 5   0  0.8577422E-05  0.2033668E+04  0.7818609E-02  0.8591040E-01
        1   -1    0    0  501    0  0.00000000000E+00  0.00000000000E+00  0.15348128443E+04  0.15348128443E+04  0.50400001928E-02 0. -1.
       -1   -1    0    0    0  501  0.00000000000E+00  0.00000000000E+00 -0.67366595209E+03  0.67366595211E+03  0.50400001928E-02 0.  1.
    10030    2    1    2    0    0  0.00000000000E+00  0.00000000000E+00  0.86114689219E+03  0.22084787964E+04  0.20336677763E+04 0.  0.
        2    1    3    3  502    0  0.12155011606E+03  0.80242794719E+03  0.10958381388E+04  0.13636444799E+04  0.25500000920E-02 0. -1.
       -2    1    3    3    0  502 -0.12155011606E+03 -0.80242794719E+03 -0.23469124657E+03  0.84483431651E+03  0.25500000920E-02 0.  1.
</event>
<event>
 5   0  0.1812865E-04  0.2016033E+04  0.7818609E-02  0.8599161E-01
        2   -1    0    0  501    0  0.00000000000E+00  0.00000000000E+00  0.15282229732E+04  0.15282229732E+04  0.25500000920E-02 0. -1.
       -2   -1    0    0    0  501  0.00000000000E+00  0.00000000000E+00 -0.66488831000E+03  0.66488831001E+03  0.25500000920E-02 0.  1.
    10030    2    1    2    0    0  0.00000000000E+00  0.00000000000E+00  0.86333466317E+03  0.21931112832E+04  0.20160333231E+04 0.  0.
        3    1    3    3  502    0  0.41744626323E+03  0.66422625244E+03  0.11202244057E+04  0.13676112849E+04  0.10100000352E+00 0. -1.
       -3    1    3    3    0  502 -0.41744626323E+03 -0.66422625244E+03 -0.25688974258E+03  0.82549999828E+03  0.10100000352E+00 0.  1.
</event>
<event>
 5   0  0.1782172E-04  0.2062909E+04  0.7818609E-02  0.8577761E-01
       -2   -1    0    0    0  501  0.00000000000E+00  0.00000000000E+00  0.11261995859E+04  0.11261995859E+04  0.25500000920E-02 0.  1.
        2   -1    0    0  501    0  0.00000000000E+00  0.00000000000E+00 -0.94468012373E+03  0.94468012373E+03  0.25500000920E-02 0. -1.
    10030    2    1    2    0    0  0.00000000000E+00  0.00000000000E+00  0.18151946218E+03  0.20708797096E+04  0.20629089792E+04 0.  0.
        2    1    3    3  502    0  0.95792177324E+03  0.11820713922E+03  0.45591140504E+03  0.10674466079E+04  0.25500000920E-02 0.  1.
       -2    1    3    3    0  502 -0.95792177324E+03 -0.11820713922E+03 -0.27439194286E+03  0.10034331018E+04  0.25500000920E-02 0. -1.
</event>
<event>
 5   0  0.1782172E-04  0.1988746E+04  0.7818609E-02  0.8611900E-01
        2   -1    0    0  501    0  0.00000000000E+00  0.00000000000E+00  0.13152589769E+04  0.13152589769E+04  0.25500000920E-02 0.  1.
       -2   -1    0    0    0  501  0.00000000000E+00  0.00000000000E+00 -0.75177435233E+03  0.75177435234E+03  0.25500000920E-02 0. -1.
    10030    2    1    2    0    0  0.00000000000E+00  0.00000000000E+00  0.56348462452E+03  0.20670333292E+04  0.19887463041E+04 0.  0.
        2    1    3    3  502    0 -0.33764437455E+03  0.40991852016E+03  0.11555145706E+04  0.12717117754E+04  0.25500000920E-02 0.  1.
       -2    1    3    3    0  502  0.33764437455E+03 -0.40991852016E+03 -0.59202994609E+03  0.79532155378E+03  0.25500000920E-02 0. -1.
</event>
<event>
 5   0  0.8958919E-05  0.2002521E+04  0.7818609E-02  0.8605443E-01
       -1   -1    0    0    0  501  0.00000000000E+00  0.00000000000E+00  0.99825299839E+03  0.99825299841E+03  0.50400001928E-02 0. -1.
        1   -1    0    0  501    0  0.00000000000E+00  0.00000000000E+00 -0.10042770045E+04  0.10042770045E+04  0.50400001928E-02 0.  1.
    10030    2    1    2    0    0  0.00000000000E+00  0.00000000000E+00 -0.60240061120E+01  0.20025300029E+04  0.20025209422E+04 0.  0.
        4    1    3    3  502    0 -0.60614383688E+03 -0.38733430375E+03  0.69346993778E+03  0.99916984610E+03  0.12699999809E+01 0. -1.
       -4    1    3    3    0  502  0.60614383688E+03  0.38733430375E+03 -0.69949394390E+03  0.10033601568E+04  0.12699999809E+01 0.  1.
</event>
<event>
 5   0  0.6531625E-05  0.1842085E+04  0.7818609E-02  0.8684234E-01
       -3   -1    0    0    0  501  0.00000000000E+00  0.00000000000E+00  0.52501575996E+03  0.52501576967E+03  0.10100000352E+00 0.  1.
        3   -1    0    0  501    0  0.00000000000E+00  0.00000000000E+00 -0.16157983003E+04  0.16157983034E+04  0.10100000352E+00 0. -1.
    10030    2    1    2    0    0  0.00000000000E+00  0.00000000000E+00 -0.10907825403E+04  0.21408140731E+04  0.18420853252E+04 0.  0.
        1    1    3    3  502    0 -0.48618393884E+03  0.43090115934E+03  0.21338031748E+03  0.68379952575E+03  0.50400001928E-02 0.  1.
       -1    1    3    3    0  502  0.48618393884E+03 -0.43090115934E+03 -0.13041628578E+04  0.14570145473E+04  0.50400001928E-02 0. -1.
</event>
<event>
 5   0  0.1834645E-04  0.1988664E+04  0.7818609E-02  0.8611939E-01
        2   -1    0    0  501    0  0.00000000000E+00  0.00000000000E+00  0.16976844620E+04  0.16976844620E+04  0.25500000920E-02 0. -1.
       -2   -1    0    0    0  501  0.00000000000E+00  0.00000000000E+00 -0.58237930003E+03  0.58237930004E+03  0.25500000920E-02 0.  1.
    10030    2    1    2    0    0  0.00000000000E+00  0.00000000000E+00  0.11153051619E+04  0.22800637620E+04  0.19886641633E+04 0.  0.
        1    1    3    3  502    0 -0.94759994468E+03 -0.30075374446E+03  0.53786642236E+03  0.11303533776E+04  0.50400001928E-02 0.  1.
       -1    1    3    3    0  502  0.94759994468E+03  0.30075374446E+03  0.57743873956E+03  0.11497103844E+04  0.50400001928E-02 0. -1.
</event>
<event>
 5   0  0.1812865E-04  0.2049638E+04  0.7818609E-02  0.8583759E-01
        2   -1    0    0  501    0  0.00000000000E+00  0.00000000000E+00  0.10284489622E+04  0.10284489622E+04  0.25500000920E-02 0. -1.
       -2   -1    0    0    0  501  0.00000000000E+00  0.00000000000E+00 -0.10212013814E+04  0.10212013814E+04  0.25500000920E-02 0.  1.
    10030    2    1    2    0    0  0.00000000000E+00  0.00000000000E+00  0.72475808035E+01  0.20496503437E+04  0.20496375299E+04 0.  0.
        3    1    3    3  502    0  0.16348757026E+03 -0.93104169325E+02  0.10110311599E+04  0.10283873727E+04  0.10100000352E+00 0. -1.
       -3    1    3    3    0  502 -0.16348757026E+03  0.93104169325E+02 -0.10037835791E+04  0.10212629709E+04  0.10100000352E+00 0.  1.
</event>
<event>
 5   0  0.8577422E-05  0.1985359E+04  0.7818609E-02  0.8613497E-01
       -1   -1    0    0    0  501  0.00000000000E+00  0.00000000000E+00  0.36846809266E+03  0.36846809270E+03  0.50400001928E-02 0. -1.
        1   -1    0    0  501    0  0.00000000000E+00  0.00000000000E+00 -0.26743488536E+04  0.26743488536E+04  0.50400001928E-02 0.  1.
    10030    2    1    2    0    0  0.00000000000E+00  0.00000000000E+00 -0.23058807609E+04  0.30428169463E+04  0.19853586288E+04 0.  0.
        2    1    3    3  502    0  0.38964236445E+02 -0.77465876246E+03 -0.21024253745E+04  0.22409388357E+04  0.25500000920E-02 0.  1.
       -2    1    3    3    0  502 -0.38964236445E+02  0.77465876246E+03 -0.20345538642E+03  0.80187811059E+03  0.25500000920E-02 0. -1.
</event>
<event>
 5   0  0.1812865E-04  0.2021865E+04  0.7818609E-02  0.8596466E-01
       -2   -1    0    0    0  501  0.00000000000E+00  0.00000000000E+00  0.86548004534E+03  0.86548004534E+03  0.25500000920E-02 0. -1.
        2   -1    0    0  501    0  0.00000000000E+00  0.00000000000E+00 -0.11808290922E+04  0.11808290922E+04  0.25500000920E-02 0.  1.
    10030    2    1    2    0    0  0.00000000000E+00  0.00000000000E+00 -0.31534904686E+03  0.20463091375E+04  0.20218645021E+04 0.  0.
        3    1    3    3  502    0 -0.49494028588E+02 -0.15584313555E+03  0.85200765877E+03  0.86755622444E+03  0.10100000352E+00 0. -1.
       -3    1    3    3    0  502  0.49494028588E+02  0.15584313555E+03 -0.11673567056E+04  0.11787529131E+04  0.10100000352E+00 0.  1.
</event>
<event>
 5   0  0.1782172E-04  0.1949417E+04  0.7818609E-02  0.8630642E-01
        2   -1    0    0  501    0  0.00000000000E+00  0.00000000000E+00  0.11242981409E+04  0.11242981409E+04  0.25500000920E-02 0. -1.
       -2   -1    0    0    0  501  0.00000000000E+00  0.00000000000E+00 -0.84502233521E+03  0.84502233522E+03  0.25500000920E-02 0.  1.
    10030    2    1    2    0    0  0.00000000000E+00  0.00000000000E+00  0.27927580568E+03  0.19693204761E+04  0.19494173904E+04 0.  0.
        2    1    3    3  502    0  0.28454582146E+03 -0.52383643017E+03  0.91867019112E+03  0.10951373659E+04  0.25500000920E-02 0. -1.
       -2    1    3    3    0  502 -0.28454582146E+03  0.52383643017E+03 -0.63939438544E+03  0.87418311023E+03  0.25500000920E-02 0.  1.
</event>
<event>
 5   0  0.1807498E-04  0.1973375E+04  0.7818609E-02  0.8619171E-01
        2   -1    0    0  501    0  0.00000000000E+00  0.00000000000E+00  0.11165890835E+04  0.11165890835E+04  0.25500000920E-02 0. -1.
       -2   -1    0    0    0  501  0.00000000000E+00  0.00000000000E+00 -0.87189822643E+03  0.87189822644E+03  0.25500000920E-02 0.  1.
    10030    2    1    2    0    0  0.00000000000E+00  0.00000000000E+00  0.24469085711E+03  0.19884873100E+04  0.19733748165E+04 0.  0.
        5    1    3    3  502    0  0.54841070337E+03 -0.18241792443E+03  0.92815662388E+03  0.10934017593E+04  0.46999998093E+01 0. -1.
       -5    1    3    3    0  502 -0.54841070337E+03  0.18241792443E+03 -0.68346576678E+03  0.89508555070E+03  0.46999998093E+01 0.  1.
</event>
<event>
 5   0  0.8881384E-05  0.2078414E+04  0.7818609E-02  0.8570812E-01
        1   -1    0    0  501    0  0.00000000000E+00  0.00000000000E+00  0.12415916667E+04  0.12415916668E+04  0.50400001928E-02 0.  1.
       -1   -1    0    0    0  501  0.00000000000E+00  0.00000000000E+00 -0.86981156317E+03  0.86981156318E+03  0.50400001928E-02 0. -1.
    10030    2    1    2    0    0  0.00000000000E+00  0.00000000000E+00  0.37178010358E+03  0.21114032299E+04  0.20784136147E+04 0.  0.
        5    1    3    3  502    0  0.64749330856E+03 -0.27912796829E+03 -0.58961978119E+03  0.91914829254E+03  0.46999998093E+01 0. -1.
       -5    1    3    3    0  502 -0.64749330856E+03  0.27912796829E+03  0.96139988476E+03  0.11922549374E+04  0.46999998093E+01 0.  1.
</event>
<event>
 5   0  0.8881384E-05  0.1989713E+04  0.7818609E-02  0.8611446E-01
       -1   -1    0    0    0  501  0.00000000000E+00  0.00000000000E+00  0.79896503314E+03  0.79896503316E+03  0.50400001928E-02 0. -1.
        1   -1    0    0  501    0  0.00000000000E+00  0.00000000000E+00 -0.12387763901E+04  0.12387763901E+04  0.50400001928E-02 0.  1.
    10030    2    1    2    0    0  0.00000000000E+00  0.00000000000E+00 -0.43981135697E+03  0.20377414233E+04  0.19897125618E+04 0.  0.
        5    1    3    3  502    0  0.40538005033E+02  0.32509504900E+02  0.79756286092E+03  0.79926766786E+03  0.46999998093E+01 0. -1.
       -5    1    3    3    0  502 -0.40538005033E+02 -0.32509504900E+02 -0.12373742179E+04  0.12384737554E+04  0.46999998093E+01 0.  1.
</event>
<event>
 5   0  0.1834645E-04  0.1991426E+04  0.7818609E-02  0.8610640E-01
        2   -1    0    0  501    0  0.00000000000E+00  0.00000000000E+00  0.27245545212E+04  0.27245545212E+04  0.25500000920E-02 0. -1.
       -2   -1    0    0    0  501  0.00000000000E+00  0.00000000000E+00 -0.36389217362E+03  0.36389217363E+03  0.25500000920E-02 0.  1.
    10030    2    1    2    0    0  0.00000000000E+00  0.00000000000E+00  0.23606623476E+04  0.30884466948E+04  0.19914256872E+04 0.  0.
        1    1    3    3  502    0  0.79307794702E+03 -0.60191428577E+03  0.11600728772E+04  0.15287388652E+04  0.50400001928E-02 0.  1.
       -1    1    3    3    0  502 -0.79307794702E+03  0.60191428577E+03  0.12005894703E+04  0.15597078296E+04  0.50400001928E-02 0. -1.
</event>
<event>
 5   0  0.8577422E-05  0.1983808E+04  0.7818609E-02  0.8614228E-01
       -1   -1    0    0    0  501  0.00000000000E+00  0.00000000000E+00  0.39797344328E+03  0.39797344331E+03  0.50400001928E-02 0. -1.
        1   -1    0    0  501    0  0.00000000000E+00  0.00000000000E+00 -0.24722094243E+04  0.24722094243E+04  0.50400001928E-02 0.  1.
    10030    2    1    2    0    0  0.00000000000E+00  0.00000000000E+00 -0.20742359810E+04  0.28701828676E+04  0.19838081532E+04 0.  0.
        2    1    3    3  502    0  0.13601227059E+03  0.93174739832E+03 -0.58599987955E+03  0.11090754757E+04  0.25500000920E-02 0. -1.
       -2    1    3    3    0  502 -0.13601227059E+03 -0.93174739832E+03 -0.14882361015E+04  0.17611073919E+04  0.25500000920E-02 0.  1.
</event>
<event>
 5   0  0.1782172E-04  0.1973816E+04  0.7818609E-02  0.8618962E-01
       -2   -1    0    0    0  501  0.00000000000E+00  0.00000000000E+00  0.64450167385E+03  0.64450167385E+03  0.25500000920E-02 0.  1.
        2   -1    0    0  501    0  0.00000000000E+00  0.00000000000E+00 -0.15112248464E+04  0.15112248464E+04  0.25500000920E-02 0. -1.
    10030    2    1    2    0    0  0.00000000000E+00  0.00000000000E+00 -0.86672317257E+03  0.21557265203E+04  0.19738155366E+04 0.  0.
        2    1    3    3  502    0 -0.37673731233E+03  0.90683420568E+03 -0.54096956381E+03  0.11211277127E+04  0.25500000920E-02 0. -1.
       -2    1    3    3    0  502  0.37673731233E+03 -0.90683420568E+03 -0.32575360876E+03  0.10345988076E+04  0.25500000920E-02 0.  1.
</event>
<event>
 5   0  0.8861350E-05  0.1727704E+04  0.7818609E-02  0.8745720E-01
        1   -1    0    0  501    0  0.00000000000E+00  0.00000000000E+00  0.90560833249E+03  0.90560833250E+03  0.50400001928E-02 0.  1.
       -1   -1    0    0    0  501  0.00000000000E+00  0.00000000000E+00 -0.82402093977E+03  0.82402093979E+03  0.50400001928E-02 0. -1.
    10030    2    1    2    0    0  0.00000000000E+00  0.00000000000E+00  0.81587392716E+02  0.17296292723E+04  0.17277039437E+04 0.  0.
        1    1    3    3  502    0 -0.33947141103E+03  0.53666598983E+03 -0.54551157883E+03  0.83715835193E+03  0.50400001928E-02 0. -1.
       -1    1    3    3    0  502  0.33947141103E+03 -0.53666598983E+03  0.62709897155E+03  0.89247092036E+03  0.50400001928E-02 0.  1.
</event>
<event>
 5   0  0.1893687E-04  0.2007256E+04  0.7818609E-02  0.8603236E-01
        2   -1    0    0  501    0  0.00000000000E+00  0.00000000000E+00  0.10777190660E+04  0.10777190660E+04  0.25500000920E-02 0. -1.
       -2   -1    0    0    0  501  0.00000000000E+00  0.00000000000E+00 -0.93463039353E+03  0.93463039353E+03  0.25500000920E-02 0.  1.
    10030    2    1    2    0    0  0.00000000000E+00  0.00000000000E+00  0.14308867248E+03  0.20123494595E+04  0.20072558330E+04 0.  0.
        4    1    3    3  502    0 -0.35193810673E+03  0.66531409296E+03  0.73712973204E+03  0.10535013659E+04  0.12699999809E+01 0. -1.
       -4    1    3    3    0  502  0.35193810673E+03 -0.66531409296E+03 -0.59404105956E+03  0.95884809360E+03  0.12699999809E+01 0.  1.
</event>
<event>
 5   0  0.8958919E-05  0.2015165E+04  0.7818609E-02  0.8599563E-01
        1   -1    0    0  501    0  0.00000000000E+00  0.00000000000E+00  0.52352298054E+03  0.52352298056E+03  0.50400001928E-02 0.  1.
       -1   -1    0    0    0  501  0.00000000000E+00  0.00000000000E+00 -0.19392122757E+04  0.19392122757E+04  0.50400001928E-02 0. -1.
    10030    2    1    2    0    0  0.00000000000E+00  0.00000000000E+00 -0.14156892952E+04  0.24627352563E+04  0.20151646985E+04 0.  0.
        4    1    3    3  502    0 -0.70786507460E+03 -0.47085936010E+03 -0.46961187050E+02  0.85146254575E+03  0.12699999809E+01 0.  1.
       -4    1    3    3    0  502  0.70786507460E+03  0.47085936010E+03 -0.13687281082E+04  0.16112727106E+04  0.12699999809E+01 0. -1.
</event>
<event>
 5   0  0.1807498E-04  0.1915348E+04  0.7818609E-02  0.8647254E-01
        2   -1    0    0  501    0  0.00000000000E+00  0.00000000000E+00  0.21505703512E+04  0.21505703512E+04  0.25500000920E-02 0. -1.
       -2   -1    0    0    0  501  0.00000000000E+00  0.00000000000E+00 -0.42646356016E+03  0.42646356017E+03  0.25500000920E-02 0.  1.
    10030    2    1    2    0    0  0.00000000000E+00  0.00000000000E+00  0.17241067910E+04  0.25770339114E+04  0.19153484157E+04 0.  0.
        5    1    3    3  502    0 -0.18246208065E+03 -0.46780099530E+03 -0.23512974508E+03  0.55447116165E+03  0.46999998093E+01 0.  1.
       -5    1    3    3    0  502  0.18246208065E+03  0.46780099530E+03  0.19592365361E+04  0.20225627497E+04  0.46999998093E+01 0. -1.
</event>
<event>
 5   0  0.8958919E-05  0.2000257E+04  0.7818609E-02  0.8606501E-01
        1   -1    0    0  501    0  0.00000000000E+00  0.00000000000E+00  0.11641635740E+04  0.11641635740E+04  0.50400001928E-02 0.  1.
       -1   -1    0    0    0  501  0.00000000000E+00  0.00000000000E+00 -0.85920633788E+03  0.85920633789E+03  0.50400001928E-02 0. -1.
    10030    2    1    2    0    0  0.00000000000E+00  0.00000000000E+00  0.30495723614E+03  0.20233699119E+04  0.20002567047E+04 0.  0.
        4    1    3    3  502    0  0.77694565778E+03 -0.29051237159E+03 -0.41273826272E+03  0.92649688592E+03  0.12699999809E+01 0. -1.
       -4    1    3    3    0  502 -0.77694565778E+03  0.29051237159E+03  0.71769549887E+03  0.10968730260E+04  0.12699999809E+01 0.  1.
</event>
<event>
 5   0  0.8881384E-05  0.2020011E+04  0.7818609E-02  0.8597321E-01
       -1   -1    0    0    0  501  0.00000000000E+00  0.00000000000E+00  0.79785696616E+03  0.79785696618E+03  0.50400001928E-02 0.  1.
        1   -1    0    0  501    0  0.00000000000E+00  0.00000000000E+00 -0.12785643037E+04  0.12785643037E+04  0.50400001928E-02 0. -1.
    10030    2    1    2    0    0  0.00000000000E+00  0.00000000000E+00 -0.48070733749E+03  0.20764212698E+04  0.20200113231E+04 0.  0.
        5    1    3    3  502    0 -0.58331716039E+02 -0.45636587839E+03 -0.11645821939E+04  0.12521765772E+04  0.46999998093E+01 0. -1.
       -5    1    3    3    0  502  0.58331716039E+02  0.45636587839E+03  0.68387485645E+03  0.82424469263E+03  0.46999998093E+01 0.  1.
</event>
<event>
 5   0  0.1834645E-04  0.1923283E+04  0.7818609E-02  0.8643353E-01
       -2   -1    0    0    0  501  0.00000000000E+00  0.00000000000E+00  0.46579899945E+03  0.46579899945E+03  0.25500000920E-02 0.  1.
        2   -1    0    0  501    0  0.00000000000E+00  0.00000000000E+00 -0.19853070038E+04  0.19853070038E+04  0.25500000920E-02 0. -1.
    10030    2    1    2    0    0  0.00000000000E+00  0.00000000000E+00 -0.15195080043E+04  0.24511060032E+04  0.19232826271E+04 0.  0.
        1    1    3    3  502    0 -0.62311648556E+03  0.63346280292E+03 -0.12283676594E+04  0.15160594922E+04  0.50400001928E-02 0. -1.
       -1    1    3    3    0  502  0.62311648556E+03 -0.63346280292E+03 -0.29114034492E+03  0.93504651100E+03  0.50400001928E-02 0.  1.
</event>
<event>
 5   0  0.8765057E-05  0.1985086E+04  0.7818609E-02  0.8613625E-01
       -1   -1    0    0    0  501  0.00000000000E+00  0.00000000000E+00  0.71214649612E+03  0.71214649613E+03  0.50400001928E-02 0.  1.
        1   -1    0    0  501    0  0.00000000000E+00  0.00000000000E+00 -0.13833418476E+04  0.13833418477E+04  0.50400001928E-02 0. -1.
    10030    2    1    2    0    0  0.00000000000E+00  0.00000000000E+00 -0.67119535153E+03  0.20954883438E+04  0.19850864462E+04 0.  0.
        3    1    3    3  502    0 -0.24645397906E+03 -0.60542548709E+02  0.67731881329E+03  0.72330197638E+03  0.10100000352E+00 0.  1.
       -3    1    3    3    0  502  0.24645397906E+03  0.60542548709E+02 -0.13485141648E+04  0.13721863674E+04  0.10100000352E+00 0. -1.
</event>
<event>
 5   0  0.1834645E-04  0.1986531E+04  0.7818609E-02  0.8612944E-01
       -2   -1    0    0    0  501  0.00000000000E+00  0.00000000000E+00  0.68304191264E+03  0.68304191264E+03  0.25500000920E-02 0. -1.
        2   -1    0    0  501    0  0.00000000000E+00  0.00000000000E+00 -0.14443859587E+04  0.14443859587E+04  0.25500000920E-02 0.  1.
    10030    2    1    2    0    0  0.00000000000E+00  0.00000000000E+00 -0.76134404610E+03  0.21274278714E+04  0.19865307930E+04 0.  0.
        1    1    3    3  502    0  0.46094880092E+03  0.35301431448E+03  0.48239300488E+03  0.75484827249E+03  0.50400001928E-02 0. -1.
       -1    1    3    3    0  502 -0.46094880092E+03 -0.35301431448E+03 -0.12437370510E+04  0.13725795989E+04  0.50400001928E-02 0.  1.
</event>
<event>
 5   0  0.8765057E-05  0.1902221E+04  0.7818609E-02  0.8653752E-01
        1   -1    0    0  501    0  0.00000000000E+00  0.00000000000E+00  0.73347897022E+03  0.73347897024E+03  0.50400001928E-02 0.  1.
       -1   -1    0    0    0  501  0.00000000000E+00  0.00000000000E+00 -0.12333152218E+04  0.12333152219E+04  0.50400001928E-02 0. -1.
    10030    2    1    2    0    0  0.00000000000E+00  0.00000000000E+00 -0.49983625162E+03  0.19667941921E+04  0.19022205749E+04 0.  0.
        3    1    3    3  502    0 -0.90786112840E+03  0.27143387465E+03 -0.16514339537E+03  0.96185265400E+03  0.10100000352E+00 0.  1.
       -3    1    3    3    0  502  0.90786112840E+03 -0.27143387465E+03 -0.33469285625E+03  0.10049415381E+04  0.10100000352E+00 0. -1.
</event>
<event>
 5   0  0.8881384E-05  0.1987124E+04  0.7818609E-02  0.8612664E-01
       -1   -1    0    0    0  501  0.00000000000E+00  0.00000000000E+00  0.94129405668E+03  0.94129405670E+03  0.50400001928E-02 0.  1.
        1   -1    0    0  501    0  0.00000000000E+00  0.00000000000E+00 -0.10487326670E+04  0.10487326671E+04  0.50400001928E-02 0. -1.
    10030    2    1    2    0    0  0.00000000000E+00  0.00000000000E+00 -0.10743861036E+03  0.19900267238E+04  0.19871243812E+04 0.  0.
        5    1    3    3  502    0  0.70532424871E+03  0.66438618549E+03 -0.27370451547E+03  0.10068900392E+04  0.46999998093E+01 0.  1.
       -5    1    3    3    0  502 -0.70532424871E+03 -0.66438618549E+03  0.16626590511E+03  0.98313668454E+03  0.46999998093E+01 0. -1.
</event>
<event>
 5   0  0.1893687E-04  0.1706629E+04  0.7818609E-02  0.8757593E-01
       -2   -1    0    0    0  501  0.00000000000E+00  0.00000000000E+00  0.35674665116E+03  0.35674665117E+03  0.25500000920E-02 0.  1.
        2   -1    0    0  501    0  0.00000000000E+00  0.00000000000E+00 -0.20410719518E+04  0.20410719518E+04  0.25500000920E-02 0. -1.
    10030    2    1    2    0    0  0.00000000000E+00  0.00000000000E+00 -0.16843253006E+04  0.23978186030E+04  0.17066289387E+04 0.  0.
        4    1    3    3  502    0 -0.79996496420E+02  0.40544994752E+03 -0.18910844716E+04  0.19357146460E+04  0.12699999809E+01 0. -1.
       -4    1    3    3    0  502  0.79996496420E+02 -0.40544994752E+03  0.20675917091E+03  0.46210395696E+03  0.12699999809E+01 0.  1.
</event>
<event>
 5   0  0.1782172E-04  0.1997322E+04  0.7818609E-02  0.8607874E-01
       -2   -1    0    0    0  501  0.00000000000E+00  0.00000000000E+00  0.86342561161E+03  0.86342561161E+03  0.25500000920E-02 0. -1.
        2   -1    0    0  501    0  0.00000000000E+00  0.00000000000E+00 -0.11550772958E+04  0.11550772958E+04  0.25500000920E-02 0.  1.
    10030    2    1    2    0    0  0.00000000000E+00  0.00000000000E+00 -0.29165168422E+03  0.20185029074E+04  0.19973215271E+04 0.  0.
        2    1    3    3  502    0  0.98190276752E+03 -0.15741602607E+03 -0.23850701936E+03  0.10226428743E+04  0.25500000920E-02 0.  1.
       -2    1    3    3    0  502 -0.98190276752E+03  0.15741602607E+03 -0.53144664864E+02  0.99586003311E+03  0.25500000920E-02 0. -1.
</event>
<event>
 5   0  0.8958919E-05  0.1998873E+04  0.7818609E-02  0.8607148E-01
        1   -1    0    0  501    0  0.00000000000E+00  0.00000000000E+00  0.23145553957E+04  0.23145553957E+04  0.50400001928E-02 0.  1.
       -1   -1    0    0    0  501  0.00000000000E+00  0.00000000000E+00 -0.43156145488E+03  0.43156145491E+03  0.50400001928E-02 0. -1.
    10030    2    1    2    0    0  0.00000000000E+00  0.00000000000E+00  0.18829939408E+04  0.27461168506E+04  0.19988725762E+04 0.  0.
        4    1    3    3  502    0 -0.30061862155E+03 -0.61036339742E+03  0.19472667279E+04  0.20627080150E+04  0.12699999809E+01 0.  1.
       -4    1    3    3    0  502  0.30061862155E+03  0.61036339742E+03 -0.64272787101E+02  0.68340883562E+03  0.12699999809E+01 0. -1.
</event>
<event>
 5   0  0.1807498E-04  0.2016888E+04  0.7818609E-02  0.8598765E-01
       -2   -1    0    0    0  501  0.00000000000E+00  0.00000000000E+00  0.84351476682E+03  0.84351476682E+03  0.25500000920E-02 0. -1.
        2   -1    0    0  501    0  0.00000000000E+00  0.00000000000E+00 -0.12056213402E+04  0.12056213402E+04  0.25500000920E-02 0.  1.
    10030    2    1    2    0    0  0.00000000000E+00  0.00000000000E+00 -0.36210657343E+03  0.20491361071E+04  0.20168881017E+04 0.  0.
        5    1    3    3  502    0  0.43724172664E+03  0.37066887432E+03  0.66188797082E+03  0.87561036873E+03  0.46999998093E+01 0. -1.
       -5    1    3    3    0  502 -0.43724172664E+03 -0.37066887432E+03 -0.10239945442E+04  0.11735257383E+04  0.46999998093E+01 0.  1.
</event>
<event>
 5   0  0.8861350E-05  0.1978878E+04  0.7818609E-02  0.8616560E-01
       -1   -1    0    0    0  501  0.00000000000E+00  0.00000000000E+00  0.65711440948E+03  0.65711440950E+03  0.50400001928E-02 0. -1.
        1   -1    0    0  501    0  0.00000000000E+00  0.00000000000E+00 -0.14898315527E+04  0.14898315527E+04  0.50400001928E-02 0.  1.
    10030    2    1    2    0    0  0.00000000000E+00  0.00000000000E+00 -0.83271714321E+03  0.21469459622E+04  0.19788782489E+04 0.  0.
        1    1    3    3  502    0  0.35955410211E+03  0.54928716268E+03 -0.12194963150E+04  0.13849789897E+04  0.50400001928E-02 0.  1.
       -1    1    3    3    0  502 -0.35955410211E+03 -0.54928716268E+03  0.38677917183E+03  0.76196697253E+03  0.50400001928E-02 0. -1.
</event>
<event>
 5   0  0.1893687E-04  0.2003111E+04  0.7818609E-02  0.8605168E-01
       -2   -1    0    0    0  501  0.00000000000E+00  0.00000000000E+00  0.62513545651E+03  0.62513545651E+03  0.25500000920E-02 0. -1.
        2   -1    0    0  501    0  0.00000000000E+00  0.00000000000E+00 -0.16046338515E+04  0.16046338515E+04  0.25500000920E-02 0.  1.
    10030    2    1    2    0    0  0.00000000000E+00  0.00000000000E+00 -0.97949839500E+03  0.22297693080E+04  0.20031110956E+04 0.  0.
        4    1    3    3  502    0 -0.46746811077E+03  0.22507294855E+03 -0.14433827377E+04  0.15337990766E+04  0.12699999809E+01 0.  1.
       -4    1    3    3    0  502  0.46746811077E+03 -0.22507294855E+03  0.46388434274E+03  0.69597023147E+03  0.12699999809E+01 0. -1.
</event>
<event>
 5   0  0.8577422E-05  0.2023368E+04  0.7818609E-02  0.8595772E-01
       -1   -1    0    0    0  501  0.00000000000E+00  0.00000000000E+00  0.45960086947E+03  0.45960086950E+03  0.50400001928E-02 0.  1.
        1   -1    0    0  501    0  0.00000000000E+00  0.00000000000E+00 -0.22269429853E+04  0.22269429853E+04  0.50400001928E-02 0. -1.
    10030    2    1    2    0    0  0.00000000000E+00  0.00000000000E+00 -0.17673421158E+04  0.26865438548E+04  0.20233684117E+04 0.  0.
        2    1    3    3  502    0 -0.80005321401E+03 -0.61510924904E+03 -0.97812309785E+03  0.14054071752E+04  0.25500000920E-02 0.  1.
       -2    1    3    3    0  502  0.80005321401E+03  0.61510924904E+03 -0.78921901798E+03  0.12811366796E+04  0.25500000920E-02 0. -1.
</event>
<event>
 5   0  0.8577422E-05  0.1969929E+04  0.7818609E-02  0.8620810E-01
        1   -1    0    0  501    0  0.00000000000E+00  0.00000000000E+00  0.72189819632E+03  0.72189819633E+03  0.50400001928E-02 0. -1.
       -1   -1    0    0    0  501  0.00000000000E+00  0.00000000000E+00 -0.13438941135E+04  0.13438941135E+04  0.50400001928E-02 0.  1.
    10030    2    1    2    0    0  0.00000000000E+00  0.00000000000E+00 -0.62199591716E+03  0.20657923098E+04  0.19699286653E+04 0.  0.
        2    1    3    3  502    0  0.56763737654E+02  0.20164548439E+03  0.69826737748E+03  0.72901327405E+03  0.25500000920E-02 0. -1.
       -2    1    3    3    0  502 -0.56763737654E+02 -0.20164548439E+03 -0.13202632946E+04  0.13367790358E+04  0.25500000920E-02 0.  1.
</event>
<event>
 5   0  0.1782172E-04  0.1982880E+04  0.7818609E-02  0.8614667E-01
        2   -1    0    0  501    0  0.00000000000E+00  0.00000000000E+00  0.12027863851E+04  0.12027863851E+04  0.25500000920E-02 0.  1.
       -2   -1    0    0    0  501  0.00000000000E+00  0.00000000000E+00 -0.81722972616E+03  0.81722972616E+03  0.25500000920E-02 0. -1.
    10030    2    1    2    0    0  0.00000000000E+00  0.00000000000E+00  0.38555665895E+03  0.20200161113E+04  0.19828795103E+04 0.  0.
        2    1    3    3  502    0 -0.85510248882E+03 -0.50152140779E+03  0.17736892623E+03  0.10070668919E+04  0.25500000920E-02 0.  1.
       -2    1    3    3    0  502  0.85510248882E+03  0.50152140779E+03  0.20818773271E+03  0.10129492193E+04  0.25500000920E-02 0. -1.
</event>
<event>
 5   0  0.8881384E-05  0.1980654E+04  0.7818609E-02  0.8615719E-01
        1   -1    0    0  501    0  0.00000000000E+00  0.00000000000E+00  0.17492442304E+04  0.17492442304E+04  0.50400001928E-02 0. -1.
       -1   -1    0    0    0  501  0.00000000000E+00  0.00000000000E+00 -0.56066954397E+03  0.56066954399E+03  0.50400001928E-02 0.  1.
    10030    2    1    2    0    0  0.00000000000E+00  0.00000000000E+00  0.11885746865E+04  0.23099137744E+04  0.19806544020E+04 0.  0.
        5    1    3    3  502    0 -0.57035817451E+03  0.80013056895E+03  0.45046370792E+03  0.10809519031E+04  0.46999998093E+01 0.  1.
       -5    1    3    3    0  502  0.57035817451E+03 -0.80013056895E+03  0.73811097854E+03  0.12289618714E+04  0.46999998093E+01 0. -1.
</event>
<event>
 5   0  0.8958919E-05  0.2016238E+04  0.7818609E-02  0.8599066E-01
        1   -1    0    0  501    0  0.00000000000E+00  0.00000000000E+00  0.13614003537E+04  0.13614003537E+04  0.50400001928E-02 0.  1.
       -1   -1    0    0    0  501  0.00000000000E+00  0.00000000000E+00 -0.74651368270E+03  0.74651368272E+03  0.50400001928E-02 0. -1.
    10030    2    1    2    0    0  0.00000000000E+00  0.00000000000E+00  0.61488667101E+03  0.21079140364E+04  0.20162380729E+04 0.  0.
        4    1    3    3  502    0  0.83207217070E+03  0.15499791907E+03  0.88000712825E+03  0.12209760894E+04  0.12699999809E+01 0.  1.
       -4    1    3    3    0  502 -0.83207217070E+03 -0.15499791907E+03 -0.26512045724E+03  0.88693794705E+03  0.12699999809E+01 0. -1.
</event>
<event>
 5   0  0.8881384E-05  0.1979551E+04  0.7818609E-02  0.8616241E-01
       -1   -1    0    0    0  501  0.00000000000E+00  0.00000000000E+00  0.17388440161E+04  0.17388440161E+04  0.50400001928E-02 0. -1.
        1   -1    0    0  501    0  0.00000000000E+00  0.00000000000E+00 -0.56339454946E+03  0.56339454948E+03  0.50400001928E-02 0.  1.
    10030    2    1    2    0    0  0.00000000000E+00  0.00000000000E+00  0.11754494666E+04  0.23022385656E+04  0.19795506976E+04 0.  0.
        5    1    3    3  502    0  0.33060050436E+02 -0.78710604739E+03 -0.10911594273E+03  0.79533469416E+03  0.46999998093E+01 0.  1.
       -5    1    3    3    0  502 -0.33060050436E+02  0.78710604739E+03  0.12845654094E+04  0.15069038714E+04  0.46999998093E+01 0. -1.
</event>
<event>
 5   0  0.1782172E-04  0.2063964E+04  0.7818609E-02  0.8577286E-01
       -2   -1    0    0    0  501  0.00000000000E+00  0.00000000000E+00  0.99355094779E+03  0.99355094779E+03  0.25500000920E-02 0.  1.
        2   -1    0    0  501    0  0.00000000000E+00  0.00000000000E+00 -0.10718995938E+04  0.10718995938E+04  0.25500000920E-02 0. -1.
    10030    2    1    2    0    0  0.00000000000E+00  0.00000000000E+00 -0.78348646018E+02  0.20654505416E+04  0.20639640088E+04 0.  0.
        2    1    3    3  502    0 -0.11843650695E+03  0.31225268219E+03  0.93798064421E+03  0.99565889371E+03  0.25500000920E-02 0.  1.
       -2    1    3    3    0  502  0.11843650695E+03 -0.31225268219E+03 -0.10163292902E+04  0.10697916479E+04  0.25500000920E-02 0. -1.
</event>
<event>
 5   0  0.1782172E-04  0.2002802E+04  0.7818609E-02  0.8605312E-01
        2   -1    0    0  501    0  0.00000000000E+00  0.00000000000E+00  0.58334203420E+03  0.58334203420E+03  0.25500000920E-02 0.  1.
       -2   -1    0    0    0  501  0.00000000000E+00  0.00000000000E+00 -0.17190676414E+04  0.17190676414E+04  0.25500000920E-02 0. -1.
    10030    2    1    2    0    0  0.00000000000E+00  0.00000000000E+00 -0.11357256072E+04  0.23024096756E+04  0.20028024514E+04 0.  0.
        2    1    3    3  502    0  0.43235891713E+03  0.44311014406E+03  0.33698056623E+03  0.70486646609E+03  0.25500000920E-02 0.  1.
       -2    1    3    3    0  502 -0.43235891713E+03 -0.44311014406E+03 -0.14727061734E+04  0.15975432095E+04  0.25500000920E-02 0. -1.
</event>
<event>
 5   0  0.8861350E-05  0.1623007E+04  0.7818609E-02  0.8806537E-01
        1   -1    0    0  501    0  0.00000000000E+00  0.00000000000E+00  0.10306360578E+04  0.10306360578E+04  0.50400001928E-02 0.  1.
       -1   -1    0    0    0  501  0.00000000000E+00  0.00000000000E+00 -0.63896290633E+03  0.63896290635E+03  0.50400001928E-02 0. -1.
    10030    2    1    2    0    0  0.00000000000E+00  0.00000000000E+00  0.39167315148E+03  0.16695989642E+04  0.16230073455E+04 0.  0.
        1    1    3    3  502    0  0.36942015721E+03  0.50467288763E+03 -0.33608772860E+03  0.71001474450E+03  0.50400001928E-02 0. -1.
       -1    1    3    3    0  502 -0.36942015721E+03 -0.50467288763E+03  0.72776088008E+03  0.95958421968E+03  0.50400001928E-02 0.  1.
</event>
<event>
 5   0  0.1812865E-04  0.1965612E+04  0.7818609E-02  0.8622869E-01
        2   -1    0    0  501    0  0.00000000000E+00  0.00000000000E+00  0.20287884291E+04  0.20287884291E+04  0.25500000920E-02 0. -1.
       -2   -1    0    0    0  501  0.00000000000E+00  0.00000000000E+00 -0.47610064878E+03  0.47610064878E+03  0.25500000920E-02 0.  1.
    10030    2    1    2    0    0  0.00000000000E+00  0.00000000000E+00  0.15526877803E+04  0.25048890778E+04  0.19656118511E+04 0.  0.
        3    1    3    3  502    0 -0.86973298755E+03  0.41836044629E+03  0.10128615471E+04  0.13990530571E+04  0.10100000352E+00 0. -1.
       -3    1    3    3    0  502  0.86973298755E+03 -0.41836044629E+03  0.53982623318E+03  0.11058360208E+04  0.10100000352E+00 0.  1.
</event>
<event>
 5   0  0.1812865E-04  0.2046970E+04  0.7818609E-02  0.8584970E-01
        2   -1    0    0  501    0  0.00000000000E+00  0.00000000000E+00  0.16924307400E+04  0.16924307400E+04  0.25500000920E-02 0. -1.
       -2   -1    0    0    0  501  0.00000000000E+00  0.00000000000E+00 -0.61894523475E+03  0.61894523475E+03  0.25500000920E-02 0.  1.
    10030    2    1    2    0    0  0.00000000000E+00  0.00000000000E+00  0.10734855053E+04  0.23113759748E+04  0.20469703873E+04 0.  0.
        3    1    3    3  502    0 -0.59102280335E+03  0.74915139374E+03  0.11881867640E+03  0.96158912894E+03  0.10100000352E+00 0. -1.
       -3    1    3    3    0  502  0.59102280335E+03 -0.74915139374E+03  0.95466682886E+03  0.13497868458E+04  0.10100000352E+00 0.  1.
</event>
<event>
 5   0  0.1893687E-04  0.2000448E+04  0.7818609E-02  0.8606411E-01
       -2   -1    0    0    0  501  0.00000000000E+00  0.00000000000E+00  0.18573309526E+04  0.18573309526E+04  0.25500000920E-02 0. -1.
        2   -1    0    0  501    0  0.00000000000E+00  0.00000000000E+00 -0.53864834318E+03  0.53864834318E+03  0.25500000920E-02 0.  1.
    10030    2    1    2    0    0  0.00000000000E+00  0.00000000000E+00  0.13186826094E+04  0.23959792958E+04  0.20004481902E+04 0.  0.
        4    1    3    3  502    0  0.67942009231E+02 -0.22171245705E+02  0.18542679677E+04  0.18556451680E+04  0.12699999809E+01 0. -1.
       -4    1    3    3    0  502 -0.67942009231E+02  0.22171245705E+02 -0.53558535825E+03  0.54033412776E+03  0.12699999809E+01 0.  1.
</event>
<event>
 5   0  0.8958919E-05  0.1995365E+04  0.7818609E-02  0.8608791E-01
       -1   -1    0    0    0  501  0.00000000000E+00  0.00000000000E+00  0.91931888915E+03  0.91931888916E+03  0.50400001928E-02 0. -1.
        1   -1    0    0  501    0  0.00000000000E+00  0.00000000000E+00 -0.10827260389E+04  0.10827260389E+04  0.50400001928E-02 0.  1.
    10030    2    1    2    0    0  0.00000000000E+00  0.00000000000E+00 -0.16340714974E+03  0.20020449281E+04  0.19953651288E+04 0.  0.
        4    1    3    3  502    0  0.39081750964E+03 -0.91388161722E+03  0.49042786045E+01  0.99395352053E+03  0.12699999809E+01 0. -1.
       -4    1    3    3    0  502 -0.39081750964E+03  0.91388161722E+03 -0.16831142834E+03  0.10080914075E+04  0.12699999809E+01 0.  1.
</event>
<event>
 5   0  0.8958919E-05  0.1993221E+04  0.7818609E-02  0.8609796E-01
       -1   -1    0    0    0  501  0.00000000000E+00  0.00000000000E+00  0.11511184085E+04  0.11511184085E+04  0.50400001928E-02 0. -1.
        1   -1    0    0  501    0  0.00000000000E+00  0.00000000000E+00 -0.86284156757E+03  0.86284156759E+03  0.50400001928E-02 0.  1.
    10030    2    1    2    0    0  0.00000000000E+00  0.00000000000E+00  0.28827684092E+03  0.20139599761E+04  0.19932213245E+04 0.  0.
        4    1    3    3  502    0  0.82912884771E+02 -0.91891414625E+02 -0.85504526923E+03  0.86395752435E+03  0.12699999809E+01 0.  1.
       -4    1    3    3    0  502 -0.82912884771E+02  0.91891414625E+02  0.11433221102E+04  0.11500024517E+04  0.12699999809E+01 0. -1.
</event>
<event>
 5   0  0.1807498E-04  0.2052638E+04  0.7818609E-02  0.8582398E-01
        2   -1    0    0  501    0  0.00000000000E+00  0.00000000000E+00  0.24936889767E+04  0.24936889767E+04  0.25500000920E-02 0.  1.
       -2   -1    0    0    0  501  0.00000000000E+00  0.00000000000E+00 -0.42239869780E+03  0.42239869781E+03  0.25500000920E-02 0. -1.
    10030    2    1    2    0    0  0.00000000000E+00  0.00000000000E+00  0.20712902789E+04  0.29160876745E+04  0.20526382794E+04 0.  0.
        5    1    3    3  502    0 -0.21581931821E+03  0.27168971648E+03 -0.33652932374E+03  0.48339151408E+03  0.46999998093E+01 0. -1.
       -5    1    3    3    0  502  0.21581931821E+03 -0.27168971648E+03  0.24078196026E+04  0.24326961604E+04  0.46999998093E+01 0.  1.
</event>
<event>
 5   0  0.8958919E-05  0.2008581E+04  0.7818609E-02  0.8602619E-01
        1   -1    0    0  501    0  0.00000000000E+00  0.00000000000E+00  0.42974302741E+03  0.42974302744E+03  0.50400001928E-02 0.  1.
       -1   -1    0    0    0  501  0.00000000000E+00  0.00000000000E+00 -0.23469834054E+04  0.23469834054E+04  0.50400001928E-02 0. -1.
    10030    2    1    2    0    0  0.00000000000E+00  0.00000000000E+00 -0.19172403780E+04  0.27767264329E+04  0.20085813441E+04 0.  0.
        4    1    3    3  502    0 -0.57923497164E+03 -0.27391444245E+03  0.11047050082E+03  0.65019044795E+03  0.12699999809E+01 0.  1.
       -4    1    3    3    0  502  0.57923497164E+03  0.27391444245E+03 -0.20277108788E+04  0.21265359849E+04  0.12699999809E+01 0. -1.
</event>
<event>
 5   0  0.1812865E-04  0.1980728E+04  0.7818609E-02  0.8615684E-01
        2   -1    0    0  501    0  0.00000000000E+00  0.00000000000E+00  0.13186241444E+04  0.13186241444E+04  0.25500000920E-02 0. -1.
       -2   -1    0    0    0  501  0.00000000000E+00  0.00000000000E+00 -0.74382111429E+03  0.74382111430E+03  0.25500000920E-02 0.  1.
    10030    2    1    2    0    0  0.00000000000E+00  0.00000000000E+00  0.57480303013E+03  0.20624452587E+04  0.19807276243E+04 0.  0.
        3    1    3    3  502    0 -0.52725267776E+03 -0.64545437375E+03 -0.26965968154E+03  0.87596979905E+03  0.10100000352E+00 0.  1.
       -3    1    3    3    0  502  0.52725267776E+03  0.64545437375E+03  0.84446271166E+03  0.11864754597E+04  0.10100000352E+00 0. -1.
</event>
<event>
 5   0  0.1812865E-04  0.2009113E+04  0.7818609E-02  0.8602372E-01
       -2   -1    0    0    0  501  0.00000000000E+00  0.00000000000E+00  0.63033790421E+03  0.63033790421E+03  0.25500000920E-02 0. -1.
        2   -1    0    0  501    0  0.00000000000E+00  0.00000000000E+00 -0.16009416507E+04  0.16009416507E+04  0.25500000920E-02 0.  1.
    10030    2    1    2    0    0  0.00000000000E+00  0.00000000000E+00 -0.97060374650E+03  0.22312795549E+04  0.20091134412E+04 0.  0.
        3    1    3    3  502    0 -0.40850984656E+02 -0.77279533555E+03  0.22603493710E+03  0.80620917670E+03  0.10100000352E+00 0. -1.
       -3    1    3    3    0  502  0.40850984656E+02  0.77279533555E+03 -0.11966386836E+04  0.14250703782E+04  0.10100000352E+00 0.  1.
</event>
<event>
 5   0  0.8958919E-05  0.2035509E+04  0.7818609E-02  0.8590197E-01
        1   -1    0    0  501    0  0.00000000000E+00  0.00000000000E+00  0.10175934258E+04  0.10175934258E+04  0.50400001928E-02 0.  1.
       -1   -1    0    0    0  501  0.00000000000E+00  0.00000000000E+00 -0.10179152857E+04  0.10179152857E+04  0.50400001928E-02 0. -1.
    10030    2    1    2    0    0  0.00000000000E+00  0.00000000000E+00 -0.32185990524E+00  0.20355087114E+04  0.20355086860E+04 0.  0.
        4    1    3    3  502    0  0.82815677993E+03 -0.33898366274E+03 -0.48499978969E+03  0.10178310197E+04  0.12699999809E+01 0. -1.
       -4    1    3    3    0  502 -0.82815677993E+03  0.33898366274E+03  0.48467792978E+03  0.10176776917E+04  0.12699999809E+01 0.  1.
</event>
<event>
 5   0  0.8765057E-05  0.1983538E+04  0.7818609E-02  0.8614356E-01
        1   -1    0    0  501    0  0.00000000000E+00  0.00000000000E+00  0.86436182315E+03  0.86436182316E+03  0.50400001928E-02 0.  1.
       -1   -1    0    0    0  501  0.00000000000E+00  0.00000000000E+00 -0.11379564433E+04  0.11379564434E+04  0.50400001928E-02 0. -1.
    10030    2    1    2    0    0  0.00000000000E+00  0.00000000000E+00 -0.27359462020E+03  0.20023182665E+04  0.19835383597E+04 0.  0.
        3    1    3    3  502    0  0.76463873760E+03 -0.45889034132E+03 -0.57490329062E+03  0.10610214645E+04  0.10100000352E+00 0. -1.
       -3    1    3    3    0  502 -0.76463873760E+03  0.45889034132E+03  0.30130867042E+03  0.94129680200E+03  0.10100000352E+00 0.  1.
</event>
<event>
 5   0  0.8958919E-05  0.1973563E+04  0.7818609E-02  0.8619081E-01
       -1   -1    0    0    0  501  0.00000000000E+00  0.00000000000E+00  0.15404024583E+04  0.15404024583E+04  0.50400001928E-02 0. -1.
        1   -1    0    0  501    0  0.00000000000E+00  0.00000000000E+00 -0.63213231326E+03  0.63213231328E+03  0.50400001928E-02 0.  1.
    10030    2    1    2    0    0  0.00000000000E+00  0.00000000000E+00  0.90827014505E+03  0.21725347716E+04  0.19735634465E+04 0.  0.
        4    1    3    3  502    0 -0.20831846202E+03 -0.53460757777E+03  0.13379041451E+04  0.14557441252E+04  0.12699999809E+01 0. -1.
       -4    1    3    3    0  502  0.20831846202E+03  0.53460757777E+03 -0.42963400004E+03  0.71679064637E+03  0.12699999809E+01 0.  1.
</event>
<event>
 5   0  0.1807498E-04  0.1979646E+04  0.7818609E-02  0.8616196E-01
       -2   -1    0    0    0  501  0.00000000000E+00  0.00000000000E+00  0.90364571908E+03  0.90364571909E+03  0.25500000920E-02 0. -1.
        2   -1    0    0  501    0  0.00000000000E+00  0.00000000000E+00 -0.10842185770E+04  0.10842185770E+04  0.25500000920E-02 0.  1.
    10030    2    1    2    0    0  0.00000000000E+00  0.00000000000E+00 -0.18057285788E+03  0.19878642961E+04  0.19796459033E+04 0.  0.
        5    1    3    3  502    0  0.80945536255E+03  0.56964024425E+03 -0.85864308242E+02  0.99353045311E+03  0.46999998093E+01 0.  1.
       -5    1    3    3    0  502 -0.80945536255E+03 -0.56964024425E+03 -0.94708549635E+02  0.99433384294E+03  0.46999998093E+01 0. -1.
</event>
<event>
 5   0  0.8958919E-05  0.1990396E+04  0.7818609E-02  0.8611124E-01
       -1   -1    0    0    0  501  0.00000000000E+00  0.00000000000E+00  0.54931177823E+03  0.54931177825E+03  0.50400001928E-02 0. -1.
        1   -1    0    0  501    0  0.00000000000E+00  0.00000000000E+00 -0.18030178234E+04  0.18030178234E+04  0.50400001928E-02 0.  1.
    10030    2    1    2    0    0  0.00000000000E+00  0.00000000000E+00 -0.12537060451E+04  0.23523296016E+04  0.19903958669E+04 0.  0.
        4    1    3    3  502    0  0.24636462907E+03  0.88129518815E+03 -0.10891935952E+04  0.14225754953E+04  0.12699999809E+01 0.  1.
       -4    1    3    3    0  502 -0.24636462907E+03 -0.88129518815E+03 -0.16451244992E+03  0.92975410631E+03  0.12699999809E+01 0. -1.
</event>
<event>
 5   0  0.8577422E-05  0.2045428E+04  0.7818609E-02  0.8585671E-01
       -1   -1    0    0    0  501  0.00000000000E+00  0.00000000000E+00  0.10845786254E+04  0.10845786255E+04  0.50400001928E-02 0. -1.
        1   -1    0    0  501    0  0.00000000000E+00  0.00000000000E+00 -0.96437842313E+03  0.96437842314E+03  0.50400001928E-02 0.  1.
    10030    2    1    2    0    0  0.00000000000E+00  0.00000000000E+00  0.12020020231E+03  0.20489570486E+04  0.20454282922E+04 0.  0.
        2    1    3    3  502    0 -0.54032513229E+03  0.85913445507E+03 -0.66137004314E+02  0.10170729393E+04  0.25500000920E-02 0.  1.
       -2    1    3    3    0  502  0.54032513229E+03 -0.85913445507E+03  0.18633720662E+03  0.10318841093E+04  0.25500000920E-02 0. -1.
</event>
<event>
 5   0  0.8881384E-05  0.2025009E+04  0.7818609E-02  0.8595017E-01
        1   -1    0    0  501    0  0.00000000000E+00  0.00000000000E+00  0.16764431477E+04  0.16764431477E+04  0.50400001928E-02 0. -1.
       -1   -1    0    0    0  501  0.00000000000E+00  0.00000000000E+00 -0.61151209423E+03  0.61151209425E+03  0.50400001928E-02 0.  1.
    10030    2    1    2    0    0  0.00000000000E+00  0.00000000000E+00  0.10649310534E+04  0.22879552419E+04  0.20250088989E+04 0.  0.
        5    1    3    3  502    0  0.22327560042E+03 -0.70040121770E+02 -0.58052828697E+03  0.62593353830E+03  0.46999998093E+01 0.  1.
       -5    1    3    3    0  502 -0.22327560042E+03  0.70040121770E+02  0.16454593404E+04  0.16620217036E+04  0.46999998093E+01 0. -1.
</event>
<event>
 5   0  0.1782172E-04  0.1987589E+04  0.7818609E-02  0.8612445E-01
       -2   -1    0    0    0  501  0.00000000000E+00  0.00000000000E+00  0.62966861823E+03  0.62966861824E+03  0.25500000920E-02 0.  1.
        2   -1    0    0  501    0  0.00000000000E+00  0.00000000000E+00 -0.15684874493E+04  0.15684874493E+04  0.25500000920E-02 0. -1.
    10030    2    1    2    0    0  0.00000000000E+00  0.00000000000E+00 -0.93881883106E+03  0.21981560675E+04  0.19875888155E+04 0.  0.
        2    1    3    3  502    0 -0.33566785211E+03 -0.89750670186E+03 -0.17798578880E+03  0.97461280919E+03  0.25500000920E-02 0.  1.
       -2    1    3    3    0  502  0.33566785211E+03  0.89750670186E+03 -0.76083304226E+03  0.12235432583E+04  0.25500000920E-02 0. -1.
</event>
<event>
 5   0  0.1893687E-04  0.2000677E+04  0.7818609E-02  0.8606304E-01
       -2   -1    0    0    0  501  0.00000000000E+00  0.00000000000E+00  0.13343510444E+04  0.13343510444E+04  0.25500000920E-02 0. -1.
        2   -1    0    0  501    0  0.00000000000E+00  0.00000000000E+00 -0.74993540413E+03  0.74993540414E+03  0.25500000920E-02 0.  1.
    10030    2    1    2    0    0  0.00000000000E+00  0.00000000000E+00  0.58441564027E+03  0.20842864485E+04  0.20006769752E+04 0.  0.
        4    1    3    3  502    0 -0.64317962372E+03  0.55364796679E+03 -0.25951780569E+03  0.88744419761E+03  0.12699999809E+01 0.  1.
       -4    1    3    3    0  502  0.64317962372E+03 -0.55364796679E+03  0.84393344596E+03  0.11968422509E+04  0.12699999809E+01 0. -1.
</event>
<event>
 5   0  0.1812865E-04  0.1782769E+04  0.7818609E-02  0.8715517E-01
       -2   -1    0    0    0  501  0.00000000000E+00  0.00000000000E+00  0.80644402803E+03  0.80644402803E+03  0.25500000920E-02 0.  1.
        2   -1    0    0  501    0  0.00000000000E+00  0.00000000000E+00 -0.98527139144E+03  0.98527139144E+03  0.25500000920E-02 0. -1.
    10030    2    1    2    0    0  0.00000000000E+00  0.00000000000E+00 -0.17882736341E+03  0.17917154195E+04  0.17827688909E+04 0.  0.
        3    1    3    3  502    0 -0.50178647505E+03  0.20888978517E+02 -0.82954687878E+03  0.96972885399E+03  0.10100000352E+00 0. -1.
       -3    1    3    3    0  502  0.50178647505E+03 -0.20888978517E+02  0.65071951536E+03  0.82198656549E+03  0.10100000352E+00 0.  1.
</event>
<event>
 5   0  0.8861350E-05  0.2473705E+04  0.7818609E-02  0.8412414E-01
        1   -1    0    0  501    0  0.00000000000E+00  0.00000000000E+00  0.19907300007E+04  0.19907300007E+04  0.50400001928E-02 0.  1.
       -1   -1    0    0    0  501  0.00000000000E+00  0.00000000000E+00 -0.76846388429E+03  0.76846388431E+03  0.50400001928E-02 0. -1.
    10030    2    1    2    0    0  0.00000000000E+00  0.00000000000E+00  0.12222661164E+04  0.27591938850E+04  0.24737050018E+04 0.  0.
        1    1    3    3  502    0 -0.63136425371E+03 -0.84657469139E+03  0.13292476304E+04  0.16977069217E+04  0.50400001928E-02 0.  1.
       -1    1    3    3    0  502  0.63136425371E+03  0.84657469139E+03 -0.10698151401E+03  0.10614869633E+04  0.50400001928E-02 0. -1.
</event>
<event>
 5   0  0.8765057E-05  0.1505673E+04  0.7818609E-02  0.8880689E-01
        1   -1    0    0  501    0  0.00000000000E+00  0.00000000000E+00  0.71799246839E+03  0.71799246840E+03  0.50400001928E-02 0. -1.
       -1   -1    0    0    0  501  0.00000000000E+00  0.00000000000E+00 -0.78937113701E+03  0.78937113703E+03  0.50400001928E-02 0.  1.
    10030    2    1    2    0    0  0.00000000000E+00  0.00000000000E+00 -0.71378668629E+02  0.15073636054E+04  0.15056726486E+04 0.  0.
        3    1    3    3  502    0 -0.26840574616E+03 -0.92390731200E+02  0.66236329218E+03  0.72062669449E+03  0.10100000352E+00 0. -1.
       -3    1    3    3    0  502  0.26840574616E+03  0.92390731200E+02 -0.73374196081E+03  0.78673691094E+03  0.10100000352E+00 0.  1.
</event>
<event>
 5   0  0.8881384E-05  0.1998009E+04  0.7818609E-02  0.8607552E-01
        1   -1    0    0  501    0  0.00000000000E+00  0.00000000000E+00  0.12627185852E+04  0.12627185852E+04  0.50400001928E-02 0.  1.
       -1   -1    0    0    0  501  0.00000000000E+00  0.00000000000E+00 -0.79036610195E+03  0.79036610197E+03  0.50400001928E-02 0. -1.
    10030    2    1    2    0    0  0.00000000000E+00  0.00000000000E+00  0.47235248321E+03  0.20530846871E+04  0.19980089750E+04 0.  0.
        5    1    3    3  502    0 -0.72687531166E+03  0.56955727054E+03  0.62779143761E+03  0.11166411161E+04  0.46999998093E+01 0.  1.
       -5    1    3    3    0  502  0.72687531166E+03 -0.56955727054E+03 -0.15543895440E+03  0.93644357100E+03  0.46999998093E+01 0. -1.
</event>
<event>
 5   0  0.8881384E-05  0.2088478E+04  0.7818609E-02  0.8566336E-01
        1   -1    0    0  501    0  0.00000000000E+00  0.00000000000E+00  0.10060409486E+04  0.10060409486E+04  0.50400001928E-02 0. -1.
       -1   -1    0    0    0  501  0.00000000000E+00  0.00000000000E+00 -0.10838877998E+04  0.10838877998E+04  0.50400001928E-02 0.  1.
    10030    2    1    2    0    0  0.00000000000E+00  0.00000000000E+00 -0.77846851157E+02  0.20899287484E+04  0.20884784033E+04 0.  0.
        5    1    3    3  502    0 -0.25978757618E+02 -0.67450818441E+02  0.10035240096E+04  0.10061347010E+04  0.46999998093E+01 0. -1.
       -5    1    3    3    0  502  0.25978757618E+02  0.67450818441E+02 -0.10813708607E+04  0.10837940474E+04  0.46999998093E+01 0.  1.
</event>
<event>
 5   0  0.1782172E-04  0.2032961E+04  0.7818609E-02  0.8591363E-01
       -2   -1    0    0    0  501  0.00000000000E+00  0.00000000000E+00  0.13163821608E+04  0.13163821608E+04  0.25500000920E-02 0.  1.
        2   -1    0    0  501    0  0.00000000000E+00  0.00000000000E+00 -0.78490349008E+03  0.78490349008E+03  0.25500000920E-02 0. -1.
    10030    2    1    2    0    0  0.00000000000E+00  0.00000000000E+00  0.53147867070E+03  0.21012856509E+04  0.20329613398E+04 0.  0.
        2    1    3    3  502    0  0.66684919577E+03  0.25439959487E+03  0.10138218072E+04  0.12398554998E+04  0.25500000920E-02 0.  1.
       -2    1    3    3    0  502 -0.66684919577E+03 -0.25439959487E+03 -0.48234313648E+03  0.86143015102E+03  0.25500000920E-02 0. -1.
</event>
<event>
 5   0  0.1782172E-04  0.1995573E+04  0.7818609E-02  0.8608693E-01
        2   -1    0    0  501    0  0.00000000000E+00  0.00000000000E+00  0.13298119820E+04  0.13298119820E+04  0.25500000920E-02 0. -1.
       -2   -1    0    0    0  501  0.00000000000E+00  0.00000000000E+00 -0.74866085727E+03  0.74866085727E+03  0.25500000920E-02 0.  1.
    10030    2    1    2    0    0  0.00000000000E+00  0.00000000000E+00  0.58115112476E+03  0.20784728393E+04  0.19955732795E+04 0.  0.
        2    1    3    3  502    0 -0.86259227603E+03  0.49440605186E+03  0.37818525630E+03  0.10637325166E+04  0.25500000920E-02 0. -1.
       -2    1    3    3    0  502  0.86259227603E+03 -0.49440605186E+03  0.20296586846E+03  0.10147403227E+04  0.25500000920E-02 0.  1.
</event>
<event>
 5   0  0.8765057E-05  0.2024025E+04  0.7818609E-02  0.8595470E-01
        1   -1    0    0  501    0  0.00000000000E+00  0.00000000000E+00  0.93829531865E+03  0.93829531866E+03  0.50400001928E-02 0. -1.
       -1   -1    0    0    0  501  0.00000000000E+00  0.00000000000E+00 -0.10915212030E+04  0.10915212031E+04  0.50400001928E-02 0.  1.
    10030    2    1    2    0    0  0.00000000000E+00  0.00000000000E+00 -0.15322588439E+03  0.20298165217E+04  0.20240249357E+04 0.  0.
        3    1    3    3  502    0 -0.45317795761E+03  0.49840966445E+03 -0.83401354472E+03  0.10720825798E+04  0.10100000352E+00 0.  1.
       -3    1    3    3    0  502  0.45317795761E+03 -0.49840966445E+03  0.68078766033E+03  0.95773394194E+03  0.10100000352E+00 0. -1.
</event>
<event>
 5   0  0.8861350E-05  0.2006410E+04  0.7818609E-02  0.8603629E-01
        1   -1    0    0  501    0  0.00000000000E+00  0.00000000000E+00  0.95903695013E+03  0.95903695015E+03  0.50400001928E-02 0.  1.
       -1   -1    0    0    0  501  0.00000000000E+00  0.00000000000E+00 -0.10494075734E+04  0.10494075735E+04  0.50400001928E-02 0. -1.
    10030    2    1    2    0    0  0.00000000000E+00  0.00000000000E+00 -0.90370623317E+02  0.20084445236E+04  0.20064103655E+04 0.  0.
        1    1    3    3  502    0 -0.37180694955E+03 -0.92769403177E+03  0.41874204740E+02  0.10003049902E+04  0.50400001928E-02 0. -1.
       -1    1    3    3    0  502  0.37180694955E+03  0.92769403177E+03 -0.13224482806E+03  0.10081395334E+04  0.50400001928E-02 0.  1.
</event>
<event>
 5   0  0.1834645E-04  0.1772764E+04  0.7818609E-02  0.8720919E-01
        2   -1    0    0  501    0  0.00000000000E+00  0.00000000000E+00  0.62527755556E+03  0.62527755557E+03  0.25500000920E-02 0.  1.
       -2   -1    0    0    0  501  0.00000000000E+00  0.00000000000E+00 -0.12565185612E+04  0.12565185612E+04  0.25500000920E-02 0. -1.
    10030    2    1    2    0    0  0.00000000000E+00  0.00000000000E+00 -0.63124100564E+03  0.18817961168E+04  0.17727637795E+04 0.  0.
        1    1    3    3  502    0  0.86487562708E+03 -0.53388862197E+02 -0.11756352976E+03  0.87446063632E+03  0.50400001928E-02 0.  1.
       -1    1    3    3    0  502 -0.86487562708E+03  0.53388862197E+02 -0.51367747588E+03  0.10073354804E+04  0.50400001928E-02 0. -1.
</event>
<event>
 5   0  0.1807498E-04  0.2002614E+04  0.7818609E-02  0.8605400E-01
        2   -1    0    0  501    0  0.00000000000E+00  0.00000000000E+00  0.10659060714E+04  0.10659060714E+04  0.25500000920E-02 0. -1.
       -2   -1    0    0    0  501  0.00000000000E+00  0.00000000000E+00 -0.94062272269E+03  0.94062272270E+03  0.25500000920E-02 0.  1.
    10030    2    1    2    0    0  0.00000000000E+00  0.00000000000E+00  0.12528334871E+03  0.20065287941E+04  0.20026137631E+04 0.  0.
        5    1    3    3  502    0  0.80319556064E+02 -0.41594921622E+03  0.97167957926E+03  0.10600227716E+04  0.46999998093E+01 0. -1.
       -5    1    3    3    0  502 -0.80319556064E+02  0.41594921622E+03 -0.84639623055E+03  0.94650602251E+03  0.46999998093E+01 0.  1.
</event>
<event>
 5   0  0.8577422E-05  0.1795465E+04  0.7818609E-02  0.8708715E-01
        1   -1    0    0  501    0  0.00000000000E+00  0.00000000000E+00  0.12606929934E+04  0.12606929935E+04  0.50400001928E-02 0.  1.
       -1   -1    0    0    0  501  0.00000000000E+00  0.00000000000E+00 -0.63927011712E+03  0.63927011714E+03  0.50400001928E-02 0. -1.
    10030    2    1    2    0    0  0.00000000000E+00  0.00000000000E+00  0.62142287632E+03  0.18999631106E+04  0.17954646837E+04 0.  0.
        2    1    3    3  502    0 -0.11985255205E+03 -0.86680543581E+03  0.52289877388E+03  0.10193818840E+04  0.25500000920E-02 0.  1.
       -2    1    3    3    0  502  0.11985255205E+03  0.86680543581E+03  0.98524102441E+02  0.88058122655E+03  0.25500000920E-02 0. -1.
</event>
<event>
 5   0  0.8577422E-05  0.1862990E+04  0.7818609E-02  0.8673501E-01
       -1   -1    0    0    0  501  0.00000000000E+00  0.00000000000E+00  0.59822359936E+03  0.59822359938E+03  0.50400001928E-02 0.  1.
        1   -1    0    0  501    0  0.00000000000E+00  0.00000000000E+00 -0.14504321359E+04  0.14504321359E+04  0.50400001928E-02 0. -1.
    10030    2    1    2    0    0  0.00000000000E+00  0.00000000000E+00 -0.85220853650E+03  0.20486557352E+04  0.18629897831E+04 0.  0.
        2    1    3    3  502    0 -0.91929702873E+03  0.28863827967E+02 -0.58825320402E+03  0.10917792724E+04  0.25500000920E-02 0.  1.
       -2    1    3    3    0  502  0.91929702873E+03 -0.28863827967E+02 -0.26395533248E+03  0.95687646285E+03  0.25500000920E-02 0. -1.
</event>
<event>
 5   0  0.8765057E-05  0.1966193E+04  0.7818609E-02  0.8622592E-01
       -1   -1    0    0    0  501  0.00000000000E+00  0.00000000000E+00  0.45035002676E+03  0.45035002679E+03  0.50400001928E-02 0. -1.
        1   -1    0    0  501    0  0.00000000000E+00  0.00000000000E+00 -0.21460611677E+04  0.21460611677E+04  0.50400001928E-02 0.  1.
    10030    2    1    2    0    0  0.00000000000E+00  0.00000000000E+00 -0.16957111410E+04  0.25964111945E+04  0.19661929757E+04 0.  0.
        3    1    3    3  502    0  0.68671564662E+03  0.27956943997E+03  0.46173146451E+01  0.74145720097E+03  0.10100000352E+00 0. -1.
       -3    1    3    3    0  502 -0.68671564662E+03 -0.27956943997E+03 -0.17003284556E+04  0.18549539936E+04  0.10100000352E+00 0.  1.
</event>
<event>
 5   0  0.1812865E-04  0.2061156E+04  0.7818609E-02  0.8578550E-01
       -2   -1    0    0    0  501  0.00000000000E+00  0.00000000000E+00  0.62144450219E+03  0.62144450219E+03  0.25500000920E-02 0. -1.
        2   -1    0    0  501    0  0.00000000000E+00  0.00000000000E+00 -0.17090679037E+04  0.17090679037E+04  0.25500000920E-02 0.  1.
    10030    2    1    2    0    0  0.00000000000E+00  0.00000000000E+00 -0.10876234015E+04  0.23305124059E+04  0.20611558433E+04 0.  0.
        3    1    3    3  502    0 -0.16469296079E+03 -0.13895666488E+02 -0.16939851535E+04  0.17020289572E+04  0.10100000352E+00 0.  1.
       -3    1    3    3    0  502  0.16469296079E+03  0.13895666488E+02  0.60636175193E+03  0.62848344869E+03  0.10100000352E+00 0. -1.
</event>
<event>
 5   0  0.8881384E-05  0.1799846E+04  0.7818609E-02  0.8706381E-01
       -1   -1    0    0    0  501  0.00000000000E+00  0.00000000000E+00  0.40074111210E+03  0.40074111213E+03  0.50400001928E-02 0. -1.
        1   -1    0    0  501    0  0.00000000000E+00  0.00000000000E+00 -0.20209087176E+04  0.20209087176E+04  0.50400001928E-02 0.  1.
    10030    2    1    2    0    0  0.00000000000E+00  0.00000000000E+00 -0.16201676055E+04  0.24216498297E+04  0.17998457789E+04 0.  0.
        5    1    3    3  502    0 -0.73304576007E+03 -0.40164672722E+03 -0.36148712067E+03  0.91069819823E+03  0.46999998093E+01 0. -1.
       -5    1    3    3    0  502  0.73304576007E+03  0.40164672722E+03 -0.12586804848E+04  0.15109516315E+04  0.46999998093E+01 0.  1.
</event>
<event>
 5   0  0.8577422E-05  0.1997016E+04  0.7818609E-02  0.8608017E-01
       -1   -1    0    0    0  501  0.00000000000E+00  0.00000000000E+00  0.70657736373E+03  0.70657736375E+03  0.50400001928E-02 0. -1.
        1   -1    0    0  501    0  0.00000000000E+00  0.00000000000E+00 -0.14110535014E+04  0.14110535014E+04  0.50400001928E-02 0.  1.
    10030    2    1    2    0    0  0.00000000000E+00  0.00000000000E+00 -0.70447613768E+03  0.21176308652E+04  0.19970162374E+04 0.  0.
        2    1    3    3  502    0  0.76111670224E+03 -0.58361498186E+03 -0.57773167504E+02  0.96085525464E+03  0.25500000920E-02 0. -1.
       -2    1    3    3    0  502 -0.76111670224E+03  0.58361498186E+03 -0.64670297018E+03  0.11567756105E+04  0.25500000920E-02 0.  1.
</event>
<event>
 5   0  0.1812865E-04  0.1985765E+04  0.7818609E-02  0.8613305E-01
        2   -1    0    0  501    0  0.00000000000E+00  0.00000000000E+00  0.10438834843E+04  0.10438834843E+04  0.25500000920E-02 0.  1.
       -2   -1    0    0    0  501  0.00000000000E+00  0.00000000000E+00 -0.94437286102E+03  0.94437286103E+03  0.25500000920E-02 0. -1.
    10030    2    1    2    0    0  0.00000000000E+00  0.00000000000E+00  0.99510623245E+02  0.19882563453E+04  0.19857645708E+04 0.  0.
        3    1    3    3  502    0  0.97588718605E+03 -0.18291382903E+03  0.48355820593E+02  0.99405812925E+03  0.10100000352E+00 0. -1.
       -3    1    3    3    0  502 -0.97588718605E+03  0.18291382903E+03  0.51154802652E+02  0.99419821604E+03  0.10100000352E+00 0.  1.
</event>
<event>
 5   0  0.1807498E-04  0.2031311E+04  0.7818609E-02  0.8592120E-01
       -2   -1    0    0    0  501  0.00000000000E+00  0.00000000000E+00  0.69848989711E+03  0.69848989711E+03  0.25500000920E-02 0.  1.
        2   -1    0    0  501    0  0.00000000000E+00  0.00000000000E+00 -0.14768370408E+04  0.14768370408E+04  0.25500000920E-02 0. -1.
    10030    2    1    2    0    0  0.00000000000E+00  0.00000000000E+00 -0.77834714369E+03  0.21753269379E+04  0.20313106633E+04 0.  0.
        5    1    3    3  502    0  0.63572634096E+03  0.94561201856E+02  0.45299364403E+03  0.78633016794E+03  0.46999998093E+01 0.  1.
       -5    1    3    3    0  502 -0.63572634096E+03 -0.94561201856E+02 -0.12313407877E+04  0.13889967700E+04  0.46999998093E+01 0. -1.
</event>
<event>
 5   0  0.1807498E-04  0.1992266E+04  0.7818609E-02  0.8610245E-01
       -2   -1    0    0    0  501  0.00000000000E+00  0.00000000000E+00  0.58655326538E+03  0.58655326538E+03  0.25500000920E-02 0.  1.
        2   -1    0    0  501    0  0.00000000000E+00  0.00000000000E+00 -0.16917147091E+04  0.16917147091E+04  0.25500000920E-02 0. -1.
    10030    2    1    2    0    0  0.00000000000E+00  0.00000000000E+00 -0.11051614437E+04  0.22782679745E+04  0.19922658324E+04 0.  0.
        5    1    3    3  502    0 -0.54471295463E+03 -0.60686716007E+03  0.10160814365E+03  0.82179453501E+03  0.46999998093E+01 0.  1.
       -5    1    3    3    0  502  0.54471295463E+03  0.60686716007E+03 -0.12067695874E+04  0.14564734395E+04  0.46999998093E+01 0. -1.
</event>
<event>
 5   0  0.1807498E-04  0.2016865E+04  0.7818609E-02  0.8598776E-01
       -2   -1    0    0    0  501  0.00000000000E+00  0.00000000000E+00  0.14070426017E+04  0.14070426017E+04  0.25500000920E-02 0.  1.
        2   -1    0    0  501    0  0.00000000000E+00  0.00000000000E+00 -0.72274755304E+03  0.72274755304E+03  0.25500000920E-02 0. -1.
    10030    2    1    2    0    0  0.00000000000E+00  0.00000000000E+00  0.68429504870E+03  0.21297901548E+04  0.20168654863E+04 0.  0.
        5    1    3    3  502    0 -0.98777062073E+03 -0.19120305740E+03  0.27002177838E+03  0.10417212963E+04  0.46999998093E+01 0. -1.
       -5    1    3    3    0  502  0.98777062073E+03  0.19120305740E+03  0.41427327032E+03  0.10880688585E+04  0.46999998093E+01 0.  1.
</event>
<event>
 5   0  0.1782172E-04  0.2000999E+04  0.7818609E-02  0.8606154E-01
        2   -1    0    0  501    0  0.00000000000E+00  0.00000000000E+00  0.14051223262E+04  0.14051223262E+04  0.25500000920E-02 0.  1.
       -2   -1    0    0    0  501  0.00000000000E+00  0.00000000000E+00 -0.71239284134E+03  0.71239284134E+03  0.25500000920E-02 0. -1.
    10030    2    1    2    0    0  0.00000000000E+00  0.00000000000E+00  0.69272948488E+03  0.21175151676E+04  0.20009988370E+04 0.  0.
        2    1    3    3  502    0  0.49837008581E+03 -0.21961262366E+03  0.12345188554E+04  0.13493106578E+04  0.25500000920E-02 0.  1.
       -2    1    3    3    0  502 -0.49837008581E+03  0.21961262366E+03 -0.54178937049E+03  0.76820450980E+03  0.25500000920E-02 0. -1.
</event>
<event>
 5   0  0.1893687E-04  0.1509703E+04  0.7818609E-02  0.8878026E-01
        2   -1    0    0  501    0  0.00000000000E+00  0.00000000000E+00  0.55188350824E+03  0.55188350825E+03  0.25500000920E-02 0.  1.
       -2   -1    0    0    0  501  0.00000000000E+00  0.00000000000E+00 -0.10324656951E+04  0.10324656951E+04  0.25500000920E-02 0. -1.
    10030    2    1    2    0    0  0.00000000000E+00  0.00000000000E+00 -0.48058218689E+03  0.15843492034E+04  0.15097030039E+04 0.  0.
        4    1    3    3  502    0  0.67880189238E+03 -0.23390019351E+02 -0.58593935664E+03  0.89702042600E+03  0.12699999809E+01 0. -1.
       -4    1    3    3    0  502 -0.67880189238E+03  0.23390019351E+02  0.10535716975E+03  0.68732877738E+03  0.12699999809E+01 0.  1.
</event>
<event>
 5   0  0.1812865E-04  0.2206871E+04  0.7818609E-02  0.8515573E-01
        2   -1    0    0  501    0  0.00000000000E+00  0.00000000000E+00  0.12818653897E+04  0.12818653897E+04  0.25500000920E-02 0. -1.
       -2   -1    0    0    0  501  0.00000000000E+00  0.00000000000E+00 -0.94984265003E+03  0.94984265003E+03  0.25500000920E-02 0.  1.
    10030    2    1    2    0    0  0.00000000000E+00  0.00000000000E+00  0.33202273966E+03  0.22317080397E+04  0.22068714677E+04 0.  0.
        3    1    3    3  502    0 -0.24967584704E+02 -0.10855559840E+04  0.36447302458E+03  0.11453801860E+04  0.10100000352E+00 0. -1.
       -3    1    3    3    0  502  0.24967584704E+02  0.10855559840E+04 -0.32450284928E+02  0.10863278537E+04  0.10100000352E+00 0.  1.
</event>
<event>
 5   0  0.1807498E-04  0.2004541E+04  0.7818609E-02  0.8604501E-01
       -2   -1    0    0    0  501  0.00000000000E+00  0.00000000000E+00  0.77239275688E+03  0.77239275689E+03  0.25500000920E-02 0.  1.
        2   -1    0    0  501    0  0.00000000000E+00  0.00000000000E+00 -0.13005637500E+04  0.13005637500E+04  0.25500000920E-02 0. -1.
    10030    2    1    2    0    0  0.00000000000E+00  0.00000000000E+00 -0.52817099316E+03  0.20729565069E+04  0.20045408655E+04 0.  0.
        5    1    3    3  502    0 -0.10641885554E+03  0.10204088330E+03 -0.12892767504E+04  0.12976879223E+04  0.46999998093E+01 0. -1.
       -5    1    3    3    0  502  0.10641885554E+03 -0.10204088330E+03  0.76110575720E+03  0.77526858463E+03  0.46999998093E+01 0.  1.
</event>
<event>
 5   0  0.1834645E-04  0.2035721E+04  0.7818609E-02  0.8590100E-01
        2   -1    0    0  501    0  0.00000000000E+00  0.00000000000E+00  0.15877696302E+04  0.15877696302E+04  0.25500000920E-02 0.  1.
       -2   -1    0    0    0  501  0.00000000000E+00  0.00000000000E+00 -0.65251270759E+03  0.65251270759E+03  0.25500000920E-02 0. -1.
    10030    2    1    2    0    0  0.00000000000E+00  0.00000000000E+00  0.93525692261E+03  0.22402823378E+04  0.20357208654E+04 0.  0.
        1    1    3    3  502    0  0.26510546383E+03  0.36034148730E+03  0.14737838506E+04  0.15401836685E+04  0.50400001928E-02 0.  1.
       -1    1    3    3    0  502 -0.26510546383E+03 -0.36034148730E+03 -0.53852692804E+03  0.70009866924E+03  0.50400001928E-02 0. -1.
</event>
<event>
 5   0  0.6531625E-05  0.2005328E+04  0.7818609E-02  0.8604134E-01
       -3   -1    0    0    0  501  0.00000000000E+00  0.00000000000E+00  0.75543033561E+03  0.75543034236E+03  0.10100000352E+00 0.  1.
        3   -1    0    0  501    0  0.00000000000E+00  0.00000000000E+00 -0.13308115087E+04  0.13308115125E+04  0.10100000352E+00 0. -1.
    10030    2    1    2    0    0  0.00000000000E+00  0.00000000000E+00 -0.57538117310E+03  0.20862418549E+04  0.20053282980E+04 0.  0.
        5    1    3    3  502    0 -0.75881766703E+02 -0.21881005462E+03  0.72721128891E+03  0.76321309687E+03  0.46999998093E+01 0.  1.
       -5    1    3    3    0  502  0.75881766703E+02  0.21881005462E+03 -0.13025924620E+04  0.13230287580E+04  0.46999998093E+01 0. -1.
</event>
<event>
 5   0  0.1834645E-04  0.2021948E+04  0.7818609E-02  0.8596428E-01
       -2   -1    0    0    0  501  0.00000000000E+00  0.00000000000E+00  0.52027910168E+03  0.52027910168E+03  0.25500000920E-02 0.  1.
        2   -1    0    0  501    0  0.00000000000E+00  0.00000000000E+00 -0.19644616274E+04  0.19644616274E+04  0.25500000920E-02 0. -1.
    10030    2    1    2    0    0  0.00000000000E+00  0.00000000000E+00 -0.14441825258E+04  0.24847407291E+04  0.20219479032E+04 0.  0.
        1    1    3    3  502    0 -0.86447545569E+03  0.35043379343E+03 -0.24306787716E+03  0.96395209943E+03  0.50400001928E-02 0.  1.
       -1    1    3    3    0  502  0.86447545569E+03 -0.35043379343E+03 -0.12011146486E+04  0.15207886297E+04  0.50400001928E-02 0. -1.
</event>
<event>
 5   0  0.8577422E-05  0.1965801E+04  0.7818609E-02  0.8622779E-01
        1   -1    0    0  501    0  0.00000000000E+00  0.00000000000E+00  0.16692498248E+04  0.16692498248E+04  0.50400001928E-02 0.  1.
       -1   -1    0    0    0  501  0.00000000000E+00  0.00000000000E+00 -0.57875897069E+03  0.57875897071E+03  0.50400001928E-02 0. -1.
    10030    2    1    2    0    0  0.00000000000E+00  0.00000000000E+00  0.10904908541E+04  0.22480087956E+04  0.19658009161E+04 0.  0.
        2    1    3    3  502    0  0.17166774087E+03 -0.33012746723E+03  0.15855943914E+04  0.16286692518E+04  0.25500000920E-02 0.  1.
       -2    1    3    3    0  502 -0.17166774087E+03  0.33012746723E+03 -0.49510353721E+03  0.61933954374E+03  0.25500000920E-02 0. -1.
</event>
<event>
 5   0  0.1812865E-04  0.1999218E+04  0.7818609E-02  0.8606986E-01
        2   -1    0    0  501    0  0.00000000000E+00  0.00000000000E+00  0.92558046153E+03  0.92558046153E+03  0.25500000920E-02 0.  1.
       -2   -1    0    0    0  501  0.00000000000E+00  0.00000000000E+00 -0.10795585513E+04  0.10795585513E+04  0.25500000920E-02 0. -1.
    10030    2    1    2    0    0  0.00000000000E+00  0.00000000000E+00 -0.15397808980E+03  0.20051390129E+04  0.19992181494E+04 0.  0.
        3    1    3    3  502    0 -0.31773774194E+03 -0.17101043067E+03  0.85798229910E+03  0.93077144124E+03  0.10100000352E+00 0.  1.
       -3    1    3    3    0  502  0.31773774194E+03  0.17101043067E+03 -0.10119603889E+04  0.10743675716E+04  0.10100000352E+00 0. -1.
</event>
<event>
 5   0  0.8958919E-05  0.1984279E+04  0.7818609E-02  0.8614006E-01
        1   -1    0    0  501    0  0.00000000000E+00  0.00000000000E+00  0.90190258311E+03  0.90190258313E+03  0.50400001928E-02 0.  1.
       -1   -1    0    0    0  501  0.00000000000E+00  0.00000000000E+00 -0.10914052474E+04  0.10914052474E+04  0.50400001928E-02 0. -1.
    10030    2    1    2    0    0  0.00000000000E+00  0.00000000000E+00 -0.18950266432E+03  0.19933078306E+04  0.19842794278E+04 0.  0.
        4    1    3    3  502    0 -0.47059860955E+03  0.16683747050E+02  0.78249069750E+03  0.91325500453E+03  0.12699999809E+01 0.  1.
       -4    1    3    3    0  502  0.47059860955E+03 -0.16683747050E+02 -0.97199336182E+03  0.10800528260E+04  0.12699999809E+01 0. -1.
</event>
<event>
 5   0  0.8861350E-05  0.1983935E+04  0.7818609E-02  0.8614169E-01
       -1   -1    0    0    0  501  0.00000000000E+00  0.00000000000E+00  0.17783481537E+04  0.17783481537E+04  0.50400001928E-02 0. -1.
        1   -1    0    0  501    0  0.00000000000E+00  0.00000000000E+00 -0.55332227368E+03  0.55332227370E+03  0.50400001928E-02 0.  1.
    10030    2    1    2    0    0  0.00000000000E+00  0.00000000000E+00  0.12250258801E+04  0.23316704274E+04  0.19839351238E+04 0.  0.
        1    1    3    3  502    0 -0.56517285978E+02 -0.94612042923E+03  0.26853331213E+03  0.98511329804E+03  0.50400001928E-02 0.  1.
       -1    1    3    3    0  502  0.56517285978E+02  0.94612042923E+03  0.95649256793E+03  0.13465571294E+04  0.50400001928E-02 0. -1.
</event>
<event>
 5   0  0.8881384E-05  0.2005623E+04  0.7818609E-02  0.8603996E-01
       -1   -1    0    0    0  501  0.00000000000E+00  0.00000000000E+00  0.47744242729E+03  0.47744242732E+03  0.50400001928E-02 0. -1.
        1   -1    0    0  501    0  0.00000000000E+00  0.00000000000E+00 -0.21062872691E+04  0.21062872691E+04  0.50400001928E-02 0.  1.
    10030    2    1    2    0    0  0.00000000000E+00  0.00000000000E+00 -0.16288448418E+04  0.25837296964E+04  0.20056230018E+04 0.  0.
        5    1    3    3  502    0  0.54582544771E+03  0.33358652698E+03 -0.18092958682E+04  0.19190568045E+04  0.46999998093E+01 0.  1.
       -5    1    3    3    0  502 -0.54582544771E+03 -0.33358652698E+03  0.18045102635E+03  0.66467289192E+03  0.46999998093E+01 0. -1.
</event>
<event>
 5   0  0.1893687E-04  0.1975533E+04  0.7818609E-02  0.8618146E-01
        2   -1    0    0  501    0  0.00000000000E+00  0.00000000000E+00  0.16143939810E+04  0.16143939810E+04  0.25500000920E-02 0. -1.
       -2   -1    0    0    0  501  0.00000000000E+00  0.00000000000E+00 -0.60436467836E+03  0.60436467836E+03  0.25500000920E-02 0.  1.
    10030    2    1    2    0    0  0.00000000000E+00  0.00000000000E+00  0.10100293026E+04  0.22187586594E+04  0.19755330410E+04 0.  0.
        4    1    3    3  502    0  0.38168746515E+03 -0.71430790843E+03  0.11401083733E+04  0.13984884072E+04  0.12699999809E+01 0. -1.
       -4    1    3    3    0  502 -0.38168746515E+03  0.71430790843E+03 -0.13007907071E+03  0.82027025219E+03  0.12699999809E+01 0.  1.
</event>
<event>
 5   0  0.8577422E-05  0.2023778E+04  0.7818609E-02  0.8595584E-01
       -1   -1    0    0    0  501  0.00000000000E+00  0.00000000000E+00  0.10666075576E+04  0.10666075576E+04  0.50400001928E-02 0. -1.
        1   -1    0    0  501    0  0.00000000000E+00  0.00000000000E+00 -0.95997783909E+03  0.95997783910E+03  0.50400001928E-02 0.  1.
    10030    2    1    2    0    0  0.00000000000E+00  0.00000000000E+00  0.10662971851E+03  0.20265853967E+04  0.20237782668E+04 0.  0.
        2    1    3    3  502    0 -0.41886788823E+03  0.87817331464E+03 -0.22506523595E+03  0.99864560219E+03  0.25500000920E-02 0. -1.
       -2    1    3    3    0  502  0.41886788823E+03 -0.87817331464E+03  0.33169495446E+03  0.10279397945E+04  0.25500000920E-02 0.  1.
</event>
<event>
 5   0  0.1782172E-04  0.2014532E+04  0.7818609E-02  0.8599857E-01
       -2   -1    0    0    0  501  0.00000000000E+00  0.00000000000E+00  0.58552168994E+03  0.58552168994E+03  0.25500000920E-02 0. -1.
        2   -1    0    0  501    0  0.00000000000E+00  0.00000000000E+00 -0.17327874306E+04  0.17327874306E+04  0.25500000920E-02 0.  1.
    10030    2    1    2    0    0  0.00000000000E+00  0.00000000000E+00 -0.11472657407E+04  0.23183091206E+04  0.20145318312E+04 0.  0.
        2    1    3    3  502    0  0.91970806408E+03 -0.10637020350E+03 -0.10302049427E+04  0.13850991904E+04  0.25500000920E-02 0.  1.
       -2    1    3    3    0  502 -0.91970806408E+03  0.10637020350E+03 -0.11706079801E+03  0.93320993017E+03  0.25500000920E-02 0. -1.
</event>
<event>
 5   0  0.1834645E-04  0.1870404E+04  0.7818609E-02  0.8669730E-01
        2   -1    0    0  501    0  0.00000000000E+00  0.00000000000E+00  0.20700512263E+04  0.20700512263E+04  0.25500000920E-02 0.  1.
       -2   -1    0    0    0  501  0.00000000000E+00  0.00000000000E+00 -0.42250294738E+03  0.42250294739E+03  0.25500000920E-02 0. -1.
    10030    2    1    2    0    0  0.00000000000E+00  0.00000000000E+00  0.16475482789E+04  0.24925541737E+04  0.18704039610E+04 0.  0.
        1    1    3    3  502    0 -0.35962142733E+03  0.54519180420E+03 -0.68232537950E+02  0.65667141983E+03  0.50400001928E-02 0. -1.
       -1    1    3    3    0  502  0.35962142733E+03 -0.54519180420E+03  0.17157808168E+04  0.18358827538E+04  0.50400001928E-02 0.  1.
</event>
<event>
 5   0  0.1807498E-04  0.1996075E+04  0.7818609E-02  0.8608458E-01
       -2   -1    0    0    0  501  0.00000000000E+00  0.00000000000E+00  0.13174114680E+04  0.13174114680E+04  0.25500000920E-02 0.  1.
        2   -1    0    0  501    0  0.00000000000E+00  0.00000000000E+00 -0.75608771023E+03  0.75608771023E+03  0.25500000920E-02 0. -1.
    10030    2    1    2    0    0  0.00000000000E+00  0.00000000000E+00  0.56132375775E+03  0.20734991782E+04  0.19960747684E+04 0.  0.
        5    1    3    3  502    0 -0.85341631932E+03  0.48556212183E+03  0.46638881405E+03  0.10870283364E+04  0.46999998093E+01 0. -1.
       -5    1    3    3    0  502  0.85341631932E+03 -0.48556212183E+03  0.94934943699E+02  0.98647084182E+03  0.46999998093E+01 0.  1.
</event>
<event>
 5   0  0.8577422E-05  0.1988268E+04  0.7818609E-02  0.8612125E-01
       -1   -1    0    0    0  501  0.00000000000E+00  0.00000000000E+00  0.74895446433E+03  0.74895446435E+03  0.50400001928E-02 0. -1.
        1   -1    0    0  501    0  0.00000000000E+00  0.00000000000E+00 -0.13195765082E+04  0.13195765082E+04  0.50400001928E-02 0.  1.
    10030    2    1    2    0    0  0.00000000000E+00  0.00000000000E+00 -0.57062204385E+03  0.20685309725E+04  0.19882683087E+04 0.  0.
        2    1    3    3  502    0 -0.78223587085E+02 -0.51495362706E+03 -0.11662556246E+04  0.12772816249E+04  0.25500000920E-02 0.  1.
       -2    1    3    3    0  502  0.78223587085E+02  0.51495362706E+03  0.59563358070E+03  0.79124934760E+03  0.25500000920E-02 0. -1.
</event>
<event>
 5   0  0.8958919E-05  0.1974446E+04  0.7818609E-02  0.8618662E-01
        1   -1    0    0  501    0  0.00000000000E+00  0.00000000000E+00  0.15320383057E+04  0.15320383057E+04  0.50400001928E-02 0.  1.
       -1   -1    0    0    0  501  0.00000000000E+00  0.00000000000E+00 -0.63615197001E+03  0.63615197003E+03  0.50400001928E-02 0. -1.
    10030    2    1    2    0    0  0.00000000000E+00  0.00000000000E+00  0.89588633567E+03  0.21681902757E+04  0.19744459337E+04 0.  0.
        4    1    3    3  502    0 -0.15624366814E+03  0.77971085692E+02 -0.61905782874E+03  0.64321519126E+03  0.12699999809E+01 0. -1.
       -4    1    3    3    0  502  0.15624366814E+03 -0.77971085692E+02  0.15149441644E+04  0.15249750845E+04  0.12699999809E+01 0.  1.
</event>
<event>
 5   0  0.1893687E-04  0.2004000E+04  0.7818609E-02  0.8604753E-01
       -2   -1    0    0    0  501  0.00000000000E+00  0.00000000000E+00  0.67390316967E+03  0.67390316967E+03  0.25500000920E-02 0. -1.
        2   -1    0    0  501    0  0.00000000000E+00  0.00000000000E+00 -0.14898344432E+04  0.14898344432E+04  0.25500000920E-02 0.  1.
    10030    2    1    2    0    0  0.00000000000E+00  0.00000000000E+00 -0.81593127351E+03  0.21637376129E+04  0.20040001532E+04 0.  0.
        4    1    3    3  502    0 -0.80358330779E+03  0.51347657053E+03 -0.74004992279E+03  0.12070956143E+04  0.12699999809E+01 0.  1.
       -4    1    3    3    0  502  0.80358330779E+03 -0.51347657053E+03 -0.75881350723E+02  0.95664199851E+03  0.12699999809E+01 0. -1.
</event>
<event>
 5   0  0.1812865E-04  0.2021481E+04  0.7818609E-02  0.8596643E-01
       -2   -1    0    0    0  501  0.00000000000E+00  0.00000000000E+00  0.65460481536E+03  0.65460481536E+03  0.25500000920E-02 0. -1.
        2   -1    0    0  501    0  0.00000000000E+00  0.00000000000E+00 -0.15606300636E+04  0.15606300636E+04  0.25500000920E-02 0.  1.
    10030    2    1    2    0    0  0.00000000000E+00  0.00000000000E+00 -0.90602524820E+03  0.22152348789E+04  0.20214806006E+04 0.  0.
        3    1    3    3  502    0  0.57750829959E+03 -0.56028806304E+03 -0.11233252030E+04  0.13817735239E+04  0.10100000352E+00 0.  1.
       -3    1    3    3    0  502 -0.57750829959E+03  0.56028806304E+03  0.21729995476E+03  0.83346135497E+03  0.10100000352E+00 0. -1.
</event>
<event>
 5   0  0.8861350E-05  0.1989044E+04  0.7818609E-02  0.8611760E-01
       -1   -1    0    0    0  501  0.00000000000E+00  0.00000000000E+00  0.12615305321E+04  0.12615305321E+04  0.50400001928E-02 0.  1.
        1   -1    0    0  501    0  0.00000000000E+00  0.00000000000E+00 -0.78402682152E+03  0.78402682153E+03  0.50400001928E-02 0. -1.
    10030    2    1    2    0    0  0.00000000000E+00  0.00000000000E+00  0.47750371058E+03  0.20455573536E+04  0.19890437636E+04 0.  0.
        1    1    3    3  502    0  0.45776211736E+03  0.17843333635E+02  0.11465606107E+04  0.12346925830E+04  0.50400001928E-02 0.  1.
       -1    1    3    3    0  502 -0.45776211736E+03 -0.17843333635E+02 -0.66905690008E+03  0.81086477061E+03  0.50400001928E-02 0. -1.
</event>
<event>
 5   0  0.8765057E-05  0.1969547E+04  0.7818609E-02  0.8620992E-01
        1   -1    0    0  501    0  0.00000000000E+00  0.00000000000E+00  0.10628428427E+04  0.10628428428E+04  0.50400001928E-02 0.  1.
       -1   -1    0    0    0  501  0.00000000000E+00  0.00000000000E+00 -0.91243878538E+03  0.91243878539E+03  0.50400001928E-02 0. -1.
    10030    2    1    2    0    0  0.00000000000E+00  0.00000000000E+00  0.15040405737E+03  0.19752816282E+04  0.19695471891E+04 0.  0.
        3    1    3    3  502    0  0.87450734939E+03 -0.40729653544E+03  0.27357948111E+03  0.10027458874E+04  0.10100000352E+00 0.  1.
       -3    1    3    3    0  502 -0.87450734939E+03  0.40729653544E+03 -0.12317542374E+03  0.97253574080E+03  0.10100000352E+00 0. -1.
</event>
<event>
 5   0  0.8577422E-05  0.2041377E+04  0.7818609E-02  0.8587516E-01
        1   -1    0    0  501    0  0.00000000000E+00  0.00000000000E+00  0.14531259413E+04  0.14531259413E+04  0.50400001928E-02 0.  1.
       -1   -1    0    0    0  501  0.00000000000E+00  0.00000000000E+00 -0.71694078284E+03  0.71694078286E+03  0.50400001928E-02 0. -1.
    10030    2    1    2    0    0  0.00000000000E+00  0.00000000000E+00  0.73618515847E+03  0.21700667242E+04  0.20413772311E+04 0.  0.
        2    1    3    3  502    0 -0.82793718613E+03 -0.11914539935E+03 -0.25369947932E+03  0.87409326515E+03  0.25500000920E-02 0. -1.
       -2    1    3    3    0  502  0.82793718613E+03  0.11914539935E+03  0.98988463779E+03  0.12959734590E+04  0.25500000920E-02 0.  1.
</event>
<event>
 5   0  0.8577422E-05  0.1846286E+04  0.7818609E-02  0.8682065E-01
       -1   -1    0    0    0  501  0.00000000000E+00  0.00000000000E+00  0.12509076911E+04  0.12509076911E+04  0.50400001928E-02 0. -1.
        1   -1    0    0  501    0  0.00000000000E+00  0.00000000000E+00 -0.68125947288E+03  0.68125947290E+03  0.50400001928E-02 0.  1.
    10030    2    1    2    0    0  0.00000000000E+00  0.00000000000E+00  0.56964821825E+03  0.19321671640E+04  0.18462856922E+04 0.  0.
        2    1    3    3  502    0 -0.81227416865E+03 -0.12549561346E+03  0.72467738045E+03  0.10957626476E+04  0.25500000920E-02 0. -1.
       -2    1    3    3    0  502  0.81227416865E+03  0.12549561346E+03 -0.15502916220E+03  0.83640451648E+03  0.25500000920E-02 0.  1.
</event>
<event>
 5   0  0.1807498E-04  0.1927904E+04  0.7818609E-02  0.8641090E-01
        2   -1    0    0  501    0  0.00000000000E+00  0.00000000000E+00  0.15387354873E+04  0.15387354873E+04  0.25500000920E-02 0.  1.
       -2   -1    0    0    0  501  0.00000000000E+00  0.00000000000E+00 -0.60387466725E+03  0.60387466726E+03  0.25500000920E-02 0. -1.
    10030    2    1    2    0    0  0.00000000000E+00  0.00000000000E+00  0.93486082008E+03  0.21426101546E+04  0.19279039192E+04 0.  0.
        5    1    3    3  502    0  0.89323734678E+03 -0.21759163470E+03  0.14539790403E+03  0.93079628151E+03  0.46999998093E+01 0. -1.
       -5    1    3    3    0  502 -0.89323734678E+03  0.21759163470E+03  0.78946291605E+03  0.12118138731E+04  0.46999998093E+01 0.  1.
</event>
<event>
 5   0  0.8881384E-05  0.1893479E+04  0.7818609E-02  0.8658109E-01
        1   -1    0    0  501    0  0.00000000000E+00  0.00000000000E+00  0.19232962973E+04  0.19232962973E+04  0.50400001928E-02 0. -1.
       -1   -1    0    0    0  501  0.00000000000E+00  0.00000000000E+00 -0.46603108620E+03  0.46603108622E+03  0.50400001928E-02 0.  1.
    10030    2    1    2    0    0  0.00000000000E+00  0.00000000000E+00  0.14572652111E+04  0.23893273835E+04  0.18934791919E+04 0.  0.
        5    1    3    3  502    0 -0.52191516406E+03  0.46206038685E+03 -0.79751979494E+02  0.70162504788E+03  0.46999998093E+01 0.  1.
       -5    1    3    3    0  502  0.52191516406E+03 -0.46206038685E+03  0.15370171906E+04  0.16877023356E+04  0.46999998093E+01 0. -1.
</event>
<event>
 5   0  0.8765057E-05  0.1987809E+04  0.7818609E-02  0.8612342E-01
        1   -1    0    0  501    0  0.00000000000E+00  0.00000000000E+00  0.17295022253E+04  0.17295022253E+04  0.50400001928E-02 0.  1.
       -1   -1    0    0    0  501  0.00000000000E+00  0.00000000000E+00 -0.57117373569E+03  0.57117373572E+03  0.50400001928E-02 0. -1.
    10030    2    1    2    0    0  0.00000000000E+00  0.00000000000E+00  0.11583284896E+04  0.23006759610E+04  0.19878090924E+04 0.  0.
        3    1    3    3  502    0  0.60546278415E+03  0.24494586118E+03 -0.28792505250E+03  0.71378183218E+03  0.10100000352E+00 0. -1.
       -3    1    3    3    0  502 -0.60546278415E+03 -0.24494586118E+03  0.14462535421E+04  0.15868941288E+04  0.10100000352E+00 0.  1.
</event>
<event>
 5   0  0.8881384E-05  0.2032731E+04  0.7818609E-02  0.8591469E-01
        1   -1    0    0  501    0  0.00000000000E+00  0.00000000000E+00  0.67374021136E+03  0.67374021138E+03  0.50400001928E-02 0.  1.
       -1   -1    0    0    0  501  0.00000000000E+00  0.00000000000E+00 -0.15332302160E+04  0.15332302160E+04  0.50400001928E-02 0. -1.
    10030    2    1    2    0    0  0.00000000000E+00  0.00000000000E+00 -0.85949000468E+03  0.22069704274E+04  0.20327310199E+04 0.  0.
        5    1    3    3  502    0  0.51674513021E+03 -0.80569475404E+03 -0.80081119996E+03  0.12479944849E+04  0.46999998093E+01 0. -1.
       -5    1    3    3    0  502 -0.51674513021E+03  0.80569475404E+03 -0.58678804720E+02  0.95897594256E+03  0.46999998093E+01 0.  1.
</event>
<event>
 5   0  0.8861350E-05  0.1977935E+04  0.7818609E-02  0.8617007E-01
        1   -1    0    0  501    0  0.00000000000E+00  0.00000000000E+00  0.17709918119E+04  0.17709918119E+04  0.50400001928E-02 0. -1.
       -1   -1    0    0    0  501  0.00000000000E+00  0.00000000000E+00 -0.55226474956E+03  0.55226474958E+03  0.50400001928E-02 0.  1.
    10030    2    1    2    0    0  0.00000000000E+00  0.00000000000E+00  0.12187270624E+04  0.23232565615E+04  0.19779346294E+04 0.  0.
        1    1    3    3  502    0 -0.49344904059E+03  0.84626213427E+03  0.76871303584E+03  0.12452193731E+04  0.50400001928E-02 0.  1.
       -1    1    3    3    0  502  0.49344904059E+03 -0.84626213427E+03  0.45001402652E+03  0.10780371884E+04  0.50400001928E-02 0. -1.
</event>
<event>
 5   0  0.1782172E-04  0.2132454E+04  0.7818609E-02  0.8547080E-01
        2   -1    0    0  501    0  0.00000000000E+00  0.00000000000E+00  0.12407809711E+04  0.12407809711E+04  0.25500000920E-02 0.  1.
       -2   -1    0    0    0  501  0.00000000000E+00  0.00000000000E+00 -0.91622941918E+03  0.91622941918E+03  0.25500000920E-02 0. -1.
    10030    2    1    2    0    0  0.00000000000E+00  0.00000000000E+00  0.32455155189E+03  0.21570103902E+04  0.21324540121E+04 0.  0.
        2    1    3    3  502    0  0.26060931136E+03 -0.46189136313E+03  0.10979026076E+04  0.12192829779E+04  0.25500000920E-02 0.  1.
       -2    1    3    3    0  502 -0.26060931136E+03  0.46189136313E+03 -0.77335105568E+03  0.93772741233E+03  0.25500000920E-02 0. -1.
</event>
<event>
 5   0  0.1834645E-04  0.1927432E+04  0.7818609E-02  0.8641321E-01
       -2   -1    0    0    0  501  0.00000000000E+00  0.00000000000E+00  0.61871961668E+03  0.61871961668E+03  0.25500000920E-02 0. -1.
        2   -1    0    0  501    0  0.00000000000E+00  0.00000000000E+00 -0.15010821368E+04  0.15010821368E+04  0.25500000920E-02 0.  1.
    10030    2    1    2    0    0  0.00000000000E+00  0.00000000000E+00 -0.88236252008E+03  0.21198017534E+04  0.19274324520E+04 0.  0.
        1    1    3    3  502    0  0.63708394063E+03  0.22451782056E+03 -0.11971447008E+04  0.13745688902E+04  0.50400001928E-02 0.  1.
       -1    1    3    3    0  502 -0.63708394063E+03 -0.22451782056E+03  0.31478218073E+03  0.74523286326E+03  0.50400001928E-02 0. -1.
</event>
<event>
 5   0  0.8881384E-05  0.1995543E+04  0.7818609E-02  0.8608708E-01
        1   -1    0    0  501    0  0.00000000000E+00  0.00000000000E+00  0.10834329512E+04  0.10834329512E+04  0.50400001928E-02 0.  1.
       -1   -1    0    0    0  501  0.00000000000E+00  0.00000000000E+00 -0.91888243523E+03  0.91888243525E+03  0.50400001928E-02 0. -1.
    10030    2    1    2    0    0  0.00000000000E+00  0.00000000000E+00  0.16455051600E+03  0.20023153865E+04  0.19955425414E+04 0.  0.
        5    1    3    3  502    0 -0.88877453853E+03  0.45332400240E+03  0.92438166929E+02  0.10019928823E+04  0.46999998093E+01 0. -1.
       -5    1    3    3    0  502  0.88877453853E+03 -0.45332400240E+03  0.72112349074E+02  0.10003225042E+04  0.46999998093E+01 0.  1.
</event>
<event>
 5   0  0.8577422E-05  0.2007172E+04  0.7818609E-02  0.8603275E-01
       -1   -1    0    0    0  501  0.00000000000E+00  0.00000000000E+00  0.85040756903E+03  0.85040756905E+03  0.50400001928E-02 0.  1.
        1   -1    0    0  501    0  0.00000000000E+00  0.00000000000E+00 -0.11843554502E+04  0.11843554502E+04  0.50400001928E-02 0. -1.
    10030    2    1    2    0    0  0.00000000000E+00  0.00000000000E+00 -0.33394788115E+03  0.20347630192E+04  0.20071719800E+04 0.  0.
        2    1    3    3  502    0  0.42544747785E+03  0.60143795489E+02 -0.10863931503E+04  0.11682777536E+04  0.25500000920E-02 0. -1.
       -2    1    3    3    0  502 -0.42544747785E+03 -0.60143795489E+02  0.75244526913E+03  0.86648526565E+03  0.25500000920E-02 0.  1.
</event>
<event>
 5   0  0.8765057E-05  0.1879759E+04  0.7818609E-02  0.8664998E-01
       -1   -1    0    0    0  501  0.00000000000E+00  0.00000000000E+00  0.20097494725E+04  0.20097494725E+04  0.50400001928E-02 0. -1.
        1   -1    0    0  501    0  0.00000000000E+00  0.00000000000E+00 -0.43954384386E+03  0.43954384389E+03  0.50400001928E-02 0.  1.
    10030    2    1    2    0    0  0.00000000000E+00  0.00000000000E+00  0.15702056286E+04  0.24492933164E+04  0.18797585040E+04 0.  0.
        3    1    3    3  502    0 -0.50609405496E+03 -0.12251609466E+03 -0.23441921528E+03  0.57104620182E+03  0.10100000352E+00 0.  1.
       -3    1    3    3    0  502  0.50609405496E+03  0.12251609466E+03  0.18046248439E+04  0.18782471145E+04  0.10100000352E+00 0. -1.
</event>
<event>
 5   0  0.1782172E-04  0.2005680E+04  0.7818609E-02  0.8603970E-01
       -2   -1    0    0    0  501  0.00000000000E+00  0.00000000000E+00  0.87990722440E+03  0.87990722441E+03  0.25500000920E-02 0. -1.
        2   -1    0    0  501    0  0.00000000000E+00  0.00000000000E+00 -0.11429477522E+04  0.11429477522E+04  0.25500000920E-02 0.  1.
    10030    2    1    2    0    0  0.00000000000E+00  0.00000000000E+00 -0.26304052778E+03  0.20228549766E+04  0.20056799189E+04 0.  0.
        2    1    3    3  502    0  0.61885305783E+03 -0.39926809330E+03  0.55496528182E+03  0.92216082195E+03  0.25500000920E-02 0. -1.
       -2    1    3    3    0  502 -0.61885305783E+03  0.39926809330E+03 -0.81800580961E+03  0.11006941546E+04  0.25500000920E-02 0.  1.
</event>
<event>
 5   0  0.1834645E-04  0.1998200E+04  0.7818609E-02  0.8607463E-01
       -2   -1    0    0    0  501  0.00000000000E+00  0.00000000000E+00  0.19091926077E+04  0.19091926077E+04  0.25500000920E-02 0. -1.
        2   -1    0    0  501    0  0.00000000000E+00  0.00000000000E+00 -0.52283918516E+03  0.52283918517E+03  0.25500000920E-02 0.  1.
    10030    2    1    2    0    0  0.00000000000E+00  0.00000000000E+00  0.13863534225E+04  0.24320317928E+04  0.19981998972E+04 0.  0.
        1    1    3    3  502    0 -0.82789132806E+03  0.19135396656E+03  0.13328035472E+04  0.15806282570E+04  0.50400001928E-02 0. -1.
       -1    1    3    3    0  502  0.82789132806E+03 -0.19135396656E+03  0.53549875347E+02  0.85140353580E+03  0.50400001928E-02 0.  1.
</event>
<event>
 5   0  0.8861350E-05  0.1977679E+04  0.7818609E-02  0.8617128E-01
        1   -1    0    0  501    0  0.00000000000E+00  0.00000000000E+00  0.12845255585E+04  0.12845255585E+04  0.50400001928E-02 0. -1.
       -1   -1    0    0    0  501  0.00000000000E+00  0.00000000000E+00 -0.76121790365E+03  0.76121790366E+03  0.50400001928E-02 0.  1.
    10030    2    1    2    0    0  0.00000000000E+00  0.00000000000E+00  0.52330765485E+03  0.20457434622E+04  0.19776792994E+04 0.  0.
        1    1    3    3  502    0  0.66145591826E+03 -0.61872151530E+02 -0.49598223892E+03  0.82906602649E+03  0.50400001928E-02 0.  1.
       -1    1    3    3    0  502 -0.66145591826E+03  0.61872151530E+02  0.10192898938E+04  0.12166774357E+04  0.50400001928E-02 0. -1.
</event>
<event>
 5   0  0.1782172E-04  0.2053018E+04  0.7818609E-02  0.8582226E-01
        2   -1    0    0  501    0  0.00000000000E+00  0.00000000000E+00  0.17884724446E+04  0.17884724446E+04  0.25500000920E-02 0.  1.
       -2   -1    0    0    0  501  0.00000000000E+00  0.00000000000E+00 -0.58917354576E+03  0.58917354577E+03  0.25500000920E-02 0. -1.
    10030    2    1    2    0    0  0.00000000000E+00  0.00000000000E+00  0.11992988988E+04  0.23776459904E+04  0.20530179266E+04 0.  0.
        2    1    3    3  502    0  0.69618009099E+03 -0.57425738875E+02  0.14707516656E+04  0.16282121780E+04  0.25500000920E-02 0.  1.
       -2    1    3    3    0  502 -0.69618009099E+03  0.57425738875E+02 -0.27145276677E+03  0.74943381241E+03  0.25500000920E-02 0. -1.
</event>
<event>
 5   0  0.8958919E-05  0.2003703E+04  0.7818609E-02  0.8604891E-01
        1   -1    0    0  501    0  0.00000000000E+00  0.00000000000E+00  0.10591487395E+04  0.10591487395E+04  0.50400001928E-02 0.  1.
       -1   -1    0    0    0  501  0.00000000000E+00  0.00000000000E+00 -0.94765424423E+03  0.94765424424E+03  0.50400001928E-02 0. -1.
    10030    2    1    2    0    0  0.00000000000E+00  0.00000000000E+00  0.11149449529E+03  0.20068029838E+04  0.20037033696E+04 0.  0.
        4    1    3    3  502    0 -0.87227766908E+03  0.28944036200E+03  0.45518889272E+03  0.10255937773E+04  0.12699999809E+01 0.  1.
       -4    1    3    3    0  502  0.87227766908E+03 -0.28944036200E+03 -0.34369439742E+03  0.98120920646E+03  0.12699999809E+01 0. -1.
</event>
<event>
 5   0  0.8765057E-05  0.1895900E+04  0.7818609E-02  0.8656900E-01
       -1   -1    0    0    0  501  0.00000000000E+00  0.00000000000E+00  0.10478837332E+04  0.10478837332E+04  0.50400001928E-02 0.  1.
        1   -1    0    0  501    0  0.00000000000E+00  0.00000000000E+00 -0.85754676613E+03  0.85754676614E+03  0.50400001928E-02 0. -1.
    10030    2    1    2    0    0  0.00000000000E+00  0.00000000000E+00  0.19033696711E+03  0.19054304994E+04  0.18959001100E+04 0.  0.
        3    1    3    3  502    0  0.32052609478E+03 -0.88563483884E+03  0.20305450502E+03  0.96349218337E+03  0.10100000352E+00 0. -1.
       -3    1    3    3    0  502 -0.32052609478E+03  0.88563483884E+03 -0.12717537914E+02  0.94193831602E+03  0.10100000352E+00 0.  1.
</event>
<event>
 5   0  0.1807498E-04  0.2039239E+04  0.7818609E-02  0.8588492E-01
       -2   -1    0    0    0  501  0.00000000000E+00  0.00000000000E+00  0.42760354399E+03  0.42760354400E+03  0.25500000920E-02 0. -1.
        2   -1    0    0  501    0  0.00000000000E+00  0.00000000000E+00 -0.24312806788E+04  0.24312806788E+04  0.25500000920E-02 0.  1.
    10030    2    1    2    0    0  0.00000000000E+00  0.00000000000E+00 -0.20036771348E+04  0.28588842228E+04  0.20392393040E+04 0.  0.
        5    1    3    3  502    0  0.16692449785E+03  0.85994014265E+03 -0.17333235021E+04  0.19421105246E+04  0.46999998093E+01 0.  1.
       -5    1    3    3    0  502 -0.16692449785E+03 -0.85994014265E+03 -0.27035363268E+03  0.91677369815E+03  0.46999998093E+01 0. -1.
</event>
<event>
 5   0  0.1782172E-04  0.2115863E+04  0.7818609E-02  0.8554287E-01
       -2   -1    0    0    0  501  0.00000000000E+00  0.00000000000E+00  0.82929130169E+03  0.82929130169E+03  0.25500000920E-02 0. -1.
        2   -1    0    0  501    0  0.00000000000E+00  0.00000000000E+00 -0.13496094174E+04  0.13496094174E+04  0.25500000920E-02 0.  1.
    10030    2    1    2    0    0  0.00000000000E+00  0.00000000000E+00 -0.52031811574E+03  0.21789007191E+04  0.21158632759E+04 0.  0.
        2    1    3    3  502    0  0.43629965922E+03  0.96266518242E+03 -0.21254626317E+03  0.10780804980E+04  0.25500000920E-02 0.  1.
       -2    1    3    3    0  502 -0.43629965922E+03 -0.96266518242E+03 -0.30777185257E+03  0.11008202212E+04  0.25500000920E-02 0. -1.
</event>
<event>
 5   0  0.6531625E-05  0.1992009E+04  0.7818609E-02  0.8610366E-01
       -3   -1    0    0    0  501  0.00000000000E+00  0.00000000000E+00  0.92754225458E+03  0.92754226007E+03  0.10100000352E+00 0. -1.
        3   -1    0    0  501    0  0.00000000000E+00  0.00000000000E+00 -0.10695203357E+04  0.10695203405E+04  0.10100000352E+00 0.  1.
    10030    2    1    2    0    0  0.00000000000E+00  0.00000000000E+00 -0.14197808113E+03  0.19970626005E+04  0.19920093511E+04 0.  0.
        1    1    3    3  502    0 -0.59182364853E+03  0.41681305050E+03  0.61487870935E+03  0.94977059191E+03  0.50400001928E-02 0. -1.
       -1    1    3    3    0  502  0.59182364853E+03 -0.41681305050E+03 -0.75685679048E+03  0.10472920086E+04  0.50400001928E-02 0.  1.
</event>
<event>
 5   0  0.8881384E-05  0.2001604E+04  0.7818609E-02  0.8605871E-01
        1   -1    0    0  501    0  0.00000000000E+00  0.00000000000E+00  0.19395226983E+04  0.19395226983E+04  0.50400001928E-02 0.  1.
       -1   -1    0    0    0  501  0.00000000000E+00  0.00000000000E+00 -0.51641788921E+03  0.51641788923E+03  0.50400001928E-02 0. -1.
    10030    2    1    2    0    0  0.00000000000E+00  0.00000000000E+00  0.14231048091E+04  0.24559405875E+04  0.20016035751E+04 0.  0.
        5    1    3    3  502    0  0.31174178108E+03 -0.95097344339E+03  0.72011496523E+03  0.12329319045E+04  0.46999998093E+01 0. -1.
       -5    1    3    3    0  502 -0.31174178108E+03  0.95097344339E+03  0.70298984386E+03  0.12230086830E+04  0.46999998093E+01 0.  1.
</event>
<event>
 5   0  0.8577422E-05  0.1964797E+04  0.7818609E-02  0.8623258E-01
        1   -1    0    0  501    0  0.00000000000E+00  0.00000000000E+00  0.14945706203E+04  0.14945706203E+04  0.50400001928E-02 0.  1.
       -1   -1    0    0    0  501  0.00000000000E+00  0.00000000000E+00 -0.64574179617E+03  0.64574179619E+03  0.50400001928E-02 0. -1.
    10030    2    1    2    0    0  0.00000000000E+00  0.00000000000E+00  0.84882882412E+03  0.21403124165E+04  0.19647969024E+04 0.  0.
        2    1    3    3  502    0 -0.73524673393E+03  0.55347550047E+03  0.49925872436E+02  0.92163739189E+03  0.25500000920E-02 0. -1.
       -2    1    3    3    0  502  0.73524673393E+03 -0.55347550047E+03  0.79890295169E+03  0.12186750246E+04  0.25500000920E-02 0.  1.
</event>
<event>
 5   0  0.8861350E-05  0.1992131E+04  0.7818609E-02  0.8610309E-01
        1   -1    0    0  501    0  0.00000000000E+00  0.00000000000E+00  0.16551169266E+04  0.16551169266E+04  0.50400001928E-02 0. -1.
       -1   -1    0    0    0  501  0.00000000000E+00  0.00000000000E+00 -0.59944185735E+03  0.59944185737E+03  0.50400001928E-02 0.  1.
    10030    2    1    2    0    0  0.00000000000E+00  0.00000000000E+00  0.10556750692E+04  0.22545587840E+04  0.19921308839E+04 0.  0.
        1    1    3    3  502    0  0.58313021502E+03  0.33139984047E+03 -0.30556602977E+03  0.73704633539E+03  0.50400001928E-02 0.  1.
       -1    1    3    3    0  502 -0.58313021502E+03 -0.33139984047E+03  0.13612410990E+04  0.15175124486E+04  0.50400001928E-02 0. -1.
</event>
<event>
 5   0  0.1782172E-04  0.2064641E+04  0.7818609E-02  0.8576981E-01
        2   -1    0    0  501    0  0.00000000000E+00  0.00000000000E+00  0.14849196252E+04  0.14849196252E+04  0.25500000920E-02 0. -1.
       -2   -1    0    0    0  501  0.00000000000E+00  0.00000000000E+00 -0.71767208736E+03  0.71767208736E+03  0.25500000920E-02 0.  1.
    10030    2    1    2    0    0  0.00000000000E+00  0.00000000000E+00  0.76724753781E+03  0.22025917125E+04  0.20646407600E+04 0.  0.
        2    1    3    3  502    0 -0.32282476630E+03  0.71793802604E+03  0.10961055173E+04  0.13494806942E+04  0.25500000920E-02 0. -1.
       -2    1    3    3    0  502  0.32282476630E+03 -0.71793802604E+03 -0.32885797947E+03  0.85311101835E+03  0.25500000920E-02 0.  1.
</event>
<event>
 5   0  0.8861350E-05  0.1983760E+04  0.7818609E-02  0.8614251E-01
       -1   -1    0    0    0  501  0.00000000000E+00  0.00000000000E+00  0.66029069562E+03  0.66029069564E+03  0.50400001928E-02 0.  1.
        1   -1    0    0  501    0  0.00000000000E+00  0.00000000000E+00 -0.14899893857E+04  0.14899893857E+04  0.50400001928E-02 0. -1.
    10030    2    1    2    0    0  0.00000000000E+00  0.00000000000E+00 -0.82969869007E+03  0.21502800813E+04  0.19837601952E+04 0.  0.
        1    1    3    3  502    0 -0.48751390565E+03  0.77999611667E+03 -0.12529759521E+02  0.91990257371E+03  0.50400001928E-02 0.  1.
       -1    1    3    3    0  502  0.48751390565E+03 -0.77999611667E+03 -0.81716893055E+03  0.12303775076E+04  0.50400001928E-02 0. -1.
</event>
<event>
 5   0  0.1807498E-04  0.2002447E+04  0.7818609E-02  0.8605477E-01
       -2   -1    0    0    0  501  0.00000000000E+00  0.00000000000E+00  0.87280848236E+03  0.87280848236E+03  0.25500000920E-02 0.  1.
        2   -1    0    0  501    0  0.00000000000E+00  0.00000000000E+00 -0.11485322090E+04  0.11485322090E+04  0.25500000920E-02 0. -1.
    10030    2    1    2    0    0  0.00000000000E+00  0.00000000000E+00 -0.27572372665E+03  0.20213406914E+04  0.20024471571E+04 0.  0.
        5    1    3    3  502    0  0.63916013701E+03 -0.58146522709E+03  0.37267597820E+03  0.94102973693E+03  0.46999998093E+01 0.  1.
       -5    1    3    3    0  502 -0.63916013701E+03  0.58146522709E+03 -0.64839970485E+03  0.10803109544E+04  0.46999998093E+01 0. -1.
</event>
<event>
 5   0  0.8765057E-05  0.2005051E+04  0.7818609E-02  0.8604263E-01
        1   -1    0    0  501    0  0.00000000000E+00  0.00000000000E+00  0.75012541519E+03  0.75012541520E+03  0.50400001928E-02 0.  1.
       -1   -1    0    0    0  501  0.00000000000E+00  0.00000000000E+00 -0.13398527352E+04  0.13398527353E+04  0.50400001928E-02 0. -1.
    10030    2    1    2    0    0  0.00000000000E+00  0.00000000000E+00 -0.58972732005E+03  0.20899781505E+04  0.20050512107E+04 0.  0.
        3    1    3    3  502    0  0.76257423349E+03 -0.59094875878E+03 -0.57902327414E+03  0.11251701468E+04  0.10100000352E+00 0.  1.
       -3    1    3    3    0  502 -0.76257423349E+03  0.59094875878E+03 -0.10704045911E+02  0.96480800364E+03  0.10100000352E+00 0. -1.
</event>
<event>
 5   0  0.6531625E-05  0.1973980E+04  0.7818609E-02  0.8618883E-01
       -3   -1    0    0    0  501  0.00000000000E+00  0.00000000000E+00  0.14463956670E+04  0.14463956705E+04  0.10100000352E+00 0. -1.
        3   -1    0    0  501    0  0.00000000000E+00  0.00000000000E+00 -0.67350152019E+03  0.67350152777E+03  0.10100000352E+00 0.  1.
    10030    2    1    2    0    0  0.00000000000E+00  0.00000000000E+00  0.77289414680E+03  0.21198971983E+04  0.19739804379E+04 0.  0.
        4    1    3    3  502    0 -0.34953982953E+03  0.87542572609E+03  0.70064860193E+03  0.11745034570E+04  0.12699999809E+01 0.  1.
       -4    1    3    3    0  502  0.34953982953E+03 -0.87542572609E+03  0.72245544869E+02  0.94539374124E+03  0.12699999809E+01 0. -1.
</event>
<event>
 5   0  0.8881384E-05  0.2164584E+04  0.7818609E-02  0.8533315E-01
        1   -1    0    0  501    0  0.00000000000E+00  0.00000000000E+00  0.16139367539E+04  0.16139367539E+04  0.50400001928E-02 0.  1.
       -1   -1    0    0    0  501  0.00000000000E+00  0.00000000000E+00 -0.72577549700E+03  0.72577549701E+03  0.50400001928E-02 0. -1.
    10030    2    1    2    0    0  0.00000000000E+00  0.00000000000E+00  0.88816125691E+03  0.23397122509E+04  0.21645837934E+04 0.  0.
        5    1    3    3  502    0  0.46370829933E+03 -0.90355205334E+03  0.84837709492E+03  0.13233281850E+04  0.46999998093E+01 0.  1.
       -5    1    3    3    0  502 -0.46370829933E+03  0.90355205334E+03  0.39784161980E+02  0.10163840659E+04  0.46999998093E+01 0. -1.
</event>
<event>
 5   0  0.1782172E-04  0.1996688E+04  0.7818609E-02  0.8608171E-01
       -2   -1    0    0    0  501  0.00000000000E+00  0.00000000000E+00  0.49243517562E+03  0.49243517563E+03  0.25500000920E-02 0.  1.
        2   -1    0    0  501    0  0.00000000000E+00  0.00000000000E+00 -0.20240045958E+04  0.20240045958E+04  0.25500000920E-02 0. -1.
    10030    2    1    2    0    0  0.00000000000E+00  0.00000000000E+00 -0.15315694202E+04  0.25164397714E+04  0.19966883168E+04 0.  0.
        2    1    3    3  502    0 -0.45325111114E+03 -0.95421685276E+01  0.35522498237E+03  0.57594479843E+03  0.25500000920E-02 0.  1.
       -2    1    3    3    0  502  0.45325111114E+03  0.95421685276E+01 -0.18867944025E+04  0.19404949730E+04  0.25500000920E-02 0. -1.
</event>
<event>
 5   0  0.6531625E-05  0.1963398E+04  0.7818609E-02  0.8623927E-01
       -3   -1    0    0    0  501  0.00000000000E+00  0.00000000000E+00  0.89833068647E+03  0.89833069215E+03  0.10100000352E+00 0. -1.
        3   -1    0    0  501    0  0.00000000000E+00  0.00000000000E+00 -0.10728039122E+04  0.10728039170E+04  0.10100000352E+00 0.  1.
    10030    2    1    2    0    0  0.00000000000E+00  0.00000000000E+00 -0.17447322575E+03  0.19711346091E+04  0.19633977541E+04 0.  0.
        1    1    3    3  502    0  0.60825427873E+03 -0.74063624914E+03  0.12624506825E+03  0.96667116354E+03  0.50400001928E-02 0.  1.
       -1    1    3    3    0  502 -0.60825427873E+03  0.74063624914E+03 -0.30071829400E+03  0.10044634456E+04  0.50400001928E-02 0. -1.
</event>
<event>
 5   0  0.8861350E-05  0.1998549E+04  0.7818609E-02  0.8607299E-01
       -1   -1    0    0    0  501  0.00000000000E+00  0.00000000000E+00  0.11638713523E+04  0.11638713523E+04  0.50400001928E-02 0.  1.
        1   -1    0    0  501    0  0.00000000000E+00  0.00000000000E+00 -0.85795507846E+03  0.85795507847E+03  0.50400001928E-02 0. -1.
    10030    2    1    2    0    0  0.00000000000E+00  0.00000000000E+00  0.30591627383E+03  0.20218264308E+04  0.19985488109E+04 0.  0.
        1    1    3    3  502    0  0.86195542602E+02  0.60720313363E+03  0.95108565037E+03  0.11316754090E+04  0.50400001928E-02 0.  1.
       -1    1    3    3    0  502 -0.86195542602E+02 -0.60720313363E+03 -0.64516937654E+03  0.89015102173E+03  0.50400001928E-02 0. -1.
</event>
<event>
 5   0  0.1782172E-04  0.1809479E+04  0.7818609E-02  0.8701275E-01
       -2   -1    0    0    0  501  0.00000000000E+00  0.00000000000E+00  0.97341019337E+03  0.97341019338E+03  0.25500000920E-02 0. -1.
        2   -1    0    0  501    0  0.00000000000E+00  0.00000000000E+00 -0.84091303476E+03  0.84091303477E+03  0.25500000920E-02 0.  1.
    10030    2    1    2    0    0  0.00000000000E+00  0.00000000000E+00  0.13249715861E+03  0.18143232281E+04  0.18094787313E+04 0.  0.
        2    1    3    3  502    0 -0.13896537532E+03  0.23151770330E+03 -0.79956862828E+03  0.84393235145E+03  0.25500000920E-02 0.  1.
       -2    1    3    3    0  502  0.13896537532E+03 -0.23151770330E+03  0.93206578689E+03  0.97039087670E+03  0.25500000920E-02 0. -1.
</event>
<event>
 5   0  0.8577422E-05  0.2013862E+04  0.7818609E-02  0.8600167E-01
        1   -1    0    0  501    0  0.00000000000E+00  0.00000000000E+00  0.12254875714E+04  0.12254875715E+04  0.50400001928E-02 0.  1.
       -1   -1    0    0    0  501  0.00000000000E+00  0.00000000000E+00 -0.82735261130E+03  0.82735261131E+03  0.50400001928E-02 0. -1.
    10030    2    1    2    0    0  0.00000000000E+00  0.00000000000E+00  0.39813496015E+03  0.20528401828E+04  0.20138623015E+04 0.  0.
        2    1    3    3  502    0 -0.28981589598E+03  0.31917732142E+03 -0.72851341184E+03  0.84652182919E+03  0.25500000920E-02 0. -1.
       -2    1    3    3    0  502  0.28981589598E+03 -0.31917732142E+03  0.11266483720E+04  0.12063183536E+04  0.25500000920E-02 0.  1.
</event>
<event>
 5   0  0.8577422E-05  0.1969285E+04  0.7818609E-02  0.8621117E-01
       -1   -1    0    0    0  501  0.00000000000E+00  0.00000000000E+00  0.86140566575E+03  0.86140566577E+03  0.50400001928E-02 0.  1.
        1   -1    0    0  501    0  0.00000000000E+00  0.00000000000E+00 -0.11255103542E+04  0.11255103542E+04  0.50400001928E-02 0. -1.
    10030    2    1    2    0    0  0.00000000000E+00  0.00000000000E+00 -0.26410468848E+03  0.19869160200E+04  0.19692851454E+04 0.  0.
        2    1    3    3  502    0 -0.25063066005E+03  0.70146058934E+03  0.51765248219E+03  0.90709799828E+03  0.25500000920E-02 0.  1.
       -2    1    3    3    0  502  0.25063066005E+03 -0.70146058934E+03 -0.78175717066E+03  0.10798180217E+04  0.25500000920E-02 0. -1.
</event>
<event>
 5   0  0.8958919E-05  0.2025205E+04  0.7818609E-02  0.8594927E-01
        1   -1    0    0  501    0  0.00000000000E+00  0.00000000000E+00  0.10225208361E+04  0.10225208361E+04  0.50400001928E-02 0.  1.
       -1   -1    0    0    0  501  0.00000000000E+00  0.00000000000E+00 -0.10027800073E+04  0.10027800073E+04  0.50400001928E-02 0. -1.
    10030    2    1    2    0    0  0.00000000000E+00  0.00000000000E+00  0.19740828748E+02  0.20253008434E+04  0.20252046331E+04 0.  0.
        4    1    3    3  502    0 -0.22932429846E+03 -0.98500152074E+03 -0.40572133355E+02  0.10121587527E+04  0.12699999809E+01 0. -1.
       -4    1    3    3    0  502  0.22932429846E+03  0.98500152074E+03  0.60312962103E+02  0.10131420907E+04  0.12699999809E+01 0.  1.
</event>
<event>
 5   0  0.8958919E-05  0.2011841E+04  0.7818609E-02  0.8601104E-01
       -1   -1    0    0    0  501  0.00000000000E+00  0.00000000000E+00  0.66787886804E+03  0.66787886806E+03  0.50400001928E-02 0. -1.
        1   -1    0    0  501    0  0.00000000000E+00  0.00000000000E+00 -0.15150598430E+04  0.15150598430E+04  0.50400001928E-02 0.  1.
    10030    2    1    2    0    0  0.00000000000E+00  0.00000000000E+00 -0.84718097493E+03  0.21829387110E+04  0.20118413983E+04 0.  0.
        4    1    3    3  502    0 -0.51197958680E+03  0.60831769630E+03 -0.10921943131E+04  0.13509491283E+04  0.12699999809E+01 0.  1.
       -4    1    3    3    0  502  0.51197958680E+03 -0.60831769630E+03  0.24501333816E+03  0.83198958269E+03  0.12699999809E+01 0. -1.
</event>
<event>
 5   0  0.8881384E-05  0.2072908E+04  0.7818609E-02  0.8573273E-01
       -1   -1    0    0    0  501  0.00000000000E+00  0.00000000000E+00  0.64861252204E+03  0.64861252206E+03  0.50400001928E-02 0.  1.
        1   -1    0    0  501    0  0.00000000000E+00  0.00000000000E+00 -0.16562068013E+04  0.16562068013E+04  0.50400001928E-02 0. -1.
    10030    2    1    2    0    0  0.00000000000E+00  0.00000000000E+00 -0.10075942793E+04  0.23048193234E+04  0.20729075912E+04 0.  0.
        5    1    3    3  502    0  0.68608787906E+03  0.65196726429E+03 -0.34120695973E+02  0.94708194123E+03  0.46999998093E+01 0.  1.
       -5    1    3    3    0  502 -0.68608787906E+03 -0.65196726429E+03 -0.97347358328E+03  0.13577373821E+04  0.46999998093E+01 0. -1.
</event>
<event>
 5   0  0.8765057E-05  0.2001613E+04  0.7818609E-02  0.8605867E-01
        1   -1    0    0  501    0  0.00000000000E+00  0.00000000000E+00  0.13479070019E+04  0.13479070019E+04  0.50400001928E-02 0. -1.
       -1   -1    0    0    0  501  0.00000000000E+00  0.00000000000E+00 -0.74308813100E+03  0.74308813102E+03  0.50400001928E-02 0.  1.
    10030    2    1    2    0    0  0.00000000000E+00  0.00000000000E+00  0.60481887091E+03  0.20909951329E+04  0.20016130444E+04 0.  0.
        3    1    3    3  502    0  0.65095420076E+03  0.62608243356E+03  0.75281581552E+03  0.11757772950E+04  0.10100000352E+00 0. -1.
       -3    1    3    3    0  502 -0.65095420076E+03 -0.62608243356E+03 -0.14799694461E+03  0.91521783796E+03  0.10100000352E+00 0.  1.
</event>
<event>
 5   0  0.1807498E-04  0.2009266E+04  0.7818609E-02  0.8602301E-01
        2   -1    0    0  501    0  0.00000000000E+00  0.00000000000E+00  0.21126360765E+04  0.21126360765E+04  0.25500000920E-02 0.  1.
       -2   -1    0    0    0  501  0.00000000000E+00  0.00000000000E+00 -0.47773824472E+03  0.47773824473E+03  0.25500000920E-02 0. -1.
    10030    2    1    2    0    0  0.00000000000E+00  0.00000000000E+00  0.16348978318E+04  0.25903743212E+04  0.20092655882E+04 0.  0.
        5    1    3    3  502    0  0.37563307000E+03  0.61394282966E+03  0.17210392600E+04  0.18654823038E+04  0.46999998093E+01 0.  1.
       -5    1    3    3    0  502 -0.37563307000E+03 -0.61394282966E+03 -0.86141428154E+02  0.72489201748E+03  0.46999998093E+01 0. -1.
</event>
<event>
 5   0  0.8881384E-05  0.1994851E+04  0.7818609E-02  0.8609032E-01
       -1   -1    0    0    0  501  0.00000000000E+00  0.00000000000E+00  0.61605778833E+03  0.61605778835E+03  0.50400001928E-02 0. -1.
        1   -1    0    0  501    0  0.00000000000E+00  0.00000000000E+00 -0.16148770669E+04  0.16148770669E+04  0.50400001928E-02 0.  1.
    10030    2    1    2    0    0  0.00000000000E+00  0.00000000000E+00 -0.99881927861E+03  0.22309348553E+04  0.19948509662E+04 0.  0.
        5    1    3    3  502    0  0.63155953897E+03 -0.22326373706E+03 -0.13258680688E+04  0.14854838853E+04  0.46999998093E+01 0.  1.
       -5    1    3    3    0  502 -0.63155953897E+03  0.22326373706E+03  0.32704879019E+03  0.74545097002E+03  0.46999998093E+01 0. -1.
</event>
<event>
 5   0  0.1834645E-04  0.2002213E+04  0.7818609E-02  0.8605587E-01
        2   -1    0    0  501    0  0.00000000000E+00  0.00000000000E+00  0.69520467407E+03  0.69520467408E+03  0.25500000920E-02 0.  1.
       -2   -1    0    0    0  501  0.00000000000E+00  0.00000000000E+00 -0.14416108266E+04  0.14416108266E+04  0.25500000920E-02 0. -1.
    10030    2    1    2    0    0  0.00000000000E+00  0.00000000000E+00 -0.74640615252E+03  0.21368155007E+04  0.20022133601E+04 0.  0.
        1    1    3    3  502    0  0.12386657003E+03  0.77685518629E+03 -0.10339945297E+04  0.12992273069E+04  0.50400001928E-02 0. -1.
       -1    1    3    3    0  502 -0.12386657003E+03 -0.77685518629E+03  0.28758837714E+03  0.83758819376E+03  0.50400001928E-02 0.  1.
</event>
<event>
 5   0  0.8765057E-05  0.1903168E+04  0.7818609E-02  0.8653281E-01
       -1   -1    0    0    0  501  0.00000000000E+00  0.00000000000E+00  0.53788117722E+03  0.53788117724E+03  0.50400001928E-02 0.  1.
        1   -1    0    0  501    0  0.00000000000E+00  0.00000000000E+00 -0.16834806279E+04  0.16834806279E+04  0.50400001928E-02 0. -1.
    10030    2    1    2    0    0  0.00000000000E+00  0.00000000000E+00 -0.11455994507E+04  0.22213618051E+04  0.19031684549E+04 0.  0.
        3    1    3    3  502    0 -0.56074008342E+03  0.41238816220E+03 -0.13301433360E+04  0.15012577201E+04  0.10100000352E+00 0. -1.
       -3    1    3    3    0  502  0.56074008342E+03 -0.41238816220E+03  0.18454388537E+03  0.72010408505E+03  0.10100000352E+00 0.  1.
</event>
<event>
 5   0  0.8577422E-05  0.2031568E+04  0.7818609E-02  0.8592002E-01
        1   -1    0    0  501    0  0.00000000000E+00  0.00000000000E+00  0.80742663817E+03  0.80742663818E+03  0.50400001928E-02 0.  1.
       -1   -1    0    0    0  501  0.00000000000E+00  0.00000000000E+00 -0.12779083338E+04  0.12779083338E+04  0.50400001928E-02 0. -1.
    10030    2    1    2    0    0  0.00000000000E+00  0.00000000000E+00 -0.47048169564E+03  0.20853349720E+04  0.20315680937E+04 0.  0.
        2    1    3    3  502    0  0.27587451141E+03  0.45604101207E+03 -0.11228441345E+04  0.12429236103E+04  0.25500000920E-02 0. -1.
       -2    1    3    3    0  502 -0.27587451141E+03 -0.45604101207E+03  0.65236243882E+03  0.84241136170E+03  0.25500000920E-02 0.  1.
</event>
<event>
 5   0  0.1834645E-04  0.1909882E+04  0.7818609E-02  0.8649953E-01
       -2   -1    0    0    0  501  0.00000000000E+00  0.00000000000E+00  0.87015282249E+03  0.87015282250E+03  0.25500000920E-02 0. -1.
        2   -1    0    0  501    0  0.00000000000E+00  0.00000000000E+00 -0.10479912298E+04  0.10479912298E+04  0.25500000920E-02 0.  1.
    10030    2    1    2    0    0  0.00000000000E+00  0.00000000000E+00 -0.17783840734E+03  0.19181440523E+04  0.19098822232E+04 0.  0.
        1    1    3    3  502    0  0.27292600628E+03  0.90779133204E+03 -0.20491261604E+03  0.96982621519E+03  0.50400001928E-02 0. -1.
       -1    1    3    3    0  502 -0.27292600628E+03 -0.90779133204E+03  0.27074208700E+02  0.94831783714E+03  0.50400001928E-02 0.  1.
</event>
<event>
 5   0  0.1812865E-04  0.2004739E+04  0.7818609E-02  0.8604408E-01
       -2   -1    0    0    0  501  0.00000000000E+00  0.00000000000E+00  0.81532265314E+03  0.81532265315E+03  0.25500000920E-02 0. -1.
        2   -1    0    0  501    0  0.00000000000E+00  0.00000000000E+00 -0.12323277695E+04  0.12323277695E+04  0.25500000920E-02 0.  1.
    10030    2    1    2    0    0  0.00000000000E+00  0.00000000000E+00 -0.41700511636E+03  0.20476504227E+04  0.20047391317E+04 0.  0.
        3    1    3    3  502    0  0.46208901813E+03 -0.37286028568E+03  0.61636883363E+03  0.85583970613E+03  0.10100000352E+00 0. -1.
       -3    1    3    3    0  502 -0.46208901813E+03  0.37286028568E+03 -0.10333739500E+04  0.11918107165E+04  0.10100000352E+00 0.  1.
</event>
<event>
 5   0  0.1834645E-04  0.1971340E+04  0.7818609E-02  0.8620139E-01
        2   -1    0    0  501    0  0.00000000000E+00  0.00000000000E+00  0.95540483830E+03  0.95540483830E+03  0.25500000920E-02 0.  1.
       -2   -1    0    0    0  501  0.00000000000E+00  0.00000000000E+00 -0.10168934116E+04  0.10168934116E+04  0.25500000920E-02 0. -1.
    10030    2    1    2    0    0  0.00000000000E+00  0.00000000000E+00 -0.61488573346E+02  0.19722982499E+04  0.19713395299E+04 0.  0.
        1    1    3    3  502    0  0.73803253802E+03 -0.29930303306E+03 -0.61177671395E+03  0.10042634518E+04  0.50400001928E-02 0. -1.
       -1    1    3    3    0  502 -0.73803253802E+03  0.29930303306E+03  0.55028814061E+03  0.96803479818E+03  0.50400001928E-02 0.  1.
</event>
<event>
 5   0  0.1812865E-04  0.1993601E+04  0.7818609E-02  0.8609618E-01
        2   -1    0    0  501    0  0.00000000000E+00  0.00000000000E+00  0.12983893925E+04  0.12983893925E+04  0.25500000920E-02 0. -1.
       -2   -1    0    0    0  501  0.00000000000E+00  0.00000000000E+00 -0.76526414323E+03  0.76526414324E+03  0.25500000920E-02 0.  1.
    10030    2    1    2    0    0  0.00000000000E+00  0.00000000000E+00  0.53312524922E+03  0.20636535357E+04  0.19936006079E+04 0.  0.
        3    1    3    3  502    0  0.52688811756E+02  0.98185842991E+03  0.97138659632E+02  0.98805769906E+03  0.10100000352E+00 0. -1.
       -3    1    3    3    0  502 -0.52688811756E+02 -0.98185842991E+03  0.43598658959E+03  0.10755958366E+04  0.10100000352E+00 0.  1.
</event>
<event>
 5   0  0.1782172E-04  0.1991398E+04  0.7818609E-02  0.8610653E-01
       -2   -1    0    0    0  501  0.00000000000E+00  0.00000000000E+00  0.36045688289E+03  0.36045688290E+03  0.25500000920E-02 0. -1.
        2   -1    0    0  501    0  0.00000000000E+00  0.00000000000E+00 -0.27504454113E+04  0.27504454113E+04  0.25500000920E-02 0.  1.
    10030    2    1    2    0    0  0.00000000000E+00  0.00000000000E+00 -0.23899885285E+04  0.31109022942E+04  0.19913984830E+04 0.  0.
        2    1    3    3  502    0  0.51153126043E+03 -0.26045205723E+03  0.75960585592E+02  0.57902462390E+03  0.25500000920E-02 0. -1.
       -2    1    3    3    0  502 -0.51153126043E+03  0.26045205723E+03 -0.24659491140E+04  0.25318776703E+04  0.25500000920E-02 0.  1.
</event>
<event>
 5   0  0.1834645E-04  0.1987355E+04  0.7818609E-02  0.8612555E-01
        2   -1    0    0  501    0  0.00000000000E+00  0.00000000000E+00  0.67420499629E+03  0.67420499630E+03  0.25500000920E-02 0. -1.
       -2   -1    0    0    0  501  0.00000000000E+00  0.00000000000E+00 -0.14645327856E+04  0.14645327856E+04  0.25500000920E-02 0.  1.
    10030    2    1    2    0    0  0.00000000000E+00  0.00000000000E+00 -0.79032778930E+03  0.21387377819E+04  0.19873553495E+04 0.  0.
        1    1    3    3  502    0  0.41742074380E+03  0.51846307951E+03  0.39883818007E+03  0.77596129806E+03  0.50400001928E-02 0. -1.
       -1    1    3    3    0  502 -0.41742074380E+03 -0.51846307951E+03 -0.11891659694E+04  0.13627764838E+04  0.50400001928E-02 0.  1.
</event>
<event>
 5   0  0.8881384E-05  0.1997686E+04  0.7818609E-02  0.8607703E-01
        1   -1    0    0  501    0  0.00000000000E+00  0.00000000000E+00  0.18472779089E+04  0.18472779089E+04  0.50400001928E-02 0. -1.
       -1   -1    0    0    0  501  0.00000000000E+00  0.00000000000E+00 -0.54008493717E+03  0.54008493719E+03  0.50400001928E-02 0.  1.
    10030    2    1    2    0    0  0.00000000000E+00  0.00000000000E+00  0.13071929717E+04  0.23873628461E+04  0.19976856343E+04 0.  0.
        5    1    3    3  502    0  0.18105977333E+03 -0.60562074229E+03  0.15778269428E+04  0.16997408850E+04  0.46999998093E+01 0. -1.
       -5    1    3    3    0  502 -0.18105977333E+03  0.60562074229E+03 -0.27063397104E+03  0.68762196103E+03  0.46999998093E+01 0.  1.
</event>
<event>
 5   0  0.8881384E-05  0.1989124E+04  0.7818609E-02  0.8611722E-01
        1   -1    0    0  501    0  0.00000000000E+00  0.00000000000E+00  0.12674324461E+04  0.12674324461E+04  0.50400001928E-02 0.  1.
       -1   -1    0    0    0  501  0.00000000000E+00  0.00000000000E+00 -0.78043889441E+03  0.78043889442E+03  0.50400001928E-02 0. -1.
    10030    2    1    2    0    0  0.00000000000E+00  0.00000000000E+00  0.48699355165E+03  0.20478713405E+04  0.19891240051E+04 0.  0.
        5    1    3    3  502    0  0.33688824224E+03  0.72327554547E+03  0.85475780127E+03  0.11692964514E+04  0.46999998093E+01 0.  1.
       -5    1    3    3    0  502 -0.33688824224E+03 -0.72327554547E+03 -0.36776424962E+03  0.87857488909E+03  0.46999998093E+01 0. -1.
</event>
<event>
 5   0  0.1782172E-04  0.2017649E+04  0.7818609E-02  0.8598413E-01
        2   -1    0    0  501    0  0.00000000000E+00  0.00000000000E+00  0.21873953734E+04  0.21873953734E+04  0.25500000920E-02 0.  1.
       -2   -1    0    0    0  501  0.00000000000E+00  0.00000000000E+00 -0.46526898289E+03  0.46526898290E+03  0.25500000920E-02 0. -1.
    10030    2    1    2    0    0  0.00000000000E+00  0.00000000000E+00  0.17221263905E+04  0.26526643563E+04  0.20176493457E+04 0.  0.
        2    1    3    3  502    0 -0.82313878576E+03  0.34662231124E+02  0.16265119960E+04  0.18232663557E+04  0.25500000920E-02 0.  1.
       -2    1    3    3    0  502  0.82313878576E+03 -0.34662231124E+02  0.95614394527E+02  0.82939800056E+03  0.25500000920E-02 0. -1.
</event>
<event>
 5   0  0.8765057E-05  0.1770603E+04  0.7818609E-02  0.8722091E-01
        1   -1    0    0  501    0  0.00000000000E+00  0.00000000000E+00  0.12389092144E+04  0.12389092144E+04  0.50400001928E-02 0. -1.
       -1   -1    0    0    0  501  0.00000000000E+00  0.00000000000E+00 -0.63261986205E+03  0.63261986207E+03  0.50400001928E-02 0.  1.
    10030    2    1    2    0    0  0.00000000000E+00  0.00000000000E+00  0.60628935231E+03  0.18715290764E+04  0.17706028084E+04 0.  0.
        3    1    3    3  502    0  0.20132236152E+03  0.75379083645E+03  0.74535437327E+03  0.10790201436E+04  0.10100000352E+00 0. -1.
       -3    1    3    3    0  502 -0.20132236152E+03 -0.75379083645E+03 -0.13906502096E+03  0.79250893283E+03  0.10100000352E+00 0.  1.
</event>
<event>
 5   0  0.8881384E-05  0.1999029E+04  0.7818609E-02  0.8607075E-01
       -1   -1    0    0    0  501  0.00000000000E+00  0.00000000000E+00  0.10531243676E+04  0.10531243676E+04  0.50400001928E-02 0. -1.
        1   -1    0    0  501    0  0.00000000000E+00  0.00000000000E+00 -0.94863364813E+03  0.94863364814E+03  0.50400001928E-02 0.  1.
    10030    2    1    2    0    0  0.00000000000E+00  0.00000000000E+00  0.10449071948E+03  0.20017580158E+04  0.19990289751E+04 0.  0.
        5    1    3    3  502    0  0.88560773197E+03  0.32739881475E+03 -0.27609872907E+03  0.98373961850E+03  0.46999998093E+01 0.  1.
       -5    1    3    3    0  502 -0.88560773197E+03 -0.32739881475E+03  0.38058944856E+03  0.10180183973E+04  0.46999998093E+01 0. -1.
</event>
<event>
 5   0  0.1807498E-04  0.2011013E+04  0.7818609E-02  0.8601489E-01
       -2   -1    0    0    0  501  0.00000000000E+00  0.00000000000E+00  0.62365821556E+03  0.62365821556E+03  0.25500000920E-02 0. -1.
        2   -1    0    0  501    0  0.00000000000E+00  0.00000000000E+00 -0.16211492814E+04  0.16211492814E+04  0.25500000920E-02 0.  1.
    10030    2    1    2    0    0  0.00000000000E+00  0.00000000000E+00 -0.99749106583E+03  0.22448074970E+04  0.20110127478E+04 0.  0.
        5    1    3    3  502    0 -0.33698126573E+02  0.20942459151E+03 -0.15958774711E+04  0.16099196303E+04  0.46999998093E+01 0.  1.
       -5    1    3    3    0  502  0.33698126573E+02 -0.20942459151E+03  0.59838640525E+03  0.63488786668E+03  0.46999998093E+01 0. -1.
</event>
<event>
 5   0  0.1812865E-04  0.1983717E+04  0.7818609E-02  0.8614272E-01
        2   -1    0    0  501    0  0.00000000000E+00  0.00000000000E+00  0.21059250344E+04  0.21059250344E+04  0.25500000920E-02 0.  1.
       -2   -1    0    0    0  501  0.00000000000E+00  0.00000000000E+00 -0.46714999805E+03  0.46714999806E+03  0.25500000920E-02 0. -1.
    10030    2    1    2    0    0  0.00000000000E+00  0.00000000000E+00  0.16387750364E+04  0.25730750325E+04  0.19837165884E+04 0.  0.
        3    1    3    3  502    0  0.10577040933E+03  0.49991054498E+03  0.19220620042E+04  0.19888238461E+04  0.10100000352E+00 0.  1.
       -3    1    3    3    0  502 -0.10577040933E+03 -0.49991054498E+03 -0.28328696784E+03  0.58425118641E+03  0.10100000352E+00 0. -1.
</event>
<event>
 5   0  0.8881384E-05  0.1943556E+04  0.7818609E-02  0.8633474E-01
        1   -1    0    0  501    0  0.00000000000E+00  0.00000000000E+00  0.24049691583E+04  0.24049691583E+04  0.50400001928E-02 0. -1.
       -1   -1    0    0    0  501  0.00000000000E+00  0.00000000000E+00 -0.39266721218E+03  0.39266721221E+03  0.50400001928E-02 0.  1.
    10030    2    1    2    0    0  0.00000000000E+00  0.00000000000E+00  0.20123019461E+04  0.27976363705E+04  0.19435560551E+04 0.  0.
        5    1    3    3  502    0  0.27701211437E+03 -0.83896837784E+03  0.42370710984E+03  0.97987420389E+03  0.46999998093E+01 0.  1.
       -5    1    3    3    0  502 -0.27701211437E+03  0.83896837784E+03  0.15885948363E+04  0.18177621666E+04  0.46999998093E+01 0. -1.
</event>
<event>
 5   0  0.1782172E-04  0.2069610E+04  0.7818609E-02  0.8574750E-01
        2   -1    0    0  501    0  0.00000000000E+00  0.00000000000E+00  0.19797371830E+04  0.19797371830E+04  0.25500000920E-02 0. -1.
       -2   -1    0    0    0  501  0.00000000000E+00  0.00000000000E+00 -0.54089061591E+03  0.54089061591E+03  0.25500000920E-02 0.  1.
    10030    2    1    2    0    0  0.00000000000E+00  0.00000000000E+00  0.14388465671E+04  0.25206277989E+04  0.20696098804E+04 0.  0.
        2    1    3    3  502    0 -0.81354843817E+03 -0.37178010495E+03  0.85704981970E+02  0.89856933601E+03  0.25500000920E-02 0.  1.
       -2    1    3    3    0  502  0.81354843817E+03  0.37178010495E+03  0.13531415851E+04  0.16220584629E+04  0.25500000920E-02 0. -1.
</event>
<event>
 5   0  0.8861350E-05  0.1928712E+04  0.7818609E-02  0.8640695E-01
        1   -1    0    0  501    0  0.00000000000E+00  0.00000000000E+00  0.96393222711E+03  0.96393222712E+03  0.50400001928E-02 0.  1.
       -1   -1    0    0    0  501  0.00000000000E+00  0.00000000000E+00 -0.96478035079E+03  0.96478035081E+03  0.50400001928E-02 0. -1.
    10030    2    1    2    0    0  0.00000000000E+00  0.00000000000E+00 -0.84812368430E+00  0.19287125779E+04  0.19287123915E+04 0.  0.
        1    1    3    3  502    0  0.25771179141E+03  0.82062799125E+03  0.43562323091E+03  0.96416454342E+03  0.50400001928E-02 0. -1.
       -1    1    3    3    0  502 -0.25771179141E+03 -0.82062799125E+03 -0.43647135459E+03  0.96454803451E+03  0.50400001928E-02 0.  1.
</event>
<event>
 5   0  0.1812865E-04  0.2049921E+04  0.7818609E-02  0.8583630E-01
        2   -1    0    0  501    0  0.00000000000E+00  0.00000000000E+00  0.14645687185E+04  0.14645687185E+04  0.25500000920E-02 0. -1.
       -2   -1    0    0    0  501  0.00000000000E+00  0.00000000000E+00 -0.71730594692E+03  0.71730594693E+03  0.25500000920E-02 0.  1.
    10030    2    1    2    0    0  0.00000000000E+00  0.00000000000E+00  0.74726277155E+03  0.21818746654E+04  0.20499208291E+04 0.  0.
        3    1    3    3  502    0 -0.34666433181E+03  0.59792007081E+03 -0.43196347002E+03  0.81503191328E+03  0.10100000352E+00 0.  1.
       -3    1    3    3    0  502  0.34666433181E+03 -0.59792007081E+03  0.11792262416E+04  0.13668427521E+04  0.10100000352E+00 0. -1.
</event>
<event>
 5   0  0.8577422E-05  0.2016033E+04  0.7818609E-02  0.8599161E-01
       -1   -1    0    0    0  501  0.00000000000E+00  0.00000000000E+00  0.99320080899E+03  0.99320080900E+03  0.50400001928E-02 0.  1.
        1   -1    0    0  501    0  0.00000000000E+00  0.00000000000E+00 -0.10230529579E+04  0.10230529579E+04  0.50400001928E-02 0. -1.
    10030    2    1    2    0    0  0.00000000000E+00  0.00000000000E+00 -0.29852148886E+02  0.20162537669E+04  0.20160327631E+04 0.  0.
        2    1    3    3  502    0 -0.95199592231E+03 -0.21458589399E+03 -0.26744867136E+03  0.10118656698E+04  0.25500000920E-02 0. -1.
       -2    1    3    3    0  502  0.95199592231E+03  0.21458589399E+03  0.23759652247E+03  0.10043880970E+04  0.25500000920E-02 0.  1.
</event>
<event>
 5   0  0.8765057E-05  0.1923018E+04  0.7818609E-02  0.8643483E-01
        1   -1    0    0  501    0  0.00000000000E+00  0.00000000000E+00  0.98216235137E+03  0.98216235139E+03  0.50400001928E-02 0.  1.
       -1   -1    0    0    0  501  0.00000000000E+00  0.00000000000E+00 -0.94129008255E+03  0.94129008256E+03  0.50400001928E-02 0. -1.
    10030    2    1    2    0    0  0.00000000000E+00  0.00000000000E+00  0.40872268824E+02  0.19234524339E+04  0.19230181287E+04 0.  0.
        3    1    3    3  502    0 -0.43317744243E+03  0.54182030389E+03  0.68638506946E+03  0.97587725259E+03  0.10100000352E+00 0.  1.
       -3    1    3    3    0  502  0.43317744243E+03 -0.54182030389E+03 -0.64551280064E+03  0.94757518136E+03  0.10100000352E+00 0. -1.
</event>
<event>
 5   0  0.8881384E-05  0.1906701E+04  0.7818609E-02  0.8651528E-01
       -1   -1    0    0    0  501  0.00000000000E+00  0.00000000000E+00  0.51134936437E+03  0.51134936439E+03  0.50400001928E-02 0. -1.
        1   -1    0    0  501    0  0.00000000000E+00  0.00000000000E+00 -0.17774091341E+04  0.17774091341E+04  0.50400001928E-02 0.  1.
    10030    2    1    2    0    0  0.00000000000E+00  0.00000000000E+00 -0.12660597697E+04  0.22887584985E+04  0.19067008480E+04 0.  0.
        5    1    3    3  502    0  0.19603094426E+03 -0.73153989125E+03  0.62024474041E+02  0.75989990721E+03  0.46999998093E+01 0. -1.
       -5    1    3    3    0  502 -0.19603094426E+03  0.73153989125E+03 -0.13280842437E+04  0.15288585913E+04  0.46999998093E+01 0.  1.
</event>
<event>
 5   0  0.8577422E-05  0.1679016E+04  0.7818609E-02  0.8773424E-01
        1   -1    0    0  501    0  0.00000000000E+00  0.00000000000E+00  0.10288824666E+04  0.10288824666E+04  0.50400001928E-02 0.  1.
       -1   -1    0    0    0  501  0.00000000000E+00  0.00000000000E+00 -0.68498938131E+03  0.68498938133E+03  0.50400001928E-02 0. -1.
    10030    2    1    2    0    0  0.00000000000E+00  0.00000000000E+00  0.34389308528E+03  0.17138718479E+04  0.16790158597E+04 0.  0.
        2    1    3    3  502    0 -0.71187936483E+03  0.44488880710E+03  0.16308981160E+03  0.85515879660E+03  0.25500000920E-02 0. -1.
       -2    1    3    3    0  502  0.71187936483E+03 -0.44488880710E+03  0.18080327368E+03  0.85871305134E+03  0.25500000920E-02 0.  1.
</event>
<event>
 5   0  0.1893687E-04  0.1998362E+04  0.7818609E-02  0.8607387E-01
        2   -1    0    0  501    0  0.00000000000E+00  0.00000000000E+00  0.20496599530E+04  0.20496599530E+04  0.25500000920E-02 0.  1.
       -2   -1    0    0    0  501  0.00000000000E+00  0.00000000000E+00 -0.48708716510E+03  0.48708716511E+03  0.25500000920E-02 0. -1.
    10030    2    1    2    0    0  0.00000000000E+00  0.00000000000E+00  0.15625727879E+04  0.25367471181E+04  0.19983623855E+04 0.  0.
        4    1    3    3  502    0  0.74632431884E+02  0.25557131749E+03  0.20038007716E+04  0.20214118441E+04  0.12699999809E+01 0.  1.
       -4    1    3    3    0  502 -0.74632431884E+02 -0.25557131749E+03 -0.44122798367E+03  0.51533527406E+03  0.12699999809E+01 0. -1.
</event>
<event>
 5   0  0.8958919E-05  0.1991887E+04  0.7818609E-02  0.8610423E-01
       -1   -1    0    0    0  501  0.00000000000E+00  0.00000000000E+00  0.57080860016E+03  0.57080860018E+03  0.50400001928E-02 0.  1.
        1   -1    0    0  501    0  0.00000000000E+00  0.00000000000E+00 -0.17377167072E+04  0.17377167072E+04  0.50400001928E-02 0. -1.
    10030    2    1    2    0    0  0.00000000000E+00  0.00000000000E+00 -0.11669081071E+04  0.23085253074E+04  0.19918871867E+04 0.  0.
        4    1    3    3  502    0  0.71441316201E+02  0.57034635438E+03  0.35916426961E+03  0.67779009367E+03  0.12699999809E+01 0.  1.
       -4    1    3    3    0  502 -0.71441316201E+02 -0.57034635438E+03 -0.15260723767E+04  0.16307352138E+04  0.12699999809E+01 0. -1.
</event>
<event>
 5   0  0.8881384E-05  0.1986290E+04  0.7818609E-02  0.8613057E-01
       -1   -1    0    0    0  501  0.00000000000E+00  0.00000000000E+00  0.59033862079E+03  0.59033862081E+03  0.50400001928E-02 0. -1.
        1   -1    0    0  501    0  0.00000000000E+00  0.00000000000E+00 -0.16707993950E+04  0.16707993950E+04  0.50400001928E-02 0.  1.
    10030    2    1    2    0    0  0.00000000000E+00  0.00000000000E+00 -0.10804607742E+04  0.22611380159E+04  0.19862904224E+04 0.  0.
        5    1    3    3  502    0 -0.63292650929E+03  0.59577084660E+03  0.66345386370E+01  0.86925541409E+03  0.46999998093E+01 0. -1.
       -5    1    3    3    0  502  0.63292650929E+03 -0.59577084660E+03 -0.10870953129E+04  0.13918826018E+04  0.46999998093E+01 0.  1.
</event>
<event>
 5   0  0.6531625E-05  0.2178955E+04  0.7818609E-02  0.8527239E-01
        4   -1    0    0  501    0  0.00000000000E+00  0.00000000000E+00  0.15552916272E+04  0.15552921457E+04  0.12699999809E+01 0. -1.
       -4   -1    0    0    0  501  0.00000000000E+00  0.00000000000E+00 -0.76317498004E+03  0.76317603674E+03  0.12699999809E+01 0.  1.
    10030    2    1    2    0    0  0.00000000000E+00  0.00000000000E+00  0.79211664718E+03  0.23184681825E+04  0.21789552383E+04 0.  0.
        5    1    3    3  502    0 -0.29045084012E+03 -0.85522965485E+03  0.10442946715E+04  0.13807073926E+04  0.46999998093E+01 0.  1.
       -5    1    3    3    0  502  0.29045084012E+03  0.85522965485E+03 -0.25217802434E+03  0.93776078987E+03  0.46999998093E+01 0. -1.
</event>
<event>
 5   0  0.1834645E-04  0.1993515E+04  0.7818609E-02  0.8609659E-01
        2   -1    0    0  501    0  0.00000000000E+00  0.00000000000E+00  0.10261375579E+04  0.10261375579E+04  0.25500000920E-02 0. -1.
       -2   -1    0    0    0  501  0.00000000000E+00  0.00000000000E+00 -0.96821866254E+03  0.96821866254E+03  0.25500000920E-02 0.  1.
    10030    2    1    2    0    0  0.00000000000E+00  0.00000000000E+00  0.57918895358E+02  0.19943562204E+04  0.19935150202E+04 0.  0.
        1    1    3    3  502    0  0.82394873456E+03  0.39281804135E+03 -0.37161930653E+03  0.98554474267E+03  0.50400001928E-02 0.  1.
       -1    1    3    3    0  502 -0.82394873456E+03 -0.39281804135E+03  0.42953820189E+03  0.10088114778E+04  0.50400001928E-02 0. -1.
</event>
<event>
 5   0  0.1812865E-04  0.1745658E+04  0.7818609E-02  0.8735744E-01
        2   -1    0    0  501    0  0.00000000000E+00  0.00000000000E+00  0.14350314301E+04  0.14350314301E+04  0.25500000920E-02 0. -1.
       -2   -1    0    0    0  501  0.00000000000E+00  0.00000000000E+00 -0.53088081731E+03  0.53088081732E+03  0.25500000920E-02 0.  1.
    10030    2    1    2    0    0  0.00000000000E+00  0.00000000000E+00  0.90415061279E+03  0.19659122474E+04  0.17456582237E+04 0.  0.
        3    1    3    3  502    0  0.23150224799E+03 -0.77286039943E+03  0.77000421402E+02  0.81045392400E+03  0.10100000352E+00 0.  1.
       -3    1    3    3    0  502 -0.23150224799E+03  0.77286039943E+03  0.82715019138E+03  0.11554583234E+04  0.10100000352E+00 0. -1.
</event>
<event>
 5   0  0.1812865E-04  0.1975811E+04  0.7818609E-02  0.8618014E-01
        2   -1    0    0  501    0  0.00000000000E+00  0.00000000000E+00  0.14220620283E+04  0.14220620283E+04  0.25500000920E-02 0. -1.
       -2   -1    0    0    0  501  0.00000000000E+00  0.00000000000E+00 -0.68629708190E+03  0.68629708190E+03  0.25500000920E-02 0.  1.
    10030    2    1    2    0    0  0.00000000000E+00  0.00000000000E+00  0.73576494639E+03  0.21083591102E+04  0.19758107402E+04 0.  0.
        3    1    3    3  502    0 -0.89284073806E+02  0.92737047007E+03  0.17252096959E+02  0.93181826535E+03  0.10100000352E+00 0. -1.
       -3    1    3    3    0  502  0.89284073806E+02 -0.92737047007E+03  0.71851284943E+03  0.11765408448E+04  0.10100000352E+00 0.  1.
</event>
<event>
 5   0  0.8958919E-05  0.2148520E+04  0.7818609E-02  0.8540166E-01
       -1   -1    0    0    0  501  0.00000000000E+00  0.00000000000E+00  0.10490217179E+04  0.10490217179E+04  0.50400001928E-02 0. -1.
        1   -1    0    0  501    0  0.00000000000E+00  0.00000000000E+00 -0.11001052033E+04  0.11001052033E+04  0.50400001928E-02 0.  1.
    10030    2    1    2    0    0  0.00000000000E+00  0.00000000000E+00 -0.51083485444E+02  0.21491269212E+04  0.21485197232E+04 0.  0.
        4    1    3    3  502    0 -0.15917548938E+03  0.58098940229E+03  0.86417414131E+03  0.10534154363E+04  0.12699999809E+01 0. -1.
       -4    1    3    3    0  502  0.15917548938E+03 -0.58098940229E+03 -0.91525762675E+03  0.10957114849E+04  0.12699999809E+01 0.  1.
</event>
<event>
 5   0  0.1834645E-04  0.1997785E+04  0.7818609E-02  0.8607657E-01
        2   -1    0    0  501    0  0.00000000000E+00  0.00000000000E+00  0.86298917517E+03  0.86298917517E+03  0.25500000920E-02 0. -1.
       -2   -1    0    0    0  501  0.00000000000E+00  0.00000000000E+00 -0.11561980669E+04  0.11561980669E+04  0.25500000920E-02 0.  1.
    10030    2    1    2    0    0  0.00000000000E+00  0.00000000000E+00 -0.29320889175E+03  0.20191872421E+04  0.19977851898E+04 0.  0.
        1    1    3    3  502    0  0.49627777930E+03 -0.58029368585E+03 -0.79751768725E+03  0.11041136072E+04  0.50400001928E-02 0.  1.
       -1    1    3    3    0  502 -0.49627777930E+03  0.58029368585E+03  0.50430879551E+03  0.91507363491E+03  0.50400001928E-02 0. -1.
</event>
<event>
 5   0  0.8577422E-05  0.1994340E+04  0.7818609E-02  0.8609272E-01
        1   -1    0    0  501    0  0.00000000000E+00  0.00000000000E+00  0.15281703953E+04  0.15281703953E+04  0.50400001928E-02 0. -1.
       -1   -1    0    0    0  501  0.00000000000E+00  0.00000000000E+00 -0.65067869007E+03  0.65067869009E+03  0.50400001928E-02 0.  1.
    10030    2    1    2    0    0  0.00000000000E+00  0.00000000000E+00  0.87749170526E+03  0.21788490854E+04  0.19943399019E+04 0.  0.
        2    1    3    3  502    0  0.51345668314E+03  0.57411521760E+03 -0.25317323487E+03  0.81076675771E+03  0.25500000920E-02 0.  1.
       -2    1    3    3    0  502 -0.51345668314E+03 -0.57411521760E+03  0.11306649401E+04  0.13680823277E+04  0.25500000920E-02 0. -1.
</event>
<event>
 5   0  0.8861350E-05  0.1994608E+04  0.7818609E-02  0.8609146E-01
       -1   -1    0    0    0  501  0.00000000000E+00  0.00000000000E+00  0.89952763603E+03  0.89952763604E+03  0.50400001928E-02 0.  1.
        1   -1    0    0  501    0  0.00000000000E+00  0.00000000000E+00 -0.11057081068E+04  0.11057081068E+04  0.50400001928E-02 0. -1.
    10030    2    1    2    0    0  0.00000000000E+00  0.00000000000E+00 -0.20618047073E+03  0.20052357428E+04  0.19946077303E+04 0.  0.
        1    1    3    3  502    0 -0.90849947531E+03 -0.36867491746E+03 -0.28660743768E+03  0.10214873052E+04  0.50400001928E-02 0. -1.
       -1    1    3    3    0  502  0.90849947531E+03  0.36867491746E+03  0.80426966951E+02  0.98374843758E+03  0.50400001928E-02 0.  1.
</event>
<event>
 5   0  0.8881384E-05  0.2031364E+04  0.7818609E-02  0.8592096E-01
       -1   -1    0    0    0  501  0.00000000000E+00  0.00000000000E+00  0.11333696713E+04  0.11333696713E+04  0.50400001928E-02 0. -1.
        1   -1    0    0  501    0  0.00000000000E+00  0.00000000000E+00 -0.91021486917E+03  0.91021486918E+03  0.50400001928E-02 0.  1.
    10030    2    1    2    0    0  0.00000000000E+00  0.00000000000E+00  0.22315480215E+03  0.20435845405E+04  0.20313640020E+04 0.  0.
        5    1    3    3  502    0  0.51022452758E+03 -0.86699268854E+03  0.25235654898E+03  0.10371650343E+04  0.46999998093E+01 0. -1.
       -5    1    3    3    0  502 -0.51022452758E+03  0.86699268854E+03 -0.29201746828E+02  0.10064195062E+04  0.46999998093E+01 0.  1.
</event>
<event>
 5   0  0.1782172E-04  0.2012926E+04  0.7818609E-02  0.8600601E-01
        2   -1    0    0  501    0  0.00000000000E+00  0.00000000000E+00  0.49214272476E+03  0.49214272477E+03  0.25500000920E-02 0.  1.
       -2   -1    0    0    0  501  0.00000000000E+00  0.00000000000E+00 -0.20582804022E+04  0.20582804022E+04  0.25500000920E-02 0. -1.
    10030    2    1    2    0    0  0.00000000000E+00  0.00000000000E+00 -0.15661376774E+04  0.25504231269E+04  0.20129259554E+04 0.  0.
        2    1    3    3  502    0  0.50472163089E+03  0.55555269940E+03  0.66483899476E+02  0.75352693077E+03  0.25500000920E-02 0.  1.
       -2    1    3    3    0  502 -0.50472163089E+03 -0.55555269940E+03 -0.16326215769E+04  0.17968961962E+04  0.25500000920E-02 0. -1.
</event>
<event>
 5   0  0.1834645E-04  0.1981113E+04  0.7818609E-02  0.8615502E-01
        2   -1    0    0  501    0  0.00000000000E+00  0.00000000000E+00  0.14224169593E+04  0.14224169593E+04  0.25500000920E-02 0. -1.
       -2   -1    0    0    0  501  0.00000000000E+00  0.00000000000E+00 -0.68981335283E+03  0.68981335283E+03  0.25500000920E-02 0.  1.
    10030    2    1    2    0    0  0.00000000000E+00  0.00000000000E+00  0.73260360649E+03  0.21122303121E+04  0.19811130324E+04 0.  0.
        1    1    3    3  502    0 -0.36497536184E+03  0.43107701902E+02 -0.61443469811E+03  0.71595760139E+03  0.50400001928E-02 0.  1.
       -1    1    3    3    0  502  0.36497536184E+03 -0.43107701902E+02  0.13470383046E+04  0.13962727108E+04  0.50400001928E-02 0. -1.
</event>
<event>
 5   0  0.1807498E-04  0.2032414E+04  0.7818609E-02  0.8591614E-01
        2   -1    0    0  501    0  0.00000000000E+00  0.00000000000E+00  0.10796170386E+04  0.10796170386E+04  0.25500000920E-02 0. -1.
       -2   -1    0    0    0  501  0.00000000000E+00  0.00000000000E+00 -0.95652094573E+03  0.95652094574E+03  0.25500000920E-02 0.  1.
    10030    2    1    2    0    0  0.00000000000E+00  0.00000000000E+00  0.12309609285E+03  0.20361379843E+04  0.20324136496E+04 0.  0.
        5    1    3    3  502    0  0.40653218016E+02 -0.10151557508E+04  0.40053233546E+02  0.10167695088E+04  0.46999998093E+01 0.  1.
       -5    1    3    3    0  502 -0.40653218016E+02  0.10151557508E+04  0.83042859301E+02  0.10193684755E+04  0.46999998093E+01 0. -1.
</event>
<event>
 5   0  0.6531625E-05  0.2195607E+04  0.7818609E-02  0.8520259E-01
       -3   -1    0    0    0  501  0.00000000000E+00  0.00000000000E+00  0.14928328942E+04  0.14928328976E+04  0.10100000352E+00 0.  1.
        3   -1    0    0  501    0  0.00000000000E+00  0.00000000000E+00 -0.80730588929E+03  0.80730589561E+03  0.10100000352E+00 0. -1.
    10030    2    1    2    0    0  0.00000000000E+00  0.00000000000E+00  0.68552700489E+03  0.23001387932E+04  0.21956072494E+04 0.  0.
        5    1    3    3  502    0  0.61642016074E+03 -0.12111823479E+03 -0.60038014343E+03  0.86897747266E+03  0.46999998093E+01 0. -1.
       -5    1    3    3    0  502 -0.61642016074E+03  0.12111823479E+03  0.12859071483E+04  0.14311613206E+04  0.46999998093E+01 0.  1.
</event>
<event>
 5   0  0.6531625E-05  0.2044855E+04  0.7818609E-02  0.8585932E-01
       -4   -1    0    0    0  501  0.00000000000E+00  0.00000000000E+00  0.61114720373E+03  0.61114852330E+03  0.12699999809E+01 0.  1.
        4   -1    0    0  501    0  0.00000000000E+00  0.00000000000E+00 -0.17104811976E+04  0.17104816691E+04  0.12699999809E+01 0. -1.
    10030    2    1    2    0    0  0.00000000000E+00  0.00000000000E+00 -0.10993339939E+04  0.23216301924E+04  0.20448548897E+04 0.  0.
        5    1    3    3  502    0 -0.17436769535E+03  0.17118485249E+03 -0.16768305628E+04  0.16945474833E+04  0.46999998093E+01 0. -1.
       -5    1    3    3    0  502  0.17436769535E+03 -0.17118485249E+03  0.57749656891E+03  0.62708270906E+03  0.46999998093E+01 0.  1.
</event>
<event>
 5   0  0.1893687E-04  0.1946469E+04  0.7818609E-02  0.8632065E-01
       -2   -1    0    0    0  501  0.00000000000E+00  0.00000000000E+00  0.61379615640E+03  0.61379615640E+03  0.25500000920E-02 0. -1.
        2   -1    0    0  501    0  0.00000000000E+00  0.00000000000E+00 -0.15431601156E+04  0.15431601156E+04  0.25500000920E-02 0.  1.
    10030    2    1    2    0    0  0.00000000000E+00  0.00000000000E+00 -0.92936395921E+03  0.21569562720E+04  0.19464693655E+04 0.  0.
        4    1    3    3  502    0 -0.46096563122E+03 -0.39887776956E+03  0.37603708503E+03  0.71623898974E+03  0.12699999809E+01 0. -1.
       -4    1    3    3    0  502  0.46096563122E+03  0.39887776956E+03 -0.13054010442E+04  0.14407172823E+04  0.12699999809E+01 0.  1.
</event>
<event>
 5   0  0.1834645E-04  0.1996209E+04  0.7818609E-02  0.8608395E-01
        2   -1    0    0  501    0  0.00000000000E+00  0.00000000000E+00  0.98143977954E+03  0.98143977954E+03  0.25500000920E-02 0.  1.
       -2   -1    0    0    0  501  0.00000000000E+00  0.00000000000E+00 -0.10150521994E+04  0.10150521994E+04  0.25500000920E-02 0. -1.
    10030    2    1    2    0    0  0.00000000000E+00  0.00000000000E+00 -0.33612419817E+02  0.19964919789E+04  0.19962090139E+04 0.  0.
        1    1    3    3  502    0  0.12343042361E+03 -0.70803999445E+03  0.67586463332E+03  0.98658436325E+03  0.50400001928E-02 0.  1.
       -1    1    3    3    0  502 -0.12343042361E+03  0.70803999445E+03 -0.70947705313E+03  0.10099076157E+04  0.50400001928E-02 0. -1.
</event>
<event>
 5   0  0.8861350E-05  0.1910818E+04  0.7818609E-02  0.8649490E-01
       -1   -1    0    0    0  501  0.00000000000E+00  0.00000000000E+00  0.59494438189E+03  0.59494438191E+03  0.50400001928E-02 0. -1.
        1   -1    0    0  501    0  0.00000000000E+00  0.00000000000E+00 -0.15342721123E+04  0.15342721123E+04  0.50400001928E-02 0.  1.
    10030    2    1    2    0    0  0.00000000000E+00  0.00000000000E+00 -0.93932773036E+03  0.21292164942E+04  0.19108182263E+04 0.  0.
        1    1    3    3  502    0  0.41058039930E+03  0.56880370505E+03  0.25307749900E+03  0.74576279050E+03  0.50400001928E-02 0. -1.
       -1    1    3    3    0  502 -0.41058039930E+03 -0.56880370505E+03 -0.11924052294E+04  0.13834537037E+04  0.50400001928E-02 0.  1.
</event>
<event>
 5   0  0.8881384E-05  0.2013821E+04  0.7818609E-02  0.8600186E-01
        1   -1    0    0  501    0  0.00000000000E+00  0.00000000000E+00  0.13740893368E+04  0.13740893368E+04  0.50400001928E-02 0.  1.
       -1   -1    0    0    0  501  0.00000000000E+00  0.00000000000E+00 -0.73784812281E+03  0.73784812282E+03  0.50400001928E-02 0. -1.
    10030    2    1    2    0    0  0.00000000000E+00  0.00000000000E+00  0.63624121397E+03  0.21119374596E+04  0.20138214794E+04 0.  0.
        5    1    3    3  502    0  0.45961517165E+03  0.45508932241E+02 -0.62019488077E+03  0.77329227919E+03  0.46999998093E+01 0. -1.
       -5    1    3    3    0  502 -0.45961517165E+03 -0.45508932241E+02  0.12564360947E+04  0.13386451804E+04  0.46999998093E+01 0.  1.
</event>
<event>
 5   0  0.1807498E-04  0.2015819E+04  0.7818609E-02  0.8599260E-01
        2   -1    0    0  501    0  0.00000000000E+00  0.00000000000E+00  0.18850754463E+04  0.18850754463E+04  0.25500000920E-02 0.  1.
       -2   -1    0    0    0  501  0.00000000000E+00  0.00000000000E+00 -0.53890767194E+03  0.53890767194E+03  0.25500000920E-02 0. -1.
    10030    2    1    2    0    0  0.00000000000E+00  0.00000000000E+00  0.13461677744E+04  0.24239831182E+04  0.20158190595E+04 0.  0.
        5    1    3    3  502    0  0.82242685917E+03 -0.49501667456E+03  0.30356398907E+03  0.10067773499E+04  0.46999998093E+01 0.  1.
       -5    1    3    3    0  502 -0.82242685917E+03  0.49501667456E+03  0.10426037853E+04  0.14172057684E+04  0.46999998093E+01 0. -1.
</event>
<event>
 5   0  0.1807498E-04  0.1998055E+04  0.7818609E-02  0.8607530E-01
       -2   -1    0    0    0  501  0.00000000000E+00  0.00000000000E+00  0.10377399905E+04  0.10377399905E+04  0.25500000920E-02 0. -1.
        2   -1    0    0  501    0  0.00000000000E+00  0.00000000000E+00 -0.96175951511E+03  0.96175951511E+03  0.25500000920E-02 0.  1.
    10030    2    1    2    0    0  0.00000000000E+00  0.00000000000E+00  0.75980475434E+02  0.19994995057E+04  0.19980553647E+04 0.  0.
        5    1    3    3  502    0  0.63879545856E+03  0.76792842283E+03  0.21837950676E+02  0.99913597000E+03  0.46999998093E+01 0.  1.
       -5    1    3    3    0  502 -0.63879545856E+03 -0.76792842283E+03  0.54142524757E+02  0.10003635356E+04  0.46999998093E+01 0. -1.
</event>
<event>
 5   0  0.1807498E-04  0.1985193E+04  0.7818609E-02  0.8613575E-01
       -2   -1    0    0    0  501  0.00000000000E+00  0.00000000000E+00  0.11167226984E+04  0.11167226984E+04  0.25500000920E-02 0. -1.
        2   -1    0    0  501    0  0.00000000000E+00  0.00000000000E+00 -0.88226748260E+03  0.88226748260E+03  0.25500000920E-02 0.  1.
    10030    2    1    2    0    0  0.00000000000E+00  0.00000000000E+00  0.23445521585E+03  0.19989901810E+04  0.19851933144E+04 0.  0.
        5    1    3    3  502    0  0.33268723287E+03  0.17030484177E+03 -0.80869634891E+03  0.89089640744E+03  0.46999998093E+01 0.  1.
       -5    1    3    3    0  502 -0.33268723287E+03 -0.17030484177E+03  0.10431515648E+04  0.11080937736E+04  0.46999998093E+01 0. -1.
</event>
<event>
 5   0  0.1893687E-04  0.2047348E+04  0.7818609E-02  0.8584799E-01
       -2   -1    0    0    0  501  0.00000000000E+00  0.00000000000E+00  0.44517804131E+03  0.44517804132E+03  0.25500000920E-02 0. -1.
        2   -1    0    0  501    0  0.00000000000E+00  0.00000000000E+00 -0.23539079741E+04  0.23539079741E+04  0.25500000920E-02 0.  1.
    10030    2    1    2    0    0  0.00000000000E+00  0.00000000000E+00 -0.19087299327E+04  0.27990860154E+04  0.20473476904E+04 0.  0.
        4    1    3    3  502    0 -0.44090388393E+03  0.27559887591E+03  0.25119926806E+03  0.57745446612E+03  0.12699999809E+01 0. -1.
       -4    1    3    3    0  502  0.44090388393E+03 -0.27559887591E+03 -0.21599292008E+04  0.22216315493E+04  0.12699999809E+01 0.  1.
</event>
<event>
 5   0  0.1893687E-04  0.1816715E+04  0.7818609E-02  0.8697461E-01
       -2   -1    0    0    0  501  0.00000000000E+00  0.00000000000E+00  0.13645467988E+04  0.13645467988E+04  0.25500000920E-02 0. -1.
        2   -1    0    0  501    0  0.00000000000E+00  0.00000000000E+00 -0.60467946589E+03  0.60467946590E+03  0.25500000920E-02 0.  1.
    10030    2    1    2    0    0  0.00000000000E+00  0.00000000000E+00  0.75986733295E+03  0.19692262647E+04  0.18167150899E+04 0.  0.
        4    1    3    3  502    0  0.83639213262E+03 -0.37444942491E+02  0.76187438753E+03  0.11319929852E+04  0.12699999809E+01 0.  1.
       -4    1    3    3    0  502 -0.83639213262E+03  0.37444942491E+02 -0.20070545861E+01  0.83723327955E+03  0.12699999809E+01 0. -1.
</event>
<event>
 5   0  0.8881384E-05  0.1998816E+04  0.7818609E-02  0.8607174E-01
       -1   -1    0    0    0  501  0.00000000000E+00  0.00000000000E+00  0.12304517324E+04  0.12304517325E+04  0.50400001928E-02 0.  1.
        1   -1    0    0  501    0  0.00000000000E+00  0.00000000000E+00 -0.81174755750E+03  0.81174755752E+03  0.50400001928E-02 0. -1.
    10030    2    1    2    0    0  0.00000000000E+00  0.00000000000E+00  0.41870417494E+03  0.20421992900E+04  0.19988158379E+04 0.  0.
        5    1    3    3  502    0  0.46955409541E+03  0.68054670118E+03 -0.36423220452E+03  0.90349988921E+03  0.46999998093E+01 0. -1.
       -5    1    3    3    0  502 -0.46955409541E+03 -0.68054670118E+03  0.78293637946E+03  0.11386994008E+04  0.46999998093E+01 0.  1.
</event>
<event>
 5   0  0.1812865E-04  0.2029774E+04  0.7818609E-02  0.8592825E-01
        2   -1    0    0  501    0  0.00000000000E+00  0.00000000000E+00  0.12613968778E+04  0.12613968778E+04  0.25500000920E-02 0. -1.
       -2   -1    0    0    0  501  0.00000000000E+00  0.00000000000E+00 -0.81655163104E+03  0.81655163104E+03  0.25500000920E-02 0.  1.
    10030    2    1    2    0    0  0.00000000000E+00  0.00000000000E+00  0.44484524672E+03  0.20779485088E+04  0.20297740544E+04 0.  0.
        3    1    3    3  502    0  0.93572403650E+03 -0.88558459208E+02 -0.16951319440E+03  0.95506900612E+03  0.10100000352E+00 0. -1.
       -3    1    3    3    0  502 -0.93572403650E+03  0.88558459208E+02  0.61435844112E+03  0.11228795027E+04  0.10100000352E+00 0.  1.
</event>
<event>
 5   0  0.1782172E-04  0.1976231E+04  0.7818609E-02  0.8617815E-01
        2   -1    0    0  501    0  0.00000000000E+00  0.00000000000E+00  0.99534345500E+03  0.99534345500E+03  0.25500000920E-02 0. -1.
       -2   -1    0    0    0  501  0.00000000000E+00  0.00000000000E+00 -0.98093969421E+03  0.98093969422E+03  0.25500000920E-02 0.  1.
    10030    2    1    2    0    0  0.00000000000E+00  0.00000000000E+00  0.14403760783E+02  0.19762831492E+04  0.19762306590E+04 0.  0.
        2    1    3    3  502    0  0.62279064472E+03 -0.59926688229E+03  0.48615397231E+03  0.99163232509E+03  0.25500000920E-02 0. -1.
       -2    1    3    3    0  502 -0.62279064472E+03  0.59926688229E+03 -0.47175021152E+03  0.98465082412E+03  0.25500000920E-02 0.  1.
</event>
<event>
 5   0  0.8765057E-05  0.1966143E+04  0.7818609E-02  0.8622616E-01
       -1   -1    0    0    0  501  0.00000000000E+00  0.00000000000E+00  0.13589050519E+04  0.13589050519E+04  0.50400001928E-02 0. -1.
        1   -1    0    0  501    0  0.00000000000E+00  0.00000000000E+00 -0.71118226851E+03  0.71118226852E+03  0.50400001928E-02 0.  1.
    10030    2    1    2    0    0  0.00000000000E+00  0.00000000000E+00  0.64772278339E+03  0.20700873204E+04  0.19661425966E+04 0.  0.
        3    1    3    3  502    0 -0.60327275412E+03 -0.19463069503E+02  0.11408432580E+04  0.12906743108E+04  0.10100000352E+00 0. -1.
       -3    1    3    3    0  502  0.60327275412E+03  0.19463069503E+02 -0.49312047462E+03  0.77941300966E+03  0.10100000352E+00 0.  1.
</event>
<event>
 5   0  0.1807498E-04  0.2239718E+04  0.7818609E-02  0.8502076E-01
       -2   -1    0    0    0  501  0.00000000000E+00  0.00000000000E+00  0.14920231303E+04  0.14920231303E+04  0.25500000920E-02 0.  1.
        2   -1    0    0  501    0  0.00000000000E+00  0.00000000000E+00 -0.84052566280E+03  0.84052566281E+03  0.25500000920E-02 0. -1.
    10030    2    1    2    0    0  0.00000000000E+00  0.00000000000E+00  0.65149746750E+03  0.23325487931E+04  0.22397175987E+04 0.  0.
        5    1    3    3  502    0  0.10160697335E+04  0.46076907417E+03  0.42648315106E+03  0.11944102358E+04  0.46999998093E+01 0.  1.
       -5    1    3    3    0  502 -0.10160697335E+04 -0.46076907417E+03  0.22501431644E+03  0.11381385574E+04  0.46999998093E+01 0. -1.
</event>
<event>
 5   0  0.1782172E-04  0.1998987E+04  0.7818609E-02  0.8607094E-01
       -2   -1    0    0    0  501  0.00000000000E+00  0.00000000000E+00  0.74641655532E+03  0.74641655533E+03  0.25500000920E-02 0.  1.
        2   -1    0    0  501    0  0.00000000000E+00  0.00000000000E+00 -0.13383780009E+04  0.13383780009E+04  0.25500000920E-02 0. -1.
    10030    2    1    2    0    0  0.00000000000E+00  0.00000000000E+00 -0.59196144553E+03  0.20847945562E+04  0.19989872407E+04 0.  0.
        2    1    3    3  502    0 -0.42162795440E+03  0.90526584040E+03 -0.33912209009E+03  0.10546469389E+04  0.25500000920E-02 0.  1.
       -2    1    3    3    0  502  0.42162795440E+03 -0.90526584040E+03 -0.25283935544E+03  0.10301476173E+04  0.25500000920E-02 0. -1.
</event>
<event>
 5   0  0.8861350E-05  0.1775556E+04  0.7818609E-02  0.8719408E-01
       -1   -1    0    0    0  501  0.00000000000E+00  0.00000000000E+00  0.88024675289E+03  0.88024675291E+03  0.50400001928E-02 0.  1.
        1   -1    0    0  501    0  0.00000000000E+00  0.00000000000E+00 -0.89537318418E+03  0.89537318419E+03  0.50400001928E-02 0. -1.
    10030    2    1    2    0    0  0.00000000000E+00  0.00000000000E+00 -0.15126431281E+02  0.17756199371E+04  0.17755555052E+04 0.  0.
        1    1    3    3  502    0 -0.45399759961E+03  0.52601601270E+03 -0.56016147212E+03  0.89251752977E+03  0.50400001928E-02 0. -1.
       -1    1    3    3    0  502  0.45399759961E+03 -0.52601601270E+03  0.54503504083E+03  0.88310240733E+03  0.50400001928E-02 0.  1.
</event>
<event>
 5   0  0.1807498E-04  0.1989990E+04  0.7818609E-02  0.8611315E-01
       -2   -1    0    0    0  501  0.00000000000E+00  0.00000000000E+00  0.13218173104E+04  0.13218173104E+04  0.25500000920E-02 0. -1.
        2   -1    0    0  501    0  0.00000000000E+00  0.00000000000E+00 -0.74898054496E+03  0.74898054497E+03  0.25500000920E-02 0.  1.
    10030    2    1    2    0    0  0.00000000000E+00  0.00000000000E+00  0.57283676541E+03  0.20707978553E+04  0.19899904015E+04 0.  0.
        5    1    3    3  502    0  0.38315988757E+03  0.28893718421E+03  0.11934177359E+04  0.12862986349E+04  0.46999998093E+01 0. -1.
       -5    1    3    3    0  502 -0.38315988757E+03 -0.28893718421E+03 -0.62058097050E+03  0.78449922040E+03  0.46999998093E+01 0.  1.
</event>
<event>
 5   0  0.1807498E-04  0.1999006E+04  0.7818609E-02  0.8607086E-01
       -2   -1    0    0    0  501  0.00000000000E+00  0.00000000000E+00  0.74025128100E+03  0.74025128101E+03  0.25500000920E-02 0.  1.
        2   -1    0    0  501    0  0.00000000000E+00  0.00000000000E+00 -0.13495497102E+04  0.13495497102E+04  0.25500000920E-02 0. -1.
    10030    2    1    2    0    0  0.00000000000E+00  0.00000000000E+00 -0.60929842915E+03  0.20898009912E+04  0.19990056545E+04 0.  0.
        5    1    3    3  502    0 -0.30251465878E+03  0.74515513422E+03  0.31578151834E+03  0.86400888314E+03  0.46999998093E+01 0.  1.
       -5    1    3    3    0  502  0.30251465878E+03 -0.74515513422E+03 -0.92507994750E+03  0.12257921080E+04  0.46999998093E+01 0. -1.
</event>
<event>
 5   0  0.1812865E-04  0.2026234E+04  0.7818609E-02  0.8594453E-01
        2   -1    0    0  501    0  0.00000000000E+00  0.00000000000E+00  0.15055985634E+04  0.15055985634E+04  0.25500000920E-02 0. -1.
       -2   -1    0    0    0  501  0.00000000000E+00  0.00000000000E+00 -0.68172609151E+03  0.68172609151E+03  0.25500000920E-02 0.  1.
    10030    2    1    2    0    0  0.00000000000E+00  0.00000000000E+00  0.82387247188E+03  0.21873246549E+04  0.20262337713E+04 0.  0.
        3    1    3    3  502    0  0.95472818922E+03  0.19236323350E+03  0.71322440032E+03  0.12071448067E+04  0.10100000352E+00 0. -1.
       -3    1    3    3    0  502 -0.95472818922E+03 -0.19236323350E+03  0.11064807156E+03  0.98017984821E+03  0.10100000352E+00 0.  1.
</event>
<event>
 5   0  0.8577422E-05  0.2023401E+04  0.7818609E-02  0.8595757E-01
       -1   -1    0    0    0  501  0.00000000000E+00  0.00000000000E+00  0.87320687425E+03  0.87320687427E+03  0.50400001928E-02 0. -1.
        1   -1    0    0  501    0  0.00000000000E+00  0.00000000000E+00 -0.11721598270E+04  0.11721598270E+04  0.50400001928E-02 0.  1.
    10030    2    1    2    0    0  0.00000000000E+00  0.00000000000E+00 -0.29895295271E+03  0.20453667012E+04  0.20234011156E+04 0.  0.
        2    1    3    3  502    0 -0.60037156719E+03 -0.23529988713E+03  0.63855414102E+03  0.90750396506E+03  0.25500000920E-02 0. -1.
       -2    1    3    3    0  502  0.60037156719E+03  0.23529988713E+03 -0.93750709373E+03  0.11378627362E+04  0.25500000920E-02 0.  1.
</event>
<event>
 5   0  0.8881384E-05  0.2228955E+04  0.7818609E-02  0.8506472E-01
       -1   -1    0    0    0  501  0.00000000000E+00  0.00000000000E+00  0.63065961962E+03  0.63065961964E+03  0.50400001928E-02 0. -1.
        1   -1    0    0  501    0  0.00000000000E+00  0.00000000000E+00 -0.19694626511E+04  0.19694626512E+04  0.50400001928E-02 0.  1.
    10030    2    1    2    0    0  0.00000000000E+00  0.00000000000E+00 -0.13388030315E+04  0.26001222708E+04  0.22289554203E+04 0.  0.
        5    1    3    3  502    0  0.70101703112E+03 -0.24064184080E+03  0.30148078084E+03  0.80015381314E+03  0.46999998093E+01 0. -1.
       -5    1    3    3    0  502 -0.70101703112E+03  0.24064184080E+03 -0.16402838124E+04  0.17999684577E+04  0.46999998093E+01 0.  1.
</event>
<event>
 5   0  0.1782172E-04  0.1997726E+04  0.7818609E-02  0.8607685E-01
        2   -1    0    0  501    0  0.00000000000E+00  0.00000000000E+00  0.11640219630E+04  0.11640219630E+04  0.25500000920E-02 0.  1.
       -2   -1    0    0    0  501  0.00000000000E+00  0.00000000000E+00 -0.85713795639E+03  0.85713795640E+03  0.25500000920E-02 0. -1.
    10030    2    1    2    0    0  0.00000000000E+00  0.00000000000E+00  0.30688400662E+03  0.20211599194E+04  0.19977261139E+04 0.  0.
        2    1    3    3  502    0  0.25610656778E+03  0.85992325704E+03  0.59753145188E+03  0.10780085427E+04  0.25500000920E-02 0.  1.
       -2    1    3    3    0  502 -0.25610656778E+03 -0.85992325704E+03 -0.29064744525E+03  0.94315137676E+03  0.25500000920E-02 0. -1.
</event>
<event>
 5   0  0.1834645E-04  0.1950822E+04  0.7818609E-02  0.8629965E-01
       -2   -1    0    0    0  501  0.00000000000E+00  0.00000000000E+00  0.68647889725E+03  0.68647889725E+03  0.25500000920E-02 0. -1.
        2   -1    0    0  501    0  0.00000000000E+00  0.00000000000E+00 -0.13859510924E+04  0.13859510924E+04  0.25500000920E-02 0.  1.
    10030    2    1    2    0    0  0.00000000000E+00  0.00000000000E+00 -0.69947219517E+03  0.20724299897E+04  0.19508215475E+04 0.  0.
        1    1    3    3  502    0 -0.58952730987E+03  0.56736193983E+03  0.21438803559E+03  0.84581573033E+03  0.50400001928E-02 0.  1.
       -1    1    3    3    0  502  0.58952730987E+03 -0.56736193983E+03 -0.91386023076E+03  0.12266142593E+04  0.50400001928E-02 0. -1.
</event>
<event>
 5   0  0.8577422E-05  0.2021307E+04  0.7818609E-02  0.8596723E-01
       -1   -1    0    0    0  501  0.00000000000E+00  0.00000000000E+00  0.66500790959E+03  0.66500790961E+03  0.50400001928E-02 0.  1.
        1   -1    0    0  501    0  0.00000000000E+00  0.00000000000E+00 -0.15359520674E+04  0.15359520674E+04  0.50400001928E-02 0. -1.
    10030    2    1    2    0    0  0.00000000000E+00  0.00000000000E+00 -0.87094415782E+03  0.22009599770E+04  0.20213067789E+04 0.  0.
        2    1    3    3  502    0 -0.11210877738E+03  0.92080893395E+03 -0.87233247542E+03  0.12733504696E+04  0.25500000920E-02 0. -1.
       -2    1    3    3    0  502  0.11210877738E+03 -0.92080893395E+03  0.13883175989E+01  0.92760950741E+03  0.25500000920E-02 0.  1.
</event>
<event>
 5   0  0.8765057E-05  0.1967292E+04  0.7818609E-02  0.8622067E-01
        1   -1    0    0  501    0  0.00000000000E+00  0.00000000000E+00  0.12892866103E+04  0.12892866103E+04  0.50400001928E-02 0. -1.
       -1   -1    0    0    0  501  0.00000000000E+00  0.00000000000E+00 -0.75046130219E+03  0.75046130221E+03  0.50400001928E-02 0.  1.
    10030    2    1    2    0    0  0.00000000000E+00  0.00000000000E+00  0.53882530814E+03  0.20397479125E+04  0.19672922594E+04 0.  0.
        3    1    3    3  502    0  0.22412900089E+03 -0.92983880111E+03  0.50749037877E+03  0.10827652099E+04  0.10100000352E+00 0. -1.
       -3    1    3    3    0  502 -0.22412900089E+03  0.92983880111E+03  0.31334929364E+02  0.95698270261E+03  0.10100000352E+00 0.  1.
</event>
<event>
 5   0  0.1782172E-04  0.2002035E+04  0.7818609E-02  0.8605670E-01
        2   -1    0    0  501    0  0.00000000000E+00  0.00000000000E+00  0.23861368547E+04  0.23861368547E+04  0.25500000920E-02 0.  1.
       -2   -1    0    0    0  501  0.00000000000E+00  0.00000000000E+00 -0.41994056211E+03  0.41994056212E+03  0.25500000920E-02 0. -1.
    10030    2    1    2    0    0  0.00000000000E+00  0.00000000000E+00  0.19661962926E+04  0.28060774168E+04  0.20020346171E+04 0.  0.
        2    1    3    3  502    0  0.28369453616E+03 -0.95849484061E+03  0.10578016479E+04  0.14553828622E+04  0.25500000920E-02 0. -1.
       -2    1    3    3    0  502 -0.28369453616E+03  0.95849484061E+03  0.90839464470E+03  0.13506945546E+04  0.25500000920E-02 0.  1.
</event>
<event>
 5   0  0.8861350E-05  0.1985758E+04  0.7818609E-02  0.8613308E-01
        1   -1    0    0  501    0  0.00000000000E+00  0.00000000000E+00  0.12148117565E+04  0.12148117565E+04  0.50400001928E-02 0.  1.
       -1   -1    0    0    0  501  0.00000000000E+00  0.00000000000E+00 -0.81149127028E+03  0.81149127030E+03  0.50400001928E-02 0. -1.
    10030    2    1    2    0    0  0.00000000000E+00  0.00000000000E+00  0.40332048617E+03  0.20263030268E+04  0.19857584298E+04 0.  0.
        1    1    3    3  502    0  0.22383750045E+02 -0.75665207312E+03  0.85726232341E+03  0.11436442118E+04  0.50400001928E-02 0.  1.
       -1    1    3    3    0  502 -0.22383750045E+02  0.75665207312E+03 -0.45394183724E+03  0.88265881497E+03  0.50400001928E-02 0. -1.
</event>
<event>
 5   0  0.8861350E-05  0.2006226E+04  0.7818609E-02  0.8603715E-01
        1   -1    0    0  501    0  0.00000000000E+00  0.00000000000E+00  0.15586728802E+04  0.15586728802E+04  0.50400001928E-02 0. -1.
       -1   -1    0    0    0  501  0.00000000000E+00  0.00000000000E+00 -0.64557227611E+03  0.64557227613E+03  0.50400001928E-02 0.  1.
    10030    2    1    2    0    0  0.00000000000E+00  0.00000000000E+00  0.91310060411E+03  0.22042451564E+04  0.20062263073E+04 0.  0.
        1    1    3    3  502    0  0.92336655057E+03 -0.26427850572E+03  0.77458061128E+03  0.12338654865E+04  0.50400001928E-02 0. -1.
       -1    1    3    3    0  502 -0.92336655057E+03  0.26427850572E+03  0.13851999283E+03  0.97037966989E+03  0.50400001928E-02 0.  1.
</event>
<event>
 5   0  0.8577422E-05  0.1893883E+04  0.7818609E-02  0.8657907E-01
       -1   -1    0    0    0  501  0.00000000000E+00  0.00000000000E+00  0.35133160455E+03  0.35133160459E+03  0.50400001928E-02 0.  1.
        1   -1    0    0  501    0  0.00000000000E+00  0.00000000000E+00 -0.25522852996E+04  0.25522852996E+04  0.50400001928E-02 0. -1.
    10030    2    1    2    0    0  0.00000000000E+00  0.00000000000E+00 -0.22009536951E+04  0.29036169042E+04  0.18938833012E+04 0.  0.
        2    1    3    3  502    0  0.34096965193E+03 -0.87233347185E+03 -0.13144192938E+04  0.16139777166E+04  0.25500000920E-02 0.  1.
       -2    1    3    3    0  502 -0.34096965193E+03  0.87233347185E+03 -0.88653440121E+03  0.12896391876E+04  0.25500000920E-02 0. -1.
</event>
<event>
 5   0  0.1893687E-04  0.2012358E+04  0.7818609E-02  0.8600864E-01
       -2   -1    0    0    0  501  0.00000000000E+00  0.00000000000E+00  0.10159669004E+04  0.10159669004E+04  0.25500000920E-02 0. -1.
        2   -1    0    0  501    0  0.00000000000E+00  0.00000000000E+00 -0.99648571615E+03  0.99648571615E+03  0.25500000920E-02 0.  1.
    10030    2    1    2    0    0  0.00000000000E+00  0.00000000000E+00  0.19481184263E+02  0.20124526166E+04  0.20123583223E+04 0.  0.
        4    1    3    3  502    0 -0.81836308152E+03 -0.42916130187E+03  0.40787648498E+03  0.10100803909E+04  0.12699999809E+01 0. -1.
       -4    1    3    3    0  502  0.81836308152E+03  0.42916130187E+03 -0.38839530072E+03  0.10023722256E+04  0.12699999809E+01 0.  1.
</event>
<event>
 5   0  0.6531625E-05  0.1998713E+04  0.7818609E-02  0.8607223E-01
        4   -1    0    0  501    0  0.00000000000E+00  0.00000000000E+00  0.19143461409E+04  0.19143465622E+04  0.12699999809E+01 0.  1.
       -4   -1    0    0    0  501  0.00000000000E+00  0.00000000000E+00 -0.52169798930E+03  0.52169953511E+03  0.12699999809E+01 0. -1.
    10030    2    1    2    0    0  0.00000000000E+00  0.00000000000E+00  0.13926481516E+04  0.24360460973E+04  0.19987125141E+04 0.  0.
        2    1    3    3  502    0  0.12345237281E+02 -0.90911576165E+03  0.19074794953E+03  0.92899335477E+03  0.25500000920E-02 0. -1.
       -2    1    3    3    0  502 -0.12345237281E+02  0.90911576165E+03  0.12019002021E+04  0.15070527425E+04  0.25500000920E-02 0.  1.
</event>
<event>
 5   0  0.1893687E-04  0.2007751E+04  0.7818609E-02  0.8603005E-01
        2   -1    0    0  501    0  0.00000000000E+00  0.00000000000E+00  0.89853351735E+03  0.89853351735E+03  0.25500000920E-02 0. -1.
       -2   -1    0    0    0  501  0.00000000000E+00  0.00000000000E+00 -0.11215679742E+04  0.11215679742E+04  0.25500000920E-02 0.  1.
    10030    2    1    2    0    0  0.00000000000E+00  0.00000000000E+00 -0.22303445681E+03  0.20201014915E+04  0.20077513957E+04 0.  0.
        4    1    3    3  502    0  0.53907621885E+03  0.14174447622E+03 -0.95156017924E+03  0.11027978300E+04  0.12699999809E+01 0.  1.
       -4    1    3    3    0  502 -0.53907621885E+03 -0.14174447622E+03  0.72852572243E+03  0.91730366150E+03  0.12699999809E+01 0. -1.
</event>
<event>
 5   0  0.1834645E-04  0.2015682E+04  0.7818609E-02  0.8599324E-01
        2   -1    0    0  501    0  0.00000000000E+00  0.00000000000E+00  0.19655085487E+04  0.19655085487E+04  0.25500000920E-02 0.  1.
       -2   -1    0    0    0  501  0.00000000000E+00  0.00000000000E+00 -0.51678427762E+03  0.51678427762E+03  0.25500000920E-02 0. -1.
    10030    2    1    2    0    0  0.00000000000E+00  0.00000000000E+00  0.14487242711E+04  0.24822928263E+04  0.20156824308E+04 0.  0.
        1    1    3    3  502    0  0.57071913048E+03 -0.15016195238E+03  0.17304789255E+04  0.18283397522E+04  0.50400001928E-02 0.  1.
       -1    1    3    3    0  502 -0.57071913048E+03  0.15016195238E+03 -0.28175465443E+03  0.65395307412E+03  0.50400001928E-02 0. -1.
</event>
<event>
 5   0  0.1807498E-04  0.1445131E+04  0.7818609E-02  0.8921783E-01
        2   -1    0    0  501    0  0.00000000000E+00  0.00000000000E+00  0.72433103411E+03  0.72433103411E+03  0.25500000920E-02 0. -1.
       -2   -1    0    0    0  501  0.00000000000E+00  0.00000000000E+00 -0.72080379438E+03  0.72080379438E+03  0.25500000920E-02 0.  1.
    10030    2    1    2    0    0  0.00000000000E+00  0.00000000000E+00  0.35272397272E+01  0.14451348285E+04  0.14451305239E+04 0.  0.
        5    1    3    3  502    0  0.51921872628E+03  0.27009786279E+03 -0.42195633029E+03  0.72153321189E+03  0.46999998093E+01 0.  1.
       -5    1    3    3    0  502 -0.51921872628E+03 -0.27009786279E+03  0.42548357001E+03  0.72360161660E+03  0.46999998093E+01 0. -1.
</event>
<event>
 5   0  0.1812865E-04  0.1986860E+04  0.7818609E-02  0.8612789E-01
        2   -1    0    0  501    0  0.00000000000E+00  0.00000000000E+00  0.11418816173E+04  0.11418816173E+04  0.25500000920E-02 0.  1.
       -2   -1    0    0    0  501  0.00000000000E+00  0.00000000000E+00 -0.86427826259E+03  0.86427826259E+03  0.25500000920E-02 0. -1.
    10030    2    1    2    0    0  0.00000000000E+00  0.00000000000E+00  0.27760335472E+03  0.20061598799E+04  0.19868602973E+04 0.  0.
        3    1    3    3  502    0 -0.79906759765E+03  0.22752985654E+03 -0.41112119607E+03  0.92698409334E+03  0.10100000352E+00 0. -1.
       -3    1    3    3    0  502  0.79906759765E+03 -0.22752985654E+03  0.68872455079E+03  0.10791757866E+04  0.10100000352E+00 0.  1.
</event>
<event>
 5   0  0.1893687E-04  0.2061370E+04  0.7818609E-02  0.8578454E-01
       -2   -1    0    0    0  501  0.00000000000E+00  0.00000000000E+00  0.98639799360E+03  0.98639799360E+03  0.25500000920E-02 0.  1.
        2   -1    0    0  501    0  0.00000000000E+00  0.00000000000E+00 -0.10769603632E+04  0.10769603632E+04  0.25500000920E-02 0. -1.
    10030    2    1    2    0    0  0.00000000000E+00  0.00000000000E+00 -0.90562369646E+02  0.20633583568E+04  0.20613699731E+04 0.  0.
        4    1    3    3  502    0 -0.10101833264E+04 -0.10332324218E+03  0.13142205005E+03  0.10239235389E+04  0.12699999809E+01 0.  1.
       -4    1    3    3    0  502  0.10101833264E+04  0.10332324218E+03 -0.22198441970E+03  0.10394348180E+04  0.12699999809E+01 0. -1.
</event>
<event>
 5   0  0.8765057E-05  0.1949605E+04  0.7818609E-02  0.8630551E-01
        1   -1    0    0  501    0  0.00000000000E+00  0.00000000000E+00  0.26402955170E+04  0.26402955170E+04  0.50400001928E-02 0.  1.
       -1   -1    0    0    0  501  0.00000000000E+00  0.00000000000E+00 -0.35989902593E+03  0.35989902596E+03  0.50400001928E-02 0. -1.
    10030    2    1    2    0    0  0.00000000000E+00  0.00000000000E+00  0.22803964910E+04  0.30001945429E+04  0.19496048674E+04 0.  0.
        3    1    3    3  502    0 -0.10862035636E+03 -0.95761962923E+03  0.91504875568E+03  0.13289650001E+04  0.10100000352E+00 0.  1.
       -3    1    3    3    0  502  0.10862035636E+03  0.95761962923E+03  0.13653477354E+04  0.16712295428E+04  0.10100000352E+00 0. -1.
</event>
<event>
 5   0  0.8577422E-05  0.1985944E+04  0.7818609E-02  0.8613221E-01
       -1   -1    0    0    0  501  0.00000000000E+00  0.00000000000E+00  0.52421553042E+03  0.52421553044E+03  0.50400001928E-02 0. -1.
        1   -1    0    0  501    0  0.00000000000E+00  0.00000000000E+00 -0.18808930358E+04  0.18808930358E+04  0.50400001928E-02 0.  1.
    10030    2    1    2    0    0  0.00000000000E+00  0.00000000000E+00 -0.13566775054E+04  0.24051085662E+04  0.19859439473E+04 0.  0.
        2    1    3    3  502    0 -0.70487818586E+03  0.39613224306E+03 -0.13763784915E+04  0.15963056609E+04  0.25500000920E-02 0.  1.
       -2    1    3    3    0  502  0.70487818586E+03 -0.39613224306E+03  0.19700986166E+02  0.80880290539E+03  0.25500000920E-02 0. -1.
</event>
<event>
 5   0  0.8881384E-05  0.1915452E+04  0.7818609E-02  0.8647203E-01
        1   -1    0    0  501    0  0.00000000000E+00  0.00000000000E+00  0.15528906853E+04  0.15528906854E+04  0.50400001928E-02 0. -1.
       -1   -1    0    0    0  501  0.00000000000E+00  0.00000000000E+00 -0.59066543085E+03  0.59066543087E+03  0.50400001928E-02 0.  1.
    10030    2    1    2    0    0  0.00000000000E+00  0.00000000000E+00  0.96222525449E+03  0.21435561162E+04  0.19154517438E+04 0.  0.
        5    1    3    3  502    0  0.58220862370E+03  0.58841157777E+03  0.10201612422E+04  0.13137526847E+04  0.46999998093E+01 0. -1.
       -5    1    3    3    0  502 -0.58220862370E+03 -0.58841157777E+03 -0.57935987708E+02  0.82980343156E+03  0.46999998093E+01 0.  1.
</event>
<event>
 5   0  0.1893687E-04  0.2000287E+04  0.7818609E-02  0.8606486E-01
       -2   -1    0    0    0  501  0.00000000000E+00  0.00000000000E+00  0.81635485523E+03  0.81635485523E+03  0.25500000920E-02 0.  1.
        2   -1    0    0  501    0  0.00000000000E+00  0.00000000000E+00 -0.12253095766E+04  0.12253095766E+04  0.25500000920E-02 0. -1.
    10030    2    1    2    0    0  0.00000000000E+00  0.00000000000E+00 -0.40895472134E+03  0.20416644318E+04  0.20002874013E+04 0.  0.
        4    1    3    3  502    0  0.10993375767E+03 -0.30003830414E+03  0.76284900120E+03  0.82707232245E+03  0.12699999809E+01 0.  1.
       -4    1    3    3    0  502 -0.10993375767E+03  0.30003830414E+03 -0.11718037225E+04  0.12145921093E+04  0.12699999809E+01 0. -1.
</event>
<event>
 5   0  0.8861350E-05  0.2001932E+04  0.7818609E-02  0.8605718E-01
        1   -1    0    0  501    0  0.00000000000E+00  0.00000000000E+00  0.15280380249E+04  0.15280380249E+04  0.50400001928E-02 0. -1.
       -1   -1    0    0    0  501  0.00000000000E+00  0.00000000000E+00 -0.65569871498E+03  0.65569871500E+03  0.50400001928E-02 0.  1.
    10030    2    1    2    0    0  0.00000000000E+00  0.00000000000E+00  0.87233930988E+03  0.21837367399E+04  0.20019316366E+04 0.  0.
        1    1    3    3  502    0  0.13472496256E+03 -0.92061549685E+03  0.33529135264E+02  0.93102519381E+03  0.50400001928E-02 0.  1.
       -1    1    3    3    0  502 -0.13472496256E+03  0.92061549685E+03  0.83881017462E+03  0.12527115461E+04  0.50400001928E-02 0. -1.
</event>
<event>
 5   0  0.8881384E-05  0.1963038E+04  0.7818609E-02  0.8624099E-01
        1   -1    0    0  501    0  0.00000000000E+00  0.00000000000E+00  0.97732583669E+03  0.97732583670E+03  0.50400001928E-02 0. -1.
       -1   -1    0    0    0  501  0.00000000000E+00  0.00000000000E+00 -0.98573039584E+03  0.98573039585E+03  0.50400001928E-02 0.  1.
    10030    2    1    2    0    0  0.00000000000E+00  0.00000000000E+00 -0.84045591494E+01  0.19630562326E+04  0.19630382410E+04 0.  0.
        5    1    3    3  502    0  0.88628260713E+03 -0.25956882429E+03 -0.33659795475E+03  0.98295122330E+03  0.46999998093E+01 0.  1.
       -5    1    3    3    0  502 -0.88628260713E+03  0.25956882429E+03  0.32819339560E+03  0.98010500925E+03  0.46999998093E+01 0. -1.
</event>
<event>
 5   0  0.8861350E-05  0.1991171E+04  0.7818609E-02  0.8610760E-01
        1   -1    0    0  501    0  0.00000000000E+00  0.00000000000E+00  0.17484808956E+04  0.17484808956E+04  0.50400001928E-02 0. -1.
       -1   -1    0    0    0  501  0.00000000000E+00  0.00000000000E+00 -0.56688645494E+03  0.56688645497E+03  0.50400001928E-02 0.  1.
    10030    2    1    2    0    0  0.00000000000E+00  0.00000000000E+00  0.11815944406E+04  0.23153673506E+04  0.19911706471E+04 0.  0.
        1    1    3    3  502    0 -0.70670646246E+03  0.64386097589E+03  0.26771154743E+03  0.99280433773E+03  0.50400001928E-02 0.  1.
       -1    1    3    3    0  502  0.70670646246E+03 -0.64386097589E+03  0.91388289322E+03  0.13225630128E+04  0.50400001928E-02 0. -1.
</event>
<event>
 5   0  0.8577422E-05  0.2001486E+04  0.7818609E-02  0.8605926E-01
       -1   -1    0    0    0  501  0.00000000000E+00  0.00000000000E+00  0.82627653745E+03  0.82627653746E+03  0.50400001928E-02 0.  1.
        1   -1    0    0  501    0  0.00000000000E+00  0.00000000000E+00 -0.12120480266E+04  0.12120480266E+04  0.50400001928E-02 0. -1.
    10030    2    1    2    0    0  0.00000000000E+00  0.00000000000E+00 -0.38577148917E+03  0.20383245641E+04  0.20014862944E+04 0.  0.
        2    1    3    3  502    0  0.60065022367E+03 -0.43718740769E+03 -0.87572893947E+03  0.11483965761E+04  0.25500000920E-02 0. -1.
       -2    1    3    3    0  502 -0.60065022367E+03  0.43718740769E+03  0.48995745030E+03  0.88992798796E+03  0.25500000920E-02 0.  1.
</event>
<event>
 5   0  0.1807498E-04  0.2010295E+04  0.7818609E-02  0.8601822E-01
       -2   -1    0    0    0  501  0.00000000000E+00  0.00000000000E+00  0.97745550662E+03  0.97745550663E+03  0.25500000920E-02 0. -1.
        2   -1    0    0  501    0  0.00000000000E+00  0.00000000000E+00 -0.10336245370E+04  0.10336245370E+04  0.25500000920E-02 0.  1.
    10030    2    1    2    0    0  0.00000000000E+00  0.00000000000E+00 -0.56169030329E+02  0.20110800436E+04  0.20102954961E+04 0.  0.
        5    1    3    3  502    0 -0.22167376640E+03  0.25320686869E+03  0.91941072840E+03  0.97907668472E+03  0.46999998093E+01 0. -1.
       -5    1    3    3    0  502  0.22167376640E+03 -0.25320686869E+03 -0.97557975873E+03  0.10320033589E+04  0.46999998093E+01 0.  1.
</event>
<event>
 5   0  0.1893687E-04  0.2040037E+04  0.7818609E-02  0.8588128E-01
       -2   -1    0    0    0  501  0.00000000000E+00  0.00000000000E+00  0.10543737965E+04  0.10543737965E+04  0.25500000920E-02 0.  1.
        2   -1    0    0  501    0  0.00000000000E+00  0.00000000000E+00 -0.98678231273E+03  0.98678231273E+03  0.25500000920E-02 0. -1.
    10030    2    1    2    0    0  0.00000000000E+00  0.00000000000E+00  0.67591483729E+02  0.20411561092E+04  0.20400366794E+04 0.  0.
        4    1    3    3  502    0  0.19776166049E+03  0.78994732767E+03  0.64838791663E+03  0.10409298527E+04  0.12699999809E+01 0.  1.
       -4    1    3    3    0  502 -0.19776166049E+03 -0.78994732767E+03 -0.58079643290E+03  0.10002262565E+04  0.12699999809E+01 0. -1.
</event>
<event>
 5   0  0.8765057E-05  0.1924741E+04  0.7818609E-02  0.8642638E-01
       -1   -1    0    0    0  501  0.00000000000E+00  0.00000000000E+00  0.70888265119E+03  0.70888265121E+03  0.50400001928E-02 0.  1.
        1   -1    0    0  501    0  0.00000000000E+00  0.00000000000E+00 -0.13065024308E+04  0.13065024308E+04  0.50400001928E-02 0. -1.
    10030    2    1    2    0    0  0.00000000000E+00  0.00000000000E+00 -0.59761977960E+03  0.20153850820E+04  0.19247409249E+04 0.  0.
        3    1    3    3  502    0  0.12311963941E+03 -0.93053559572E+03 -0.52118360331E+03  0.10736327580E+04  0.10100000352E+00 0. -1.
       -3    1    3    3    0  502 -0.12311963941E+03  0.93053559572E+03 -0.76436176288E+02  0.94175232400E+03  0.10100000352E+00 0.  1.
</event>
<event>
 5   0  0.8577422E-05  0.1991977E+04  0.7818609E-02  0.8610381E-01
       -1   -1    0    0    0  501  0.00000000000E+00  0.00000000000E+00  0.55056108474E+03  0.55056108477E+03  0.50400001928E-02 0.  1.
        1   -1    0    0  501    0  0.00000000000E+00  0.00000000000E+00 -0.18017865914E+04  0.18017865914E+04  0.50400001928E-02 0. -1.
    10030    2    1    2    0    0  0.00000000000E+00  0.00000000000E+00 -0.12512255067E+04  0.23523476762E+04  0.19919774901E+04 0.  0.
        2    1    3    3  502    0 -0.54256951766E+03  0.60721926361E+02 -0.16093367645E+04  0.16994215649E+04  0.25500000920E-02 0. -1.
       -2    1    3    3    0  502  0.54256951766E+03 -0.60721926361E+02  0.35811125779E+03  0.65292611128E+03  0.25500000920E-02 0.  1.
</event>
<event>
 5   0  0.1893687E-04  0.1997104E+04  0.7818609E-02  0.8607976E-01
        2   -1    0    0  501    0  0.00000000000E+00  0.00000000000E+00  0.93452451096E+03  0.93452451096E+03  0.25500000920E-02 0.  1.
       -2   -1    0    0    0  501  0.00000000000E+00  0.00000000000E+00 -0.10669659970E+04  0.10669659970E+04  0.25500000920E-02 0. -1.
    10030    2    1    2    0    0  0.00000000000E+00  0.00000000000E+00 -0.13244148607E+03  0.20014905080E+04  0.19971037796E+04 0.  0.
        4    1    3    3  502    0 -0.92550298035E+03 -0.28528481290E+03 -0.30998550246E+03  0.10168755163E+04  0.12699999809E+01 0. -1.
       -4    1    3    3    0  502  0.92550298035E+03  0.28528481290E+03  0.17754401639E+03  0.98461499164E+03  0.12699999809E+01 0.  1.
</event>
<event>
 5   0  0.8861350E-05  0.2002558E+04  0.7818609E-02  0.8605426E-01
        1   -1    0    0  501    0  0.00000000000E+00  0.00000000000E+00  0.16474123301E+04  0.16474123301E+04  0.50400001928E-02 0.  1.
       -1   -1    0    0    0  501  0.00000000000E+00  0.00000000000E+00 -0.60856611444E+03  0.60856611447E+03  0.50400001928E-02 0. -1.
    10030    2    1    2    0    0  0.00000000000E+00  0.00000000000E+00  0.10388462156E+04  0.22559784445E+04  0.20025576852E+04 0.  0.
        1    1    3    3  502    0 -0.71385940897E+03 -0.45119859028E+03  0.11254432946E+04  0.14070529603E+04  0.50400001928E-02 0.  1.
       -1    1    3    3    0  502  0.71385940897E+03  0.45119859028E+03 -0.86597079022E+02  0.84892548422E+03  0.50400001928E-02 0. -1.
</event>
<event>
 5   0  0.1834645E-04  0.1991519E+04  0.7818609E-02  0.8610596E-01
       -2   -1    0    0    0  501  0.00000000000E+00  0.00000000000E+00  0.92820592014E+03  0.92820592014E+03  0.25500000920E-02 0.  1.
        2   -1    0    0  501    0  0.00000000000E+00  0.00000000000E+00 -0.10682293254E+04  0.10682293254E+04  0.25500000920E-02 0. -1.
    10030    2    1    2    0    0  0.00000000000E+00  0.00000000000E+00 -0.14002340531E+03  0.19964352456E+04  0.19915188013E+04 0.  0.
        1    1    3    3  502    0 -0.94797925232E+03  0.10423866197E+03 -0.35708629095E+03  0.10183520907E+04  0.50400001928E-02 0. -1.
       -1    1    3    3    0  502  0.94797925232E+03 -0.10423866197E+03  0.21706288564E+03  0.97808315486E+03  0.50400001928E-02 0.  1.
</event>
<event>
 5   0  0.8861350E-05  0.2011425E+04  0.7818609E-02  0.8601298E-01
        1   -1    0    0  501    0  0.00000000000E+00  0.00000000000E+00  0.76543773892E+03  0.76543773894E+03  0.50400001928E-02 0.  1.
       -1   -1    0    0    0  501  0.00000000000E+00  0.00000000000E+00 -0.13214106014E+04  0.13214106014E+04  0.50400001928E-02 0. -1.
    10030    2    1    2    0    0  0.00000000000E+00  0.00000000000E+00 -0.55597286250E+03  0.20868483404E+04  0.20114249108E+04 0.  0.
        1    1    3    3  502    0 -0.91611519188E+03 -0.23330924114E+03 -0.63401182586E+03  0.11382755563E+04  0.50400001928E-02 0. -1.
       -1    1    3    3    0  502  0.91611519188E+03  0.23330924114E+03  0.78038963367E+02  0.94857278404E+03  0.50400001928E-02 0.  1.
</event>
<event>
 5   0  0.8861350E-05  0.1976155E+04  0.7818609E-02  0.8617851E-01
        1   -1    0    0  501    0  0.00000000000E+00  0.00000000000E+00  0.18095750376E+04  0.18095750376E+04  0.50400001928E-02 0. -1.
       -1   -1    0    0    0  501  0.00000000000E+00  0.00000000000E+00 -0.53951749358E+03  0.53951749360E+03  0.50400001928E-02 0.  1.
    10030    2    1    2    0    0  0.00000000000E+00  0.00000000000E+00  0.12700575440E+04  0.23490925312E+04  0.19761552457E+04 0.  0.
        1    1    3    3  502    0 -0.40375621451E+02  0.50853157471E+02  0.18070360978E+04  0.18082023375E+04  0.50400001928E-02 0. -1.
       -1    1    3    3    0  502  0.40375621451E+02 -0.50853157471E+02 -0.53697855378E+03  0.54089019374E+03  0.50400001928E-02 0.  1.
</event>
<event>
 5   0  0.1812865E-04  0.1998035E+04  0.7818609E-02  0.8607540E-01
        2   -1    0    0  501    0  0.00000000000E+00  0.00000000000E+00  0.14726041545E+04  0.14726041545E+04  0.25500000920E-02 0. -1.
       -2   -1    0    0    0  501  0.00000000000E+00  0.00000000000E+00 -0.67773571113E+03  0.67773571113E+03  0.25500000920E-02 0.  1.
    10030    2    1    2    0    0  0.00000000000E+00  0.00000000000E+00  0.79486844333E+03  0.21503398656E+04  0.19980354590E+04 0.  0.
        3    1    3    3  502    0 -0.58723644791E+03 -0.64064744042E+03 -0.13283087111E+03  0.87915859729E+03  0.10100000352E+00 0.  1.
       -3    1    3    3    0  502  0.58723644791E+03  0.64064744042E+03  0.92769931444E+03  0.12711812683E+04  0.10100000352E+00 0. -1.
</event>
<event>
 5   0  0.8881384E-05  0.2027057E+04  0.7818609E-02  0.8594074E-01
       -1   -1    0    0    0  501  0.00000000000E+00  0.00000000000E+00  0.11866567953E+04  0.11866567953E+04  0.50400001928E-02 0.  1.
        1   -1    0    0  501    0  0.00000000000E+00  0.00000000000E+00 -0.86565855169E+03  0.86565855170E+03  0.50400001928E-02 0. -1.
    10030    2    1    2    0    0  0.00000000000E+00  0.00000000000E+00  0.32099824365E+03  0.20523153470E+04  0.20270565881E+04 0.  0.
        5    1    3    3  502    0  0.83886124522E+03  0.25783832497E+03  0.67381647318E+03  0.11064445400E+04  0.46999998093E+01 0.  1.
       -5    1    3    3    0  502 -0.83886124522E+03 -0.25783832497E+03 -0.35281822953E+03  0.94587080705E+03  0.46999998093E+01 0. -1.
</event>
<event>
 5   0  0.1812865E-04  0.1982776E+04  0.7818609E-02  0.8614716E-01
        2   -1    0    0  501    0  0.00000000000E+00  0.00000000000E+00  0.12431343772E+04  0.12431343772E+04  0.25500000920E-02 0. -1.
       -2   -1    0    0    0  501  0.00000000000E+00  0.00000000000E+00 -0.79062235374E+03  0.79062235375E+03  0.25500000920E-02 0.  1.
    10030    2    1    2    0    0  0.00000000000E+00  0.00000000000E+00  0.45251202349E+03  0.20337567310E+04  0.19827756579E+04 0.  0.
        3    1    3    3  502    0 -0.17394071362E+03  0.76414393529E+03  0.84905704682E+03  0.11554519482E+04  0.10100000352E+00 0. -1.
       -3    1    3    3    0  502  0.17394071362E+03 -0.76414393529E+03 -0.39654502333E+03  0.87830478276E+03  0.10100000352E+00 0.  1.
</event>
<event>
 5   0  0.1893687E-04  0.2061164E+04  0.7818609E-02  0.8578547E-01
       -2   -1    0    0    0  501  0.00000000000E+00  0.00000000000E+00  0.49006060944E+03  0.49006060945E+03  0.25500000920E-02 0.  1.
        2   -1    0    0  501    0  0.00000000000E+00  0.00000000000E+00 -0.21672806072E+04  0.21672806072E+04  0.25500000920E-02 0. -1.
    10030    2    1    2    0    0  0.00000000000E+00  0.00000000000E+00 -0.16772199978E+04  0.26573412167E+04  0.20611636085E+04 0.  0.
        4    1    3    3  502    0 -0.71979303708E+03  0.88860684339E+02 -0.17825781858E+04  0.19244700151E+04  0.12699999809E+01 0. -1.
       -4    1    3    3    0  502  0.71979303708E+03 -0.88860684339E+02  0.10535818804E+03  0.73287120160E+03  0.12699999809E+01 0.  1.
</event>
<event>
 5   0  0.1812865E-04  0.1982716E+04  0.7818609E-02  0.8614745E-01
        2   -1    0    0  501    0  0.00000000000E+00  0.00000000000E+00  0.20282580034E+04  0.20282580034E+04  0.25500000920E-02 0. -1.
       -2   -1    0    0    0  501  0.00000000000E+00  0.00000000000E+00 -0.48454898103E+03  0.48454898104E+03  0.25500000920E-02 0.  1.
    10030    2    1    2    0    0  0.00000000000E+00  0.00000000000E+00  0.15437090224E+04  0.25128069845E+04  0.19827156618E+04 0.  0.
        3    1    3    3  502    0 -0.40161353872E+03  0.32664205109E+03  0.18433529307E+04  0.19146640701E+04  0.10100000352E+00 0. -1.
       -3    1    3    3    0  502  0.40161353872E+03 -0.32664205109E+03 -0.29964390831E+03  0.59814291437E+03  0.10100000352E+00 0.  1.
</event>
<event>
 5   0  0.1834645E-04  0.1993540E+04  0.7818609E-02  0.8609647E-01
        2   -1    0    0  501    0  0.00000000000E+00  0.00000000000E+00  0.20459862734E+04  0.20459862734E+04  0.25500000920E-02 0.  1.
       -2   -1    0    0    0  501  0.00000000000E+00  0.00000000000E+00 -0.48560946721E+03  0.48560946722E+03  0.25500000920E-02 0. -1.
    10030    2    1    2    0    0  0.00000000000E+00  0.00000000000E+00  0.15603768062E+04  0.25315957406E+04  0.19935398708E+04 0.  0.
        1    1    3    3  502    0 -0.44180860264E+03  0.70275512158E+03  0.14809276595E+04  0.16977061980E+04  0.50400001928E-02 0.  1.
       -1    1    3    3    0  502  0.44180860264E+03 -0.70275512158E+03  0.79449146724E+02  0.83388954257E+03  0.50400001928E-02 0. -1.
</event>
<event>
 5   0  0.8577422E-05  0.1925117E+04  0.7818609E-02  0.8642454E-01
        1   -1    0    0  501    0  0.00000000000E+00  0.00000000000E+00  0.27828547649E+04  0.27828547649E+04  0.50400001928E-02 0.  1.
       -1   -1    0    0    0  501  0.00000000000E+00  0.00000000000E+00 -0.33293840189E+03  0.33293840193E+03  0.50400001928E-02 0. -1.
    10030    2    1    2    0    0  0.00000000000E+00  0.00000000000E+00  0.24499163630E+04  0.31157931669E+04  0.19251173660E+04 0.  0.
        2    1    3    3  502    0  0.11620051097E+03 -0.43454118006E+03  0.26022877063E+04  0.26408767298E+04  0.25500000920E-02 0.  1.
       -2    1    3    3    0  502 -0.11620051097E+03  0.43454118006E+03 -0.15237134324E+03  0.47491643703E+03  0.25500000920E-02 0. -1.
</event>
<event>
 5   0  0.8958919E-05  0.2031723E+04  0.7818609E-02  0.8591931E-01
       -1   -1    0    0    0  501  0.00000000000E+00  0.00000000000E+00  0.87562632480E+03  0.87562632481E+03  0.50400001928E-02 0. -1.
        1   -1    0    0  501    0  0.00000000000E+00  0.00000000000E+00 -0.11785555866E+04  0.11785555867E+04  0.50400001928E-02 0.  1.
    10030    2    1    2    0    0  0.00000000000E+00  0.00000000000E+00 -0.30292926185E+03  0.20541819115E+04  0.20317227143E+04 0.  0.
        4    1    3    3  502    0  0.38793910871E+03  0.68796314498E+03  0.49448957663E+03  0.93183238579E+03  0.12699999809E+01 0. -1.
       -4    1    3    3    0  502 -0.38793910871E+03 -0.68796314498E+03 -0.79741883848E+03  0.11223495257E+04  0.12699999809E+01 0.  1.
</event>
<event>
 5   0  0.1807498E-04  0.1875025E+04  0.7818609E-02  0.8667389E-01
       -2   -1    0    0    0  501  0.00000000000E+00  0.00000000000E+00  0.31097343731E+03  0.31097343732E+03  0.25500000920E-02 0. -1.
        2   -1    0    0  501    0  0.00000000000E+00  0.00000000000E+00 -0.28263822002E+04  0.28263822002E+04  0.25500000920E-02 0.  1.
    10030    2    1    2    0    0  0.00000000000E+00  0.00000000000E+00 -0.25154087629E+04  0.31373556375E+04  0.18750251070E+04 0.  0.
        5    1    3    3  502    0  0.83801885818E+03  0.38346754654E+03 -0.15455041789E+04  0.17994244144E+04  0.46999998093E+01 0.  1.
       -5    1    3    3    0  502 -0.83801885818E+03 -0.38346754654E+03 -0.96990458393E+03  0.13379312231E+04  0.46999998093E+01 0. -1.
</event>
<event>
 5   0  0.8861350E-05  0.2000457E+04  0.7818609E-02  0.8606407E-01
        1   -1    0    0  501    0  0.00000000000E+00  0.00000000000E+00  0.11545280547E+04  0.11545280547E+04  0.50400001928E-02 0.  1.
       -1   -1    0    0    0  501  0.00000000000E+00  0.00000000000E+00 -0.86655079088E+03  0.86655079090E+03  0.50400001928E-02 0. -1.
    10030    2    1    2    0    0  0.00000000000E+00  0.00000000000E+00  0.28797726384E+03  0.20210788456E+04  0.20004571467E+04 0.  0.
        1    1    3    3  502    0  0.50112131799E+03  0.84493062380E+03  0.33414915455E+03  0.10376348066E+04  0.50400001928E-02 0.  1.
       -1    1    3    3    0  502 -0.50112131799E+03 -0.84493062380E+03 -0.46171890708E+02  0.98344403902E+03  0.50400001928E-02 0. -1.
</event>
<event>
 5   0  0.8958919E-05  0.2055105E+04  0.7818609E-02  0.8581282E-01
        1   -1    0    0  501    0  0.00000000000E+00  0.00000000000E+00  0.11209706880E+04  0.11209706880E+04  0.50400001928E-02 0. -1.
       -1   -1    0    0    0  501  0.00000000000E+00  0.00000000000E+00 -0.94191932648E+03  0.94191932649E+03  0.50400001928E-02 0.  1.
    10030    2    1    2    0    0  0.00000000000E+00  0.00000000000E+00  0.17905136154E+03  0.20628900145E+04  0.20551048202E+04 0.  0.
        4    1    3    3  502    0  0.83329291807E+03  0.94312949927E+01  0.69296548014E+03  0.10838213904E+04  0.12699999809E+01 0.  1.
       -4    1    3    3    0  502 -0.83329291807E+03 -0.94312949927E+01 -0.51391411860E+03  0.97906862417E+03  0.12699999809E+01 0. -1.
</event>
<event>
 5   0  0.8881384E-05  0.2010144E+04  0.7818609E-02  0.8601893E-01
       -1   -1    0    0    0  501  0.00000000000E+00  0.00000000000E+00  0.11042458531E+04  0.11042458531E+04  0.50400001928E-02 0. -1.
        1   -1    0    0  501    0  0.00000000000E+00  0.00000000000E+00 -0.91480521076E+03  0.91480521077E+03  0.50400001928E-02 0.  1.
    10030    2    1    2    0    0  0.00000000000E+00  0.00000000000E+00  0.18944064232E+03  0.20190510639E+04  0.20101441345E+04 0.  0.
        5    1    3    3  502    0 -0.19102038803E+03  0.78702273928E+03 -0.50310953652E+03  0.95343320507E+03  0.46999998093E+01 0.  1.
       -5    1    3    3    0  502  0.19102038803E+03 -0.78702273928E+03  0.69255017884E+03  0.10656178588E+04  0.46999998093E+01 0. -1.
</event>
<event>
 5   0  0.1893687E-04  0.2010869E+04  0.7818609E-02  0.8601556E-01
       -2   -1    0    0    0  501  0.00000000000E+00  0.00000000000E+00  0.10004298044E+04  0.10004298044E+04  0.25500000920E-02 0. -1.
        2   -1    0    0  501    0  0.00000000000E+00  0.00000000000E+00 -0.10104647140E+04  0.10104647140E+04  0.25500000920E-02 0.  1.
    10030    2    1    2    0    0  0.00000000000E+00  0.00000000000E+00 -0.10034909636E+02  0.20108945184E+04  0.20108694798E+04 0.  0.
        4    1    3    3  502    0  0.98895889541E+03 -0.15902294489E+03 -0.92020891580E+02  0.10058814300E+04  0.12699999809E+01 0. -1.
       -4    1    3    3    0  502 -0.98895889541E+03  0.15902294489E+03  0.81985981944E+02  0.10050130884E+04  0.12699999809E+01 0.  1.
</event>
<event>
 5   0  0.8861350E-05  0.2009650E+04  0.7818609E-02  0.8602122E-01
       -1   -1    0    0    0  501  0.00000000000E+00  0.00000000000E+00  0.72202590856E+03  0.72202590858E+03  0.50400001928E-02 0. -1.
        1   -1    0    0  501    0  0.00000000000E+00  0.00000000000E+00 -0.13983892084E+04  0.13983892084E+04  0.50400001928E-02 0.  1.
    10030    2    1    2    0    0  0.00000000000E+00  0.00000000000E+00 -0.67636329985E+03  0.21204151170E+04  0.20096499583E+04 0.  0.
        1    1    3    3  502    0  0.15021842890E+03  0.41264030686E+03  0.61542179761E+03  0.75603015034E+03  0.50400001928E-02 0. -1.
       -1    1    3    3    0  502 -0.15021842890E+03 -0.41264030686E+03 -0.12917850975E+04  0.13643849667E+04  0.50400001928E-02 0.  1.
</event>
<event>
 5   0  0.1782172E-04  0.2005613E+04  0.7818609E-02  0.8604001E-01
        2   -1    0    0  501    0  0.00000000000E+00  0.00000000000E+00  0.18917708071E+04  0.18917708071E+04  0.25500000920E-02 0.  1.
       -2   -1    0    0    0  501  0.00000000000E+00  0.00000000000E+00 -0.53157642269E+03  0.53157642270E+03  0.25500000920E-02 0. -1.
    10030    2    1    2    0    0  0.00000000000E+00  0.00000000000E+00  0.13601943844E+04  0.24233472298E+04  0.20056128821E+04 0.  0.
        2    1    3    3  502    0  0.19023228940E+02 -0.82616362138E+03 -0.63015211142E+01  0.82640663218E+03  0.25500000920E-02 0. -1.
       -2    1    3    3    0  502 -0.19023228940E+02  0.82616362138E+03  0.13664959056E+04  0.15969405977E+04  0.25500000920E-02 0.  1.
</event>
<event>
 5   0  0.1807498E-04  0.1903801E+04  0.7818609E-02  0.8652967E-01
       -2   -1    0    0    0  501  0.00000000000E+00  0.00000000000E+00  0.83740320303E+03  0.83740320303E+03  0.25500000920E-02 0.  1.
        2   -1    0    0  501    0  0.00000000000E+00  0.00000000000E+00 -0.10820525362E+04  0.10820525362E+04  0.25500000920E-02 0. -1.
    10030    2    1    2    0    0  0.00000000000E+00  0.00000000000E+00 -0.24464933316E+03  0.19194557392E+04  0.19038006825E+04 0.  0.
        5    1    3    3  502    0 -0.24149598397E+03  0.91983571682E+03 -0.16357705197E+03  0.96498580204E+03  0.46999998093E+01 0. -1.
       -5    1    3    3    0  502  0.24149598397E+03 -0.91983571682E+03 -0.81072281191E+02  0.95446993718E+03  0.46999998093E+01 0.  1.
</event>
<event>
 5   0  0.8765057E-05  0.1756182E+04  0.7818609E-02  0.8729955E-01
       -1   -1    0    0    0  501  0.00000000000E+00  0.00000000000E+00  0.10170112241E+04  0.10170112241E+04  0.50400001928E-02 0. -1.
        1   -1    0    0  501    0  0.00000000000E+00  0.00000000000E+00 -0.75814719570E+03  0.75814719572E+03  0.50400001928E-02 0.  1.
    10030    2    1    2    0    0  0.00000000000E+00  0.00000000000E+00  0.25886402842E+03  0.17751584199E+04  0.17561824593E+04 0.  0.
        3    1    3    3  502    0  0.48410732204E+03 -0.73224560985E+03  0.10681469667E+03  0.88428101982E+03  0.10100000352E+00 0. -1.
       -3    1    3    3    0  502 -0.48410732204E+03  0.73224560985E+03  0.15204933175E+03  0.89087740003E+03  0.10100000352E+00 0.  1.
</event>
<event>
 5   0  0.8881384E-05  0.2006889E+04  0.7818609E-02  0.8603407E-01
       -1   -1    0    0    0  501  0.00000000000E+00  0.00000000000E+00  0.53204975910E+03  0.53204975912E+03  0.50400001928E-02 0. -1.
        1   -1    0    0  501    0  0.00000000000E+00  0.00000000000E+00 -0.18924936085E+04  0.18924936085E+04  0.50400001928E-02 0.  1.
    10030    2    1    2    0    0  0.00000000000E+00  0.00000000000E+00 -0.13604438494E+04  0.24245433676E+04  0.20068889043E+04 0.  0.
        5    1    3    3  502    0  0.37472772218E+03 -0.73148176355E+03 -0.13756909524E+04  0.16025086966E+04  0.46999998093E+01 0.  1.
       -5    1    3    3    0  502 -0.37472772218E+03  0.73148176355E+03  0.15247103025E+02  0.82203467100E+03  0.46999998093E+01 0. -1.
</event>
<event>
 5   0  0.1782172E-04  0.2004279E+04  0.7818609E-02  0.8604623E-01
        2   -1    0    0  501    0  0.00000000000E+00  0.00000000000E+00  0.23199942070E+04  0.23199942070E+04  0.25500000920E-02 0.  1.
       -2   -1    0    0    0  501  0.00000000000E+00  0.00000000000E+00 -0.43288180728E+03  0.43288180729E+03  0.25500000920E-02 0. -1.
    10030    2    1    2    0    0  0.00000000000E+00  0.00000000000E+00  0.18871123997E+04  0.27528760143E+04  0.20042787084E+04 0.  0.
        2    1    3    3  502    0 -0.60511066118E+03  0.30498792779E+03  0.19576294191E+04  0.20715910530E+04  0.25500000920E-02 0.  1.
       -2    1    3    3    0  502  0.60511066118E+03 -0.30498792779E+03 -0.70517019419E+02  0.68128496124E+03  0.25500000920E-02 0. -1.
</event>
<event>
 5   0  0.8958919E-05  0.2010846E+04  0.7818609E-02  0.8601567E-01
       -1   -1    0    0    0  501  0.00000000000E+00  0.00000000000E+00  0.10145007731E+04  0.10145007731E+04  0.50400001928E-02 0. -1.
        1   -1    0    0  501    0  0.00000000000E+00  0.00000000000E+00 -0.99642652139E+03  0.99642652141E+03  0.50400001928E-02 0.  1.
    10030    2    1    2    0    0  0.00000000000E+00  0.00000000000E+00  0.18074251696E+02  0.20109272945E+04  0.20108460670E+04 0.  0.
        4    1    3    3  502    0 -0.50343366622E+03 -0.69322530057E+02 -0.85853627110E+03  0.99766588153E+03  0.12699999809E+01 0.  1.
       -4    1    3    3    0  502  0.50343366622E+03  0.69322530057E+02  0.87661052280E+03  0.10132614130E+04  0.12699999809E+01 0. -1.
</event>
<event>
 5   0  0.1812865E-04  0.2056202E+04  0.7818609E-02  0.8580786E-01
       -2   -1    0    0    0  501  0.00000000000E+00  0.00000000000E+00  0.47319741131E+03  0.47319741132E+03  0.25500000920E-02 0. -1.
        2   -1    0    0  501    0  0.00000000000E+00  0.00000000000E+00 -0.22337218304E+04  0.22337218304E+04  0.25500000920E-02 0.  1.
    10030    2    1    2    0    0  0.00000000000E+00  0.00000000000E+00 -0.17605244191E+04  0.27069192417E+04  0.20562017291E+04 0.  0.
        3    1    3    3  502    0  0.72349846942E+03  0.86734181014E+02 -0.18350571267E+04  0.19744385333E+04  0.10100000352E+00 0.  1.
       -3    1    3    3    0  502 -0.72349846942E+03 -0.86734181014E+02  0.74532707649E+02  0.73248070836E+03  0.10100000352E+00 0. -1.
</event>
<event>
 5   0  0.1807498E-04  0.1451867E+04  0.7818609E-02  0.8917107E-01
        2   -1    0    0  501    0  0.00000000000E+00  0.00000000000E+00  0.17507240598E+04  0.17507240598E+04  0.25500000920E-02 0.  1.
       -2   -1    0    0    0  501  0.00000000000E+00  0.00000000000E+00 -0.30100640877E+03  0.30100640878E+03  0.25500000920E-02 0. -1.
    10030    2    1    2    0    0  0.00000000000E+00  0.00000000000E+00  0.14497176511E+04  0.20517304686E+04  0.14518666082E+04 0.  0.
        5    1    3    3  502    0 -0.29669287584E+03 -0.46037502463E+03  0.51583954184E+02  0.55014072763E+03  0.46999998093E+01 0. -1.
       -5    1    3    3    0  502  0.29669287584E+03  0.46037502463E+03  0.13981336969E+04  0.15015897410E+04  0.46999998093E+01 0.  1.
</event>
<event>
 5   0  0.1834645E-04  0.2092133E+04  0.7818609E-02  0.8564717E-01
        2   -1    0    0  501    0  0.00000000000E+00  0.00000000000E+00  0.15751245844E+04  0.15751245844E+04  0.25500000920E-02 0.  1.
       -2   -1    0    0    0  501  0.00000000000E+00  0.00000000000E+00 -0.69470996380E+03  0.69470996380E+03  0.25500000920E-02 0. -1.
    10030    2    1    2    0    0  0.00000000000E+00  0.00000000000E+00  0.88041462063E+03  0.22698345482E+04  0.20921326373E+04 0.  0.
        1    1    3    3  502    0 -0.90813150120E+03 -0.17714245176E+03  0.96968878397E+03  0.13402904944E+04  0.50400001928E-02 0.  1.
       -1    1    3    3    0  502  0.90813150120E+03  0.17714245176E+03 -0.89274163343E+02  0.92954405380E+03  0.50400001928E-02 0. -1.
</event>
<event>
 5   0  0.8958919E-05  0.1816896E+04  0.7818609E-02  0.8697366E-01
        1   -1    0    0  501    0  0.00000000000E+00  0.00000000000E+00  0.15559667875E+04  0.15559667875E+04  0.50400001928E-02 0.  1.
       -1   -1    0    0    0  501  0.00000000000E+00  0.00000000000E+00 -0.53039525069E+03  0.53039525072E+03  0.50400001928E-02 0. -1.
    10030    2    1    2    0    0  0.00000000000E+00  0.00000000000E+00  0.10255715368E+04  0.20863620382E+04  0.18168955879E+04 0.  0.
        4    1    3    3  502    0  0.81282336279E+02  0.57651392185E+03 -0.28799222908E+03  0.64955081186E+03  0.12699999809E+01 0. -1.
       -4    1    3    3    0  502 -0.81282336279E+02 -0.57651392185E+03  0.13135637659E+04  0.14368112263E+04  0.12699999809E+01 0.  1.
</event>
<event>
 5   0  0.1834645E-04  0.1984072E+04  0.7818609E-02  0.8614104E-01
       -2   -1    0    0    0  501  0.00000000000E+00  0.00000000000E+00  0.11445288531E+04  0.11445288531E+04  0.25500000920E-02 0. -1.
        2   -1    0    0  501    0  0.00000000000E+00  0.00000000000E+00 -0.85986101391E+03  0.85986101391E+03  0.25500000920E-02 0.  1.
    10030    2    1    2    0    0  0.00000000000E+00  0.00000000000E+00  0.28466783919E+03  0.20043898670E+04  0.19840723173E+04 0.  0.
        1    1    3    3  502    0 -0.14867643233E+03 -0.24047835725E+03 -0.81829851234E+03  0.86576381142E+03  0.50400001928E-02 0.  1.
       -1    1    3    3    0  502  0.14867643233E+03  0.24047835725E+03  0.11029663515E+04  0.11386260556E+04  0.50400001928E-02 0. -1.
</event>
<event>
 5   0  0.8861350E-05  0.2013269E+04  0.7818609E-02  0.8600442E-01
       -1   -1    0    0    0  501  0.00000000000E+00  0.00000000000E+00  0.88923615617E+03  0.88923615618E+03  0.50400001928E-02 0.  1.
        1   -1    0    0  501    0  0.00000000000E+00  0.00000000000E+00 -0.11395316461E+04  0.11395316461E+04  0.50400001928E-02 0. -1.
    10030    2    1    2    0    0  0.00000000000E+00  0.00000000000E+00 -0.25029548994E+03  0.20287678023E+04  0.20132687261E+04 0.  0.
        1    1    3    3  502    0 -0.70818356690E+03 -0.55621434422E+03  0.32822068750E+03  0.95845040605E+03  0.50400001928E-02 0.  1.
       -1    1    3    3    0  502  0.70818356690E+03  0.55621434422E+03 -0.57851617744E+03  0.10703173963E+04  0.50400001928E-02 0. -1.
</event>
<event>
 5   0  0.1893687E-04  0.1986817E+04  0.7818609E-02  0.8612809E-01
        2   -1    0    0  501    0  0.00000000000E+00  0.00000000000E+00  0.88837866336E+03  0.88837866337E+03  0.25500000920E-02 0.  1.
       -2   -1    0    0    0  501  0.00000000000E+00  0.00000000000E+00 -0.11108561957E+04  0.11108561957E+04  0.25500000920E-02 0. -1.
    10030    2    1    2    0    0  0.00000000000E+00  0.00000000000E+00 -0.22247753232E+03  0.19992348591E+04  0.19868174977E+04 0.  0.
        4    1    3    3  502    0  0.46942519796E+03  0.51876170232E+03 -0.82090223106E+03  0.10785897302E+04  0.12699999809E+01 0. -1.
       -4    1    3    3    0  502 -0.46942519796E+03 -0.51876170232E+03  0.59842469874E+03  0.92064512883E+03  0.12699999809E+01 0.  1.
</event>
<event>
 5   0  0.8861350E-05  0.2030166E+04  0.7818609E-02  0.8592645E-01
       -1   -1    0    0    0  501  0.00000000000E+00  0.00000000000E+00  0.69289121926E+03  0.69289121928E+03  0.50400001928E-02 0.  1.
        1   -1    0    0  501    0  0.00000000000E+00  0.00000000000E+00 -0.14870929424E+04  0.14870929424E+04  0.50400001928E-02 0. -1.
    10030    2    1    2    0    0  0.00000000000E+00  0.00000000000E+00 -0.79420172315E+03  0.21799841617E+04  0.20301661430E+04 0.  0.
        1    1    3    3  502    0  0.71345817730E+03  0.51701089493E+03  0.14415067216E+03  0.89280583138E+03  0.50400001928E-02 0.  1.
       -1    1    3    3    0  502 -0.71345817730E+03 -0.51701089493E+03 -0.93835239531E+03  0.12871783303E+04  0.50400001928E-02 0. -1.
</event>
<event>
 5   0  0.1807498E-04  0.2007059E+04  0.7818609E-02  0.8603327E-01
        2   -1    0    0  501    0  0.00000000000E+00  0.00000000000E+00  0.61279304723E+03  0.61279304724E+03  0.25500000920E-02 0.  1.
       -2   -1    0    0    0  501  0.00000000000E+00  0.00000000000E+00 -0.16434121423E+04  0.16434121423E+04  0.25500000920E-02 0. -1.
    10030    2    1    2    0    0  0.00000000000E+00  0.00000000000E+00 -0.10306190951E+04  0.22562051895E+04  0.20070590769E+04 0.  0.
        5    1    3    3  502    0 -0.78106122986E+03 -0.29585774813E+03 -0.11406570144E+04  0.14137570394E+04  0.46999998093E+01 0.  1.
       -5    1    3    3    0  502  0.78106122986E+03  0.29585774813E+03  0.11003791938E+03  0.84244815011E+03  0.46999998093E+01 0. -1.
</event>
<event>
 5   0  0.1807498E-04  0.2002279E+04  0.7818609E-02  0.8605556E-01
        2   -1    0    0  501    0  0.00000000000E+00  0.00000000000E+00  0.11665902816E+04  0.11665902816E+04  0.25500000920E-02 0.  1.
       -2   -1    0    0    0  501  0.00000000000E+00  0.00000000000E+00 -0.85915338143E+03  0.85915338143E+03  0.25500000920E-02 0. -1.
    10030    2    1    2    0    0  0.00000000000E+00  0.00000000000E+00  0.30743690017E+03  0.20257436630E+04  0.20022786871E+04 0.  0.
        5    1    3    3  502    0 -0.60528385746E+03  0.35172854954E+03 -0.57033351277E+03  0.90298611642E+03  0.46999998093E+01 0. -1.
       -5    1    3    3    0  502  0.60528385746E+03 -0.35172854954E+03  0.87777041294E+03  0.11227575466E+04  0.46999998093E+01 0.  1.
</event>
<event>
 5   0  0.1782172E-04  0.1858361E+04  0.7818609E-02  0.8675865E-01
       -2   -1    0    0    0  501  0.00000000000E+00  0.00000000000E+00  0.59043802167E+03  0.59043802167E+03  0.25500000920E-02 0.  1.
        2   -1    0    0  501    0  0.00000000000E+00  0.00000000000E+00 -0.14622649378E+04  0.14622649378E+04  0.25500000920E-02 0. -1.
    10030    2    1    2    0    0  0.00000000000E+00  0.00000000000E+00 -0.87182691614E+03  0.20527029595E+04  0.18583614471E+04 0.  0.
        2    1    3    3  502    0 -0.83561452466E+03  0.16378905820E+03 -0.25138097534E+02  0.85188638524E+03  0.25500000920E-02 0. -1.
       -2    1    3    3    0  502  0.83561452466E+03 -0.16378905820E+03 -0.84668881860E+03  0.12008165742E+04  0.25500000920E-02 0.  1.
</event>
<event>
 5   0  0.1782172E-04  0.2082062E+04  0.7818609E-02  0.8569187E-01
        2   -1    0    0  501    0  0.00000000000E+00  0.00000000000E+00  0.12771574412E+04  0.12771574412E+04  0.25500000920E-02 0. -1.
       -2   -1    0    0    0  501  0.00000000000E+00  0.00000000000E+00 -0.84856077051E+03  0.84856077052E+03  0.25500000920E-02 0.  1.
    10030    2    1    2    0    0  0.00000000000E+00  0.00000000000E+00  0.42859667068E+03  0.21257182117E+04  0.20820621531E+04 0.  0.
        2    1    3    3  502    0  0.41634134680E+03 -0.46834521741E+03  0.10630279586E+04  0.12339837116E+04  0.25500000920E-02 0. -1.
       -2    1    3    3    0  502 -0.41634134680E+03  0.46834521741E+03 -0.63443128787E+03  0.89173450015E+03  0.25500000920E-02 0.  1.
</event>
<event>
 5   0  0.1834645E-04  0.2019643E+04  0.7818609E-02  0.8597492E-01
       -2   -1    0    0    0  501  0.00000000000E+00  0.00000000000E+00  0.39322048098E+03  0.39322048099E+03  0.25500000920E-02 0.  1.
        2   -1    0    0  501    0  0.00000000000E+00  0.00000000000E+00 -0.25933015856E+04  0.25933015856E+04  0.25500000920E-02 0. -1.
    10030    2    1    2    0    0  0.00000000000E+00  0.00000000000E+00 -0.22000811046E+04  0.29865220666E+04  0.20196428366E+04 0.  0.
        1    1    3    3  502    0 -0.19666104518E+03  0.55915289776E+03  0.10892297185E+03  0.60265391693E+03  0.50400001928E-02 0.  1.
       -1    1    3    3    0  502  0.19666104518E+03 -0.55915289776E+03 -0.23090040764E+04  0.23838681496E+04  0.50400001928E-02 0. -1.
</event>
<event>
 5   0  0.8881384E-05  0.2006271E+04  0.7818609E-02  0.8603694E-01
       -1   -1    0    0    0  501  0.00000000000E+00  0.00000000000E+00  0.82350823353E+03  0.82350823355E+03  0.50400001928E-02 0.  1.
        1   -1    0    0  501    0  0.00000000000E+00  0.00000000000E+00 -0.12219440981E+04  0.12219440981E+04  0.50400001928E-02 0. -1.
    10030    2    1    2    0    0  0.00000000000E+00  0.00000000000E+00 -0.39843586456E+03  0.20454523316E+04  0.20062711937E+04 0.  0.
        5    1    3    3  502    0  0.54826527291E+03  0.37640707637E+02 -0.10548012769E+04  0.11893861678E+04  0.46999998093E+01 0. -1.
       -5    1    3    3    0  502 -0.54826527291E+03 -0.37640707637E+02  0.65636541236E+03  0.85606616385E+03  0.46999998093E+01 0.  1.
</event>
<event>
 5   0  0.8765057E-05  0.1963732E+04  0.7818609E-02  0.8623768E-01
        1   -1    0    0  501    0  0.00000000000E+00  0.00000000000E+00  0.15717060714E+04  0.15717060714E+04  0.50400001928E-02 0.  1.
       -1   -1    0    0    0  501  0.00000000000E+00  0.00000000000E+00 -0.61338475401E+03  0.61338475403E+03  0.50400001928E-02 0. -1.
    10030    2    1    2    0    0  0.00000000000E+00  0.00000000000E+00  0.95832131738E+03  0.21850908254E+04  0.19637316945E+04 0.  0.
        3    1    3    3  502    0 -0.19813881472E+03 -0.93960858309E+03  0.70703075251E+03  0.11924830290E+04  0.10100000352E+00 0.  1.
       -3    1    3    3    0  502  0.19813881472E+03  0.93960858309E+03  0.25129056487E+03  0.99260779642E+03  0.10100000352E+00 0. -1.
</event>
<event>
 5   0  0.1812865E-04  0.1999694E+04  0.7818609E-02  0.8606764E-01
       -2   -1    0    0    0  501  0.00000000000E+00  0.00000000000E+00  0.36570500384E+03  0.36570500385E+03  0.25500000920E-02 0.  1.
        2   -1    0    0  501    0  0.00000000000E+00  0.00000000000E+00 -0.27336089868E+04  0.27336089868E+04  0.25500000920E-02 0. -1.
    10030    2    1    2    0    0  0.00000000000E+00  0.00000000000E+00 -0.23679039830E+04  0.30993139907E+04  0.19996944617E+04 0.  0.
        3    1    3    3  502    0 -0.55625050882E+03 -0.89970823690E+01  0.10367201163E+03  0.56590058513E+03  0.10100000352E+00 0.  1.
       -3    1    3    3    0  502  0.55625050882E+03  0.89970823690E+01 -0.24715759946E+04  0.25334134056E+04  0.10100000352E+00 0. -1.
</event>
<event>
 5   0  0.8861350E-05  0.1988686E+04  0.7818609E-02  0.8611929E-01
       -1   -1    0    0    0  501  0.00000000000E+00  0.00000000000E+00  0.87468320980E+03  0.87468320982E+03  0.50400001928E-02 0.  1.
        1   -1    0    0  501    0  0.00000000000E+00  0.00000000000E+00 -0.11303730418E+04  0.11303730418E+04  0.50400001928E-02 0. -1.
    10030    2    1    2    0    0  0.00000000000E+00  0.00000000000E+00 -0.25568983200E+03  0.20050562516E+04  0.19886863207E+04 0.  0.
        1    1    3    3  502    0  0.34290651790E+03  0.62178370204E+03  0.57395844316E+03  0.91303239079E+03  0.50400001928E-02 0.  1.
       -1    1    3    3    0  502 -0.34290651790E+03 -0.62178370204E+03 -0.82964827515E+03  0.10920238608E+04  0.50400001928E-02 0. -1.
</event>
<event>
 5   0  0.1782172E-04  0.1948972E+04  0.7818609E-02  0.8630857E-01
        2   -1    0    0  501    0  0.00000000000E+00  0.00000000000E+00  0.16701649880E+04  0.16701649880E+04  0.25500000920E-02 0.  1.
       -2   -1    0    0    0  501  0.00000000000E+00  0.00000000000E+00 -0.56858050801E+03  0.56858050801E+03  0.25500000920E-02 0. -1.
    10030    2    1    2    0    0  0.00000000000E+00  0.00000000000E+00  0.11015844800E+04  0.22387454960E+04  0.19489723008E+04 0.  0.
        2    1    3    3  502    0 -0.73603637834E+03 -0.34510538783E+03 -0.66484042152E+02  0.81563926267E+03  0.25500000920E-02 0. -1.
       -2    1    3    3    0  502  0.73603637834E+03  0.34510538783E+03  0.11680685222E+04  0.14231062334E+04  0.25500000920E-02 0.  1.
</event>
<event>
 5   0  0.8958919E-05  0.2013654E+04  0.7818609E-02  0.8600264E-01
       -1   -1    0    0    0  501  0.00000000000E+00  0.00000000000E+00  0.10776237951E+04  0.10776237952E+04  0.50400001928E-02 0. -1.
        1   -1    0    0  501    0  0.00000000000E+00  0.00000000000E+00 -0.94068125476E+03  0.94068125477E+03  0.50400001928E-02 0.  1.
    10030    2    1    2    0    0  0.00000000000E+00  0.00000000000E+00  0.13694254038E+03  0.20183050499E+04  0.20136538966E+04 0.  0.
        4    1    3    3  502    0 -0.45552295315E+03 -0.85367140259E+03  0.34739964075E+03  0.10280778899E+04  0.12699999809E+01 0.  1.
       -4    1    3    3    0  502  0.45552295315E+03  0.85367140259E+03 -0.21045710036E+03  0.99022716002E+03  0.12699999809E+01 0. -1.
</event>
<event>
 5   0  0.8861350E-05  0.2013022E+04  0.7818609E-02  0.8600557E-01
       -1   -1    0    0    0  501  0.00000000000E+00  0.00000000000E+00  0.54308343408E+03  0.54308343410E+03  0.50400001928E-02 0. -1.
        1   -1    0    0  501    0  0.00000000000E+00  0.00000000000E+00 -0.18653936170E+04  0.18653936170E+04  0.50400001928E-02 0.  1.
    10030    2    1    2    0    0  0.00000000000E+00  0.00000000000E+00 -0.13223101829E+04  0.24084770511E+04  0.20130219785E+04 0.  0.
        1    1    3    3  502    0  0.42545457682E+02 -0.16197614648E+03  0.52629694236E+03  0.55229961032E+03  0.50400001928E-02 0. -1.
       -1    1    3    3    0  502 -0.42545457682E+02  0.16197614648E+03 -0.18486071252E+04  0.18561774407E+04  0.50400001928E-02 0.  1.
</event>
<event>
 5   0  0.8577422E-05  0.2043983E+04  0.7818609E-02  0.8586329E-01
        1   -1    0    0  501    0  0.00000000000E+00  0.00000000000E+00  0.12363886418E+04  0.12363886418E+04  0.50400001928E-02 0. -1.
       -1   -1    0    0    0  501  0.00000000000E+00  0.00000000000E+00 -0.84477173915E+03  0.84477173916E+03  0.50400001928E-02 0.  1.
    10030    2    1    2    0    0  0.00000000000E+00  0.00000000000E+00  0.39161690263E+03  0.20811603809E+04  0.20439825667E+04 0.  0.
        2    1    3    3  502    0  0.55584965179E+03  0.11757154382E+03  0.10607743308E+04  0.12033428789E+04  0.25500000920E-02 0. -1.
       -2    1    3    3    0  502 -0.55584965179E+03 -0.11757154382E+03 -0.66915742814E+03  0.87781750208E+03  0.25500000920E-02 0.  1.
</event>
<event>
 5   0  0.8765057E-05  0.1833645E+04  0.7818609E-02  0.8688609E-01
       -1   -1    0    0    0  501  0.00000000000E+00  0.00000000000E+00  0.69382807797E+03  0.69382807799E+03  0.50400001928E-02 0.  1.
        1   -1    0    0  501    0  0.00000000000E+00  0.00000000000E+00 -0.12114871770E+04  0.12114871770E+04  0.50400001928E-02 0. -1.
    10030    2    1    2    0    0  0.00000000000E+00  0.00000000000E+00 -0.51765909900E+03  0.19053152550E+04  0.18336453523E+04 0.  0.
        3    1    3    3  502    0  0.18938543479E+03  0.32673711168E+03  0.60925193500E+03  0.71680674771E+03  0.10100000352E+00 0.  1.
       -3    1    3    3    0  502 -0.18938543479E+03 -0.32673711168E+03 -0.11269110340E+04  0.11885085073E+04  0.10100000352E+00 0. -1.
</event>
<event>
 5   0  0.1893687E-04  0.2016215E+04  0.7818609E-02  0.8599077E-01
       -2   -1    0    0    0  501  0.00000000000E+00  0.00000000000E+00  0.90452638567E+03  0.90452638567E+03  0.25500000920E-02 0. -1.
        2   -1    0    0  501    0  0.00000000000E+00  0.00000000000E+00 -0.11235499449E+04  0.11235499449E+04  0.25500000920E-02 0.  1.
    10030    2    1    2    0    0  0.00000000000E+00  0.00000000000E+00 -0.21902355921E+03  0.20280763306E+04  0.20162148405E+04 0.  0.
        4    1    3    3  502    0  0.22856574218E+03  0.19923114316E+03 -0.10765958089E+04  0.11184790993E+04  0.12699999809E+01 0.  1.
       -4    1    3    3    0  502 -0.22856574218E+03 -0.19923114316E+03  0.85757224966E+03  0.90959723130E+03  0.12699999809E+01 0. -1.
</event>
<event>
 5   0  0.1893687E-04  0.1971797E+04  0.7818609E-02  0.8619921E-01
       -2   -1    0    0    0  501  0.00000000000E+00  0.00000000000E+00  0.69377617977E+03  0.69377617978E+03  0.25500000920E-02 0. -1.
        2   -1    0    0  501    0  0.00000000000E+00  0.00000000000E+00 -0.14010216670E+04  0.14010216670E+04  0.25500000920E-02 0.  1.
    10030    2    1    2    0    0  0.00000000000E+00  0.00000000000E+00 -0.70724548727E+03  0.20947978468E+04  0.19717966020E+04 0.  0.
        4    1    3    3  502    0  0.75935049209E+03 -0.38720726954E+03  0.17271266970E+03  0.86969760181E+03  0.12699999809E+01 0. -1.
       -4    1    3    3    0  502 -0.75935049209E+03  0.38720726954E+03 -0.87995815696E+03  0.12251002450E+04  0.12699999809E+01 0.  1.
</event>
<event>
 5   0  0.8577422E-05  0.1921463E+04  0.7818609E-02  0.8644246E-01
       -1   -1    0    0    0  501  0.00000000000E+00  0.00000000000E+00  0.10519130385E+04  0.10519130385E+04  0.50400001928E-02 0.  1.
        1   -1    0    0  501    0  0.00000000000E+00  0.00000000000E+00 -0.87745409196E+03  0.87745409197E+03  0.50400001928E-02 0. -1.
    10030    2    1    2    0    0  0.00000000000E+00  0.00000000000E+00  0.17445894657E+03  0.19293671305E+04  0.19214634007E+04 0.  0.
        2    1    3    3  502    0  0.15561976335E+03 -0.75910419792E+03  0.65749932281E+03  0.10162490116E+04  0.25500000920E-02 0.  1.
       -2    1    3    3    0  502 -0.15561976335E+03  0.75910419792E+03 -0.48304037624E+03  0.91311811893E+03  0.25500000920E-02 0. -1.
</event>
<event>
 5   0  0.1893687E-04  0.2026556E+04  0.7818609E-02  0.8594305E-01
       -2   -1    0    0    0  501  0.00000000000E+00  0.00000000000E+00  0.36858700160E+03  0.36858700161E+03  0.25500000920E-02 0. -1.
        2   -1    0    0  501    0  0.00000000000E+00  0.00000000000E+00 -0.27855903856E+04  0.27855903856E+04  0.25500000920E-02 0.  1.
    10030    2    1    2    0    0  0.00000000000E+00  0.00000000000E+00 -0.24170033840E+04  0.31541773872E+04  0.20265561013E+04 0.  0.
        4    1    3    3  502    0 -0.97860935459E+03  0.20439774424E+03 -0.95145114826E+03  0.13801143457E+04  0.12699999809E+01 0.  1.
       -4    1    3    3    0  502  0.97860935459E+03 -0.20439774424E+03 -0.14655522357E+04  0.17740630415E+04  0.12699999809E+01 0. -1.
</event>
<event>
 5   0  0.1834645E-04  0.1981680E+04  0.7818609E-02  0.8615234E-01
       -2   -1    0    0    0  501  0.00000000000E+00  0.00000000000E+00  0.32139121035E+03  0.32139121036E+03  0.25500000920E-02 0.  1.
        2   -1    0    0  501    0  0.00000000000E+00  0.00000000000E+00 -0.30547308149E+04  0.30547308149E+04  0.25500000920E-02 0. -1.
    10030    2    1    2    0    0  0.00000000000E+00  0.00000000000E+00 -0.27333396046E+04  0.33761220253E+04  0.19816797258E+04 0.  0.
        1    1    3    3  502    0  0.15007066237E+03 -0.47573692309E+03  0.91848926973E+02  0.50723076514E+03  0.50400001928E-02 0.  1.
       -1    1    3    3    0  502 -0.15007066237E+03  0.47573692309E+03 -0.28251885315E+04  0.28688912601E+04  0.50400001928E-02 0. -1.
</event>
<event>
 5   0  0.1893687E-04  0.2003936E+04  0.7818609E-02  0.8604782E-01
        2   -1    0    0  501    0  0.00000000000E+00  0.00000000000E+00  0.17517765756E+04  0.17517765756E+04  0.25500000920E-02 0.  1.
       -2   -1    0    0    0  501  0.00000000000E+00  0.00000000000E+00 -0.57309838668E+03  0.57309838668E+03  0.25500000920E-02 0. -1.
    10030    2    1    2    0    0  0.00000000000E+00  0.00000000000E+00  0.11786781889E+04  0.23248749623E+04  0.20039364554E+04 0.  0.
        4    1    3    3  502    0  0.83533584525E+03  0.44087576779E+03  0.97722163482E+03  0.13590883538E+04  0.12699999809E+01 0.  1.
       -4    1    3    3    0  502 -0.83533584525E+03 -0.44087576779E+03  0.20145655408E+03  0.96578660846E+03  0.12699999809E+01 0. -1.
</event>
<event>
 5   0  0.8881384E-05  0.2014397E+04  0.7818609E-02  0.8599919E-01
       -1   -1    0    0    0  501  0.00000000000E+00  0.00000000000E+00  0.86854817126E+03  0.86854817127E+03  0.50400001928E-02 0.  1.
        1   -1    0    0  501    0  0.00000000000E+00  0.00000000000E+00 -0.11679818523E+04  0.11679818523E+04  0.50400001928E-02 0. -1.
    10030    2    1    2    0    0  0.00000000000E+00  0.00000000000E+00 -0.29943368107E+03  0.20365300236E+04  0.20143966858E+04 0.  0.
        5    1    3    3  502    0  0.24594406245E+03  0.84999910892E+03 -0.63608429741E+03  0.10897762571E+04  0.46999998093E+01 0. -1.
       -5    1    3    3    0  502 -0.24594406245E+03 -0.84999910892E+03  0.33665061634E+03  0.94675376656E+03  0.46999998093E+01 0.  1.
</event>
<event>
 5   0  0.1807498E-04  0.2080623E+04  0.7818609E-02  0.8569827E-01
       -2   -1    0    0    0  501  0.00000000000E+00  0.00000000000E+00  0.50787962503E+03  0.50787962504E+03  0.25500000920E-02 0.  1.
        2   -1    0    0  501    0  0.00000000000E+00  0.00000000000E+00 -0.21309145239E+04  0.21309145239E+04  0.25500000920E-02 0. -1.
    10030    2    1    2    0    0  0.00000000000E+00  0.00000000000E+00 -0.16230348988E+04  0.26387941489E+04  0.20806230503E+04 0.  0.
        5    1    3    3  502    0  0.29188173623E+02  0.81495931620E+03 -0.16307217855E+04  0.18232625341E+04  0.46999998093E+01 0. -1.
       -5    1    3    3    0  502 -0.29188173623E+02 -0.81495931620E+03  0.76868866572E+01  0.81553161481E+03  0.46999998093E+01 0.  1.
</event>
<event>
 5   0  0.8881384E-05  0.2009864E+04  0.7818609E-02  0.8602023E-01
       -1   -1    0    0    0  501  0.00000000000E+00  0.00000000000E+00  0.63523107311E+03  0.63523107313E+03  0.50400001928E-02 0.  1.
        1   -1    0    0  501    0  0.00000000000E+00  0.00000000000E+00 -0.15897972411E+04  0.15897972411E+04  0.50400001928E-02 0. -1.
    10030    2    1    2    0    0  0.00000000000E+00  0.00000000000E+00 -0.95456616800E+03  0.22250283143E+04  0.20098642815E+04 0.  0.
        5    1    3    3  502    0 -0.50304671944E+02 -0.77540638731E+03 -0.11827474584E+04  0.14151675751E+04  0.46999998093E+01 0. -1.
       -5    1    3    3    0  502  0.50304671944E+02  0.77540638731E+03  0.22818129035E+03  0.80986073912E+03  0.46999998093E+01 0.  1.
</event>
<event>
 5   0  0.8765057E-05  0.1995372E+04  0.7818609E-02  0.8608788E-01
       -1   -1    0    0    0  501  0.00000000000E+00  0.00000000000E+00  0.10291359700E+04  0.10291359700E+04  0.50400001928E-02 0.  1.
        1   -1    0    0  501    0  0.00000000000E+00  0.00000000000E+00 -0.96719668497E+03  0.96719668498E+03  0.50400001928E-02 0. -1.
    10030    2    1    2    0    0  0.00000000000E+00  0.00000000000E+00  0.61939285021E+02  0.19963326550E+04  0.19953715429E+04 0.  0.
        3    1    3    3  502    0  0.75414459302E+03  0.27484128726E+03 -0.56185697933E+03  0.97977297155E+03  0.10100000352E+00 0. -1.
       -3    1    3    3    0  502 -0.75414459302E+03 -0.27484128726E+03  0.62379626435E+03  0.10165596834E+04  0.10100000352E+00 0.  1.
</event>
<event>
 5   0  0.1812865E-04  0.2023215E+04  0.7818609E-02  0.8595843E-01
        2   -1    0    0  501    0  0.00000000000E+00  0.00000000000E+00  0.10372063870E+04  0.10372063870E+04  0.25500000920E-02 0.  1.
       -2   -1    0    0    0  501  0.00000000000E+00  0.00000000000E+00 -0.98664037024E+03  0.98664037025E+03  0.25500000920E-02 0. -1.
    10030    2    1    2    0    0  0.00000000000E+00  0.00000000000E+00  0.50566016726E+02  0.20238467572E+04  0.20232149601E+04 0.  0.
        3    1    3    3  502    0  0.69818316279E+03  0.53579312004E+03  0.52425305627E+03  0.10243901959E+04  0.10100000352E+00 0.  1.
       -3    1    3    3    0  502 -0.69818316279E+03 -0.53579312004E+03 -0.47368703954E+03  0.99945656130E+03  0.10100000352E+00 0. -1.
</event>
<event>
 5   0  0.8861350E-05  0.1985381E+04  0.7818609E-02  0.8613486E-01
        1   -1    0    0  501    0  0.00000000000E+00  0.00000000000E+00  0.14258333503E+04  0.14258333503E+04  0.50400001928E-02 0.  1.
       -1   -1    0    0    0  501  0.00000000000E+00  0.00000000000E+00 -0.69112853175E+03  0.69112853177E+03  0.50400001928E-02 0. -1.
    10030    2    1    2    0    0  0.00000000000E+00  0.00000000000E+00  0.73470481852E+03  0.21169618820E+04  0.19853806788E+04 0.  0.
        1    1    3    3  502    0 -0.82889143703E+03 -0.12725060062E+03 -0.19905986261E+03  0.86190403100E+03  0.50400001928E-02 0. -1.
       -1    1    3    3    0  502  0.82889143703E+03  0.12725060062E+03  0.93376468112E+03  0.12550578510E+04  0.50400001928E-02 0.  1.
</event>
<event>
 5   0  0.8958919E-05  0.2000808E+04  0.7818609E-02  0.8606243E-01
        1   -1    0    0  501    0  0.00000000000E+00  0.00000000000E+00  0.11995496937E+04  0.11995496937E+04  0.50400001928E-02 0.  1.
       -1   -1    0    0    0  501  0.00000000000E+00  0.00000000000E+00 -0.83431976896E+03  0.83431976898E+03  0.50400001928E-02 0. -1.
    10030    2    1    2    0    0  0.00000000000E+00  0.00000000000E+00  0.36522992471E+03  0.20338694627E+04  0.20008078602E+04 0.  0.
        4    1    3    3  502    0 -0.11891271313E+03 -0.96699165838E+03  0.41350988618E+03  0.10583974393E+04  0.12699999809E+01 0. -1.
       -4    1    3    3    0  502  0.11891271313E+03  0.96699165838E+03 -0.48279961469E+02  0.97547202333E+03  0.12699999809E+01 0.  1.
</event>
<event>
 5   0  0.8881384E-05  0.2093241E+04  0.7818609E-02  0.8564227E-01
        1   -1    0    0  501    0  0.00000000000E+00  0.00000000000E+00  0.86066639078E+03  0.86066639080E+03  0.50400001928E-02 0. -1.
       -1   -1    0    0    0  501  0.00000000000E+00  0.00000000000E+00 -0.12727515056E+04  0.12727515056E+04  0.50400001928E-02 0.  1.
    10030    2    1    2    0    0  0.00000000000E+00  0.00000000000E+00 -0.41208511480E+03  0.21334178964E+04  0.20932409749E+04 0.  0.
        5    1    3    3  502    0  0.72075654547E+03 -0.58631030054E+03  0.28501694308E+03  0.97185724991E+03  0.46999998093E+01 0. -1.
       -5    1    3    3    0  502 -0.72075654547E+03  0.58631030054E+03 -0.69710205788E+03  0.11615606465E+04  0.46999998093E+01 0.  1.
</event>
<event>
 5   0  0.8958919E-05  0.2037718E+04  0.7818609E-02  0.8589187E-01
        1   -1    0    0  501    0  0.00000000000E+00  0.00000000000E+00  0.17828262483E+04  0.17828262483E+04  0.50400001928E-02 0.  1.
       -1   -1    0    0    0  501  0.00000000000E+00  0.00000000000E+00 -0.58226271241E+03  0.58226271243E+03  0.50400001928E-02 0. -1.
    10030    2    1    2    0    0  0.00000000000E+00  0.00000000000E+00  0.12005635359E+04  0.23650889608E+04  0.20377175929E+04 0.  0.
        4    1    3    3  502    0  0.64842570766E+03 -0.78550473785E+03  0.62866550565E+03  0.11969525982E+04  0.12699999809E+01 0. -1.
       -4    1    3    3    0  502 -0.64842570766E+03  0.78550473785E+03  0.57189803027E+03  0.11681363625E+04  0.12699999809E+01 0.  1.
</event>
<event>
 5   0  0.8861350E-05  0.1990788E+04  0.7818609E-02  0.8610940E-01
       -1   -1    0    0    0  501  0.00000000000E+00  0.00000000000E+00  0.55309809785E+03  0.55309809787E+03  0.50400001928E-02 0. -1.
        1   -1    0    0  501    0  0.00000000000E+00  0.00000000000E+00 -0.17913800734E+04  0.17913800734E+04  0.50400001928E-02 0.  1.
    10030    2    1    2    0    0  0.00000000000E+00  0.00000000000E+00 -0.12382819756E+04  0.23444781713E+04  0.19907876945E+04 0.  0.
        1    1    3    3  502    0  0.17565871759E+03 -0.89953346009E+03 -0.16183057711E+03  0.93070165284E+03  0.50400001928E-02 0. -1.
       -1    1    3    3    0  502 -0.17565871759E+03  0.89953346009E+03 -0.10764513985E+04  0.14137765185E+04  0.50400001928E-02 0.  1.
</event>
<event>
 5   0  0.1893687E-04  0.2001072E+04  0.7818609E-02  0.8606119E-01
       -2   -1    0    0    0  501  0.00000000000E+00  0.00000000000E+00  0.52234964384E+03  0.52234964385E+03  0.25500000920E-02 0. -1.
        2   -1    0    0  501    0  0.00000000000E+00  0.00000000000E+00 -0.19164799524E+04  0.19164799524E+04  0.25500000920E-02 0.  1.
    10030    2    1    2    0    0  0.00000000000E+00  0.00000000000E+00 -0.13941303085E+04  0.24388295962E+04  0.20010723331E+04 0.  0.
        4    1    3    3  502    0  0.58501176451E+03  0.80410236421E+03 -0.56216401362E+03  0.11423000341E+04  0.12699999809E+01 0. -1.
       -4    1    3    3    0  502 -0.58501176451E+03 -0.80410236421E+03 -0.83196629492E+03  0.12965295622E+04  0.12699999809E+01 0.  1.
</event>
<event>
 5   0  0.8958919E-05  0.2007971E+04  0.7818609E-02  0.8602903E-01
       -1   -1    0    0    0  501  0.00000000000E+00  0.00000000000E+00  0.62524979033E+03  0.62524979035E+03  0.50400001928E-02 0.  1.
        1   -1    0    0  501    0  0.00000000000E+00  0.00000000000E+00 -0.16121347688E+04  0.16121347688E+04  0.50400001928E-02 0. -1.
    10030    2    1    2    0    0  0.00000000000E+00  0.00000000000E+00 -0.98688497851E+03  0.22373845592E+04  0.20079710418E+04 0.  0.
        4    1    3    3  502    0 -0.63712761206E+03 -0.11117926893E+03  0.36220747550E+03  0.74127477503E+03  0.12699999809E+01 0.  1.
       -4    1    3    3    0  502  0.63712761206E+03  0.11117926893E+03 -0.13490924540E+04  0.14961097842E+04  0.12699999809E+01 0. -1.
</event>
<event>
 5   0  0.8861350E-05  0.2014824E+04  0.7818609E-02  0.8599721E-01
       -1   -1    0    0    0  501  0.00000000000E+00  0.00000000000E+00  0.72843068754E+03  0.72843068755E+03  0.50400001928E-02 0.  1.
        1   -1    0    0  501    0  0.00000000000E+00  0.00000000000E+00 -0.13932396283E+04  0.13932396283E+04  0.50400001928E-02 0. -1.
    10030    2    1    2    0    0  0.00000000000E+00  0.00000000000E+00 -0.66480894077E+03  0.21216703159E+04  0.20148235658E+04 0.  0.
        1    1    3    3  502    0 -0.51453683614E+03  0.86009432010E+03 -0.43962811733E+03  0.10944328562E+04  0.50400001928E-02 0.  1.
       -1    1    3    3    0  502  0.51453683614E+03 -0.86009432010E+03 -0.22518082343E+03  0.10272374596E+04  0.50400001928E-02 0. -1.
</event>
<event>
 5   0  0.8765057E-05  0.1996110E+04  0.7818609E-02  0.8608442E-01
        1   -1    0    0  501    0  0.00000000000E+00  0.00000000000E+00  0.14378429896E+04  0.14378429896E+04  0.50400001928E-02 0. -1.
       -1   -1    0    0    0  501  0.00000000000E+00  0.00000000000E+00 -0.69278325407E+03  0.69278325409E+03  0.50400001928E-02 0.  1.
    10030    2    1    2    0    0  0.00000000000E+00  0.00000000000E+00  0.74505973549E+03  0.21306262437E+04  0.19961097617E+04 0.  0.
        3    1    3    3  502    0 -0.33101311136E+03 -0.42935466846E+03  0.12669730925E+04  0.13780914115E+04  0.10100000352E+00 0. -1.
       -3    1    3    3    0  502  0.33101311136E+03  0.42935466846E+03 -0.52191335698E+03  0.75253483216E+03  0.10100000352E+00 0.  1.
</event>
<event>
 5   0  0.8765057E-05  0.2026968E+04  0.7818609E-02  0.8594115E-01
       -1   -1    0    0    0  501  0.00000000000E+00  0.00000000000E+00  0.71443854485E+03  0.71443854486E+03  0.50400001928E-02 0.  1.
        1   -1    0    0  501    0  0.00000000000E+00  0.00000000000E+00 -0.14377016343E+04  0.14377016343E+04  0.50400001928E-02 0. -1.
    10030    2    1    2    0    0  0.00000000000E+00  0.00000000000E+00 -0.72326308944E+03  0.21521401792E+04  0.20269676500E+04 0.  0.
        3    1    3    3  502    0  0.36142683747E+03  0.74102946852E+03 -0.98743186797E+03  0.12863808675E+04  0.10100000352E+00 0. -1.
       -3    1    3    3    0  502 -0.36142683747E+03 -0.74102946852E+03  0.26416877853E+03  0.86575931171E+03  0.10100000352E+00 0.  1.
</event>
<event>
 5   0  0.1893687E-04  0.1983255E+04  0.7818609E-02  0.8614490E-01
        2   -1    0    0  501    0  0.00000000000E+00  0.00000000000E+00  0.15719967628E+04  0.15719967629E+04  0.25500000920E-02 0. -1.
       -2   -1    0    0    0  501  0.00000000000E+00  0.00000000000E+00 -0.62552621826E+03  0.62552621826E+03  0.25500000920E-02 0.  1.
    10030    2    1    2    0    0  0.00000000000E+00  0.00000000000E+00  0.94647054459E+03  0.21975229811E+04  0.19832550922E+04 0.  0.
        4    1    3    3  502    0 -0.87887428546E+03  0.45916191632E+03  0.46370986321E+03  0.10946589081E+04  0.12699999809E+01 0. -1.
       -4    1    3    3    0  502  0.87887428546E+03 -0.45916191632E+03  0.48276068138E+03  0.11028640730E+04  0.12699999809E+01 0.  1.
</event>
<event>
 5   0  0.8577422E-05  0.1976781E+04  0.7818609E-02  0.8617554E-01
       -1   -1    0    0    0  501  0.00000000000E+00  0.00000000000E+00  0.41951541856E+03  0.41951541859E+03  0.50400001928E-02 0. -1.
        1   -1    0    0  501    0  0.00000000000E+00  0.00000000000E+00 -0.23286768580E+04  0.23286768580E+04  0.50400001928E-02 0.  1.
    10030    2    1    2    0    0  0.00000000000E+00  0.00000000000E+00 -0.19091614395E+04  0.27481922766E+04  0.19767810671E+04 0.  0.
        2    1    3    3  502    0  0.62811785263E+03  0.69085692717E+03 -0.50387718262E+03  0.10609936596E+04  0.25500000920E-02 0. -1.
       -2    1    3    3    0  502 -0.62811785263E+03 -0.69085692717E+03 -0.14052842568E+04  0.16871986170E+04  0.25500000920E-02 0.  1.
</event>
<event>
 5   0  0.8958919E-05  0.1892144E+04  0.7818609E-02  0.8658777E-01
        1   -1    0    0  501    0  0.00000000000E+00  0.00000000000E+00  0.14069300240E+04  0.14069300240E+04  0.50400001928E-02 0.  1.
       -1   -1    0    0    0  501  0.00000000000E+00  0.00000000000E+00 -0.63617417106E+03  0.63617417108E+03  0.50400001928E-02 0. -1.
    10030    2    1    2    0    0  0.00000000000E+00  0.00000000000E+00  0.77075585293E+03  0.20431041951E+04  0.18921443304E+04 0.  0.
        4    1    3    3  502    0  0.24122705044E+03  0.46847323827E+03  0.12338102350E+04  0.13416210246E+04  0.12699999809E+01 0.  1.
       -4    1    3    3    0  502 -0.24122705044E+03 -0.46847323827E+03 -0.46305438203E+03  0.70148317048E+03  0.12699999809E+01 0. -1.
</event>
<event>
 5   0  0.1893687E-04  0.2023966E+04  0.7818609E-02  0.8595497E-01
        2   -1    0    0  501    0  0.00000000000E+00  0.00000000000E+00  0.48092458897E+03  0.48092458897E+03  0.25500000920E-02 0.  1.
       -2   -1    0    0    0  501  0.00000000000E+00  0.00000000000E+00 -0.21294601707E+04  0.21294601707E+04  0.25500000920E-02 0. -1.
    10030    2    1    2    0    0  0.00000000000E+00  0.00000000000E+00 -0.16485355817E+04  0.26103847596E+04  0.20239661631E+04 0.  0.
        4    1    3    3  502    0 -0.25415503182E+03 -0.82100511881E+03 -0.15133593338E+04  0.17403741757E+04  0.12699999809E+01 0. -1.
       -4    1    3    3    0  502  0.25415503182E+03  0.82100511881E+03 -0.13517624793E+03  0.87001058397E+03  0.12699999809E+01 0.  1.
</event>
<event>
 5   0  0.1807498E-04  0.1978425E+04  0.7818609E-02  0.8616775E-01
        2   -1    0    0  501    0  0.00000000000E+00  0.00000000000E+00  0.12181559976E+04  0.12181559976E+04  0.25500000920E-02 0. -1.
       -2   -1    0    0    0  501  0.00000000000E+00  0.00000000000E+00 -0.80329692394E+03  0.80329692395E+03  0.25500000920E-02 0.  1.
    10030    2    1    2    0    0  0.00000000000E+00  0.00000000000E+00  0.41485907370E+03  0.20214529216E+04  0.19784245912E+04 0.  0.
        5    1    3    3  502    0 -0.10788077400E+02  0.97873340684E+03  0.61196575522E+02  0.98071533848E+03  0.46999998093E+01 0.  1.
       -5    1    3    3    0  502  0.10788077400E+02 -0.97873340684E+03  0.35366249818E+03  0.10407375831E+04  0.46999998093E+01 0. -1.
</event>
<event>
 5   0  0.8958919E-05  0.1962603E+04  0.7818609E-02  0.8624307E-01
       -1   -1    0    0    0  501  0.00000000000E+00  0.00000000000E+00  0.14803514345E+04  0.14803514345E+04  0.50400001928E-02 0.  1.
        1   -1    0    0  501    0  0.00000000000E+00  0.00000000000E+00 -0.65048909514E+03  0.65048909516E+03  0.50400001928E-02 0. -1.
    10030    2    1    2    0    0  0.00000000000E+00  0.00000000000E+00  0.82986233931E+03  0.21308405296E+04  0.19626028280E+04 0.  0.
        4    1    3    3  502    0 -0.11015719032E+02 -0.48475222283E+03 -0.51133950946E+03  0.70468132545E+03  0.12699999809E+01 0. -1.
       -4    1    3    3    0  502  0.11015719032E+02  0.48475222283E+03  0.13412018488E+04  0.14261592042E+04  0.12699999809E+01 0.  1.
</event>
<event>
 5   0  0.1893687E-04  0.2004223E+04  0.7818609E-02  0.8604649E-01
        2   -1    0    0  501    0  0.00000000000E+00  0.00000000000E+00  0.13382585201E+04  0.13382585201E+04  0.25500000920E-02 0. -1.
       -2   -1    0    0    0  501  0.00000000000E+00  0.00000000000E+00 -0.75039881670E+03  0.75039881671E+03  0.25500000920E-02 0.  1.
    10030    2    1    2    0    0  0.00000000000E+00  0.00000000000E+00  0.58785970341E+03  0.20886573368E+04  0.20042231512E+04 0.  0.
        4    1    3    3  502    0 -0.70073601272E+03 -0.23593435502E+03 -0.41097567840E+03  0.84593061213E+03  0.12699999809E+01 0. -1.
       -4    1    3    3    0  502  0.70073601272E+03  0.23593435502E+03  0.99883538181E+03  0.12427267247E+04  0.12699999809E+01 0.  1.
</event>
<event>
 5   0  0.1812865E-04  0.2058848E+04  0.7818609E-02  0.8579591E-01
        2   -1    0    0  501    0  0.00000000000E+00  0.00000000000E+00  0.25267490209E+04  0.25267490209E+04  0.25500000920E-02 0.  1.
       -2   -1    0    0    0  501  0.00000000000E+00  0.00000000000E+00 -0.41939804129E+03  0.41939804130E+03  0.25500000920E-02 0. -1.
    10030    2    1    2    0    0  0.00000000000E+00  0.00000000000E+00  0.21073509796E+04  0.29461470622E+04  0.20588478236E+04 0.  0.
        3    1    3    3  502    0 -0.41399346153E+02  0.37858017792E+03 -0.31488496778E+03  0.49415524900E+03  0.10100000352E+00 0. -1.
       -3    1    3    3    0  502  0.41399346153E+02 -0.37858017792E+03  0.24222359473E+04  0.24519918132E+04  0.10100000352E+00 0.  1.
</event>
<event>
 5   0  0.8881384E-05  0.1991184E+04  0.7818609E-02  0.8610754E-01
       -1   -1    0    0    0  501  0.00000000000E+00  0.00000000000E+00  0.12917426053E+04  0.12917426053E+04  0.50400001928E-02 0. -1.
        1   -1    0    0  501    0  0.00000000000E+00  0.00000000000E+00 -0.76733791698E+03  0.76733791700E+03  0.50400001928E-02 0.  1.
    10030    2    1    2    0    0  0.00000000000E+00  0.00000000000E+00  0.52440468830E+03  0.20590805223E+04  0.19911836480E+04 0.  0.
        5    1    3    3  502    0  0.60187730006E+03 -0.65699854062E+03  0.72150708373E+03  0.11465155597E+04  0.46999998093E+01 0. -1.
       -5    1    3    3    0  502 -0.60187730006E+03  0.65699854062E+03 -0.19710239543E+03  0.91256496261E+03  0.46999998093E+01 0.  1.
</event>
<event>
 5   0  0.1782172E-04  0.1999293E+04  0.7818609E-02  0.8606951E-01
       -2   -1    0    0    0  501  0.00000000000E+00  0.00000000000E+00  0.47052340789E+03  0.47052340789E+03  0.25500000920E-02 0. -1.
        2   -1    0    0  501    0  0.00000000000E+00  0.00000000000E+00 -0.21237900474E+04  0.21237900474E+04  0.25500000920E-02 0.  1.
    10030    2    1    2    0    0  0.00000000000E+00  0.00000000000E+00 -0.16532666395E+04  0.25943134553E+04  0.19992928057E+04 0.  0.
        2    1    3    3  502    0 -0.87784151641E+03  0.38225146965E+01 -0.14471494871E+04  0.16925903159E+04  0.25500000920E-02 0.  1.
       -2    1    3    3    0  502  0.87784151641E+03 -0.38225146965E+01 -0.20611715241E+03  0.90172313937E+03  0.25500000920E-02 0. -1.
</event>
<event>
 5   0  0.6531625E-05  0.2011407E+04  0.7818609E-02  0.8601306E-01
        3   -1    0    0  501    0  0.00000000000E+00  0.00000000000E+00  0.11210658378E+04  0.11210658423E+04  0.10100000352E+00 0. -1.
       -3   -1    0    0    0  501  0.00000000000E+00  0.00000000000E+00 -0.90221266524E+03  0.90221267089E+03  0.10100000352E+00 0.  1.
    10030    2    1    2    0    0  0.00000000000E+00  0.00000000000E+00  0.21885317253E+03  0.20232785132E+04  0.20114072762E+04 0.  0.
        2    1    3    3  502    0  0.68329706592E+02 -0.94478411633E+03  0.44928724967E+03  0.10484011675E+04  0.25500000920E-02 0. -1.
       -2    1    3    3    0  502 -0.68329706592E+02  0.94478411633E+03 -0.23043407714E+03  0.97487734572E+03  0.25500000920E-02 0.  1.
</event>
<event>
 5   0  0.1782172E-04  0.1503805E+04  0.7818609E-02  0.8881927E-01
        2   -1    0    0  501    0  0.00000000000E+00  0.00000000000E+00  0.10249733339E+04  0.10249733339E+04  0.25500000920E-02 0. -1.
       -2   -1    0    0    0  501  0.00000000000E+00  0.00000000000E+00 -0.55158228358E+03  0.55158228358E+03  0.25500000920E-02 0.  1.
    10030    2    1    2    0    0  0.00000000000E+00  0.00000000000E+00  0.47339105035E+03  0.15765556175E+04  0.15038046843E+04 0.  0.
        2    1    3    3  502    0 -0.21769991871E+03  0.48034925978E+03 -0.32516898697E+03  0.61956721675E+03  0.25500000920E-02 0.  1.
       -2    1    3    3    0  502  0.21769991871E+03 -0.48034925978E+03  0.79856003732E+03  0.95698840076E+03  0.25500000920E-02 0. -1.
</event>
<event>
 5   0  0.8765057E-05  0.2009035E+04  0.7818609E-02  0.8602408E-01
       -1   -1    0    0    0  501  0.00000000000E+00  0.00000000000E+00  0.62212358213E+03  0.62212358215E+03  0.50400001928E-02 0. -1.
        1   -1    0    0  501    0  0.00000000000E+00  0.00000000000E+00 -0.16219538690E+04  0.16219538690E+04  0.50400001928E-02 0.  1.
    10030    2    1    2    0    0  0.00000000000E+00  0.00000000000E+00 -0.99983028686E+03  0.22440774511E+04  0.20090353417E+04 0.  0.
        3    1    3    3  502    0  0.88514823540E+03  0.35347350438E+03 -0.14558929808E+03  0.96417175381E+03  0.10100000352E+00 0.  1.
       -3    1    3    3    0  502 -0.88514823540E+03 -0.35347350438E+03 -0.85424098879E+03  0.12799056973E+04  0.10100000352E+00 0. -1.
</event>
<event>
 5   0  0.1812865E-04  0.2005050E+04  0.7818609E-02  0.8604263E-01
       -2   -1    0    0    0  501  0.00000000000E+00  0.00000000000E+00  0.79579038909E+03  0.79579038909E+03  0.25500000920E-02 0. -1.
        2   -1    0    0  501    0  0.00000000000E+00  0.00000000000E+00 -0.12629660614E+04  0.12629660614E+04  0.25500000920E-02 0.  1.
    10030    2    1    2    0    0  0.00000000000E+00  0.00000000000E+00 -0.46717567228E+03  0.20587564505E+04  0.20050498781E+04 0.  0.
        3    1    3    3  502    0  0.62610266561E+03  0.38259401301E+03 -0.93502112027E+03  0.11885483718E+04  0.10100000352E+00 0. -1.
       -3    1    3    3    0  502 -0.62610266561E+03 -0.38259401301E+03  0.46784544799E+03  0.87020807861E+03  0.10100000352E+00 0.  1.
</event>
<event>
 5   0  0.8958919E-05  0.1983702E+04  0.7818609E-02  0.8614278E-01
       -1   -1    0    0    0  501  0.00000000000E+00  0.00000000000E+00  0.91080204266E+03  0.91080204267E+03  0.50400001928E-02 0. -1.
        1   -1    0    0  501    0  0.00000000000E+00  0.00000000000E+00 -0.10801127315E+04  0.10801127315E+04  0.50400001928E-02 0.  1.
    10030    2    1    2    0    0  0.00000000000E+00  0.00000000000E+00 -0.16931068879E+03  0.19909147741E+04  0.19837024798E+04 0.  0.
        4    1    3    3  502    0  0.57932277125E+03  0.14416482834E+03 -0.87960133918E+03  0.10630609107E+04  0.12699999809E+01 0.  1.
       -4    1    3    3    0  502 -0.57932277125E+03 -0.14416482834E+03  0.71029065038E+03  0.92785386346E+03  0.12699999809E+01 0. -1.
</event>
<event>
 5   0  0.8861350E-05  0.1983019E+04  0.7818609E-02  0.8614601E-01
        1   -1    0    0  501    0  0.00000000000E+00  0.00000000000E+00  0.52031219758E+03  0.52031219760E+03  0.50400001928E-02 0.  1.
       -1   -1    0    0    0  501  0.00000000000E+00  0.00000000000E+00 -0.18894246914E+04  0.18894246914E+04  0.50400001928E-02 0. -1.
    10030    2    1    2    0    0  0.00000000000E+00  0.00000000000E+00 -0.13691124938E+04  0.24097368890E+04  0.19830186216E+04 0.  0.
        1    1    3    3  502    0  0.33632711277E+03 -0.55965086469E+03 -0.15912885086E+04  0.17200360853E+04  0.50400001928E-02 0.  1.
       -1    1    3    3    0  502 -0.33632711277E+03  0.55965086469E+03  0.22217601473E+03  0.68970080374E+03  0.50400001928E-02 0. -1.
</event>
<event>
 5   0  0.1782172E-04  0.1967867E+04  0.7818609E-02  0.8621793E-01
        2   -1    0    0  501    0  0.00000000000E+00  0.00000000000E+00  0.11962469145E+04  0.11962469145E+04  0.25500000920E-02 0.  1.
       -2   -1    0    0    0  501  0.00000000000E+00  0.00000000000E+00 -0.80930230968E+03  0.80930230968E+03  0.25500000920E-02 0. -1.
    10030    2    1    2    0    0  0.00000000000E+00  0.00000000000E+00  0.38694460481E+03  0.20055492242E+04  0.19678672626E+04 0.  0.
        2    1    3    3  502    0 -0.50040307909E+03  0.23932903388E+03  0.10217108634E+04  0.11625724564E+04  0.25500000920E-02 0.  1.
       -2    1    3    3    0  502  0.50040307909E+03 -0.23932903388E+03 -0.63476625855E+03  0.84297676779E+03  0.25500000920E-02 0. -1.
</event>
<event>
 5   0  0.8765057E-05  0.1998030E+04  0.7818609E-02  0.8607542E-01
        1   -1    0    0  501    0  0.00000000000E+00  0.00000000000E+00  0.93184474823E+03  0.93184474825E+03  0.50400001928E-02 0. -1.
       -1   -1    0    0    0  501  0.00000000000E+00  0.00000000000E+00 -0.10710272143E+04  0.10710272143E+04  0.50400001928E-02 0.  1.
    10030    2    1    2    0    0  0.00000000000E+00  0.00000000000E+00 -0.13918246609E+03  0.20028719626E+04  0.19980301148E+04 0.  0.
        3    1    3    3  502    0  0.59066768342E+03  0.25380144435E+03  0.69693663752E+03  0.94816885222E+03  0.10100000352E+00 0. -1.
       -3    1    3    3    0  502 -0.59066768342E+03 -0.25380144435E+03 -0.83611910362E+03  0.10547031104E+04  0.10100000352E+00 0.  1.
</event>
<event>
 5   0  0.1893687E-04  0.2050286E+04  0.7818609E-02  0.8583465E-01
       -2   -1    0    0    0  501  0.00000000000E+00  0.00000000000E+00  0.50448069566E+03  0.50448069567E+03  0.25500000920E-02 0.  1.
        2   -1    0    0  501    0  0.00000000000E+00  0.00000000000E+00 -0.20831684025E+04  0.20831684025E+04  0.25500000920E-02 0. -1.
    10030    2    1    2    0    0  0.00000000000E+00  0.00000000000E+00 -0.15786877068E+04  0.25876490981E+04  0.20502860726E+04 0.  0.
        4    1    3    3  502    0  0.55237626294E+03  0.85453605650E+03 -0.63188444620E+03  0.11977608167E+04  0.12699999809E+01 0. -1.
       -4    1    3    3    0  502 -0.55237626294E+03 -0.85453605650E+03 -0.94680326059E+03  0.13898882814E+04  0.12699999809E+01 0.  1.
</event>
<event>
 5   0  0.1812865E-04  0.1880200E+04  0.7818609E-02  0.8664775E-01
        2   -1    0    0  501    0  0.00000000000E+00  0.00000000000E+00  0.11049015734E+04  0.11049015734E+04  0.25500000920E-02 0. -1.
       -2   -1    0    0    0  501  0.00000000000E+00  0.00000000000E+00 -0.79987954206E+03  0.79987954207E+03  0.25500000920E-02 0.  1.
    10030    2    1    2    0    0  0.00000000000E+00  0.00000000000E+00  0.30502203138E+03  0.19047811155E+04  0.18802001644E+04 0.  0.
        3    1    3    3  502    0  0.14715645754E+03  0.77893859838E+03 -0.35945490929E+03  0.87040691924E+03  0.10100000352E+00 0.  1.
       -3    1    3    3    0  502 -0.14715645754E+03 -0.77893859838E+03  0.66447694067E+03  0.10343741963E+04  0.10100000352E+00 0. -1.
</event>
<event>
 5   0  0.1807498E-04  0.1901088E+04  0.7818609E-02  0.8654315E-01
        2   -1    0    0  501    0  0.00000000000E+00  0.00000000000E+00  0.18259325081E+04  0.18259325081E+04  0.25500000920E-02 0.  1.
       -2   -1    0    0    0  501  0.00000000000E+00  0.00000000000E+00 -0.49483421405E+03  0.49483421405E+03  0.25500000920E-02 0. -1.
    10030    2    1    2    0    0  0.00000000000E+00  0.00000000000E+00  0.13310982941E+04  0.23207667222E+04  0.19010879807E+04 0.  0.
        5    1    3    3  502    0 -0.86747470335E+03 -0.37972796426E+03  0.56483779454E+03  0.11026193867E+04  0.46999998093E+01 0. -1.
       -5    1    3    3    0  502  0.86747470335E+03  0.37972796426E+03  0.76626049956E+03  0.12181473355E+04  0.46999998093E+01 0.  1.
</event>
<event>
 5   0  0.8958919E-05  0.1983724E+04  0.7818609E-02  0.8614268E-01
       -1   -1    0    0    0  501  0.00000000000E+00  0.00000000000E+00  0.42717802753E+03  0.42717802756E+03  0.50400001928E-02 0. -1.
        1   -1    0    0  501    0  0.00000000000E+00  0.00000000000E+00 -0.23029985720E+04  0.23029985720E+04  0.50400001928E-02 0.  1.
    10030    2    1    2    0    0  0.00000000000E+00  0.00000000000E+00 -0.18758205444E+04  0.27301765995E+04  0.19837241617E+04 0.  0.
        4    1    3    3  502    0  0.18433320295E+03 -0.32501778001E+03  0.32660858775E+03  0.49627620286E+03  0.12699999809E+01 0. -1.
       -4    1    3    3    0  502 -0.18433320295E+03  0.32501778001E+03 -0.22024291322E+04  0.22339003967E+04  0.12699999809E+01 0.  1.
</event>
<event>
 5   0  0.8765057E-05  0.2016574E+04  0.7818609E-02  0.8598911E-01
       -1   -1    0    0    0  501  0.00000000000E+00  0.00000000000E+00  0.79968839476E+03  0.79968839478E+03  0.50400001928E-02 0.  1.
        1   -1    0    0  501    0  0.00000000000E+00  0.00000000000E+00 -0.12712985901E+04  0.12712985901E+04  0.50400001928E-02 0. -1.
    10030    2    1    2    0    0  0.00000000000E+00  0.00000000000E+00 -0.47161019532E+03  0.20709869849E+04  0.20165740540E+04 0.  0.
        3    1    3    3  502    0  0.62722565631E+03 -0.60552352908E+03 -0.75600202461E+03  0.11539540024E+04  0.10100000352E+00 0. -1.
       -3    1    3    3    0  502 -0.62722565631E+03  0.60552352908E+03  0.28439182929E+03  0.91703298249E+03  0.10100000352E+00 0.  1.
</event>
<event>
 5   0  0.8881384E-05  0.1986984E+04  0.7818609E-02  0.8612730E-01
       -1   -1    0    0    0  501  0.00000000000E+00  0.00000000000E+00  0.64978130266E+03  0.64978130268E+03  0.50400001928E-02 0. -1.
        1   -1    0    0  501    0  0.00000000000E+00  0.00000000000E+00 -0.15190135506E+04  0.15190135506E+04  0.50400001928E-02 0.  1.
    10030    2    1    2    0    0  0.00000000000E+00  0.00000000000E+00 -0.86923224796E+03  0.21687948533E+04  0.19869842513E+04 0.  0.
        5    1    3    3  502    0  0.37866926679E+03 -0.88102159931E+03 -0.71801782503E+03  0.11979821197E+04  0.46999998093E+01 0.  1.
       -5    1    3    3    0  502 -0.37866926679E+03  0.88102159931E+03 -0.15121442294E+03  0.97081273362E+03  0.46999998093E+01 0. -1.
</event>
<event>
 5   0  0.1893687E-04  0.2016359E+04  0.7818609E-02  0.8599010E-01
        2   -1    0    0  501    0  0.00000000000E+00  0.00000000000E+00  0.24179416468E+04  0.24179416468E+04  0.25500000920E-02 0. -1.
       -2   -1    0    0    0  501  0.00000000000E+00  0.00000000000E+00 -0.42036844578E+03  0.42036844579E+03  0.25500000920E-02 0.  1.
    10030    2    1    2    0    0  0.00000000000E+00  0.00000000000E+00  0.19975732010E+04  0.28383100926E+04  0.20163594641E+04 0.  0.
        4    1    3    3  502    0  0.48666008343E+03 -0.17634175920E+03  0.22166118484E+04  0.22762478231E+04  0.12699999809E+01 0. -1.
       -4    1    3    3    0  502 -0.48666008343E+03  0.17634175920E+03 -0.21903864738E+03  0.56206226949E+03  0.12699999809E+01 0.  1.
</event>
<event>
 5   0  0.1834645E-04  0.1994608E+04  0.7818609E-02  0.8609146E-01
       -2   -1    0    0    0  501  0.00000000000E+00  0.00000000000E+00  0.12709695398E+04  0.12709695398E+04  0.25500000920E-02 0.  1.
        2   -1    0    0  501    0  0.00000000000E+00  0.00000000000E+00 -0.78256427483E+03  0.78256427483E+03  0.25500000920E-02 0. -1.
    10030    2    1    2    0    0  0.00000000000E+00  0.00000000000E+00  0.48840526493E+03  0.20535338146E+04  0.19946080880E+04 0.  0.
        1    1    3    3  502    0  0.81483717972E+03  0.53453727709E+03  0.25984239991E+02  0.97486661180E+03  0.50400001928E-02 0. -1.
       -1    1    3    3    0  502 -0.81483717972E+03 -0.53453727709E+03  0.46242102494E+03  0.10786672028E+04  0.50400001928E-02 0.  1.
</event>
<event>
 5   0  0.1807498E-04  0.1998153E+04  0.7818609E-02  0.8607484E-01
        2   -1    0    0  501    0  0.00000000000E+00  0.00000000000E+00  0.75612305536E+03  0.75612305536E+03  0.25500000920E-02 0.  1.
       -2   -1    0    0    0  501  0.00000000000E+00  0.00000000000E+00 -0.13200950559E+04  0.13200950559E+04  0.25500000920E-02 0. -1.
    10030    2    1    2    0    0  0.00000000000E+00  0.00000000000E+00 -0.56397200053E+03  0.20762181112E+04  0.19981534546E+04 0.  0.
        5    1    3    3  502    0 -0.20419483458E+03  0.48469546764E+03 -0.11645869866E+04  0.12778537343E+04  0.46999998093E+01 0. -1.
       -5    1    3    3    0  502  0.20419483458E+03 -0.48469546764E+03  0.60061498612E+03  0.79836437694E+03  0.46999998093E+01 0.  1.
</event>
<event>
 5   0  0.1893687E-04  0.2003469E+04  0.7818609E-02  0.8605001E-01
       -2   -1    0    0    0  501  0.00000000000E+00  0.00000000000E+00  0.11561182624E+04  0.11561182624E+04  0.25500000920E-02 0.  1.
        2   -1    0    0  501    0  0.00000000000E+00  0.00000000000E+00 -0.86796619236E+03  0.86796619236E+03  0.25500000920E-02 0. -1.
    10030    2    1    2    0    0  0.00000000000E+00  0.00000000000E+00  0.28815207003E+03  0.20240844548E+04  0.20034685584E+04 0.  0.
        4    1    3    3  502    0 -0.65516009142E+03 -0.75350030262E+03  0.22535575297E+03  0.10236133448E+04  0.12699999809E+01 0.  1.
       -4    1    3    3    0  502  0.65516009142E+03  0.75350030262E+03  0.62796317059E+02  0.10004711099E+04  0.12699999809E+01 0. -1.
</event>
<event>
 5   0  0.1782172E-04  0.2068653E+04  0.7818609E-02  0.8575179E-01
       -2   -1    0    0    0  501  0.00000000000E+00  0.00000000000E+00  0.13564536318E+04  0.13564536318E+04  0.25500000920E-02 0. -1.
        2   -1    0    0  501    0  0.00000000000E+00  0.00000000000E+00 -0.78869696556E+03  0.78869696557E+03  0.25500000920E-02 0.  1.
    10030    2    1    2    0    0  0.00000000000E+00  0.00000000000E+00  0.56775666620E+03  0.21451505973E+04  0.20686525695E+04 0.  0.
        2    1    3    3  502    0  0.59269061705E+03  0.33870168019E+03  0.10896788194E+04  0.12858463848E+04  0.25500000920E-02 0. -1.
       -2    1    3    3    0  502 -0.59269061705E+03 -0.33870168019E+03 -0.52192215323E+03  0.85930421257E+03  0.25500000920E-02 0.  1.
</event>
<event>
 5   0  0.1807498E-04  0.1991639E+04  0.7818609E-02  0.8610540E-01
        2   -1    0    0  501    0  0.00000000000E+00  0.00000000000E+00  0.93096133758E+03  0.93096133758E+03  0.25500000920E-02 0.  1.
       -2   -1    0    0    0  501  0.00000000000E+00  0.00000000000E+00 -0.10651962171E+04  0.10651962171E+04  0.25500000920E-02 0. -1.
    10030    2    1    2    0    0  0.00000000000E+00  0.00000000000E+00 -0.13423487956E+03  0.19961575547E+04  0.19916390186E+04 0.  0.
        5    1    3    3  502    0  0.58033437969E+03  0.21789955220E+02  0.74365021710E+03  0.94355738023E+03  0.46999998093E+01 0.  1.
       -5    1    3    3    0  502 -0.58033437969E+03 -0.21789955220E+02 -0.87788509666E+03  0.10526001745E+04  0.46999998093E+01 0. -1.
</event>
<event>
 5   0  0.1807498E-04  0.1966366E+04  0.7818609E-02  0.8622509E-01
       -2   -1    0    0    0  501  0.00000000000E+00  0.00000000000E+00  0.85345800301E+03  0.85345800301E+03  0.25500000920E-02 0. -1.
        2   -1    0    0  501    0  0.00000000000E+00  0.00000000000E+00 -0.11326259649E+04  0.11326259649E+04  0.25500000920E-02 0.  1.
    10030    2    1    2    0    0  0.00000000000E+00  0.00000000000E+00 -0.27916796190E+03  0.19860839679E+04  0.19663658807E+04 0.  0.
        5    1    3    3  502    0 -0.60623921710E+03  0.41841617624E+03  0.51812051315E+03  0.90059371586E+03  0.46999998093E+01 0. -1.
       -5    1    3    3    0  502  0.60623921710E+03 -0.41841617624E+03 -0.79728847505E+03  0.10854902521E+04  0.46999998093E+01 0.  1.
</event>
<event>
 5   0  0.8577422E-05  0.2014651E+04  0.7818609E-02  0.8599801E-01
        1   -1    0    0  501    0  0.00000000000E+00  0.00000000000E+00  0.18360857073E+04  0.18360857073E+04  0.50400001928E-02 0.  1.
       -1   -1    0    0    0  501  0.00000000000E+00  0.00000000000E+00 -0.55264551401E+03  0.55264551403E+03  0.50400001928E-02 0. -1.
    10030    2    1    2    0    0  0.00000000000E+00  0.00000000000E+00  0.12834401933E+04  0.23887312213E+04  0.20146508675E+04 0.  0.
        2    1    3    3  502    0 -0.62245533517E+03  0.63925270577E+03  0.87346717774E+02  0.89650661750E+03  0.25500000920E-02 0. -1.
       -2    1    3    3    0  502  0.62245533517E+03 -0.63925270577E+03  0.11960934755E+04  0.14922246038E+04  0.25500000920E-02 0.  1.
</event>
<event>
 5   0  0.8577422E-05  0.2027733E+04  0.7818609E-02  0.8593763E-01
       -1   -1    0    0    0  501  0.00000000000E+00  0.00000000000E+00  0.15507364360E+04  0.15507364360E+04  0.50400001928E-02 0. -1.
        1   -1    0    0  501    0  0.00000000000E+00  0.00000000000E+00 -0.66286264952E+03  0.66286264953E+03  0.50400001928E-02 0.  1.
    10030    2    1    2    0    0  0.00000000000E+00  0.00000000000E+00  0.88787378649E+03  0.22135990856E+04  0.20277329831E+04 0.  0.
        2    1    3    3  502    0  0.33531866821E+03 -0.36111840273E+02 -0.59983277933E+03  0.68814390750E+03  0.25500000920E-02 0.  1.
       -2    1    3    3    0  502 -0.33531866821E+03  0.36111840273E+02  0.14877065658E+04  0.15254551781E+04  0.25500000920E-02 0. -1.
</event>
<event>
 5   0  0.6531625E-05  0.1860815E+04  0.7818609E-02  0.8674611E-01
        4   -1    0    0  501    0  0.00000000000E+00  0.00000000000E+00  0.52741412952E+03  0.52741565858E+03  0.12699999809E+01 0.  1.
       -4   -1    0    0    0  501  0.00000000000E+00  0.00000000000E+00 -0.16413202170E+04  0.16413207084E+04  0.12699999809E+01 0. -1.
    10030    2    1    2    0    0  0.00000000000E+00  0.00000000000E+00 -0.11139060875E+04  0.21687363670E+04  0.18608145145E+04 0.  0.
        5    1    3    3  502    0 -0.69392949926E+02  0.72075947331E+03  0.12395481489E+03  0.73464037868E+03  0.46999998093E+01 0.  1.
       -5    1    3    3    0  502  0.69392949926E+02 -0.72075947331E+03 -0.12378609024E+04  0.14340959883E+04  0.46999998093E+01 0. -1.
</event>
<event>
 5   0  0.8881384E-05  0.1986657E+04  0.7818609E-02  0.8612884E-01
        1   -1    0    0  501    0  0.00000000000E+00  0.00000000000E+00  0.84307965511E+03  0.84307965513E+03  0.50400001928E-02 0. -1.
       -1   -1    0    0    0  501  0.00000000000E+00  0.00000000000E+00 -0.11703541701E+04  0.11703541701E+04  0.50400001928E-02 0.  1.
    10030    2    1    2    0    0  0.00000000000E+00  0.00000000000E+00 -0.32727451495E+03  0.20134338252E+04  0.19866572831E+04 0.  0.
        5    1    3    3  502    0 -0.44105498033E+03 -0.71793046784E+03  0.36950048283E+03  0.92005779663E+03  0.46999998093E+01 0. -1.
       -5    1    3    3    0  502  0.44105498033E+03  0.71793046784E+03 -0.69677499779E+03  0.10933760286E+04  0.46999998093E+01 0.  1.
</event>
<event>
 5   0  0.1812865E-04  0.2002066E+04  0.7818609E-02  0.8605656E-01
       -2   -1    0    0    0  501  0.00000000000E+00  0.00000000000E+00  0.98456232175E+03  0.98456232175E+03  0.25500000920E-02 0. -1.
        2   -1    0    0  501    0  0.00000000000E+00  0.00000000000E+00 -0.10177788166E+04  0.10177788166E+04  0.25500000920E-02 0.  1.
    10030    2    1    2    0    0  0.00000000000E+00  0.00000000000E+00 -0.33216494843E+02  0.20023411384E+04  0.20020656080E+04 0.  0.
        3    1    3    3  502    0  0.65012737048E+03 -0.22265120502E+03 -0.74460093319E+03  0.10132471154E+04  0.10100000352E+00 0.  1.
       -3    1    3    3    0  502 -0.65012737048E+03  0.22265120502E+03  0.71138443834E+03  0.98909402296E+03  0.10100000352E+00 0. -1.
</event>
<event>
 5   0  0.8861350E-05  0.2014463E+04  0.7818609E-02  0.8599888E-01
        1   -1    0    0  501    0  0.00000000000E+00  0.00000000000E+00  0.12855744084E+04  0.12855744084E+04  0.50400001928E-02 0. -1.
       -1   -1    0    0    0  501  0.00000000000E+00  0.00000000000E+00 -0.78915369516E+03  0.78915369518E+03  0.50400001928E-02 0.  1.
    10030    2    1    2    0    0  0.00000000000E+00  0.00000000000E+00  0.49642071322E+03  0.20747281036E+04  0.20144634966E+04 0.  0.
        1    1    3    3  502    0  0.46183252098E+03  0.46670184778E+03 -0.53845661957E+03  0.84913804728E+03  0.50400001928E-02 0.  1.
       -1    1    3    3    0  502 -0.46183252098E+03 -0.46670184778E+03  0.10348773328E+04  0.12255900563E+04  0.50400001928E-02 0. -1.
</event>
<event>
 5   0  0.8577422E-05  0.1514493E+04  0.7818609E-02  0.8874872E-01
       -1   -1    0    0    0  501  0.00000000000E+00  0.00000000000E+00  0.92025491078E+03  0.92025491080E+03  0.50400001928E-02 0.  1.
        1   -1    0    0  501    0  0.00000000000E+00  0.00000000000E+00 -0.62311279413E+03  0.62311279415E+03  0.50400001928E-02 0. -1.
    10030    2    1    2    0    0  0.00000000000E+00  0.00000000000E+00  0.29714211665E+03  0.15433677049E+04  0.15144934583E+04 0.  0.
        2    1    3    3  502    0  0.39615822619E+03 -0.50863351285E+02  0.80418272102E+03  0.89790771768E+03  0.25500000920E-02 0.  1.
       -2    1    3    3    0  502 -0.39615822619E+03  0.50863351285E+02 -0.50704060437E+03  0.64545998727E+03  0.25500000920E-02 0. -1.
</event>
<event>
 5   0  0.8881384E-05  0.2075962E+04  0.7818609E-02  0.8571907E-01
        1   -1    0    0  501    0  0.00000000000E+00  0.00000000000E+00  0.12438292467E+04  0.12438292467E+04  0.50400001928E-02 0.  1.
       -1   -1    0    0    0  501  0.00000000000E+00  0.00000000000E+00 -0.86619936253E+03  0.86619936255E+03  0.50400001928E-02 0. -1.
    10030    2    1    2    0    0  0.00000000000E+00  0.00000000000E+00  0.37762988415E+03  0.21100286092E+04  0.20759615609E+04 0.  0.
        5    1    3    3  502    0  0.79603212309E+03 -0.29791556344E+03  0.79437813454E+03  0.11633913935E+04  0.46999998093E+01 0. -1.
       -5    1    3    3    0  502 -0.79603212309E+03  0.29791556344E+03 -0.41674825040E+03  0.94663721570E+03  0.46999998093E+01 0.  1.
</event>
<event>
 5   0  0.1782172E-04  0.2075170E+04  0.7818609E-02  0.8572261E-01
       -2   -1    0    0    0  501  0.00000000000E+00  0.00000000000E+00  0.94245186650E+03  0.94245186650E+03  0.25500000920E-02 0. -1.
        2   -1    0    0  501    0  0.00000000000E+00  0.00000000000E+00 -0.11423206841E+04  0.11423206841E+04  0.25500000920E-02 0.  1.
    10030    2    1    2    0    0  0.00000000000E+00  0.00000000000E+00 -0.19986881762E+03  0.20847725506E+04  0.20751696421E+04 0.  0.
        2    1    3    3  502    0 -0.10347995687E+04 -0.35393313875E+02 -0.32396632789E+02  0.10359113745E+04  0.25500000920E-02 0.  1.
       -2    1    3    3    0  502  0.10347995687E+04  0.35393313875E+02 -0.16747218483E+03  0.10488611761E+04  0.25500000920E-02 0. -1.
</event>
<event>
 5   0  0.1893687E-04  0.2006544E+04  0.7818609E-02  0.8603567E-01
       -2   -1    0    0    0  501  0.00000000000E+00  0.00000000000E+00  0.73895277675E+03  0.73895277675E+03  0.25500000920E-02 0.  1.
        2   -1    0    0  501    0  0.00000000000E+00  0.00000000000E+00 -0.13621362155E+04  0.13621362155E+04  0.25500000920E-02 0. -1.
    10030    2    1    2    0    0  0.00000000000E+00  0.00000000000E+00 -0.62318343875E+03  0.21010889922E+04  0.20065436340E+04 0.  0.
        4    1    3    3  502    0  0.85597992777E+03 -0.23715620848E+03  0.17687309966E+03  0.90566572766E+03  0.12699999809E+01 0.  1.
       -4    1    3    3    0  502 -0.85597992777E+03  0.23715620848E+03 -0.80005653841E+03  0.11954232646E+04  0.12699999809E+01 0. -1.
</event>
<event>
 5   0  0.8765057E-05  0.1995540E+04  0.7818609E-02  0.8608709E-01
        1   -1    0    0  501    0  0.00000000000E+00  0.00000000000E+00  0.60964999801E+03  0.60964999803E+03  0.50400001928E-02 0.  1.
       -1   -1    0    0    0  501  0.00000000000E+00  0.00000000000E+00 -0.16329772466E+04  0.16329772466E+04  0.50400001928E-02 0. -1.
    10030    2    1    2    0    0  0.00000000000E+00  0.00000000000E+00 -0.10233272486E+04  0.22426272447E+04  0.19955396014E+04 0.  0.
        3    1    3    3  502    0 -0.61315092729E+02 -0.46671005396E+03 -0.15003485097E+04  0.15724577819E+04  0.10100000352E+00 0. -1.
       -3    1    3    3    0  502  0.61315092729E+02  0.46671005396E+03  0.47702126110E+03  0.67016946276E+03  0.10100000352E+00 0.  1.
</event>
<event>
 5   0  0.1782172E-04  0.1997613E+04  0.7818609E-02  0.8607737E-01
        2   -1    0    0  501    0  0.00000000000E+00  0.00000000000E+00  0.17951074102E+04  0.17951074102E+04  0.25500000920E-02 0.  1.
       -2   -1    0    0    0  501  0.00000000000E+00  0.00000000000E+00 -0.55574081004E+03  0.55574081005E+03  0.25500000920E-02 0. -1.
    10030    2    1    2    0    0  0.00000000000E+00  0.00000000000E+00  0.12393666002E+04  0.23508482203E+04  0.19976130219E+04 0.  0.
        2    1    3    3  502    0  0.30847451622E+03 -0.89422717807E+03  0.99703202910E+03  0.13743622667E+04  0.25500000920E-02 0. -1.
       -2    1    3    3    0  502 -0.30847451622E+03  0.89422717807E+03  0.24233457109E+03  0.97648595356E+03  0.25500000920E-02 0.  1.
</event>
<event>
 5   0  0.8881384E-05  0.1999078E+04  0.7818609E-02  0.8607052E-01
        1   -1    0    0  501    0  0.00000000000E+00  0.00000000000E+00  0.22706564320E+04  0.22706564320E+04  0.50400001928E-02 0. -1.
       -1   -1    0    0    0  501  0.00000000000E+00  0.00000000000E+00 -0.43999512942E+03  0.43999512945E+03  0.50400001928E-02 0.  1.
    10030    2    1    2    0    0  0.00000000000E+00  0.00000000000E+00  0.18306613026E+04  0.27106515615E+04  0.19990775580E+04 0.  0.
        5    1    3    3  502    0  0.79682135358E+03  0.52717592186E+02  0.10023337286E+03  0.80484298660E+03  0.46999998093E+01 0.  1.
       -5    1    3    3    0  502 -0.79682135358E+03 -0.52717592186E+02  0.17304279297E+04  0.19058085749E+04  0.46999998093E+01 0. -1.
</event>
<event>
 5   0  0.8958919E-05  0.2023445E+04  0.7818609E-02  0.8595737E-01
       -1   -1    0    0    0  501  0.00000000000E+00  0.00000000000E+00  0.14700693367E+04  0.14700693367E+04  0.50400001928E-02 0. -1.
        1   -1    0    0  501    0  0.00000000000E+00  0.00000000000E+00 -0.69628169382E+03  0.69628169384E+03  0.50400001928E-02 0.  1.
    10030    2    1    2    0    0  0.00000000000E+00  0.00000000000E+00  0.77378764290E+03  0.21663510306E+04  0.20234449514E+04 0.  0.
        4    1    3    3  502    0  0.51823731538E+03 -0.72348468333E+03 -0.12832137842E+03  0.89914848113E+03  0.12699999809E+01 0.  1.
       -4    1    3    3    0  502 -0.51823731538E+03  0.72348468333E+03  0.90210902132E+03  0.12672025494E+04  0.12699999809E+01 0. -1.
</event>
<event>
 5   0  0.8577422E-05  0.1996697E+04  0.7818609E-02  0.8608166E-01
        1   -1    0    0  501    0  0.00000000000E+00  0.00000000000E+00  0.21040363159E+04  0.21040363159E+04  0.50400001928E-02 0. -1.
       -1   -1    0    0    0  501  0.00000000000E+00  0.00000000000E+00 -0.47370852992E+03  0.47370852995E+03  0.50400001928E-02 0.  1.
    10030    2    1    2    0    0  0.00000000000E+00  0.00000000000E+00  0.16303277859E+04  0.25777448458E+04  0.19966972230E+04 0.  0.
        2    1    3    3  502    0  0.77620659503E+03  0.48322158234E+03  0.13326943187E+04  0.16161911777E+04  0.25500000920E-02 0. -1.
       -2    1    3    3    0  502 -0.77620659503E+03 -0.48322158234E+03  0.29763346721E+03  0.96155366809E+03  0.25500000920E-02 0.  1.
</event>
<event>
 5   0  0.8881384E-05  0.1967891E+04  0.7818609E-02  0.8621781E-01
        1   -1    0    0  501    0  0.00000000000E+00  0.00000000000E+00  0.19234519773E+04  0.19234519773E+04  0.50400001928E-02 0.  1.
       -1   -1    0    0    0  501  0.00000000000E+00  0.00000000000E+00 -0.50333931759E+03  0.50333931762E+03  0.50400001928E-02 0. -1.
    10030    2    1    2    0    0  0.00000000000E+00  0.00000000000E+00  0.14201126597E+04  0.24267912949E+04  0.19678912630E+04 0.  0.
        5    1    3    3  502    0  0.70349289557E+03  0.26319249142E+03  0.14938423057E+04  0.16720524710E+04  0.46999998093E+01 0.  1.
       -5    1    3    3    0  502 -0.70349289557E+03 -0.26319249142E+03 -0.73729645931E+02  0.75473882393E+03  0.46999998093E+01 0. -1.
</event>
<event>
 5   0  0.8861350E-05  0.2005111E+04  0.7818609E-02  0.8604235E-01
       -1   -1    0    0    0  501  0.00000000000E+00  0.00000000000E+00  0.11314705024E+04  0.11314705024E+04  0.50400001928E-02 0.  1.
        1   -1    0    0  501    0  0.00000000000E+00  0.00000000000E+00 -0.88832830287E+03  0.88832830289E+03  0.50400001928E-02 0. -1.
    10030    2    1    2    0    0  0.00000000000E+00  0.00000000000E+00  0.24314219949E+03  0.20197988053E+04  0.20051107412E+04 0.  0.
        1    1    3    3  502    0 -0.63136008580E+03  0.69405895735E+03  0.47740636326E+03  0.10527346436E+04  0.50400001928E-02 0.  1.
       -1    1    3    3    0  502  0.63136008580E+03 -0.69405895735E+03 -0.23426416377E+03  0.96706416161E+03  0.50400001928E-02 0. -1.
</event>
<event>
 5   0  0.1812865E-04  0.2001590E+04  0.7818609E-02  0.8605878E-01
       -2   -1    0    0    0  501  0.00000000000E+00  0.00000000000E+00  0.41719062903E+03  0.41719062904E+03  0.25500000920E-02 0. -1.
        2   -1    0    0  501    0  0.00000000000E+00  0.00000000000E+00 -0.24007979025E+04  0.24007979025E+04  0.25500000920E-02 0.  1.
    10030    2    1    2    0    0  0.00000000000E+00  0.00000000000E+00 -0.19836072735E+04  0.28179885316E+04  0.20015897553E+04 0.  0.
        3    1    3    3  502    0  0.80049709305E+03 -0.57948452565E+03 -0.12143747010E+04  0.15656640240E+04  0.10100000352E+00 0. -1.
       -3    1    3    3    0  502 -0.80049709305E+03  0.57948452565E+03 -0.76923257251E+03  0.12523245076E+04  0.10100000352E+00 0.  1.
</event>
<event>
 5   0  0.1812865E-04  0.1996803E+04  0.7818609E-02  0.8608117E-01
       -2   -1    0    0    0  501  0.00000000000E+00  0.00000000000E+00  0.82940840142E+03  0.82940840143E+03  0.25500000920E-02 0. -1.
        2   -1    0    0  501    0  0.00000000000E+00  0.00000000000E+00 -0.12018274152E+04  0.12018274152E+04  0.25500000920E-02 0.  1.
    10030    2    1    2    0    0  0.00000000000E+00  0.00000000000E+00 -0.37241901375E+03  0.20312358166E+04  0.19968032003E+04 0.  0.
        3    1    3    3  502    0 -0.29075193964E+03  0.89536760367E+03  0.15206944604E+03  0.95359580679E+03  0.10100000352E+00 0.  1.
       -3    1    3    3    0  502  0.29075193964E+03 -0.89536760367E+03 -0.52448845979E+03  0.10776400098E+04  0.10100000352E+00 0. -1.
</event>
<event>
 5   0  0.8881384E-05  0.1975686E+04  0.7818609E-02  0.8618074E-01
        1   -1    0    0  501    0  0.00000000000E+00  0.00000000000E+00  0.10216551784E+04  0.10216551784E+04  0.50400001928E-02 0. -1.
       -1   -1    0    0    0  501  0.00000000000E+00  0.00000000000E+00 -0.95514947608E+03  0.95514947609E+03  0.50400001928E-02 0.  1.
    10030    2    1    2    0    0  0.00000000000E+00  0.00000000000E+00  0.66505702309E+02  0.19768046545E+04  0.19756856110E+04 0.  0.
        5    1    3    3  502    0  0.14198990038E+03  0.26191483075E+03  0.97562006056E+03  0.10201064175E+04  0.46999998093E+01 0. -1.
       -5    1    3    3    0  502 -0.14198990038E+03 -0.26191483075E+03 -0.90911435825E+03  0.95669823704E+03  0.46999998093E+01 0.  1.
</event>
<event>
 5   0  0.8765057E-05  0.1932885E+04  0.7818609E-02  0.8638658E-01
        1   -1    0    0  501    0  0.00000000000E+00  0.00000000000E+00  0.21094928366E+04  0.21094928366E+04  0.50400001928E-02 0. -1.
       -1   -1    0    0    0  501  0.00000000000E+00  0.00000000000E+00 -0.44276586060E+03  0.44276586063E+03  0.50400001928E-02 0.  1.
    10030    2    1    2    0    0  0.00000000000E+00  0.00000000000E+00  0.16667269760E+04  0.25522586972E+04  0.19328853161E+04 0.  0.
        3    1    3    3  502    0  0.65081476456E+03 -0.14476756267E+03  0.17571938809E+04  0.18794275326E+04  0.10100000352E+00 0. -1.
       -3    1    3    3    0  502 -0.65081476456E+03  0.14476756267E+03 -0.90466904952E+02  0.67283116460E+03  0.10100000352E+00 0.  1.
</event>
<event>
 5   0  0.8765057E-05  0.1995895E+04  0.7818609E-02  0.8608542E-01
       -1   -1    0    0    0  501  0.00000000000E+00  0.00000000000E+00  0.11114779821E+04  0.11114779821E+04  0.50400001928E-02 0. -1.
        1   -1    0    0  501    0  0.00000000000E+00  0.00000000000E+00 -0.89601364129E+03  0.89601364131E+03  0.50400001928E-02 0.  1.
    10030    2    1    2    0    0  0.00000000000E+00  0.00000000000E+00  0.21546434083E+03  0.20074916234E+04  0.19958952217E+04 0.  0.
        3    1    3    3  502    0 -0.50987073247E+03  0.79995459541E+03  0.41937737827E+03  0.10371947330E+04  0.10100000352E+00 0. -1.
       -3    1    3    3    0  502  0.50987073247E+03 -0.79995459541E+03 -0.20391303744E+03  0.97029689044E+03  0.10100000352E+00 0.  1.
</event>
<event>
 5   0  0.1782172E-04  0.1990346E+04  0.7818609E-02  0.8611147E-01
        2   -1    0    0  501    0  0.00000000000E+00  0.00000000000E+00  0.18913459262E+04  0.18913459262E+04  0.25500000920E-02 0.  1.
       -2   -1    0    0    0  501  0.00000000000E+00  0.00000000000E+00 -0.52363213806E+03  0.52363213807E+03  0.25500000920E-02 0. -1.
    10030    2    1    2    0    0  0.00000000000E+00  0.00000000000E+00  0.13677137882E+04  0.24149780643E+04  0.19903462123E+04 0.  0.
        2    1    3    3  502    0 -0.16614560416E+03  0.98023404025E+03  0.73683407119E+03  0.12374924581E+04  0.25500000920E-02 0.  1.
       -2    1    3    3    0  502  0.16614560416E+03 -0.98023404025E+03  0.63087971699E+03  0.11774856062E+04  0.25500000920E-02 0. -1.
</event>
<event>
 5   0  0.1782172E-04  0.1760337E+04  0.7818609E-02  0.8727681E-01
       -2   -1    0    0    0  501  0.00000000000E+00  0.00000000000E+00  0.67311943264E+03  0.67311943264E+03  0.25500000920E-02 0. -1.
        2   -1    0    0  501    0  0.00000000000E+00  0.00000000000E+00 -0.11509045098E+04  0.11509045098E+04  0.25500000920E-02 0.  1.
    10030    2    1    2    0    0  0.00000000000E+00  0.00000000000E+00 -0.47778507714E+03  0.18240239424E+04  0.17603365481E+04 0.  0.
        2    1    3    3  502    0  0.65256173818E+03  0.12597625231E+03  0.35903699094E+03  0.75539022972E+03  0.25500000920E-02 0. -1.
       -2    1    3    3    0  502 -0.65256173818E+03 -0.12597625231E+03 -0.83682206808E+03  0.10686337127E+04  0.25500000920E-02 0.  1.
</event>
<event>
 5   0  0.8958919E-05  0.1993156E+04  0.7818609E-02  0.8609827E-01
       -1   -1    0    0    0  501  0.00000000000E+00  0.00000000000E+00  0.40674159350E+03  0.40674159353E+03  0.50400001928E-02 0. -1.
        1   -1    0    0  501    0  0.00000000000E+00  0.00000000000E+00 -0.24417651016E+04  0.24417651016E+04  0.50400001928E-02 0.  1.
    10030    2    1    2    0    0  0.00000000000E+00  0.00000000000E+00 -0.20350235081E+04  0.28485066951E+04  0.19931557174E+04 0.  0.
        4    1    3    3  502    0 -0.68074342973E+03  0.52999568107E+02  0.19918142871E+02  0.68309510074E+03  0.12699999809E+01 0. -1.
       -4    1    3    3    0  502  0.68074342973E+03 -0.52999568107E+02 -0.20549416510E+04  0.21654115944E+04  0.12699999809E+01 0.  1.
</event>
<event>
 5   0  0.1834645E-04  0.1983910E+04  0.7818609E-02  0.8614180E-01
       -2   -1    0    0    0  501  0.00000000000E+00  0.00000000000E+00  0.52466661280E+03  0.52466661280E+03  0.25500000920E-02 0.  1.
        2   -1    0    0  501    0  0.00000000000E+00  0.00000000000E+00 -0.18754287347E+04  0.18754287347E+04  0.25500000920E-02 0. -1.
    10030    2    1    2    0    0  0.00000000000E+00  0.00000000000E+00 -0.13507621219E+04  0.24000953475E+04  0.19839101208E+04 0.  0.
        1    1    3    3  502    0  0.22802948724E+03 -0.90937684889E+03 -0.28334664763E+03  0.97941259084E+03  0.50400001928E-02 0.  1.
       -1    1    3    3    0  502 -0.22802948724E+03  0.90937684889E+03 -0.10674154743E+04  0.14206827567E+04  0.50400001928E-02 0. -1.
</event>
<event>
 5   0  0.1807498E-04  0.1991768E+04  0.7818609E-02  0.8610479E-01
       -2   -1    0    0    0  501  0.00000000000E+00  0.00000000000E+00  0.54894857645E+03  0.54894857646E+03  0.25500000920E-02 0.  1.
        2   -1    0    0  501    0  0.00000000000E+00  0.00000000000E+00 -0.18066988482E+04  0.18066988482E+04  0.25500000920E-02 0. -1.
    10030    2    1    2    0    0  0.00000000000E+00  0.00000000000E+00 -0.12577502717E+04  0.23556474247E+04  0.19917678186E+04 0.  0.
        5    1    3    3  502    0  0.80279992654E+03  0.51961681293E+03 -0.95764072426E+03  0.13533614451E+04  0.46999998093E+01 0. -1.
       -5    1    3    3    0  502 -0.80279992654E+03 -0.51961681293E+03 -0.30010954749E+03  0.10022859796E+04  0.46999998093E+01 0.  1.
</event>
<event>
 5   0  0.1807498E-04  0.2150872E+04  0.7818609E-02  0.8539159E-01
        2   -1    0    0  501    0  0.00000000000E+00  0.00000000000E+00  0.12986642765E+04  0.12986642766E+04  0.25500000920E-02 0.  1.
       -2   -1    0    0    0  501  0.00000000000E+00  0.00000000000E+00 -0.89057830240E+03  0.89057830241E+03  0.25500000920E-02 0. -1.
    10030    2    1    2    0    0  0.00000000000E+00  0.00000000000E+00  0.40808597415E+03  0.21892425790E+04  0.21508716622E+04 0.  0.
        5    1    3    3  502    0  0.61858761748E+03 -0.54074573413E+02  0.10977534508E+04  0.12612134747E+04  0.46999998093E+01 0.  1.
       -5    1    3    3    0  502 -0.61858761748E+03  0.54074573413E+02 -0.68966747667E+03  0.92802910426E+03  0.46999998093E+01 0. -1.
</event>
<event>
 5   0  0.1782172E-04  0.1973446E+04  0.7818609E-02  0.8619137E-01
        2   -1    0    0  501    0  0.00000000000E+00  0.00000000000E+00  0.98424456545E+03  0.98424456546E+03  0.25500000920E-02 0.  1.
       -2   -1    0    0    0  501  0.00000000000E+00  0.00000000000E+00 -0.98920739749E+03  0.98920739749E+03  0.25500000920E-02 0. -1.
    10030    2    1    2    0    0  0.00000000000E+00  0.00000000000E+00 -0.49628320340E+01  0.19734519629E+04  0.19734457227E+04 0.  0.
        2    1    3    3  502    0  0.46178423837E+03 -0.78794694162E+03  0.37103942920E+03  0.98578665219E+03  0.25500000920E-02 0. -1.
       -2    1    3    3    0  502 -0.46178423837E+03  0.78794694162E+03 -0.37600226123E+03  0.98766531076E+03  0.25500000920E-02 0.  1.
</event>
<event>
 5   0  0.8881384E-05  0.2001804E+04  0.7818609E-02  0.8605778E-01
        1   -1    0    0  501    0  0.00000000000E+00  0.00000000000E+00  0.16051935245E+04  0.16051935246E+04  0.50400001928E-02 0.  1.
       -1   -1    0    0    0  501  0.00000000000E+00  0.00000000000E+00 -0.62410240831E+03  0.62410240833E+03  0.50400001928E-02 0. -1.
    10030    2    1    2    0    0  0.00000000000E+00  0.00000000000E+00  0.98109111624E+03  0.22292959329E+04  0.20018043306E+04 0.  0.
        5    1    3    3  502    0 -0.12355053794E+03  0.24669918269E+03 -0.58090303608E+03  0.64311402526E+03  0.46999998093E+01 0. -1.
       -5    1    3    3    0  502  0.12355053794E+03 -0.24669918269E+03  0.15619941523E+04  0.15861819076E+04  0.46999998093E+01 0.  1.
</event>
<event>
 5   0  0.1812865E-04  0.1986930E+04  0.7818609E-02  0.8612756E-01
        2   -1    0    0  501    0  0.00000000000E+00  0.00000000000E+00  0.15306044362E+04  0.15306044362E+04  0.25500000920E-02 0.  1.
       -2   -1    0    0    0  501  0.00000000000E+00  0.00000000000E+00 -0.64482551875E+03  0.64482551875E+03  0.25500000920E-02 0. -1.
    10030    2    1    2    0    0  0.00000000000E+00  0.00000000000E+00  0.88577891748E+03  0.21754299550E+04  0.19869300940E+04 0.  0.
        3    1    3    3  502    0 -0.94560301484E+03  0.29231923510E+03  0.53680091539E+03  0.11259532982E+04  0.10100000352E+00 0.  1.
       -3    1    3    3    0  502  0.94560301484E+03 -0.29231923510E+03  0.34897800209E+03  0.10494766567E+04  0.10100000352E+00 0. -1.
</event>
<event>
 5   0  0.8765057E-05  0.1454942E+04  0.7818609E-02  0.8914981E-01
       -1   -1    0    0    0  501  0.00000000000E+00  0.00000000000E+00  0.44759245806E+03  0.44759245808E+03  0.50400001928E-02 0. -1.
        1   -1    0    0  501    0  0.00000000000E+00  0.00000000000E+00 -0.11823577525E+04  0.11823577525E+04  0.50400001928E-02 0.  1.
    10030    2    1    2    0    0  0.00000000000E+00  0.00000000000E+00 -0.73476529448E+03  0.16299502106E+04  0.14549424907E+04 0.  0.
        3    1    3    3  502    0  0.71376542560E+03 -0.56416751963E+02 -0.51159282865E+03  0.87998361645E+03  0.10100000352E+00 0. -1.
       -3    1    3    3    0  502 -0.71376542560E+03  0.56416751963E+02 -0.22317246583E+03  0.74996659419E+03  0.10100000352E+00 0.  1.
</event>
<event>
 5   0  0.1893687E-04  0.1973424E+04  0.7818609E-02  0.8619148E-01
        2   -1    0    0  501    0  0.00000000000E+00  0.00000000000E+00  0.27233910435E+04  0.27233910435E+04  0.25500000920E-02 0. -1.
       -2   -1    0    0    0  501  0.00000000000E+00  0.00000000000E+00 -0.35749553063E+03  0.35749553064E+03  0.25500000920E-02 0.  1.
    10030    2    1    2    0    0  0.00000000000E+00  0.00000000000E+00  0.23658955128E+04  0.30808865741E+04  0.19734235493E+04 0.  0.
        4    1    3    3  502    0  0.14514607096E+03  0.50077540958E+03  0.24907684303E+04  0.25447538936E+04  0.12699999809E+01 0. -1.
       -4    1    3    3    0  502 -0.14514607096E+03 -0.50077540958E+03 -0.12487291741E+03  0.53613268055E+03  0.12699999809E+01 0.  1.
</event>
<event>
 5   0  0.8577422E-05  0.1984391E+04  0.7818609E-02  0.8613953E-01
        1   -1    0    0  501    0  0.00000000000E+00  0.00000000000E+00  0.13023392232E+04  0.13023392232E+04  0.50400001928E-02 0. -1.
       -1   -1    0    0    0  501  0.00000000000E+00  0.00000000000E+00 -0.75591064160E+03  0.75591064162E+03  0.50400001928E-02 0.  1.
    10030    2    1    2    0    0  0.00000000000E+00  0.00000000000E+00  0.54642858156E+03  0.20582498648E+04  0.19843911689E+04 0.  0.
        2    1    3    3  502    0 -0.52951409227E+03  0.58049117473E+03  0.90165045392E+03  0.11959635107E+04  0.25500000920E-02 0. -1.
       -2    1    3    3    0  502  0.52951409227E+03 -0.58049117473E+03 -0.35522187237E+03  0.86228635409E+03  0.25500000920E-02 0.  1.
</event>
<event>
 5   0  0.8861350E-05  0.1930322E+04  0.7818609E-02  0.8639908E-01
       -1   -1    0    0    0  501  0.00000000000E+00  0.00000000000E+00  0.14142807551E+04  0.14142807551E+04  0.50400001928E-02 0. -1.
        1   -1    0    0  501    0  0.00000000000E+00  0.00000000000E+00 -0.65866426944E+03  0.65866426946E+03  0.50400001928E-02 0.  1.
    10030    2    1    2    0    0  0.00000000000E+00  0.00000000000E+00  0.75561648565E+03  0.20729450246E+04  0.19303224605E+04 0.  0.
        1    1    3    3  502    0  0.40532921765E+03 -0.55558982611E+03  0.11050152830E+04  0.13015493095E+04  0.50400001928E-02 0. -1.
       -1    1    3    3    0  502 -0.40532921765E+03  0.55558982611E+03 -0.34939879732E+03  0.77139571502E+03  0.50400001928E-02 0.  1.
</event>
<event>
 5   0  0.1807498E-04  0.1994377E+04  0.7818609E-02  0.8609254E-01
        2   -1    0    0  501    0  0.00000000000E+00  0.00000000000E+00  0.18532659085E+04  0.18532659085E+04  0.25500000920E-02 0.  1.
       -2   -1    0    0    0  501  0.00000000000E+00  0.00000000000E+00 -0.53655824904E+03  0.53655824904E+03  0.25500000920E-02 0. -1.
    10030    2    1    2    0    0  0.00000000000E+00  0.00000000000E+00  0.13167076595E+04  0.23898241576E+04  0.19943772069E+04 0.  0.
        5    1    3    3  502    0  0.44299342851E+03  0.58126653631E+02 -0.40989270077E+03  0.60634643704E+03  0.46999998093E+01 0. -1.
       -5    1    3    3    0  502 -0.44299342851E+03 -0.58126653631E+02  0.17266003603E+04  0.17834777205E+04  0.46999998093E+01 0.  1.
</event>
<event>
 5   0  0.8881384E-05  0.1989409E+04  0.7818609E-02  0.8611588E-01
        1   -1    0    0  501    0  0.00000000000E+00  0.00000000000E+00  0.11412335830E+04  0.11412335830E+04  0.50400001928E-02 0. -1.
       -1   -1    0    0    0  501  0.00000000000E+00  0.00000000000E+00 -0.86698929316E+03  0.86698929318E+03  0.50400001928E-02 0.  1.
    10030    2    1    2    0    0  0.00000000000E+00  0.00000000000E+00  0.27424428982E+03  0.20082228762E+04  0.19894092565E+04 0.  0.
        5    1    3    3  502    0 -0.93842849187E+02 -0.93998566488E+02 -0.85798578937E+03  0.86821881782E+03  0.46999998093E+01 0.  1.
       -5    1    3    3    0  502  0.93842849187E+02  0.93998566488E+02  0.11322300792E+04  0.11400040584E+04  0.46999998093E+01 0. -1.
</event>
<event>
 5   0  0.1812865E-04  0.1978473E+04  0.7818609E-02  0.8616752E-01
       -2   -1    0    0    0  501  0.00000000000E+00  0.00000000000E+00  0.95383974331E+03  0.95383974331E+03  0.25500000920E-02 0. -1.
        2   -1    0    0  501    0  0.00000000000E+00  0.00000000000E+00 -0.10259471032E+04  0.10259471032E+04  0.25500000920E-02 0.  1.
    10030    2    1    2    0    0  0.00000000000E+00  0.00000000000E+00 -0.72107359923E+02  0.19797868465E+04  0.19784732716E+04 0.  0.
        3    1    3    3  502    0  0.53361646111E+03  0.32248657771E+03  0.73246989606E+03  0.96190242707E+03  0.10100000352E+00 0. -1.
       -3    1    3    3    0  502 -0.53361646111E+03 -0.32248657771E+03 -0.80457725598E+03  0.10178844195E+04  0.10100000352E+00 0.  1.
</event>
<event>
 5   0  0.1834645E-04  0.1992614E+04  0.7818609E-02  0.8610081E-01
       -2   -1    0    0    0  501  0.00000000000E+00  0.00000000000E+00  0.79991122243E+03  0.79991122244E+03  0.25500000920E-02 0. -1.
        2   -1    0    0  501    0  0.00000000000E+00  0.00000000000E+00 -0.12409226732E+04  0.12409226732E+04  0.25500000920E-02 0.  1.
    10030    2    1    2    0    0  0.00000000000E+00  0.00000000000E+00 -0.44101145078E+03  0.20408338956E+04  0.19926143355E+04 0.  0.
        1    1    3    3  502    0  0.94121924735E+03 -0.28589492022E+03 -0.58570818705E+02  0.98542382649E+03  0.50400001928E-02 0. -1.
       -1    1    3    3    0  502 -0.94121924735E+03  0.28589492022E+03 -0.38244063207E+03  0.10554100692E+04  0.50400001928E-02 0.  1.
</event>
<event>
 5   0  0.8577422E-05  0.1812470E+04  0.7818609E-02  0.8699696E-01
       -1   -1    0    0    0  501  0.00000000000E+00  0.00000000000E+00  0.71686279183E+03  0.71686279185E+03  0.50400001928E-02 0.  1.
        1   -1    0    0  501    0  0.00000000000E+00  0.00000000000E+00 -0.11456327784E+04  0.11456327784E+04  0.50400001928E-02 0. -1.
    10030    2    1    2    0    0  0.00000000000E+00  0.00000000000E+00 -0.42876998652E+03  0.18624955702E+04  0.18124695991E+04 0.  0.
        2    1    3    3  502    0 -0.82719734612E+03  0.24283583663E+02 -0.59392517588E+03  0.10186227253E+04  0.25500000920E-02 0. -1.
       -2    1    3    3    0  502  0.82719734612E+03 -0.24283583663E+02  0.16515518936E+03  0.84387284495E+03  0.25500000920E-02 0.  1.
</event>
<event>
 5   0  0.8577422E-05  0.1982356E+04  0.7818609E-02  0.8614915E-01
       -1   -1    0    0    0  501  0.00000000000E+00  0.00000000000E+00  0.11440270790E+04  0.11440270790E+04  0.50400001928E-02 0. -1.
        1   -1    0    0  501    0  0.00000000000E+00  0.00000000000E+00 -0.85875045076E+03  0.85875045078E+03  0.50400001928E-02 0.  1.
    10030    2    1    2    0    0  0.00000000000E+00  0.00000000000E+00  0.28527662819E+03  0.20027775297E+04  0.19823559416E+04 0.  0.
        2    1    3    3  502    0 -0.62755808948E+03 -0.73502588450E+03  0.36477046316E+03  0.10330293787E+04  0.25500000920E-02 0. -1.
       -2    1    3    3    0  502  0.62755808948E+03  0.73502588450E+03 -0.79493834971E+02  0.96974815100E+03  0.25500000920E-02 0.  1.
</event>
<event>
 5   0  0.1812865E-04  0.1988941E+04  0.7818609E-02  0.8611809E-01
       -2   -1    0    0    0  501  0.00000000000E+00  0.00000000000E+00  0.74358931803E+03  0.74358931803E+03  0.25500000920E-02 0. -1.
        2   -1    0    0  501    0  0.00000000000E+00  0.00000000000E+00 -0.13299969043E+04  0.13299969043E+04  0.25500000920E-02 0.  1.
    10030    2    1    2    0    0  0.00000000000E+00  0.00000000000E+00 -0.58640758631E+03  0.20735862224E+04  0.19889409152E+04 0.  0.
        3    1    3    3  502    0 -0.31331451921E+03  0.23247426652E+03 -0.12468800841E+04  0.13064915717E+04  0.10100000352E+00 0.  1.
       -3    1    3    3    0  502  0.31331451921E+03 -0.23247426652E+03  0.66047249781E+03  0.76709465068E+03  0.10100000352E+00 0. -1.
</event>
<event>
 5   0  0.1812865E-04  0.2023307E+04  0.7818609E-02  0.8595801E-01
        2   -1    0    0  501    0  0.00000000000E+00  0.00000000000E+00  0.18447747457E+04  0.18447747457E+04  0.25500000920E-02 0.  1.
       -2   -1    0    0    0  501  0.00000000000E+00  0.00000000000E+00 -0.55477943773E+03  0.55477943773E+03  0.25500000920E-02 0. -1.
    10030    2    1    2    0    0  0.00000000000E+00  0.00000000000E+00  0.12899953080E+04  0.23995541835E+04  0.20233072888E+04 0.  0.
        3    1    3    3  502    0  0.76764538357E+03  0.38182220454E+03  0.81319510465E+01  0.85739942246E+03  0.10100000352E+00 0. -1.
       -3    1    3    3    0  502 -0.76764538357E+03 -0.38182220454E+03  0.12818633570E+04  0.15421547610E+04  0.10100000352E+00 0.  1.
</event>
<event>
 5   0  0.8958919E-05  0.2002697E+04  0.7818609E-02  0.8605361E-01
        1   -1    0    0  501    0  0.00000000000E+00  0.00000000000E+00  0.25491665677E+04  0.25491665677E+04  0.50400001928E-02 0.  1.
       -1   -1    0    0    0  501  0.00000000000E+00  0.00000000000E+00 -0.39334371750E+03  0.39334371753E+03  0.50400001928E-02 0. -1.
    10030    2    1    2    0    0  0.00000000000E+00  0.00000000000E+00  0.21558228502E+04  0.29425102852E+04  0.20026968361E+04 0.  0.
        4    1    3    3  502    0 -0.28950743262E+03  0.25430307283E+03 -0.28004465046E+03  0.47635199752E+03  0.12699999809E+01 0. -1.
       -4    1    3    3    0  502  0.28950743262E+03 -0.25430307283E+03  0.24358675006E+04  0.24661582877E+04  0.12699999809E+01 0.  1.
</event>
<event>
 5   0  0.8958919E-05  0.1996423E+04  0.7818609E-02  0.8608295E-01
        1   -1    0    0  501    0  0.00000000000E+00  0.00000000000E+00  0.15056643708E+04  0.15056643708E+04  0.50400001928E-02 0. -1.
       -1   -1    0    0    0  501  0.00000000000E+00  0.00000000000E+00 -0.66178527600E+03  0.66178527602E+03  0.50400001928E-02 0.  1.
    10030    2    1    2    0    0  0.00000000000E+00  0.00000000000E+00  0.84387909477E+03  0.21674496468E+04  0.19964233130E+04 0.  0.
        4    1    3    3  502    0 -0.25372745479E+03  0.51395464427E+03 -0.46532151627E+03  0.73827686140E+03  0.12699999809E+01 0.  1.
       -4    1    3    3    0  502  0.25372745479E+03 -0.51395464427E+03  0.13092006110E+04  0.14291727854E+04  0.12699999809E+01 0. -1.
</event>
<event>
 5   0  0.8861350E-05  0.1992757E+04  0.7818609E-02  0.8610015E-01
        1   -1    0    0  501    0  0.00000000000E+00  0.00000000000E+00  0.18389491837E+04  0.18389491837E+04  0.50400001928E-02 0. -1.
       -1   -1    0    0    0  501  0.00000000000E+00  0.00000000000E+00 -0.53985719882E+03  0.53985719884E+03  0.50400001928E-02 0.  1.
    10030    2    1    2    0    0  0.00000000000E+00  0.00000000000E+00  0.12990919849E+04  0.23788063825E+04  0.19927568393E+04 0.  0.
        1    1    3    3  502    0  0.58452692753E+03  0.43502644701E+03 -0.16170522679E+03  0.74637009520E+03  0.50400001928E-02 0.  1.
       -1    1    3    3    0  502 -0.58452692753E+03 -0.43502644701E+03  0.14607972117E+04  0.16324362873E+04  0.50400001928E-02 0. -1.
</event>
<event>
 5   0  0.8861350E-05  0.2022978E+04  0.7818609E-02  0.8595952E-01
       -1   -1    0    0    0  501  0.00000000000E+00  0.00000000000E+00  0.60564447277E+03  0.60564447279E+03  0.50400001928E-02 0. -1.
        1   -1    0    0  501    0  0.00000000000E+00  0.00000000000E+00 -0.16892915879E+04  0.16892915879E+04  0.50400001928E-02 0.  1.
    10030    2    1    2    0    0  0.00000000000E+00  0.00000000000E+00 -0.10836471151E+04  0.22949360607E+04  0.20229781147E+04 0.  0.
        1    1    3    3  502    0 -0.51134445709E+03 -0.50342759701E+03  0.26689184848E+03  0.76560025995E+03  0.50400001928E-02 0. -1.
       -1    1    3    3    0  502  0.51134445709E+03  0.50342759701E+03 -0.13505389636E+04  0.15293358008E+04  0.50400001928E-02 0.  1.
</event>
<event>
 5   0  0.8577422E-05  0.1905994E+04  0.7818609E-02  0.8651879E-01
        1   -1    0    0  501    0  0.00000000000E+00  0.00000000000E+00  0.99236530214E+03  0.99236530215E+03  0.50400001928E-02 0. -1.
       -1   -1    0    0    0  501  0.00000000000E+00  0.00000000000E+00 -0.91519011211E+03  0.91519011212E+03  0.50400001928E-02 0.  1.
    10030    2    1    2    0    0  0.00000000000E+00  0.00000000000E+00  0.77175190031E+02  0.19075554143E+04  0.19059936119E+04 0.  0.
        2    1    3    3  502    0 -0.43895412950E+03 -0.35600595563E+03  0.80653762878E+03  0.98484715306E+03  0.25500000920E-02 0. -1.
       -2    1    3    3    0  502  0.43895412950E+03  0.35600595563E+03 -0.72936243875E+03  0.92270826122E+03  0.25500000920E-02 0.  1.
</event>
<event>
 5   0  0.8881384E-05  0.1948785E+04  0.7818609E-02  0.8630947E-01
       -1   -1    0    0    0  501  0.00000000000E+00  0.00000000000E+00  0.15934164493E+04  0.15934164493E+04  0.50400001928E-02 0. -1.
        1   -1    0    0  501    0  0.00000000000E+00  0.00000000000E+00 -0.59585247396E+03  0.59585247398E+03  0.50400001928E-02 0.  1.
    10030    2    1    2    0    0  0.00000000000E+00  0.00000000000E+00  0.99756397532E+03  0.21892689233E+04  0.19487853996E+04 0.  0.
        5    1    3    3  502    0 -0.55184581284E+03 -0.77489408846E+03  0.26200153266E+03  0.98674289589E+03  0.46999998093E+01 0. -1.
       -5    1    3    3    0  502  0.55184581284E+03  0.77489408846E+03  0.73556244265E+03  0.12025260274E+04  0.46999998093E+01 0.  1.
</event>
<event>
 5   0  0.8577422E-05  0.1712695E+04  0.7818609E-02  0.8754157E-01
        1   -1    0    0  501    0  0.00000000000E+00  0.00000000000E+00  0.11143612943E+04  0.11143612944E+04  0.50400001928E-02 0.  1.
       -1   -1    0    0    0  501  0.00000000000E+00  0.00000000000E+00 -0.65807258269E+03  0.65807258271E+03  0.50400001928E-02 0. -1.
    10030    2    1    2    0    0  0.00000000000E+00  0.00000000000E+00  0.45628871166E+03  0.17724338771E+04  0.17126945029E+04 0.  0.
        2    1    3    3  502    0 -0.53788582709E+03 -0.56279979913E+03  0.59733106632E+03  0.98125897687E+03  0.25500000920E-02 0.  1.
       -2    1    3    3    0  502  0.53788582709E+03  0.56279979913E+03 -0.14104235466E+03  0.79117490019E+03  0.25500000920E-02 0. -1.
</event>
<event>
 5   0  0.1834645E-04  0.2017720E+04  0.7818609E-02  0.8598381E-01
        2   -1    0    0  501    0  0.00000000000E+00  0.00000000000E+00  0.17172914963E+04  0.17172914963E+04  0.25500000920E-02 0.  1.
       -2   -1    0    0    0  501  0.00000000000E+00  0.00000000000E+00 -0.59267639099E+03  0.59267639099E+03  0.25500000920E-02 0. -1.
    10030    2    1    2    0    0  0.00000000000E+00  0.00000000000E+00  0.11246151053E+04  0.23099678873E+04  0.20177196300E+04 0.  0.
        1    1    3    3  502    0  0.20462068493E+03  0.42968809157E+03 -0.45608399376E+03  0.65917682766E+03  0.50400001928E-02 0. -1.
       -1    1    3    3    0  502 -0.20462068493E+03 -0.42968809157E+03  0.15806990991E+04  0.16507910596E+04  0.50400001928E-02 0.  1.
</event>
<event>
 5   0  0.1834645E-04  0.2029154E+04  0.7818609E-02  0.8593110E-01
        2   -1    0    0  501    0  0.00000000000E+00  0.00000000000E+00  0.14002891711E+04  0.14002891711E+04  0.25500000920E-02 0.  1.
       -2   -1    0    0    0  501  0.00000000000E+00  0.00000000000E+00 -0.73510969708E+03  0.73510969709E+03  0.25500000920E-02 0. -1.
    10030    2    1    2    0    0  0.00000000000E+00  0.00000000000E+00  0.66517947404E+03  0.21353988682E+04  0.20291536644E+04 0.  0.
        1    1    3    3  502    0 -0.20917366448E+03  0.55564843524E+03  0.11983862893E+04  0.13373961656E+04  0.50400001928E-02 0.  1.
       -1    1    3    3    0  502  0.20917366448E+03 -0.55564843524E+03 -0.53320681523E+03  0.79800270259E+03  0.50400001928E-02 0. -1.
</event>
<event>
 5   0  0.1782172E-04  0.2384745E+04  0.7818609E-02  0.8445237E-01
        2   -1    0    0  501    0  0.00000000000E+00  0.00000000000E+00  0.90178521411E+03  0.90178521411E+03  0.25500000920E-02 0.  1.
       -2   -1    0    0    0  501  0.00000000000E+00  0.00000000000E+00 -0.15765972639E+04  0.15765972639E+04  0.25500000920E-02 0. -1.
    10030    2    1    2    0    0  0.00000000000E+00  0.00000000000E+00 -0.67481204981E+03  0.24783824780E+04  0.23847449350E+04 0.  0.
        2    1    3    3  502    0  0.24346422103E+03 -0.76356801759E+03 -0.12549313536E+04  0.14890143205E+04  0.25500000920E-02 0. -1.
       -2    1    3    3    0  502 -0.24346422103E+03  0.76356801759E+03  0.58011930382E+03  0.98936815750E+03  0.25500000920E-02 0.  1.
</event>
<event>
 5   0  0.8958919E-05  0.2056740E+04  0.7818609E-02  0.8580543E-01
        1   -1    0    0  501    0  0.00000000000E+00  0.00000000000E+00  0.10267929947E+04  0.10267929948E+04  0.50400001928E-02 0.  1.
       -1   -1    0    0    0  501  0.00000000000E+00  0.00000000000E+00 -0.10299490798E+04  0.10299490798E+04  0.50400001928E-02 0. -1.
    10030    2    1    2    0    0  0.00000000000E+00  0.00000000000E+00 -0.31560850781E+01  0.20567420746E+04  0.20567396531E+04 0.  0.
        4    1    3    3  502    0 -0.82866774824E+03  0.42037910752E+03  0.43902894033E+03  0.10276949228E+04  0.12699999809E+01 0.  1.
       -4    1    3    3    0  502  0.82866774824E+03 -0.42037910752E+03 -0.44218502540E+03  0.10290471518E+04  0.12699999809E+01 0. -1.
</event>
<event>
 5   0  0.8958919E-05  0.1967366E+04  0.7818609E-02  0.8622032E-01
        1   -1    0    0  501    0  0.00000000000E+00  0.00000000000E+00  0.74443144996E+03  0.74443144998E+03  0.50400001928E-02 0.  1.
       -1   -1    0    0    0  501  0.00000000000E+00  0.00000000000E+00 -0.12998268844E+04  0.12998268844E+04  0.50400001928E-02 0. -1.
    10030    2    1    2    0    0  0.00000000000E+00  0.00000000000E+00 -0.55539543442E+03  0.20442583344E+04  0.19673657639E+04 0.  0.
        4    1    3    3  502    0  0.26609233455E+03 -0.25978453181E+03  0.66857486722E+03  0.76504058680E+03  0.12699999809E+01 0.  1.
       -4    1    3    3    0  502 -0.26609233455E+03  0.25978453181E+03 -0.12239703016E+04  0.12792177476E+04  0.12699999809E+01 0. -1.
</event>
<event>
 5   0  0.8861350E-05  0.1979641E+04  0.7818609E-02  0.8616199E-01
        1   -1    0    0  501    0  0.00000000000E+00  0.00000000000E+00  0.11657138765E+04  0.11657138765E+04  0.50400001928E-02 0.  1.
       -1   -1    0    0    0  501  0.00000000000E+00  0.00000000000E+00 -0.84046788262E+03  0.84046788264E+03  0.50400001928E-02 0. -1.
    10030    2    1    2    0    0  0.00000000000E+00  0.00000000000E+00  0.32524599390E+03  0.20061817592E+04  0.19796414560E+04 0.  0.
        1    1    3    3  502    0 -0.69378151433E+03  0.69927557125E+03  0.26101199082E+03  0.10190418900E+04  0.50400001928E-02 0.  1.
       -1    1    3    3    0  502  0.69378151433E+03 -0.69927557125E+03  0.64234003075E+02  0.98713986919E+03  0.50400001928E-02 0. -1.
</event>
<event>
 5   0  0.8577422E-05  0.1682929E+04  0.7818609E-02  0.8771161E-01
       -1   -1    0    0    0  501  0.00000000000E+00  0.00000000000E+00  0.43963891736E+03  0.43963891739E+03  0.50400001928E-02 0.  1.
        1   -1    0    0  501    0  0.00000000000E+00  0.00000000000E+00 -0.16105537712E+04  0.16105537712E+04  0.50400001928E-02 0. -1.
    10030    2    1    2    0    0  0.00000000000E+00  0.00000000000E+00 -0.11709148538E+04  0.20501926886E+04  0.16829285384E+04 0.  0.
        2    1    3    3  502    0  0.34309487702E+03  0.68859227988E+03 -0.17020618500E+03  0.78793627152E+03  0.25500000920E-02 0. -1.
       -2    1    3    3    0  502 -0.34309487702E+03 -0.68859227988E+03 -0.10007086688E+04  0.12622564171E+04  0.25500000920E-02 0.  1.
</event>
<event>
 5   0  0.8577422E-05  0.2102034E+04  0.7818609E-02  0.8560348E-01
       -1   -1    0    0    0  501  0.00000000000E+00  0.00000000000E+00  0.88505887598E+03  0.88505887600E+03  0.50400001928E-02 0. -1.
        1   -1    0    0  501    0  0.00000000000E+00  0.00000000000E+00 -0.12480935514E+04  0.12480935514E+04  0.50400001928E-02 0.  1.
    10030    2    1    2    0    0  0.00000000000E+00  0.00000000000E+00 -0.36303467540E+03  0.21331524274E+04  0.21020335637E+04 0.  0.
        2    1    3    3  502    0  0.12169296843E+03 -0.13991897453E+03 -0.12313614491E+04  0.12452459662E+04  0.25500000920E-02 0.  1.
       -2    1    3    3    0  502 -0.12169296843E+03  0.13991897453E+03  0.86832677367E+03  0.88790646122E+03  0.25500000920E-02 0. -1.
</event>
<event>
 5   0  0.1812865E-04  0.2028883E+04  0.7818609E-02  0.8593235E-01
       -2   -1    0    0    0  501  0.00000000000E+00  0.00000000000E+00  0.69210816223E+03  0.69210816223E+03  0.25500000920E-02 0. -1.
        2   -1    0    0  501    0  0.00000000000E+00  0.00000000000E+00 -0.14868938725E+04  0.14868938725E+04  0.25500000920E-02 0.  1.
    10030    2    1    2    0    0  0.00000000000E+00  0.00000000000E+00 -0.79478571028E+03  0.21790020347E+04  0.20288828311E+04 0.  0.
        3    1    3    3  502    0 -0.62032549406E+03 -0.22484193394E+03  0.43016152409E+03  0.78765256354E+03  0.10100000352E+00 0. -1.
       -3    1    3    3    0  502  0.62032549406E+03  0.22484193394E+03 -0.12249472344E+04  0.13913494712E+04  0.10100000352E+00 0.  1.
</event>
<event>
 5   0  0.1834645E-04  0.2004146E+04  0.7818609E-02  0.8604685E-01
       -2   -1    0    0    0  501  0.00000000000E+00  0.00000000000E+00  0.23448608003E+04  0.23448608003E+04  0.25500000920E-02 0. -1.
        2   -1    0    0  501    0  0.00000000000E+00  0.00000000000E+00 -0.42823435785E+03  0.42823435785E+03  0.25500000920E-02 0.  1.
    10030    2    1    2    0    0  0.00000000000E+00  0.00000000000E+00  0.19166264424E+04  0.27730951581E+04  0.20041456624E+04 0.  0.
        1    1    3    3  502    0 -0.11660926088E+03  0.74539019526E+03  0.18708555284E+04  0.20172517620E+04  0.50400001928E-02 0. -1.
       -1    1    3    3    0  502  0.11660926088E+03 -0.74539019526E+03  0.45770914001E+02  0.75584339616E+03  0.50400001928E-02 0.  1.
</event>
<event>
 5   0  0.1812865E-04  0.1984724E+04  0.7818609E-02  0.8613796E-01
        2   -1    0    0  501    0  0.00000000000E+00  0.00000000000E+00  0.10881513042E+04  0.10881513042E+04  0.25500000920E-02 0. -1.
       -2   -1    0    0    0  501  0.00000000000E+00  0.00000000000E+00 -0.90500458846E+03  0.90500458846E+03  0.25500000920E-02 0.  1.
    10030    2    1    2    0    0  0.00000000000E+00  0.00000000000E+00  0.18314671571E+03  0.19931558926E+04  0.19847235810E+04 0.  0.
        3    1    3    3  502    0  0.22390431146E+03 -0.90122922516E+03  0.44296661291E+03  0.10288667005E+04  0.10100000352E+00 0. -1.
       -3    1    3    3    0  502 -0.22390431146E+03  0.90122922516E+03 -0.25981989719E+03  0.96428919217E+03  0.10100000352E+00 0.  1.
</event>
<event>
 5   0  0.8861350E-05  0.1923206E+04  0.7818609E-02  0.8643391E-01
        1   -1    0    0  501    0  0.00000000000E+00  0.00000000000E+00  0.11110447878E+04  0.11110447878E+04  0.50400001928E-02 0.  1.
       -1   -1    0    0    0  501  0.00000000000E+00  0.00000000000E+00 -0.83226223785E+03  0.83226223787E+03  0.50400001928E-02 0. -1.
    10030    2    1    2    0    0  0.00000000000E+00  0.00000000000E+00  0.27878254994E+03  0.19433070257E+04  0.19232063035E+04 0.  0.
        1    1    3    3  502    0  0.35357255341E+03 -0.52972733171E+03  0.86737666790E+03  0.10760886955E+04  0.50400001928E-02 0.  1.
       -1    1    3    3    0  502 -0.35357255341E+03  0.52972733171E+03 -0.58859411796E+03  0.86721833019E+03  0.50400001928E-02 0. -1.
</event>
<event>
 5   0  0.1782172E-04  0.2007409E+04  0.7818609E-02  0.8603165E-01
       -2   -1    0    0    0  501  0.00000000000E+00  0.00000000000E+00  0.57258315232E+03  0.57258315233E+03  0.25500000920E-02 0. -1.
        2   -1    0    0  501    0  0.00000000000E+00  0.00000000000E+00 -0.17594342472E+04  0.17594342472E+04  0.25500000920E-02 0.  1.
    10030    2    1    2    0    0  0.00000000000E+00  0.00000000000E+00 -0.11868510949E+04  0.23320173995E+04  0.20074086854E+04 0.  0.
        2    1    3    3  502    0  0.51281074200E+03 -0.25067879123E+03 -0.15525240869E+04  0.16541299084E+04  0.25500000920E-02 0.  1.
       -2    1    3    3    0  502 -0.51281074200E+03  0.25067879123E+03  0.36567299204E+03  0.67788749111E+03  0.25500000920E-02 0. -1.
</event>
<event>
 5   0  0.1782172E-04  0.1993887E+04  0.7818609E-02  0.8609484E-01
       -2   -1    0    0    0  501  0.00000000000E+00  0.00000000000E+00  0.66809431902E+03  0.66809431902E+03  0.25500000920E-02 0.  1.
        2   -1    0    0  501    0  0.00000000000E+00  0.00000000000E+00 -0.14876583812E+04  0.14876583812E+04  0.25500000920E-02 0. -1.
    10030    2    1    2    0    0  0.00000000000E+00  0.00000000000E+00 -0.81956406217E+03  0.21557527002E+04  0.19938867702E+04 0.  0.
        2    1    3    3  502    0  0.75639835394E+03  0.46819971102E+03 -0.89636959472E+03  0.12628649530E+04  0.25500000920E-02 0. -1.
       -2    1    3    3    0  502 -0.75639835394E+03 -0.46819971102E+03  0.76805532547E+02  0.89288774719E+03  0.25500000920E-02 0.  1.
</event>
<event>
 5   0  0.8861350E-05  0.2011279E+04  0.7818609E-02  0.8601366E-01
        1   -1    0    0  501    0  0.00000000000E+00  0.00000000000E+00  0.24995893099E+04  0.24995893099E+04  0.50400001928E-02 0. -1.
       -1   -1    0    0    0  501  0.00000000000E+00  0.00000000000E+00 -0.40459069641E+03  0.40459069644E+03  0.50400001928E-02 0.  1.
    10030    2    1    2    0    0  0.00000000000E+00  0.00000000000E+00  0.20949986134E+04  0.29041800063E+04  0.20112787770E+04 0.  0.
        1    1    3    3  502    0 -0.81641742179E+03  0.56956012109E+03  0.84139165427E+03  0.13034093962E+04  0.50400001928E-02 0. -1.
       -1    1    3    3    0  502  0.81641742179E+03 -0.56956012109E+03  0.12536069592E+04  0.16007706101E+04  0.50400001928E-02 0.  1.
</event>
<event>
 5   0  0.8958919E-05  0.1955970E+04  0.7818609E-02  0.8627487E-01
       -1   -1    0    0    0  501  0.00000000000E+00  0.00000000000E+00  0.13649219501E+04  0.13649219501E+04  0.50400001928E-02 0. -1.
        1   -1    0    0  501    0  0.00000000000E+00  0.00000000000E+00 -0.70073950237E+03  0.70073950239E+03  0.50400001928E-02 0.  1.
    10030    2    1    2    0    0  0.00000000000E+00  0.00000000000E+00  0.66418244771E+03  0.20656614525E+04  0.19559700694E+04 0.  0.
        4    1    3    3  502    0  0.67512374371E+03 -0.61324995879E+03  0.70485246507E+03  0.11526865106E+04  0.12699999809E+01 0. -1.
       -4    1    3    3    0  502 -0.67512374371E+03  0.61324995879E+03 -0.40670017365E+02  0.91297494188E+03  0.12699999809E+01 0.  1.
</event>
<event>
 5   0  0.8881384E-05  0.1888649E+04  0.7818609E-02  0.8660527E-01
        1   -1    0    0  501    0  0.00000000000E+00  0.00000000000E+00  0.21645798934E+04  0.21645798934E+04  0.50400001928E-02 0. -1.
       -1   -1    0    0    0  501  0.00000000000E+00  0.00000000000E+00 -0.41197320860E+03  0.41197320863E+03  0.50400001928E-02 0.  1.
    10030    2    1    2    0    0  0.00000000000E+00  0.00000000000E+00  0.17526066848E+04  0.25765531020E+04  0.18886491723E+04 0.  0.
        5    1    3    3  502    0 -0.79367651927E+03  0.30748972165E+03  0.14342294635E+04  0.16677855348E+04  0.46999998093E+01 0.  1.
       -5    1    3    3    0  502  0.79367651927E+03 -0.30748972165E+03  0.31837722128E+03  0.90876756720E+03  0.46999998093E+01 0. -1.
</event>
<event>
 5   0  0.1893687E-04  0.2008524E+04  0.7818609E-02  0.8602646E-01
        2   -1    0    0  501    0  0.00000000000E+00  0.00000000000E+00  0.10573996734E+04  0.10573996734E+04  0.25500000920E-02 0.  1.
       -2   -1    0    0    0  501  0.00000000000E+00  0.00000000000E+00 -0.95379419316E+03  0.95379419316E+03  0.25500000920E-02 0. -1.
    10030    2    1    2    0    0  0.00000000000E+00  0.00000000000E+00  0.10360548026E+03  0.20111938666E+04  0.20085235058E+04 0.  0.
        4    1    3    3  502    0  0.62633235253E+03  0.75157293761E+02  0.83425011915E+03  0.10459042541E+04  0.12699999809E+01 0.  1.
       -4    1    3    3    0  502 -0.62633235253E+03 -0.75157293761E+02 -0.73064463889E+03  0.96528961243E+03  0.12699999809E+01 0. -1.
</event>
<event>
 5   0  0.8881384E-05  0.1997456E+04  0.7818609E-02  0.8607811E-01
        1   -1    0    0  501    0  0.00000000000E+00  0.00000000000E+00  0.84197716885E+03  0.84197716887E+03  0.50400001928E-02 0. -1.
       -1   -1    0    0    0  501  0.00000000000E+00  0.00000000000E+00 -0.11846614822E+04  0.11846614822E+04  0.50400001928E-02 0.  1.
    10030    2    1    2    0    0  0.00000000000E+00  0.00000000000E+00 -0.34268431336E+03  0.20266386511E+04  0.19974563033E+04 0.  0.
        5    1    3    3  502    0  0.25563538548E+03  0.96290004177E+03 -0.10024783412E+03  0.10012979871E+04  0.46999998093E+01 0.  1.
       -5    1    3    3    0  502 -0.25563538548E+03 -0.96290004177E+03 -0.24243647923E+03  0.10253406640E+04  0.46999998093E+01 0. -1.
</event>
<event>
 5   0  0.1834645E-04  0.1924311E+04  0.7818609E-02  0.8642849E-01
        2   -1    0    0  501    0  0.00000000000E+00  0.00000000000E+00  0.11309266202E+04  0.11309266202E+04  0.25500000920E-02 0. -1.
       -2   -1    0    0    0  501  0.00000000000E+00  0.00000000000E+00 -0.81857043377E+03  0.81857043378E+03  0.25500000920E-02 0.  1.
    10030    2    1    2    0    0  0.00000000000E+00  0.00000000000E+00  0.31235618638E+03  0.19494970539E+04  0.19243108834E+04 0.  0.
        1    1    3    3  502    0  0.81412490445E+03  0.37353547893E+03  0.51208079553E+03  0.10317726761E+04  0.50400001928E-02 0. -1.
       -1    1    3    3    0  502 -0.81412490445E+03 -0.37353547893E+03 -0.19972460915E+03  0.91772437779E+03  0.50400001928E-02 0.  1.
</event>
<event>
 5   0  0.8881384E-05  0.2180851E+04  0.7818609E-02  0.8526441E-01
        1   -1    0    0  501    0  0.00000000000E+00  0.00000000000E+00  0.12620839455E+04  0.12620839456E+04  0.50400001928E-02 0.  1.
       -1   -1    0    0    0  501  0.00000000000E+00  0.00000000000E+00 -0.94211505690E+03  0.94211505691E+03  0.50400001928E-02 0. -1.
    10030    2    1    2    0    0  0.00000000000E+00  0.00000000000E+00  0.31996888865E+03  0.22041990025E+04  0.21808514743E+04 0.  0.
        5    1    3    3  502    0 -0.78092418700E+03 -0.36820868537E+03  0.83313718175E+03  0.11998166008E+04  0.46999998093E+01 0.  1.
       -5    1    3    3    0  502  0.78092418700E+03  0.36820868537E+03 -0.51316829311E+03  0.10043824017E+04  0.46999998093E+01 0. -1.
</event>
<event>
 5   0  0.8765057E-05  0.1975242E+04  0.7818609E-02  0.8618284E-01
       -1   -1    0    0    0  501  0.00000000000E+00  0.00000000000E+00  0.11843311493E+04  0.11843311493E+04  0.50400001928E-02 0.  1.
        1   -1    0    0  501    0  0.00000000000E+00  0.00000000000E+00 -0.82358293551E+03  0.82358293553E+03  0.50400001928E-02 0. -1.
    10030    2    1    2    0    0  0.00000000000E+00  0.00000000000E+00  0.36074821379E+03  0.20079140848E+04  0.19752416810E+04 0.  0.
        3    1    3    3  502    0  0.31862316223E+03  0.89997978681E+03  0.43736116820E+03  0.10501281530E+04  0.10100000352E+00 0.  1.
       -3    1    3    3    0  502 -0.31862316223E+03 -0.89997978681E+03 -0.76612954408E+02  0.95778593180E+03  0.10100000352E+00 0. -1.
</event>
<event>
 5   0  0.8765057E-05  0.1972644E+04  0.7818609E-02  0.8619518E-01
        1   -1    0    0  501    0  0.00000000000E+00  0.00000000000E+00  0.10532688051E+04  0.10532688052E+04  0.50400001928E-02 0.  1.
       -1   -1    0    0    0  501  0.00000000000E+00  0.00000000000E+00 -0.92363086272E+03  0.92363086273E+03  0.50400001928E-02 0. -1.
    10030    2    1    2    0    0  0.00000000000E+00  0.00000000000E+00  0.12963794243E+03  0.19768996679E+04  0.19726444943E+04 0.  0.
        3    1    3    3  502    0 -0.60730288881E+03  0.44326820443E+03 -0.57493731961E+03  0.94649692630E+03  0.10100000352E+00 0. -1.
       -3    1    3    3    0  502  0.60730288881E+03 -0.44326820443E+03  0.70457526203E+03  0.10304027416E+04  0.10100000352E+00 0.  1.
</event>
<event>
 5   0  0.8881384E-05  0.1995039E+04  0.7818609E-02  0.8608944E-01
       -1   -1    0    0    0  501  0.00000000000E+00  0.00000000000E+00  0.42966604594E+03  0.42966604597E+03  0.50400001928E-02 0.  1.
        1   -1    0    0  501    0  0.00000000000E+00  0.00000000000E+00 -0.23158575332E+04  0.23158575332E+04  0.50400001928E-02 0. -1.
    10030    2    1    2    0    0  0.00000000000E+00  0.00000000000E+00 -0.18861914872E+04  0.27455235791E+04  0.19950391969E+04 0.  0.
        5    1    3    3  502    0  0.97597946359E+03  0.19171302392E+03 -0.10472992252E+04  0.14443502186E+04  0.46999998093E+01 0. -1.
       -5    1    3    3    0  502 -0.97597946359E+03 -0.19171302392E+03 -0.83889226202E+03  0.13011733605E+04  0.46999998093E+01 0.  1.
</event>
<event>
 5   0  0.1893687E-04  0.1847942E+04  0.7818609E-02  0.8681212E-01
        2   -1    0    0  501    0  0.00000000000E+00  0.00000000000E+00  0.15300171602E+04  0.15300171602E+04  0.25500000920E-02 0. -1.
       -2   -1    0    0    0  501  0.00000000000E+00  0.00000000000E+00 -0.55798196151E+03  0.55798196152E+03  0.25500000920E-02 0.  1.
    10030    2    1    2    0    0  0.00000000000E+00  0.00000000000E+00  0.97203519866E+03  0.20879991217E+04  0.18479415317E+04 0.  0.
        4    1    3    3  502    0 -0.37576927527E+03  0.72931351107E+03  0.58149577853E+01  0.82044876275E+03  0.12699999809E+01 0.  1.
       -4    1    3    3    0  502  0.37576927527E+03 -0.72931351107E+03  0.96622024088E+03  0.12675503589E+04  0.12699999809E+01 0. -1.
</event>
<event>
 5   0  0.1812865E-04  0.1964984E+04  0.7818609E-02  0.8623169E-01
       -2   -1    0    0    0  501  0.00000000000E+00  0.00000000000E+00  0.60509328204E+03  0.60509328205E+03  0.25500000920E-02 0. -1.
        2   -1    0    0  501    0  0.00000000000E+00  0.00000000000E+00 -0.15952750522E+04  0.15952750522E+04  0.25500000920E-02 0.  1.
    10030    2    1    2    0    0  0.00000000000E+00  0.00000000000E+00 -0.99018177017E+03  0.22003683343E+04  0.19649836815E+04 0.  0.
        3    1    3    3  502    0  0.24347749310E+03  0.12500058917E+03 -0.15517260399E+04  0.15756776796E+04  0.10100000352E+00 0.  1.
       -3    1    3    3    0  502 -0.24347749310E+03 -0.12500058917E+03  0.56154426973E+03  0.62469065465E+03  0.10100000352E+00 0. -1.
</event>
<event>
 5   0  0.1782172E-04  0.1959322E+04  0.7818609E-02  0.8625879E-01
        2   -1    0    0  501    0  0.00000000000E+00  0.00000000000E+00  0.53315650639E+03  0.53315650640E+03  0.25500000920E-02 0. -1.
       -2   -1    0    0    0  501  0.00000000000E+00  0.00000000000E+00 -0.18001015255E+04  0.18001015255E+04  0.25500000920E-02 0.  1.
    10030    2    1    2    0    0  0.00000000000E+00  0.00000000000E+00 -0.12669450191E+04  0.23332580319E+04  0.19593221690E+04 0.  0.
        2    1    3    3  502    0  0.57417038537E+03  0.64723416974E+03 -0.86261710738E+02  0.86949685719E+03  0.25500000920E-02 0. -1.
       -2    1    3    3    0  502 -0.57417038537E+03 -0.64723416974E+03 -0.11806833083E+04  0.14637611747E+04  0.25500000920E-02 0.  1.
</event>
<event>
 5   0  0.1834645E-04  0.2070199E+04  0.7818609E-02  0.8574486E-01
       -2   -1    0    0    0  501  0.00000000000E+00  0.00000000000E+00  0.50601391957E+03  0.50601391958E+03  0.25500000920E-02 0.  1.
        2   -1    0    0  501    0  0.00000000000E+00  0.00000000000E+00 -0.21173948854E+04  0.21173948854E+04  0.25500000920E-02 0. -1.
    10030    2    1    2    0    0  0.00000000000E+00  0.00000000000E+00 -0.16113809658E+04  0.26234088050E+04  0.20701992998E+04 0.  0.
        1    1    3    3  502    0 -0.73812588480E+03 -0.54397647859E+03 -0.19703828974E+03  0.93785090431E+03  0.50400001928E-02 0.  1.
       -1    1    3    3    0  502  0.73812588480E+03  0.54397647859E+03 -0.14143426761E+04  0.16855579007E+04  0.50400001928E-02 0. -1.
</event>
<event>
 5   0  0.1807498E-04  0.1993788E+04  0.7818609E-02  0.8609530E-01
        2   -1    0    0  501    0  0.00000000000E+00  0.00000000000E+00  0.13076225792E+04  0.13076225792E+04  0.25500000920E-02 0. -1.
       -2   -1    0    0    0  501  0.00000000000E+00  0.00000000000E+00 -0.76000379868E+03  0.76000379869E+03  0.25500000920E-02 0.  1.
    10030    2    1    2    0    0  0.00000000000E+00  0.00000000000E+00  0.54761878053E+03  0.20676263779E+04  0.19937884817E+04 0.  0.
        5    1    3    3  502    0  0.79589311241E+03 -0.52881771963E+03 -0.20755741439E+02  0.95579648345E+03  0.46999998093E+01 0.  1.
       -5    1    3    3    0  502 -0.79589311241E+03  0.52881771963E+03  0.56837452197E+03  0.11118298945E+04  0.46999998093E+01 0. -1.
</event>
<event>
 5   0  0.1812865E-04  0.1886086E+04  0.7818609E-02  0.8661813E-01
        2   -1    0    0  501    0  0.00000000000E+00  0.00000000000E+00  0.99683414290E+03  0.99683414291E+03  0.25500000920E-02 0.  1.
       -2   -1    0    0    0  501  0.00000000000E+00  0.00000000000E+00 -0.89215493059E+03  0.89215493060E+03  0.25500000920E-02 0. -1.
    10030    2    1    2    0    0  0.00000000000E+00  0.00000000000E+00  0.10467921231E+03  0.18889890735E+04  0.18860864196E+04 0.  0.
        3    1    3    3  502    0 -0.12295958061E+03 -0.84065401830E+03 -0.35757287475E+03  0.92177904505E+03  0.10100000352E+00 0. -1.
       -3    1    3    3    0  502  0.12295958061E+03  0.84065401830E+03  0.46225208706E+03  0.96721002845E+03  0.10100000352E+00 0.  1.
</event>
<event>
 5   0  0.8861350E-05  0.2000942E+04  0.7818609E-02  0.8606181E-01
        1   -1    0    0  501    0  0.00000000000E+00  0.00000000000E+00  0.16045328161E+04  0.16045328161E+04  0.50400001928E-02 0.  1.
       -1   -1    0    0    0  501  0.00000000000E+00  0.00000000000E+00 -0.62382133758E+03  0.62382133760E+03  0.50400001928E-02 0. -1.
    10030    2    1    2    0    0  0.00000000000E+00  0.00000000000E+00  0.98071147853E+03  0.22283541537E+04  0.20009415859E+04 0.  0.
        1    1    3    3  502    0 -0.40471130489E+03 -0.91352033322E+03  0.43323101764E+03  0.10890361583E+04  0.50400001928E-02 0. -1.
       -1    1    3    3    0  502  0.40471130489E+03  0.91352033322E+03  0.54748046089E+03  0.11393179954E+04  0.50400001928E-02 0.  1.
</event>
<event>
 5   0  0.8765057E-05  0.1997082E+04  0.7818609E-02  0.8607986E-01
       -1   -1    0    0    0  501  0.00000000000E+00  0.00000000000E+00  0.68196788626E+03  0.68196788628E+03  0.50400001928E-02 0. -1.
        1   -1    0    0  501    0  0.00000000000E+00  0.00000000000E+00 -0.14620693180E+04  0.14620693181E+04  0.50400001928E-02 0.  1.
    10030    2    1    2    0    0  0.00000000000E+00  0.00000000000E+00 -0.78010143179E+03  0.21440372043E+04  0.19970821940E+04 0.  0.
        3    1    3    3  502    0  0.54041725911E+02 -0.71202315613E+03  0.35929831002E+03  0.79937023261E+03  0.10100000352E+00 0. -1.
       -3    1    3    3    0  502 -0.54041725911E+02  0.71202315613E+03 -0.11393997418E+04  0.13446669717E+04  0.10100000352E+00 0.  1.
</event>
<event>
 5   0  0.8881384E-05  0.2031421E+04  0.7818609E-02  0.8592070E-01
       -1   -1    0    0    0  501  0.00000000000E+00  0.00000000000E+00  0.11237325959E+04  0.11237325959E+04  0.50400001928E-02 0.  1.
        1   -1    0    0  501    0  0.00000000000E+00  0.00000000000E+00 -0.91807246445E+03  0.91807246446E+03  0.50400001928E-02 0. -1.
    10030    2    1    2    0    0  0.00000000000E+00  0.00000000000E+00  0.20566013144E+03  0.20418050604E+04  0.20314211318E+04 0.  0.
        5    1    3    3  502    0  0.21350547985E+03  0.59188185395E+02  0.10991376013E+04  0.11212552733E+04  0.46999998093E+01 0.  1.
       -5    1    3    3    0  502 -0.21350547985E+03 -0.59188185395E+02 -0.89347746991E+03  0.92054978706E+03  0.46999998093E+01 0. -1.
</event>
<event>
 5   0  0.8765057E-05  0.1960636E+04  0.7818609E-02  0.8625249E-01
        1   -1    0    0  501    0  0.00000000000E+00  0.00000000000E+00  0.91001473397E+03  0.91001473398E+03  0.50400001928E-02 0. -1.
       -1   -1    0    0    0  501  0.00000000000E+00  0.00000000000E+00 -0.10560520549E+04  0.10560520549E+04  0.50400001928E-02 0.  1.
    10030    2    1    2    0    0  0.00000000000E+00  0.00000000000E+00 -0.14603732089E+03  0.19660667889E+04  0.19606355396E+04 0.  0.
        3    1    3    3  502    0 -0.21186597986E+03  0.41220030926E+03 -0.93925573707E+03  0.10473765503E+04  0.10100000352E+00 0.  1.
       -3    1    3    3    0  502  0.21186597986E+03 -0.41220030926E+03  0.79321841618E+03  0.91869023852E+03  0.10100000352E+00 0. -1.
</event>
<event>
 5   0  0.1782172E-04  0.1977666E+04  0.7818609E-02  0.8617134E-01
       -2   -1    0    0    0  501  0.00000000000E+00  0.00000000000E+00  0.51908609749E+03  0.51908609750E+03  0.25500000920E-02 0. -1.
        2   -1    0    0  501    0  0.00000000000E+00  0.00000000000E+00 -0.18836780749E+04  0.18836780749E+04  0.25500000920E-02 0.  1.
    10030    2    1    2    0    0  0.00000000000E+00  0.00000000000E+00 -0.13645919774E+04  0.24027641724E+04  0.19776664034E+04 0.  0.
        2    1    3    3  502    0 -0.50236714192E+03 -0.56911408170E+03  0.87571125535E+02  0.76415462133E+03  0.25500000920E-02 0. -1.
       -2    1    3    3    0  502  0.50236714192E+03  0.56911408170E+03 -0.14521631029E+04  0.16386095510E+04  0.25500000920E-02 0.  1.
</event>
<event>
 5   0  0.1812865E-04  0.1946197E+04  0.7818609E-02  0.8632197E-01
        2   -1    0    0  501    0  0.00000000000E+00  0.00000000000E+00  0.14013114706E+04  0.14013114706E+04  0.25500000920E-02 0. -1.
       -2   -1    0    0    0  501  0.00000000000E+00  0.00000000000E+00 -0.67573912752E+03  0.67573912753E+03  0.25500000920E-02 0.  1.
    10030    2    1    2    0    0  0.00000000000E+00  0.00000000000E+00  0.72557234304E+03  0.20770505981E+04  0.19461973081E+04 0.  0.
        3    1    3    3  502    0 -0.80638950686E+02  0.92878359651E+03  0.65145400014E+02  0.93455098462E+03  0.10100000352E+00 0.  1.
       -3    1    3    3    0  502  0.80638950686E+02 -0.92878359651E+03  0.66042694303E+03  0.11424996135E+04  0.10100000352E+00 0. -1.
</event>
<event>
 5   0  0.8765057E-05  0.1468021E+04  0.7818609E-02  0.8906002E-01
       -1   -1    0    0    0  501  0.00000000000E+00  0.00000000000E+00  0.60137296581E+03  0.60137296583E+03  0.50400001928E-02 0. -1.
        1   -1    0    0  501    0  0.00000000000E+00  0.00000000000E+00 -0.89590184959E+03  0.89590184961E+03  0.50400001928E-02 0.  1.
    10030    2    1    2    0    0  0.00000000000E+00  0.00000000000E+00 -0.29452888378E+03  0.14972748154E+04  0.14680206434E+04 0.  0.
        3    1    3    3  502    0 -0.42014767494E+03  0.60112734011E+03 -0.17774295139E+03  0.75463283440E+03  0.10100000352E+00 0.  1.
       -3    1    3    3    0  502  0.42014767494E+03 -0.60112734011E+03 -0.11678593240E+03  0.74264198103E+03  0.10100000352E+00 0. -1.
</event>
<event>
 5   0  0.8577422E-05  0.1896118E+04  0.7818609E-02  0.8656791E-01
        1   -1    0    0  501    0  0.00000000000E+00  0.00000000000E+00  0.11617123577E+04  0.11617123577E+04  0.50400001928E-02 0. -1.
       -1   -1    0    0    0  501  0.00000000000E+00  0.00000000000E+00 -0.77369874763E+03  0.77369874765E+03  0.50400001928E-02 0.  1.
    10030    2    1    2    0    0  0.00000000000E+00  0.00000000000E+00  0.38801361009E+03  0.19354111054E+04  0.18961175030E+04 0.  0.
        2    1    3    3  502    0 -0.24627574904E+03 -0.14248780337E+03 -0.72909095814E+03  0.78264177241E+03  0.25500000920E-02 0.  1.
       -2    1    3    3    0  502  0.24627574904E+03  0.14248780337E+03  0.11171045682E+04  0.11527693330E+04  0.25500000920E-02 0. -1.
</event>
<event>
 5   0  0.1782172E-04  0.1952348E+04  0.7818609E-02  0.8629229E-01
       -2   -1    0    0    0  501  0.00000000000E+00  0.00000000000E+00  0.17328962061E+04  0.17328962061E+04  0.25500000920E-02 0.  1.
        2   -1    0    0  501    0  0.00000000000E+00  0.00000000000E+00 -0.54989766089E+03  0.54989766090E+03  0.25500000920E-02 0. -1.
    10030    2    1    2    0    0  0.00000000000E+00  0.00000000000E+00  0.11829985452E+04  0.22827938670E+04  0.19523478894E+04 0.  0.
        2    1    3    3  502    0  0.66885356334E+03 -0.52023434351E+03  0.24794069545E+02  0.84771670224E+03  0.25500000920E-02 0. -1.
       -2    1    3    3    0  502 -0.66885356334E+03  0.52023434351E+03  0.11582044756E+04  0.14350771647E+04  0.25500000920E-02 0.  1.
</event>
<event>
 5   0  0.8958919E-05  0.2046441E+04  0.7818609E-02  0.8585211E-01
        1   -1    0    0  501    0  0.00000000000E+00  0.00000000000E+00  0.10425881173E+04  0.10425881173E+04  0.50400001928E-02 0. -1.
       -1   -1    0    0    0  501  0.00000000000E+00  0.00000000000E+00 -0.10042121762E+04  0.10042121762E+04  0.50400001928E-02 0.  1.
    10030    2    1    2    0    0  0.00000000000E+00  0.00000000000E+00  0.38375941122E+02  0.20468002935E+04  0.20464405021E+04 0.  0.
        4    1    3    3  502    0  0.72049361413E+03 -0.50697442399E+03 -0.50133023175E+03  0.10136408283E+04  0.12699999809E+01 0.  1.
       -4    1    3    3    0  502 -0.72049361413E+03  0.50697442399E+03  0.53970617287E+03  0.10331594652E+04  0.12699999809E+01 0. -1.
</event>
<event>
 5   0  0.1834645E-04  0.1757361E+04  0.7818609E-02  0.8729309E-01
       -2   -1    0    0    0  501  0.00000000000E+00  0.00000000000E+00  0.60038432794E+03  0.60038432794E+03  0.25500000920E-02 0.  1.
        2   -1    0    0  501    0  0.00000000000E+00  0.00000000000E+00 -0.12859756433E+04  0.12859756433E+04  0.25500000920E-02 0. -1.
    10030    2    1    2    0    0  0.00000000000E+00  0.00000000000E+00 -0.68559131538E+03  0.18863599713E+04  0.17573612291E+04 0.  0.
        1    1    3    3  502    0  0.11461078269E+03 -0.25315850507E+03 -0.12375638774E+04  0.12683805465E+04  0.50400001928E-02 0. -1.
       -1    1    3    3    0  502 -0.11461078269E+03  0.25315850507E+03  0.55197256199E+03  0.61797942474E+03  0.50400001928E-02 0.  1.
</event>
<event>
 5   0  0.8958919E-05  0.1994910E+04  0.7818609E-02  0.8609004E-01
       -1   -1    0    0    0  501  0.00000000000E+00  0.00000000000E+00  0.55770918860E+03  0.55770918862E+03  0.50400001928E-02 0. -1.
        1   -1    0    0  501    0  0.00000000000E+00  0.00000000000E+00 -0.17839336739E+04  0.17839336739E+04  0.50400001928E-02 0.  1.
    10030    2    1    2    0    0  0.00000000000E+00  0.00000000000E+00 -0.12262244853E+04  0.23416428625E+04  0.19949097241E+04 0.  0.
        4    1    3    3  502    0  0.53700912131E+02  0.93279863884E+03 -0.20325705481E+03  0.95619670143E+03  0.12699999809E+01 0. -1.
       -4    1    3    3    0  502 -0.53700912131E+02 -0.93279863884E+03 -0.10229674305E+04  0.13854461611E+04  0.12699999809E+01 0.  1.
</event>
<event>
 5   0  0.8765057E-05  0.2009096E+04  0.7818609E-02  0.8602380E-01
        1   -1    0    0  501    0  0.00000000000E+00  0.00000000000E+00  0.12179624409E+04  0.12179624409E+04  0.50400001928E-02 0.  1.
       -1   -1    0    0    0  501  0.00000000000E+00  0.00000000000E+00 -0.82852865049E+03  0.82852865051E+03  0.50400001928E-02 0. -1.
    10030    2    1    2    0    0  0.00000000000E+00  0.00000000000E+00  0.38943379039E+03  0.20464910914E+04  0.20090960928E+04 0.  0.
        3    1    3    3  502    0 -0.62107301117E+03  0.78661202691E+03  0.26400204876E+03  0.10364300546E+04  0.10100000352E+00 0.  1.
       -3    1    3    3    0  502  0.62107301117E+03 -0.78661202691E+03  0.12543174163E+03  0.10100610368E+04  0.10100000352E+00 0. -1.
</event>
<event>
 5   0  0.8577422E-05  0.2003085E+04  0.7818609E-02  0.8605180E-01
       -1   -1    0    0    0  501  0.00000000000E+00  0.00000000000E+00  0.56160683950E+03  0.56160683952E+03  0.50400001928E-02 0.  1.
        1   -1    0    0  501    0  0.00000000000E+00  0.00000000000E+00 -0.17861024059E+04  0.17861024059E+04  0.50400001928E-02 0. -1.
    10030    2    1    2    0    0  0.00000000000E+00  0.00000000000E+00 -0.12244955664E+04  0.23477092454E+04  0.20030849480E+04 0.  0.
        2    1    3    3  502    0  0.88909856701E+02  0.42378129247E+03 -0.16707246307E+04  0.17259247777E+04  0.25500000920E-02 0. -1.
       -2    1    3    3    0  502 -0.88909856701E+02 -0.42378129247E+03  0.44622906434E+03  0.62178446775E+03  0.25500000920E-02 0.  1.
</event>
<event>
 5   0  0.1834645E-04  0.1982081E+04  0.7818609E-02  0.8615045E-01
       -2   -1    0    0    0  501  0.00000000000E+00  0.00000000000E+00  0.65082765631E+03  0.65082765632E+03  0.25500000920E-02 0. -1.
        2   -1    0    0  501    0  0.00000000000E+00  0.00000000000E+00 -0.15090951820E+04  0.15090951821E+04  0.25500000920E-02 0.  1.
    10030    2    1    2    0    0  0.00000000000E+00  0.00000000000E+00 -0.85826752574E+03  0.21599228384E+04  0.19820806043E+04 0.  0.
        1    1    3    3  502    0 -0.70770717982E+03  0.14440251687E+03 -0.11685901571E+04  0.13737920129E+04  0.50400001928E-02 0.  1.
       -1    1    3    3    0  502  0.70770717982E+03 -0.14440251687E+03  0.31032263139E+03  0.78613082551E+03  0.50400001928E-02 0. -1.
</event>
<event>
 5   0  0.1807498E-04  0.2145299E+04  0.7818609E-02  0.8541547E-01
        2   -1    0    0  501    0  0.00000000000E+00  0.00000000000E+00  0.13688146059E+04  0.13688146059E+04  0.25500000920E-02 0.  1.
       -2   -1    0    0    0  501  0.00000000000E+00  0.00000000000E+00 -0.84056450835E+03  0.84056450835E+03  0.25500000920E-02 0. -1.
    10030    2    1    2    0    0  0.00000000000E+00  0.00000000000E+00  0.52825009754E+03  0.22093791142E+04  0.21452990246E+04 0.  0.
        5    1    3    3  502    0 -0.10559072234E+04  0.84877096825E+01  0.69965788231E+02  0.10582671719E+04  0.46999998093E+01 0. -1.
       -5    1    3    3    0  502  0.10559072234E+04 -0.84877096825E+01  0.45828430930E+03  0.11511119423E+04  0.46999998093E+01 0.  1.
</event>
<event>
 5   0  0.8881384E-05  0.1967919E+04  0.7818609E-02  0.8621768E-01
        1   -1    0    0  501    0  0.00000000000E+00  0.00000000000E+00  0.95060671344E+03  0.95060671346E+03  0.50400001928E-02 0.  1.
       -1   -1    0    0    0  501  0.00000000000E+00  0.00000000000E+00 -0.10184827371E+04  0.10184827371E+04  0.50400001928E-02 0. -1.
    10030    2    1    2    0    0  0.00000000000E+00  0.00000000000E+00 -0.67876023689E+02  0.19690894506E+04  0.19679192336E+04 0.  0.
        5    1    3    3  502    0 -0.60788081679E+03  0.76270297589E+03  0.96214394503E+02  0.98005827203E+03  0.46999998093E+01 0. -1.
       -5    1    3    3    0  502  0.60788081679E+03 -0.76270297589E+03 -0.16409041819E+03  0.98903117858E+03  0.46999998093E+01 0.  1.
</event>
<event>
 5   0  0.1893687E-04  0.1993859E+04  0.7818609E-02  0.8609497E-01
       -2   -1    0    0    0  501  0.00000000000E+00  0.00000000000E+00  0.63127618750E+03  0.63127618750E+03  0.25500000920E-02 0. -1.
        2   -1    0    0  501    0  0.00000000000E+00  0.00000000000E+00 -0.15743792408E+04  0.15743792408E+04  0.25500000920E-02 0.  1.
    10030    2    1    2    0    0  0.00000000000E+00  0.00000000000E+00 -0.94310305328E+03  0.22056554283E+04  0.19938586959E+04 0.  0.
        4    1    3    3  502    0 -0.56210918193E+03 -0.18624450577E+03  0.41564660221E+03  0.72347595618E+03  0.12699999809E+01 0. -1.
       -4    1    3    3    0  502  0.56210918193E+03  0.18624450577E+03 -0.13587496555E+04  0.14821794721E+04  0.12699999809E+01 0.  1.
</event>
<event>
 5   0  0.8861350E-05  0.2008480E+04  0.7818609E-02  0.8602666E-01
        1   -1    0    0  501    0  0.00000000000E+00  0.00000000000E+00  0.24474306597E+04  0.24474306597E+04  0.50400001928E-02 0. -1.
       -1   -1    0    0    0  501  0.00000000000E+00  0.00000000000E+00 -0.41206388900E+03  0.41206388903E+03  0.50400001928E-02 0.  1.
    10030    2    1    2    0    0  0.00000000000E+00  0.00000000000E+00  0.20353667707E+04  0.28594945487E+04  0.20084798189E+04 0.  0.
        1    1    3    3  502    0 -0.57166807781E+03 -0.58616397837E+03  0.18455258928E+04  0.20189993615E+04  0.50400001928E-02 0. -1.
       -1    1    3    3    0  502  0.57166807781E+03  0.58616397837E+03  0.18984087783E+03  0.84049518717E+03  0.50400001928E-02 0.  1.
</event>
<event>
 5   0  0.8881384E-05  0.1981861E+04  0.7818609E-02  0.8615149E-01
       -1   -1    0    0    0  501  0.00000000000E+00  0.00000000000E+00  0.16970194797E+04  0.16970194797E+04  0.50400001928E-02 0.  1.
        1   -1    0    0  501    0  0.00000000000E+00  0.00000000000E+00 -0.57862796885E+03  0.57862796887E+03  0.50400001928E-02 0. -1.
    10030    2    1    2    0    0  0.00000000000E+00  0.00000000000E+00  0.11183915109E+04  0.22756474486E+04  0.19818606759E+04 0.  0.
        5    1    3    3  502    0 -0.85711313515E+03  0.33373516335E+03  0.98248731179E+03  0.13458549303E+04  0.46999998093E+01 0.  1.
       -5    1    3    3    0  502  0.85711313515E+03 -0.33373516335E+03  0.13590419909E+03  0.92979251827E+03  0.46999998093E+01 0. -1.
</event>
<event>
 5   0  0.8577422E-05  0.2015362E+04  0.7818609E-02  0.8599472E-01
        1   -1    0    0  501    0  0.00000000000E+00  0.00000000000E+00  0.70433239601E+03  0.70433239603E+03  0.50400001928E-02 0. -1.
       -1   -1    0    0    0  501  0.00000000000E+00  0.00000000000E+00 -0.14416782296E+04  0.14416782296E+04  0.50400001928E-02 0.  1.
    10030    2    1    2    0    0  0.00000000000E+00  0.00000000000E+00 -0.73734583360E+03  0.21460106256E+04  0.20153616864E+04 0.  0.
        2    1    3    3  502    0 -0.28827853708E+03  0.76736902521E+03 -0.99272027757E+03  0.12874211763E+04  0.25500000920E-02 0.  1.
       -2    1    3    3    0  502  0.28827853708E+03 -0.76736902521E+03  0.25537444397E+03  0.85858944929E+03  0.25500000920E-02 0. -1.
</event>
<event>
 5   0  0.8577422E-05  0.1989138E+04  0.7818609E-02  0.8611716E-01
        1   -1    0    0  501    0  0.00000000000E+00  0.00000000000E+00  0.91917524983E+03  0.91917524984E+03  0.50400001928E-02 0.  1.
       -1   -1    0    0    0  501  0.00000000000E+00  0.00000000000E+00 -0.10761464247E+04  0.10761464248E+04  0.50400001928E-02 0. -1.
    10030    2    1    2    0    0  0.00000000000E+00  0.00000000000E+00 -0.15697117492E+03  0.19953216746E+04  0.19891376612E+04 0.  0.
        2    1    3    3  502    0  0.63358656868E+02 -0.60355720550E+03 -0.86888927204E+03  0.10598415857E+04  0.25500000920E-02 0. -1.
       -2    1    3    3    0  502 -0.63358656868E+02  0.60355720550E+03  0.71191809712E+03  0.93548008890E+03  0.25500000920E-02 0.  1.
</event>
<event>
 5   0  0.8881384E-05  0.2005744E+04  0.7818609E-02  0.8603940E-01
       -1   -1    0    0    0  501  0.00000000000E+00  0.00000000000E+00  0.89641891712E+03  0.89641891713E+03  0.50400001928E-02 0.  1.
        1   -1    0    0  501    0  0.00000000000E+00  0.00000000000E+00 -0.11219667323E+04  0.11219667323E+04  0.50400001928E-02 0. -1.
    10030    2    1    2    0    0  0.00000000000E+00  0.00000000000E+00 -0.22554781518E+03  0.20183856494E+04  0.20057439550E+04 0.  0.
        5    1    3    3  502    0 -0.93936120363E+03 -0.34775328329E+03 -0.63492843466E+02  0.10036858314E+04  0.46999998093E+01 0.  1.
       -5    1    3    3    0  502  0.93936120363E+03  0.34775328329E+03 -0.16205497171E+03  0.10146998181E+04  0.46999998093E+01 0. -1.
</event>
<event>
 5   0  0.8881384E-05  0.1979578E+04  0.7818609E-02  0.8616228E-01
       -1   -1    0    0    0  501  0.00000000000E+00  0.00000000000E+00  0.63349454035E+03  0.63349454037E+03  0.50400001928E-02 0.  1.
        1   -1    0    0  501    0  0.00000000000E+00  0.00000000000E+00 -0.15464737257E+04  0.15464737257E+04  0.50400001928E-02 0. -1.
    10030    2    1    2    0    0  0.00000000000E+00  0.00000000000E+00 -0.91297918538E+03  0.21799682661E+04  0.19795784017E+04 0.  0.
        5    1    3    3  502    0 -0.80764326619E+03  0.30387359251E+03 -0.99036829354E+03  0.13135746086E+04  0.46999998093E+01 0.  1.
       -5    1    3    3    0  502  0.80764326619E+03 -0.30387359251E+03  0.77389108157E+02  0.86639365747E+03  0.46999998093E+01 0. -1.
</event>
<event>
 5   0  0.8577422E-05  0.1992852E+04  0.7818609E-02  0.8609970E-01
       -1   -1    0    0    0  501  0.00000000000E+00  0.00000000000E+00  0.24295995528E+04  0.24295995528E+04  0.50400001928E-02 0.  1.
        1   -1    0    0  501    0  0.00000000000E+00  0.00000000000E+00 -0.40865385260E+03  0.40865385264E+03  0.50400001928E-02 0. -1.
    10030    2    1    2    0    0  0.00000000000E+00  0.00000000000E+00  0.20209457002E+04  0.28382534054E+04  0.19928524457E+04 0.  0.
        2    1    3    3  502    0  0.90959462706E+03 -0.34881401583E+03  0.13086468400E+04  0.16314380635E+04  0.25500000920E-02 0.  1.
       -2    1    3    3    0  502 -0.90959462706E+03  0.34881401583E+03  0.71229886012E+03  0.12068153419E+04  0.25500000920E-02 0. -1.
</event>
<event>
 5   0  0.8577422E-05  0.1982181E+04  0.7818609E-02  0.8614997E-01
        1   -1    0    0  501    0  0.00000000000E+00  0.00000000000E+00  0.13633218035E+04  0.13633218035E+04  0.50400001928E-02 0.  1.
       -1   -1    0    0    0  501  0.00000000000E+00  0.00000000000E+00 -0.72049019084E+03  0.72049019085E+03  0.50400001928E-02 0. -1.
    10030    2    1    2    0    0  0.00000000000E+00  0.00000000000E+00  0.64283161263E+03  0.20838119943E+04  0.19821806037E+04 0.  0.
        2    1    3    3  502    0  0.81528653717E+03 -0.43463515530E+03  0.69849911152E+03  0.11582317837E+04  0.25500000920E-02 0.  1.
       -2    1    3    3    0  502 -0.81528653717E+03  0.43463515530E+03 -0.55667498888E+02  0.92558021065E+03  0.25500000920E-02 0. -1.
</event>
<event>
 5   0  0.6531625E-05  0.2010143E+04  0.7818609E-02  0.8601893E-01
       -4   -1    0    0    0  501  0.00000000000E+00  0.00000000000E+00  0.83568473320E+03  0.83568569822E+03  0.12699999809E+01 0.  1.
        4   -1    0    0  501    0  0.00000000000E+00  0.00000000000E+00 -0.12087891835E+04  0.12087898506E+04  0.12699999809E+01 0. -1.
    10030    2    1    2    0    0  0.00000000000E+00  0.00000000000E+00 -0.37310445025E+03  0.20444755488E+04  0.20101426166E+04 0.  0.
        5    1    3    3  502    0 -0.53356504623E+03 -0.54902082197E+03  0.47574618451E+03  0.90137231130E+03  0.46999998093E+01 0.  1.
       -5    1    3    3    0  502  0.53356504623E+03  0.54902082197E+03 -0.84885063476E+03  0.11431032375E+04  0.46999998093E+01 0. -1.
</event>
<event>
 5   0  0.1834645E-04  0.2006959E+04  0.7818609E-02  0.8603374E-01
       -2   -1    0    0    0  501  0.00000000000E+00  0.00000000000E+00  0.58268794020E+03  0.58268794021E+03  0.25500000920E-02 0.  1.
        2   -1    0    0  501    0  0.00000000000E+00  0.00000000000E+00 -0.17281487616E+04  0.17281487616E+04  0.25500000920E-02 0. -1.
    10030    2    1    2    0    0  0.00000000000E+00  0.00000000000E+00 -0.11454608214E+04  0.23108367019E+04  0.20069593342E+04 0.  0.
        1    1    3    3  502    0 -0.61939314903E+03  0.50070337520E+03  0.13012111088E+03  0.80702121813E+03  0.50400001928E-02 0.  1.
       -1    1    3    3    0  502  0.61939314903E+03 -0.50070337520E+03 -0.12755819323E+04  0.15038154837E+04  0.50400001928E-02 0. -1.
</event>
<event>
 5   0  0.8881384E-05  0.2017127E+04  0.7818609E-02  0.8598655E-01
       -1   -1    0    0    0  501  0.00000000000E+00  0.00000000000E+00  0.71711265826E+03  0.71711265828E+03  0.50400001928E-02 0. -1.
        1   -1    0    0  501    0  0.00000000000E+00  0.00000000000E+00 -0.14184669119E+04  0.14184669119E+04  0.50400001928E-02 0.  1.
    10030    2    1    2    0    0  0.00000000000E+00  0.00000000000E+00 -0.70135425359E+03  0.21355795701E+04  0.20171272422E+04 0.  0.
        5    1    3    3  502    0  0.75523405065E+03 -0.11657252444E+03 -0.10475156184E+04  0.12966413095E+04  0.46999998093E+01 0.  1.
       -5    1    3    3    0  502 -0.75523405065E+03  0.11657252444E+03  0.34616136480E+03  0.83893826066E+03  0.46999998093E+01 0. -1.
</event>
<event>
 5   0  0.8577422E-05  0.2083051E+04  0.7818609E-02  0.8568747E-01
       -1   -1    0    0    0  501  0.00000000000E+00  0.00000000000E+00  0.71186673390E+03  0.71186673392E+03  0.50400001928E-02 0.  1.
        1   -1    0    0  501    0  0.00000000000E+00  0.00000000000E+00 -0.15238456784E+04  0.15238456784E+04  0.50400001928E-02 0. -1.
    10030    2    1    2    0    0  0.00000000000E+00  0.00000000000E+00 -0.81197894449E+03  0.22357124123E+04  0.20830506917E+04 0.  0.
        2    1    3    3  502    0  0.41069852763E+03 -0.97130910451E+02 -0.14279640390E+04  0.14890228309E+04  0.25500000920E-02 0. -1.
       -2    1    3    3    0  502 -0.41069852763E+03  0.97130910451E+02  0.61598509448E+03  0.74668958141E+03  0.25500000920E-02 0.  1.
</event>
<event>
 5   0  0.8861350E-05  0.2011075E+04  0.7818609E-02  0.8601460E-01
        1   -1    0    0  501    0  0.00000000000E+00  0.00000000000E+00  0.13641300308E+04  0.13641300308E+04  0.50400001928E-02 0.  1.
       -1   -1    0    0    0  501  0.00000000000E+00  0.00000000000E+00 -0.74120916061E+03  0.74120916063E+03  0.50400001928E-02 0. -1.
    10030    2    1    2    0    0  0.00000000000E+00  0.00000000000E+00  0.62292087021E+03  0.21053391915E+04  0.20110750112E+04 0.  0.
        1    1    3    3  502    0  0.83209739113E+03  0.55479281076E+03  0.20204074952E+03  0.10202948572E+04  0.50400001928E-02 0. -1.
       -1    1    3    3    0  502 -0.83209739113E+03 -0.55479281076E+03  0.42088012068E+03  0.10850443342E+04  0.50400001928E-02 0.  1.
</event>
<event>
 5   0  0.1807498E-04  0.1981304E+04  0.7818609E-02  0.8615412E-01
        2   -1    0    0  501    0  0.00000000000E+00  0.00000000000E+00  0.11708090372E+04  0.11708090372E+04  0.25500000920E-02 0.  1.
       -2   -1    0    0    0  501  0.00000000000E+00  0.00000000000E+00 -0.83821633887E+03  0.83821633888E+03  0.25500000920E-02 0. -1.
    10030    2    1    2    0    0  0.00000000000E+00  0.00000000000E+00  0.33259269829E+03  0.20090253761E+04  0.19813038784E+04 0.  0.
        5    1    3    3  502    0  0.72092020519E+03  0.67167469022E+03  0.62411230951E+02  0.98731458183E+03  0.46999998093E+01 0. -1.
       -5    1    3    3    0  502 -0.72092020519E+03 -0.67167469022E+03  0.27018146734E+03  0.10217107942E+04  0.46999998093E+01 0.  1.
</event>
<event>
 5   0  0.1807498E-04  0.2179698E+04  0.7818609E-02  0.8526926E-01
       -2   -1    0    0    0  501  0.00000000000E+00  0.00000000000E+00  0.48416209171E+03  0.48416209172E+03  0.25500000920E-02 0. -1.
        2   -1    0    0  501    0  0.00000000000E+00  0.00000000000E+00 -0.24532503327E+04  0.24532503327E+04  0.25500000920E-02 0.  1.
    10030    2    1    2    0    0  0.00000000000E+00  0.00000000000E+00 -0.19690882410E+04  0.29374124244E+04  0.21796979723E+04 0.  0.
        5    1    3    3  502    0 -0.19191007065E+03  0.99506196955E+03 -0.44419759734E+03  0.11064860568E+04  0.46999998093E+01 0.  1.
       -5    1    3    3    0  502  0.19191007065E+03 -0.99506196955E+03 -0.15248906437E+04  0.18309263676E+04  0.46999998093E+01 0. -1.
</event>
<event>
 5   0  0.1893687E-04  0.1994541E+04  0.7818609E-02  0.8609177E-01
       -2   -1    0    0    0  501  0.00000000000E+00  0.00000000000E+00  0.14385932748E+04  0.14385932748E+04  0.25500000920E-02 0. -1.
        2   -1    0    0  501    0  0.00000000000E+00  0.00000000000E+00 -0.69133395377E+03  0.69133395378E+03  0.25500000920E-02 0.  1.
    10030    2    1    2    0    0  0.00000000000E+00  0.00000000000E+00  0.74725932106E+03  0.21299272286E+04  0.19945409262E+04 0.  0.
        4    1    3    3  502    0 -0.29821930987E+03  0.80350894215E+03 -0.17086833134E+03  0.87393305032E+03  0.12699999809E+01 0.  1.
       -4    1    3    3    0  502  0.29821930987E+03 -0.80350894215E+03  0.91812765240E+03  0.12559941783E+04  0.12699999809E+01 0. -1.
</event>
<event>
 5   0  0.8881384E-05  0.1983421E+04  0.7818609E-02  0.8614411E-01
       -1   -1    0    0    0  501  0.00000000000E+00  0.00000000000E+00  0.61948342359E+03  0.61948342361E+03  0.50400001928E-02 0. -1.
        1   -1    0    0  501    0  0.00000000000E+00  0.00000000000E+00 -0.15875963877E+04  0.15875963877E+04  0.50400001928E-02 0.  1.
    10030    2    1    2    0    0  0.00000000000E+00  0.00000000000E+00 -0.96811296410E+03  0.22070798113E+04  0.19834209292E+04 0.  0.
        5    1    3    3  502    0 -0.99522685601E+02 -0.55800981051E+03 -0.13895675185E+04  0.15007330516E+04  0.46999998093E+01 0.  1.
       -5    1    3    3    0  502  0.99522685601E+02  0.55800981051E+03  0.42145455440E+03  0.70634675974E+03  0.46999998093E+01 0. -1.
</event>
<event>
 5   0  0.1782172E-04  0.2000208E+04  0.7818609E-02  0.8606524E-01
       -2   -1    0    0    0  501  0.00000000000E+00  0.00000000000E+00  0.67807067653E+03  0.67807067653E+03  0.25500000920E-02 0. -1.
        2   -1    0    0  501    0  0.00000000000E+00  0.00000000000E+00 -0.14750790016E+04  0.14750790016E+04  0.25500000920E-02 0.  1.
    10030    2    1    2    0    0  0.00000000000E+00  0.00000000000E+00 -0.79700832505E+03  0.21531496781E+04  0.20002078057E+04 0.  0.
        2    1    3    3  502    0 -0.44559300729E+03  0.11443188865E+03 -0.13544130157E+04  0.14304133677E+04  0.25500000920E-02 0.  1.
       -2    1    3    3    0  502  0.44559300729E+03 -0.11443188865E+03  0.55740469064E+03  0.72273631045E+03  0.25500000920E-02 0. -1.
</event>
<event>
 5   0  0.8577422E-05  0.1963431E+04  0.7818609E-02  0.8623911E-01
        1   -1    0    0  501    0  0.00000000000E+00  0.00000000000E+00  0.15583307538E+04  0.15583307538E+04  0.50400001928E-02 0. -1.
       -1   -1    0    0    0  501  0.00000000000E+00  0.00000000000E+00 -0.61846008323E+03  0.61846008325E+03  0.50400001928E-02 0.  1.
    10030    2    1    2    0    0  0.00000000000E+00  0.00000000000E+00  0.93987067059E+03  0.21767908371E+04  0.19634310456E+04 0.  0.
        2    1    3    3  502    0  0.67075623312E+03  0.68768636526E+03  0.69425593948E+03  0.11852500878E+04  0.25500000920E-02 0. -1.
       -2    1    3    3    0  502 -0.67075623312E+03 -0.68768636526E+03  0.24561473111E+03  0.99154074922E+03  0.25500000920E-02 0.  1.
</event>
<event>
 5   0  0.1782172E-04  0.1752925E+04  0.7818609E-02  0.8731742E-01
       -2   -1    0    0    0  501  0.00000000000E+00  0.00000000000E+00  0.66712716580E+03  0.66712716580E+03  0.25500000920E-02 0. -1.
        2   -1    0    0  501    0  0.00000000000E+00  0.00000000000E+00 -0.11514844390E+04  0.11514844390E+04  0.25500000920E-02 0.  1.
    10030    2    1    2    0    0  0.00000000000E+00  0.00000000000E+00 -0.48435727316E+03  0.18186116048E+04  0.17529250414E+04 0.  0.
        2    1    3    3  502    0 -0.20070728080E+03  0.72258454626E+03 -0.71280105716E+03  0.10346483394E+04  0.25500000920E-02 0.  1.
       -2    1    3    3    0  502  0.20070728080E+03 -0.72258454626E+03  0.22844378399E+03  0.78396326541E+03  0.25500000920E-02 0. -1.
</event>
<event>
 5   0  0.8881384E-05  0.2035161E+04  0.7818609E-02  0.8590356E-01
       -1   -1    0    0    0  501  0.00000000000E+00  0.00000000000E+00  0.98821640499E+03  0.98821640501E+03  0.50400001928E-02 0.  1.
        1   -1    0    0  501    0  0.00000000000E+00  0.00000000000E+00 -0.10478170392E+04  0.10478170392E+04  0.50400001928E-02 0. -1.
    10030    2    1    2    0    0  0.00000000000E+00  0.00000000000E+00 -0.59600634169E+02  0.20360334442E+04  0.20351609151E+04 0.  0.
        5    1    3    3  502    0 -0.82606104641E+03  0.23792165176E+03  0.51491850212E+03  0.10020712143E+04  0.46999998093E+01 0.  1.
       -5    1    3    3    0  502  0.82606104641E+03 -0.23792165176E+03 -0.57451913629E+03  0.10339622298E+04  0.46999998093E+01 0. -1.
</event>
<event>
 5   0  0.1893687E-04  0.2048077E+04  0.7818609E-02  0.8584467E-01
       -2   -1    0    0    0  501  0.00000000000E+00  0.00000000000E+00  0.18818921148E+04  0.18818921148E+04  0.25500000920E-02 0.  1.
        2   -1    0    0  501    0  0.00000000000E+00  0.00000000000E+00 -0.55723457954E+03  0.55723457954E+03  0.25500000920E-02 0. -1.
    10030    2    1    2    0    0  0.00000000000E+00  0.00000000000E+00  0.13246575353E+04  0.24391266944E+04  0.20480774999E+04 0.  0.
        4    1    3    3  502    0 -0.91017532682E+03  0.45369466215E+03  0.80521997953E+03  0.12971656796E+04  0.12699999809E+01 0.  1.
       -4    1    3    3    0  502  0.91017532682E+03 -0.45369466215E+03  0.51943755576E+03  0.11419610148E+04  0.12699999809E+01 0. -1.
</event>
<event>
 5   0  0.8861350E-05  0.1965897E+04  0.7818609E-02  0.8622733E-01
        1   -1    0    0  501    0  0.00000000000E+00  0.00000000000E+00  0.12109854793E+04  0.12109854793E+04  0.50400001928E-02 0. -1.
       -1   -1    0    0    0  501  0.00000000000E+00  0.00000000000E+00 -0.79785276081E+03  0.79785276083E+03  0.50400001928E-02 0.  1.
    10030    2    1    2    0    0  0.00000000000E+00  0.00000000000E+00  0.41313271847E+03  0.20088382401E+04  0.19658973605E+04 0.  0.
        1    1    3    3  502    0 -0.87322347969E+03 -0.37087489687E+03  0.46932243143E+03  0.10584568859E+04  0.50400001928E-02 0.  1.
       -1    1    3    3    0  502  0.87322347969E+03  0.37087489687E+03 -0.56189712955E+02  0.95038135424E+03  0.50400001928E-02 0. -1.
</event>
<event>
 5   0  0.8881384E-05  0.2009844E+04  0.7818609E-02  0.8602032E-01
       -1   -1    0    0    0  501  0.00000000000E+00  0.00000000000E+00  0.49356556167E+03  0.49356556170E+03  0.50400001928E-02 0.  1.
        1   -1    0    0  501    0  0.00000000000E+00  0.00000000000E+00 -0.20460671740E+04  0.20460671740E+04  0.50400001928E-02 0. -1.
    10030    2    1    2    0    0  0.00000000000E+00  0.00000000000E+00 -0.15525016123E+04  0.25396327357E+04  0.20098440676E+04 0.  0.
        5    1    3    3  502    0  0.35986044370E+03  0.63996312558E+03 -0.16432604909E+04  0.17998276228E+04  0.46999998093E+01 0. -1.
       -5    1    3    3    0  502 -0.35986044370E+03 -0.63996312558E+03  0.90758878521E+02  0.73980511290E+03  0.46999998093E+01 0.  1.
</event>
<event>
 5   0  0.8861350E-05  0.2002305E+04  0.7818609E-02  0.8605544E-01
        1   -1    0    0  501    0  0.00000000000E+00  0.00000000000E+00  0.16132776267E+04  0.16132776267E+04  0.50400001928E-02 0. -1.
       -1   -1    0    0    0  501  0.00000000000E+00  0.00000000000E+00 -0.62128561316E+03  0.62128561318E+03  0.50400001928E-02 0.  1.
    10030    2    1    2    0    0  0.00000000000E+00  0.00000000000E+00  0.99199201357E+03  0.22345632399E+04  0.20023048515E+04 0.  0.
        1    1    3    3  502    0  0.88638948512E+03  0.46278163522E+03  0.55126898228E+03  0.11418190102E+04  0.50400001928E-02 0.  1.
       -1    1    3    3    0  502 -0.88638948512E+03 -0.46278163522E+03  0.44072303130E+03  0.10927442297E+04  0.50400001928E-02 0. -1.
</event>
<event>
 5   0  0.1782172E-04  0.1962206E+04  0.7818609E-02  0.8624497E-01
        2   -1    0    0  501    0  0.00000000000E+00  0.00000000000E+00  0.17561131569E+04  0.17561131569E+04  0.25500000920E-02 0.  1.
       -2   -1    0    0    0  501  0.00000000000E+00  0.00000000000E+00 -0.54812136755E+03  0.54812136756E+03  0.25500000920E-02 0. -1.
    10030    2    1    2    0    0  0.00000000000E+00  0.00000000000E+00  0.12079917894E+04  0.23042345245E+04  0.19622060495E+04 0.  0.
        2    1    3    3  502    0 -0.24680889371E+03 -0.94543456873E+03  0.50027057009E+03  0.10977394031E+04  0.25500000920E-02 0.  1.
       -2    1    3    3    0  502  0.24680889371E+03  0.94543456873E+03  0.70772121926E+03  0.12064951214E+04  0.25500000920E-02 0. -1.
</event>
<event>
 5   0  0.1812865E-04  0.2155719E+04  0.7818609E-02  0.8537088E-01
        2   -1    0    0  501    0  0.00000000000E+00  0.00000000000E+00  0.13863531138E+04  0.13863531138E+04  0.25500000920E-02 0. -1.
       -2   -1    0    0    0  501  0.00000000000E+00  0.00000000000E+00 -0.83801214779E+03  0.83801214779E+03  0.25500000920E-02 0.  1.
    10030    2    1    2    0    0  0.00000000000E+00  0.00000000000E+00  0.54834096605E+03  0.22243652616E+04  0.21557186742E+04 0.  0.
        3    1    3    3  502    0 -0.94938938458E+03 -0.15288272658E+03  0.77657084821E+03  0.12360322100E+04  0.10100000352E+00 0. -1.
       -3    1    3    3    0  502  0.94938938458E+03  0.15288272658E+03 -0.22822988217E+03  0.98833305164E+03  0.10100000352E+00 0.  1.
</event>
<event>
 5   0  0.8881384E-05  0.1975176E+04  0.7818609E-02  0.8618316E-01
        1   -1    0    0  501    0  0.00000000000E+00  0.00000000000E+00  0.77347755849E+03  0.77347755851E+03  0.50400001928E-02 0.  1.
       -1   -1    0    0    0  501  0.00000000000E+00  0.00000000000E+00 -0.12609670785E+04  0.12609670785E+04  0.50400001928E-02 0. -1.
    10030    2    1    2    0    0  0.00000000000E+00  0.00000000000E+00 -0.48748952004E+03  0.20344446371E+04  0.19751756755E+04 0.  0.
        5    1    3    3  502    0 -0.65935867457E+03 -0.44303565730E+03  0.36060972641E+03  0.87240811559E+03  0.46999998093E+01 0.  1.
       -5    1    3    3    0  502  0.65935867457E+03  0.44303565730E+03 -0.84809924645E+03  0.11620365215E+04  0.46999998093E+01 0. -1.
</event>
<event>
 5   0  0.1807498E-04  0.2015022E+04  0.7818609E-02  0.8599629E-01
        2   -1    0    0  501    0  0.00000000000E+00  0.00000000000E+00  0.17771859413E+04  0.17771859413E+04  0.25500000920E-02 0. -1.
       -2   -1    0    0    0  501  0.00000000000E+00  0.00000000000E+00 -0.57117170606E+03  0.57117170607E+03  0.25500000920E-02 0.  1.
    10030    2    1    2    0    0  0.00000000000E+00  0.00000000000E+00  0.12060142353E+04  0.23483576474E+04  0.20150219116E+04 0.  0.
        5    1    3    3  502    0 -0.39723977326E+01 -0.68418132541E+03  0.14648991544E+04  0.16168090452E+04  0.46999998093E+01 0. -1.
       -5    1    3    3    0  502  0.39723977326E+01  0.68418132541E+03 -0.25888491918E+03  0.73154860218E+03  0.46999998093E+01 0.  1.
</event>
<event>
 5   0  0.1807498E-04  0.1974612E+04  0.7818609E-02  0.8618583E-01
       -2   -1    0    0    0  501  0.00000000000E+00  0.00000000000E+00  0.71351433766E+03  0.71351433766E+03  0.25500000920E-02 0.  1.
        2   -1    0    0  501    0  0.00000000000E+00  0.00000000000E+00 -0.13661571691E+04  0.13661571691E+04  0.25500000920E-02 0. -1.
    10030    2    1    2    0    0  0.00000000000E+00  0.00000000000E+00 -0.65264283145E+03  0.20796715068E+04  0.19746115848E+04 0.  0.
        5    1    3    3  502    0 -0.88655460159E+03  0.18557509322E+03  0.87433444753E+02  0.90999113957E+03  0.46999998093E+01 0.  1.
       -5    1    3    3    0  502  0.88655460159E+03 -0.18557509322E+03 -0.74007627620E+03  0.11696803672E+04  0.46999998093E+01 0. -1.
</event>
<event>
 5   0  0.1807498E-04  0.1904328E+04  0.7818609E-02  0.8652705E-01
       -2   -1    0    0    0  501  0.00000000000E+00  0.00000000000E+00  0.86480992991E+03  0.86480992992E+03  0.25500000920E-02 0. -1.
        2   -1    0    0  501    0  0.00000000000E+00  0.00000000000E+00 -0.10483419498E+04  0.10483419498E+04  0.25500000920E-02 0.  1.
    10030    2    1    2    0    0  0.00000000000E+00  0.00000000000E+00 -0.18353201990E+03  0.19131518797E+04  0.19043282576E+04 0.  0.
        5    1    3    3  502    0 -0.33892691713E+02  0.73818924409E+03 -0.69498324521E+03  0.10144436287E+04  0.46999998093E+01 0.  1.
       -5    1    3    3    0  502  0.33892691713E+02 -0.73818924409E+03  0.51145122531E+03  0.89870825106E+03  0.46999998093E+01 0. -1.
</event>
<event>
 5   0  0.8861350E-05  0.1995304E+04  0.7818609E-02  0.8608820E-01
        1   -1    0    0  501    0  0.00000000000E+00  0.00000000000E+00  0.80166635316E+03  0.80166635317E+03  0.50400001928E-02 0. -1.
       -1   -1    0    0    0  501  0.00000000000E+00  0.00000000000E+00 -0.12415503654E+04  0.12415503654E+04  0.50400001928E-02 0.  1.
    10030    2    1    2    0    0  0.00000000000E+00  0.00000000000E+00 -0.43988401220E+03  0.20432167185E+04  0.19953036397E+04 0.  0.
        1    1    3    3  502    0  0.19097518194E+03 -0.48099573350E+03 -0.10933480403E+04  0.12096438952E+04  0.50400001928E-02 0.  1.
       -1    1    3    3    0  502 -0.19097518194E+03  0.48099573350E+03  0.65346402815E+03  0.83357282337E+03  0.50400001928E-02 0. -1.
</event>
<event>
 5   0  0.1893687E-04  0.1992654E+04  0.7818609E-02  0.8610063E-01
        2   -1    0    0  501    0  0.00000000000E+00  0.00000000000E+00  0.21883004811E+04  0.21883004811E+04  0.25500000920E-02 0. -1.
       -2   -1    0    0    0  501  0.00000000000E+00  0.00000000000E+00 -0.45362489630E+03  0.45362489630E+03  0.25500000920E-02 0.  1.
    10030    2    1    2    0    0  0.00000000000E+00  0.00000000000E+00  0.17346755848E+04  0.26419253774E+04  0.19926540882E+04 0.  0.
        4    1    3    3  502    0 -0.22198753789E+03  0.79014423214E+02 -0.41615031069E+03  0.47823053023E+03  0.12699999809E+01 0.  1.
       -4    1    3    3    0  502  0.22198753789E+03 -0.79014423214E+02  0.21508258955E+04  0.21636948472E+04  0.12699999809E+01 0. -1.
</event>
<event>
 5   0  0.8861350E-05  0.2010158E+04  0.7818609E-02  0.8601886E-01
       -1   -1    0    0    0  501  0.00000000000E+00  0.00000000000E+00  0.17390586217E+04  0.17390586217E+04  0.50400001928E-02 0. -1.
        1   -1    0    0  501    0  0.00000000000E+00  0.00000000000E+00 -0.58087957592E+03  0.58087957594E+03  0.50400001928E-02 0.  1.
    10030    2    1    2    0    0  0.00000000000E+00  0.00000000000E+00  0.11581790458E+04  0.23199381977E+04  0.20101578393E+04 0.  0.
        1    1    3    3  502    0 -0.64226096746E+03 -0.75864062157E+03  0.40732943436E+03  0.10742215838E+04  0.50400001928E-02 0. -1.
       -1    1    3    3    0  502  0.64226096746E+03  0.75864062157E+03  0.75084961143E+03  0.12457166139E+04  0.50400001928E-02 0.  1.
</event>
<event>
 5   0  0.8765057E-05  0.1968719E+04  0.7818609E-02  0.8621387E-01
       -1   -1    0    0    0  501  0.00000000000E+00  0.00000000000E+00  0.65479698788E+03  0.65479698790E+03  0.50400001928E-02 0.  1.
        1   -1    0    0  501    0  0.00000000000E+00  0.00000000000E+00 -0.14797928733E+04  0.14797928733E+04  0.50400001928E-02 0. -1.
    10030    2    1    2    0    0  0.00000000000E+00  0.00000000000E+00 -0.82499588541E+03  0.21345898612E+04  0.19687192955E+04 0.  0.
        3    1    3    3  502    0  0.69149286206E+02 -0.33439474225E+03  0.58852215279E+03  0.68041149458E+03  0.10100000352E+00 0.  1.
       -3    1    3    3    0  502 -0.69149286206E+02  0.33439474225E+03 -0.14135180382E+04  0.14541783666E+04  0.10100000352E+00 0. -1.
</event>
<event>
 5   0  0.8577422E-05  0.1999132E+04  0.7818609E-02  0.8607027E-01
       -1   -1    0    0    0  501  0.00000000000E+00  0.00000000000E+00  0.62968971387E+03  0.62968971389E+03  0.50400001928E-02 0.  1.
        1   -1    0    0  501    0  0.00000000000E+00  0.00000000000E+00 -0.15867051857E+04  0.15867051857E+04  0.50400001928E-02 0. -1.
    10030    2    1    2    0    0  0.00000000000E+00  0.00000000000E+00 -0.95701547184E+03  0.22163948996E+04  0.19991317459E+04 0.  0.
        2    1    3    3  502    0 -0.56333498990E+03 -0.44984005653E+03 -0.12461663442E+04  0.14396641777E+04  0.25500000920E-02 0. -1.
       -2    1    3    3    0  502  0.56333498990E+03  0.44984005653E+03  0.28915087234E+03  0.77673072186E+03  0.25500000920E-02 0.  1.
</event>
<event>
 5   0  0.1893687E-04  0.2014844E+04  0.7818609E-02  0.8599712E-01
       -2   -1    0    0    0  501  0.00000000000E+00  0.00000000000E+00  0.51229496408E+03  0.51229496409E+03  0.25500000920E-02 0.  1.
        2   -1    0    0  501    0  0.00000000000E+00  0.00000000000E+00 -0.19810833146E+04  0.19810833146E+04  0.25500000920E-02 0. -1.
    10030    2    1    2    0    0  0.00000000000E+00  0.00000000000E+00 -0.14687883505E+04  0.24933782787E+04  0.20148439200E+04 0.  0.
        4    1    3    3  502    0 -0.87467089962E+03 -0.42390574551E+03 -0.10621626575E+04  0.14397695606E+04  0.12699999809E+01 0.  1.
       -4    1    3    3    0  502  0.87467089962E+03  0.42390574551E+03 -0.40662569301E+03  0.10536087181E+04  0.12699999809E+01 0. -1.
</event>
<event>
 5   0  0.8958919E-05  0.1958232E+04  0.7818609E-02  0.8626401E-01
        1   -1    0    0  501    0  0.00000000000E+00  0.00000000000E+00  0.14719709857E+04  0.14719709857E+04  0.50400001928E-02 0.  1.
       -1   -1    0    0    0  501  0.00000000000E+00  0.00000000000E+00 -0.65128201400E+03  0.65128201402E+03  0.50400001928E-02 0. -1.
    10030    2    1    2    0    0  0.00000000000E+00  0.00000000000E+00  0.82068897167E+03  0.21232529997E+04  0.19582320885E+04 0.  0.
        4    1    3    3  502    0  0.90588271664E+03  0.18693838714E+03  0.62198869639E+02  0.92705974413E+03  0.12699999809E+01 0. -1.
       -4    1    3    3    0  502 -0.90588271664E+03 -0.18693838714E+03  0.75849010203E+03  0.11961932556E+04  0.12699999809E+01 0.  1.
</event>
<event>
 5   0  0.8765057E-05  0.1944903E+04  0.7818609E-02  0.8632822E-01
        1   -1    0    0  501    0  0.00000000000E+00  0.00000000000E+00  0.77604371635E+03  0.77604371636E+03  0.50400001928E-02 0.  1.
       -1   -1    0    0    0  501  0.00000000000E+00  0.00000000000E+00 -0.12185681317E+04  0.12185681317E+04  0.50400001928E-02 0. -1.
    10030    2    1    2    0    0  0.00000000000E+00  0.00000000000E+00 -0.44252441536E+03  0.19946118481E+04  0.19449032280E+04 0.  0.
        3    1    3    3  502    0  0.82194740979E+03  0.40647773146E+03 -0.55332851775E+03  0.10709781274E+04  0.10100000352E+00 0.  1.
       -3    1    3    3    0  502 -0.82194740979E+03 -0.40647773146E+03  0.11080410239E+03  0.92363372067E+03  0.10100000352E+00 0. -1.
</event>
<event>
 5   0  0.1834645E-04  0.1704622E+04  0.7818609E-02  0.8758733E-01
        2   -1    0    0  501    0  0.00000000000E+00  0.00000000000E+00  0.31255074927E+03  0.31255074928E+03  0.25500000920E-02 0.  1.
       -2   -1    0    0    0  501  0.00000000000E+00  0.00000000000E+00 -0.23242109097E+04  0.23242109097E+04  0.25500000920E-02 0. -1.
    10030    2    1    2    0    0  0.00000000000E+00  0.00000000000E+00 -0.20116601604E+04  0.26367616590E+04  0.17046217895E+04 0.  0.
        1    1    3    3  502    0 -0.24997473175E+03 -0.92509845875E+02 -0.22580834883E+04  0.22737604267E+04  0.50400001928E-02 0. -1.
       -1    1    3    3    0  502  0.24997473175E+03  0.92509845875E+02  0.24642332784E+03  0.36300123226E+03  0.50400001928E-02 0.  1.
</event>
<event>
 5   0  0.1807498E-04  0.1596161E+04  0.7818609E-02  0.8822910E-01
       -2   -1    0    0    0  501  0.00000000000E+00  0.00000000000E+00  0.48268775007E+03  0.48268775007E+03  0.25500000920E-02 0.  1.
        2   -1    0    0  501    0  0.00000000000E+00  0.00000000000E+00 -0.13195544277E+04  0.13195544277E+04  0.25500000920E-02 0. -1.
    10030    2    1    2    0    0  0.00000000000E+00  0.00000000000E+00 -0.83686667764E+03  0.18022421778E+04  0.15961613425E+04 0.  0.
        5    1    3    3  502    0 -0.43446605506E+03  0.36185372467E+03 -0.10543658464E+04  0.11964147688E+04  0.46999998093E+01 0. -1.
       -5    1    3    3    0  502  0.43446605506E+03 -0.36185372467E+03  0.21749916872E+03  0.60582740897E+03  0.46999998093E+01 0.  1.
</event>
<event>
 5   0  0.8958919E-05  0.1974118E+04  0.7818609E-02  0.8618818E-01
       -1   -1    0    0    0  501  0.00000000000E+00  0.00000000000E+00  0.10968078798E+04  0.10968078798E+04  0.50400001928E-02 0. -1.
        1   -1    0    0  501    0  0.00000000000E+00  0.00000000000E+00 -0.88829147661E+03  0.88829147663E+03  0.50400001928E-02 0.  1.
    10030    2    1    2    0    0  0.00000000000E+00  0.00000000000E+00  0.20851640317E+03  0.19850993564E+04  0.19741176167E+04 0.  0.
        4    1    3    3  502    0  0.49200776642E+03 -0.58872681981E+03 -0.52017331425E+03  0.92695889895E+03  0.12699999809E+01 0.  1.
       -4    1    3    3    0  502 -0.49200776642E+03  0.58872681981E+03  0.72868971741E+03  0.10581404575E+04  0.12699999809E+01 0. -1.
</event>
<event>
 5   0  0.1893687E-04  0.1991702E+04  0.7818609E-02  0.8610510E-01
       -2   -1    0    0    0  501  0.00000000000E+00  0.00000000000E+00  0.41845762499E+03  0.41845762500E+03  0.25500000920E-02 0.  1.
        2   -1    0    0  501    0  0.00000000000E+00  0.00000000000E+00 -0.23699393792E+04  0.23699393792E+04  0.25500000920E-02 0. -1.
    10030    2    1    2    0    0  0.00000000000E+00  0.00000000000E+00 -0.19514817542E+04  0.27883970042E+04  0.19917019898E+04 0.  0.
        4    1    3    3  502    0 -0.50907227014E+03  0.13463171066E+03 -0.21590884266E+04  0.22223736681E+04  0.12699999809E+01 0. -1.
       -4    1    3    3    0  502  0.50907227014E+03 -0.13463171066E+03  0.20760667238E+03  0.56602333615E+03  0.12699999809E+01 0.  1.
</event>
<event>
 5   0  0.1782172E-04  0.2034654E+04  0.7818609E-02  0.8590588E-01
        2   -1    0    0  501    0  0.00000000000E+00  0.00000000000E+00  0.10628375536E+04  0.10628375536E+04  0.25500000920E-02 0.  1.
       -2   -1    0    0    0  501  0.00000000000E+00  0.00000000000E+00 -0.97376559344E+03  0.97376559344E+03  0.25500000920E-02 0. -1.
    10030    2    1    2    0    0  0.00000000000E+00  0.00000000000E+00  0.89071960163E+02  0.20366031470E+04  0.20346544091E+04 0.  0.
        2    1    3    3  502    0 -0.42334430634E+01 -0.64883241585E+03 -0.73976615212E+03  0.98399968787E+03  0.25500000920E-02 0. -1.
       -2    1    3    3    0  502  0.42334430634E+01  0.64883241585E+03  0.82883811228E+03  0.10526034592E+04  0.25500000920E-02 0.  1.
</event>
<event>
 5   0  0.8861350E-05  0.1992288E+04  0.7818609E-02  0.8610235E-01
       -1   -1    0    0    0  501  0.00000000000E+00  0.00000000000E+00  0.11712525445E+04  0.11712525445E+04  0.50400001928E-02 0. -1.
        1   -1    0    0  501    0  0.00000000000E+00  0.00000000000E+00 -0.84721537857E+03  0.84721537858E+03  0.50400001928E-02 0.  1.
    10030    2    1    2    0    0  0.00000000000E+00  0.00000000000E+00  0.32403716591E+03  0.20184679231E+04  0.19922883003E+04 0.  0.
        1    1    3    3  502    0  0.23853087184E+03  0.77100907033E+03 -0.42956454870E+03  0.91426345485E+03  0.50400001928E-02 0.  1.
       -1    1    3    3    0  502 -0.23853087184E+03 -0.77100907033E+03  0.75360171461E+03  0.11042044682E+04  0.50400001928E-02 0. -1.
</event>
<event>
 5   0  0.1782172E-04  0.1991798E+04  0.7818609E-02  0.8610465E-01
        2   -1    0    0  501    0  0.00000000000E+00  0.00000000000E+00  0.19057732819E+04  0.19057732819E+04  0.25500000920E-02 0.  1.
       -2   -1    0    0    0  501  0.00000000000E+00  0.00000000000E+00 -0.52042657593E+03  0.52042657594E+03  0.25500000920E-02 0. -1.
    10030    2    1    2    0    0  0.00000000000E+00  0.00000000000E+00  0.13853467059E+04  0.24261998578E+04  0.19917982464E+04 0.  0.
        2    1    3    3  502    0  0.76926831361E+03 -0.16412713145E+03  0.14367127854E+04  0.16379423315E+04  0.25500000920E-02 0.  1.
       -2    1    3    3    0  502 -0.76926831361E+03  0.16412713145E+03 -0.51366079497E+02  0.78825752627E+03  0.25500000920E-02 0. -1.
</event>
<event>
 5   0  0.8577422E-05  0.2418305E+04  0.7818609E-02  0.8432682E-01
       -1   -1    0    0    0  501  0.00000000000E+00  0.00000000000E+00  0.12303389697E+04  0.12303389697E+04  0.50400001928E-02 0. -1.
        1   -1    0    0  501    0  0.00000000000E+00  0.00000000000E+00 -0.11883308369E+04  0.11883308369E+04  0.50400001928E-02 0.  1.
    10030    2    1    2    0    0  0.00000000000E+00  0.00000000000E+00  0.42008132818E+02  0.24186698066E+04  0.24183049746E+04 0.  0.
        2    1    3    3  502    0 -0.11994247256E+04  0.21463535848E+02 -0.13057532761E+03  0.12067022301E+04  0.25500000920E-02 0.  1.
       -2    1    3    3    0  502  0.11994247256E+04 -0.21463535848E+02  0.17258346043E+03  0.12119675766E+04  0.25500000920E-02 0. -1.
</event>
<event>
 5   0  0.8958919E-05  0.2005002E+04  0.7818609E-02  0.8604286E-01
        1   -1    0    0  501    0  0.00000000000E+00  0.00000000000E+00  0.86761824383E+03  0.86761824384E+03  0.50400001928E-02 0.  1.
       -1   -1    0    0    0  501  0.00000000000E+00  0.00000000000E+00 -0.11583526754E+04  0.11583526754E+04  0.50400001928E-02 0. -1.
    10030    2    1    2    0    0  0.00000000000E+00  0.00000000000E+00 -0.29073443157E+03  0.20259709192E+04  0.20050016598E+04 0.  0.
        4    1    3    3  502    0 -0.84292265883E+03 -0.90383350761E+02 -0.68605082956E+03  0.10905755877E+04  0.12699999809E+01 0. -1.
       -4    1    3    3    0  502  0.84292265883E+03  0.90383350761E+02  0.39531639799E+03  0.93539533154E+03  0.12699999809E+01 0.  1.
</event>
<event>
 5   0  0.1834645E-04  0.2014252E+04  0.7818609E-02  0.8599986E-01
       -2   -1    0    0    0  501  0.00000000000E+00  0.00000000000E+00  0.16671422869E+04  0.16671422869E+04  0.25500000920E-02 0. -1.
        2   -1    0    0  501    0  0.00000000000E+00  0.00000000000E+00 -0.60840831089E+03  0.60840831089E+03  0.25500000920E-02 0.  1.
    10030    2    1    2    0    0  0.00000000000E+00  0.00000000000E+00  0.10587339760E+04  0.22755505978E+04  0.20142524398E+04 0.  0.
        1    1    3    3  502    0  0.44253821522E+02  0.61436744082E+03 -0.37080272460E+03  0.71895786639E+03  0.50400001928E-02 0.  1.
       -1    1    3    3    0  502 -0.44253821522E+02 -0.61436744082E+03  0.14295367006E+04  0.15565927314E+04  0.50400001928E-02 0. -1.
</event>
<event>
 5   0  0.1782172E-04  0.1990846E+04  0.7818609E-02  0.8610912E-01
        2   -1    0    0  501    0  0.00000000000E+00  0.00000000000E+00  0.66307230773E+03  0.66307230774E+03  0.25500000920E-02 0. -1.
       -2   -1    0    0    0  501  0.00000000000E+00  0.00000000000E+00 -0.14943572636E+04  0.14943572636E+04  0.25500000920E-02 0.  1.
    10030    2    1    2    0    0  0.00000000000E+00  0.00000000000E+00 -0.83128495583E+03  0.21574295713E+04  0.19908459703E+04 0.  0.
        2    1    3    3  502    0  0.26220243553E+03 -0.90317905461E+03 -0.62184380156E+02  0.94252290106E+03  0.25500000920E-02 0. -1.
       -2    1    3    3    0  502 -0.26220243553E+03  0.90317905461E+03 -0.76910057567E+03  0.12149066702E+04  0.25500000920E-02 0.  1.
</event>
<event>
 5   0  0.8861350E-05  0.1719231E+04  0.7818609E-02  0.8750472E-01
       -1   -1    0    0    0  501  0.00000000000E+00  0.00000000000E+00  0.75757918978E+03  0.75757918980E+03  0.50400001928E-02 0. -1.
        1   -1    0    0  501    0  0.00000000000E+00  0.00000000000E+00 -0.97539438766E+03  0.97539438767E+03  0.50400001928E-02 0.  1.
    10030    2    1    2    0    0  0.00000000000E+00  0.00000000000E+00 -0.21781519788E+03  0.17329735775E+04  0.17192306302E+04 0.  0.
        1    1    3    3  502    0 -0.11250883234E+03 -0.43182744835E+03  0.63167989877E+03  0.77340330814E+03  0.50400001928E-02 0. -1.
       -1    1    3    3    0  502  0.11250883234E+03  0.43182744835E+03 -0.84949509665E+03  0.95957026932E+03  0.50400001928E-02 0.  1.
</event>
<event>
 5   0  0.8577422E-05  0.2035909E+04  0.7818609E-02  0.8590014E-01
        1   -1    0    0  501    0  0.00000000000E+00  0.00000000000E+00  0.14567319711E+04  0.14567319711E+04  0.50400001928E-02 0. -1.
       -1   -1    0    0    0  501  0.00000000000E+00  0.00000000000E+00 -0.71133999959E+03  0.71133999961E+03  0.50400001928E-02 0.  1.
    10030    2    1    2    0    0  0.00000000000E+00  0.00000000000E+00  0.74539197146E+03  0.21680719707E+04  0.20359093494E+04 0.  0.
        2    1    3    3  502    0 -0.43671231405E+03 -0.45338372827E+03 -0.47920818880E+03  0.79114786135E+03  0.25500000920E-02 0.  1.
       -2    1    3    3    0  502  0.43671231405E+03  0.45338372827E+03  0.12246001603E+04  0.13769241093E+04  0.25500000920E-02 0. -1.
</event>
<event>
 5   0  0.1834645E-04  0.1822304E+04  0.7818609E-02  0.8694527E-01
       -2   -1    0    0    0  501  0.00000000000E+00  0.00000000000E+00  0.17612728571E+04  0.17612728571E+04  0.25500000920E-02 0. -1.
        2   -1    0    0  501    0  0.00000000000E+00  0.00000000000E+00 -0.47136265409E+03  0.47136265409E+03  0.25500000920E-02 0.  1.
    10030    2    1    2    0    0  0.00000000000E+00  0.00000000000E+00  0.12899102030E+04  0.22326355112E+04  0.18223043089E+04 0.  0.
        1    1    3    3  502    0  0.15542509638E+02  0.68395288278E+03  0.13822653058E+04  0.15423003894E+04  0.50400001928E-02 0. -1.
       -1    1    3    3    0  502 -0.15542509638E+02 -0.68395288278E+03 -0.92355102719E+02  0.69033512187E+03  0.50400001928E-02 0.  1.
</event>
<event>
 5   0  0.8577422E-05  0.1885557E+04  0.7818609E-02  0.8662079E-01
       -1   -1    0    0    0  501  0.00000000000E+00  0.00000000000E+00  0.38105737000E+03  0.38105737003E+03  0.50400001928E-02 0. -1.
        1   -1    0    0  501    0  0.00000000000E+00  0.00000000000E+00 -0.23325398081E+04  0.23325398081E+04  0.50400001928E-02 0.  1.
    10030    2    1    2    0    0  0.00000000000E+00  0.00000000000E+00 -0.19514824381E+04  0.27135971781E+04  0.18855571959E+04 0.  0.
        2    1    3    3  502    0 -0.52041028586E+03  0.42943646962E+03 -0.19233842321E+04  0.20382957223E+04  0.25500000920E-02 0.  1.
       -2    1    3    3    0  502  0.52041028586E+03 -0.42943646962E+03 -0.28098205955E+02  0.67530145584E+03  0.25500000920E-02 0. -1.
</event>
<event>
 5   0  0.8765057E-05  0.1967601E+04  0.7818609E-02  0.8621920E-01
        1   -1    0    0  501    0  0.00000000000E+00  0.00000000000E+00  0.25214126705E+04  0.25214126705E+04  0.50400001928E-02 0. -1.
       -1   -1    0    0    0  501  0.00000000000E+00  0.00000000000E+00 -0.38385753535E+03  0.38385753539E+03  0.50400001928E-02 0.  1.
    10030    2    1    2    0    0  0.00000000000E+00  0.00000000000E+00  0.21375551351E+04  0.29052702059E+04  0.19676008268E+04 0.  0.
        3    1    3    3  502    0 -0.53139223136E+02  0.51031336869E+03 -0.17066650358E+03  0.54071302643E+03  0.10100000352E+00 0.  1.
       -3    1    3    3    0  502  0.53139223136E+02 -0.51031336869E+03  0.23082216387E+04  0.23645571795E+04  0.10100000352E+00 0. -1.
</event>
<event>
 5   0  0.1893687E-04  0.1926172E+04  0.7818609E-02  0.8641937E-01
       -2   -1    0    0    0  501  0.00000000000E+00  0.00000000000E+00  0.10395971915E+04  0.10395971915E+04  0.25500000920E-02 0.  1.
        2   -1    0    0  501    0  0.00000000000E+00  0.00000000000E+00 -0.89220591344E+03  0.89220591345E+03  0.25500000920E-02 0. -1.
    10030    2    1    2    0    0  0.00000000000E+00  0.00000000000E+00  0.14739127804E+03  0.19318031049E+04  0.19261721230E+04 0.  0.
        4    1    3    3  502    0  0.50136811752E+03  0.18696160119E+03 -0.72940026073E+03  0.90462753818E+03  0.12699999809E+01 0. -1.
       -4    1    3    3    0  502 -0.50136811752E+03 -0.18696160119E+03  0.87679153877E+03  0.10271755668E+04  0.12699999809E+01 0.  1.
</event>
<event>
 5   0  0.1893687E-04  0.2018626E+04  0.7818609E-02  0.8597962E-01
        2   -1    0    0  501    0  0.00000000000E+00  0.00000000000E+00  0.78444512535E+03  0.78444512535E+03  0.25500000920E-02 0. -1.
       -2   -1    0    0    0  501  0.00000000000E+00  0.00000000000E+00 -0.12986414202E+04  0.12986414202E+04  0.25500000920E-02 0.  1.
    10030    2    1    2    0    0  0.00000000000E+00  0.00000000000E+00 -0.51419629482E+03  0.20830865455E+04  0.20186261978E+04 0.  0.
        4    1    3    3  502    0  0.24468997532E+03 -0.57693764455E+03 -0.10735527004E+04  0.12430797413E+04  0.12699999809E+01 0.  1.
       -4    1    3    3    0  502 -0.24468997532E+03  0.57693764455E+03  0.55935640562E+03  0.84000680421E+03  0.12699999809E+01 0. -1.
</event>
<event>
 5   0  0.1893687E-04  0.1487208E+04  0.7818609E-02  0.8893004E-01
       -2   -1    0    0    0  501  0.00000000000E+00  0.00000000000E+00  0.65496282310E+03  0.65496282311E+03  0.25500000920E-02 0. -1.
        2   -1    0    0  501    0  0.00000000000E+00  0.00000000000E+00 -0.84424181630E+03  0.84424181631E+03  0.25500000920E-02 0.  1.
    10030    2    1    2    0    0  0.00000000000E+00  0.00000000000E+00 -0.18927899320E+03  0.14992046394E+04  0.14872081272E+04 0.  0.
        4    1    3    3  502    0  0.22827458825E+03 -0.47662110086E+03 -0.62199261328E+03  0.81618220104E+03  0.12699999809E+01 0.  1.
       -4    1    3    3    0  502 -0.22827458825E+03  0.47662110086E+03  0.43271362008E+03  0.68302243838E+03  0.12699999809E+01 0. -1.
</event>
<event>
 5   0  0.1812865E-04  0.2048747E+04  0.7818609E-02  0.8584163E-01
        2   -1    0    0  501    0  0.00000000000E+00  0.00000000000E+00  0.16175428030E+04  0.16175428030E+04  0.25500000920E-02 0.  1.
       -2   -1    0    0    0  501  0.00000000000E+00  0.00000000000E+00 -0.64872506670E+03  0.64872506671E+03  0.25500000920E-02 0. -1.
    10030    2    1    2    0    0  0.00000000000E+00  0.00000000000E+00  0.96881773634E+03  0.22662678698E+04  0.20487465073E+04 0.  0.
        3    1    3    3  502    0  0.27897896702E+03 -0.90421073364E+03  0.50436165013E+02  0.94761285967E+03  0.10100000352E+00 0. -1.
       -3    1    3    3    0  502 -0.27897896702E+03  0.90421073364E+03  0.91838157133E+03  0.13186550101E+04  0.10100000352E+00 0.  1.
</event>
<event>
 5   0  0.8861350E-05  0.1895771E+04  0.7818609E-02  0.8656964E-01
       -1   -1    0    0    0  501  0.00000000000E+00  0.00000000000E+00  0.12297816523E+04  0.12297816523E+04  0.50400001928E-02 0.  1.
        1   -1    0    0  501    0  0.00000000000E+00  0.00000000000E+00 -0.73060712765E+03  0.73060712766E+03  0.50400001928E-02 0. -1.
    10030    2    1    2    0    0  0.00000000000E+00  0.00000000000E+00  0.49917452462E+03  0.19603887799E+04  0.18957713371E+04 0.  0.
        1    1    3    3  502    0 -0.74684288487E+03  0.34198552084E+03 -0.23956758961E+03  0.85564070798E+03  0.50400001928E-02 0. -1.
       -1    1    3    3    0  502  0.74684288487E+03 -0.34198552084E+03  0.73874211423E+03  0.11047480720E+04  0.50400001928E-02 0.  1.
</event>
<event>
 5   0  0.1782172E-04  0.2010284E+04  0.7818609E-02  0.8601828E-01
        2   -1    0    0  501    0  0.00000000000E+00  0.00000000000E+00  0.10280253734E+04  0.10280253734E+04  0.25500000920E-02 0.  1.
       -2   -1    0    0    0  501  0.00000000000E+00  0.00000000000E+00 -0.98276781944E+03  0.98276781944E+03  0.25500000920E-02 0. -1.
    10030    2    1    2    0    0  0.00000000000E+00  0.00000000000E+00  0.45257553994E+02  0.20107931929E+04  0.20102838154E+04 0.  0.
        2    1    3    3  502    0  0.11695450458E+03  0.80698000175E+03  0.61049801759E+03  0.10186279541E+04  0.25500000920E-02 0.  1.
       -2    1    3    3    0  502 -0.11695450458E+03 -0.80698000175E+03 -0.56524046359E+03  0.99216523879E+03  0.25500000920E-02 0. -1.
</event>
<event>
 5   0  0.1834645E-04  0.1958689E+04  0.7818609E-02  0.8626182E-01
        2   -1    0    0  501    0  0.00000000000E+00  0.00000000000E+00  0.12594109260E+04  0.12594109260E+04  0.25500000920E-02 0.  1.
       -2   -1    0    0    0  501  0.00000000000E+00  0.00000000000E+00 -0.76155928201E+03  0.76155928202E+03  0.25500000920E-02 0. -1.
    10030    2    1    2    0    0  0.00000000000E+00  0.00000000000E+00  0.49785164399E+03  0.20209702080E+04  0.19586894400E+04 0.  0.
        1    1    3    3  502    0  0.48652225982E+03  0.84994458593E+03  0.24632125341E+03  0.10098434871E+04  0.50400001928E-02 0. -1.
       -1    1    3    3    0  502 -0.48652225982E+03 -0.84994458593E+03  0.25153039058E+03  0.10111267210E+04  0.50400001928E-02 0.  1.
</event>
<event>
 5   0  0.8577422E-05  0.2057067E+04  0.7818609E-02  0.8580395E-01
       -1   -1    0    0    0  501  0.00000000000E+00  0.00000000000E+00  0.83519704716E+03  0.83519704718E+03  0.50400001928E-02 0. -1.
        1   -1    0    0  501    0  0.00000000000E+00  0.00000000000E+00 -0.12666250371E+04  0.12666250371E+04  0.50400001928E-02 0.  1.
    10030    2    1    2    0    0  0.00000000000E+00  0.00000000000E+00 -0.43142798994E+03  0.21018220843E+04  0.20570673211E+04 0.  0.
        2    1    3    3  502    0 -0.35058974996E+03 -0.55047418650E+03 -0.10279600268E+04  0.12176357500E+04  0.25500000920E-02 0.  1.
       -2    1    3    3    0  502  0.35058974996E+03  0.55047418650E+03  0.59653203690E+03  0.88418633434E+03  0.25500000920E-02 0. -1.
</event>
<event>
 5   0  0.8577422E-05  0.2001979E+04  0.7818609E-02  0.8605696E-01
       -1   -1    0    0    0  501  0.00000000000E+00  0.00000000000E+00  0.18430027538E+04  0.18430027538E+04  0.50400001928E-02 0. -1.
        1   -1    0    0  501    0  0.00000000000E+00  0.00000000000E+00 -0.54366707915E+03  0.54366707917E+03  0.50400001928E-02 0.  1.
    10030    2    1    2    0    0  0.00000000000E+00  0.00000000000E+00  0.12993356747E+04  0.23866698330E+04  0.20019789450E+04 0.  0.
        2    1    3    3  502    0 -0.79418354404E+03 -0.37674867862E+03  0.12205507437E+04  0.15041313727E+04  0.25500000920E-02 0. -1.
       -2    1    3    3    0  502  0.79418354404E+03  0.37674867862E+03  0.78784930938E+02  0.88253846025E+03  0.25500000920E-02 0.  1.
</event>
<event>
 5   0  0.1834645E-04  0.1989224E+04  0.7818609E-02  0.8611676E-01
        2   -1    0    0  501    0  0.00000000000E+00  0.00000000000E+00  0.12241101265E+04  0.12241101265E+04  0.25500000920E-02 0. -1.
       -2   -1    0    0    0  501  0.00000000000E+00  0.00000000000E+00 -0.80814039850E+03  0.80814039850E+03  0.25500000920E-02 0.  1.
    10030    2    1    2    0    0  0.00000000000E+00  0.00000000000E+00  0.41596972803E+03  0.20322505250E+04  0.19892238139E+04 0.  0.
        1    1    3    3  502    0  0.50364669657E+03  0.85735803062E+03  0.23150583334E+03  0.10209396351E+04  0.50400001928E-02 0.  1.
       -1    1    3    3    0  502 -0.50364669657E+03 -0.85735803062E+03  0.18446389468E+03  0.10113108899E+04  0.50400001928E-02 0. -1.
</event>
<event>
 5   0  0.1893687E-04  0.2047297E+04  0.7818609E-02  0.8584821E-01
       -2   -1    0    0    0  501  0.00000000000E+00  0.00000000000E+00  0.59304039667E+03  0.59304039667E+03  0.25500000920E-02 0. -1.
        2   -1    0    0  501    0  0.00000000000E+00  0.00000000000E+00 -0.17669225847E+04  0.17669225847E+04  0.25500000920E-02 0.  1.
    10030    2    1    2    0    0  0.00000000000E+00  0.00000000000E+00 -0.11738821881E+04  0.23599629814E+04  0.20472972139E+04 0.  0.
        4    1    3    3  502    0  0.91877891973E+03 -0.21233079242E+03 -0.10460307452E+04  0.14083398033E+04  0.12699999809E+01 0.  1.
       -4    1    3    3    0  502 -0.91877891973E+03  0.21233079242E+03 -0.12785144285E+03  0.95162317810E+03  0.12699999809E+01 0. -1.
</event>
<event>
 5   0  0.1893687E-04  0.1918759E+04  0.7818609E-02  0.8645575E-01
       -2   -1    0    0    0  501  0.00000000000E+00  0.00000000000E+00  0.50138830698E+03  0.50138830699E+03  0.25500000920E-02 0.  1.
        2   -1    0    0  501    0  0.00000000000E+00  0.00000000000E+00 -0.18357217607E+04  0.18357217607E+04  0.25500000920E-02 0. -1.
    10030    2    1    2    0    0  0.00000000000E+00  0.00000000000E+00 -0.13343334537E+04  0.23371100677E+04  0.19187594177E+04 0.  0.
        4    1    3    3  502    0  0.84551839298E+02  0.54641687152E+03 -0.16221280837E+04  0.17137740644E+04  0.12699999809E+01 0. -1.
       -4    1    3    3    0  502 -0.84551839298E+02 -0.54641687152E+03  0.28779463000E+03  0.62333600326E+03  0.12699999809E+01 0.  1.
</event>
<event>
 5   0  0.8765057E-05  0.2025719E+04  0.7818609E-02  0.8594690E-01
        1   -1    0    0  501    0  0.00000000000E+00  0.00000000000E+00  0.13241018414E+04  0.13241018415E+04  0.50400001928E-02 0.  1.
       -1   -1    0    0    0  501  0.00000000000E+00  0.00000000000E+00 -0.77477735648E+03  0.77477735650E+03  0.50400001928E-02 0. -1.
    10030    2    1    2    0    0  0.00000000000E+00  0.00000000000E+00  0.54932448496E+03  0.20988791980E+04  0.20257187608E+04 0.  0.
        3    1    3    3  502    0 -0.23274944261E+03  0.45927169654E+03  0.11783912312E+04  0.12859660564E+04  0.10100000352E+00 0.  1.
       -3    1    3    3    0  502  0.23274944261E+03 -0.45927169654E+03 -0.62906674624E+03  0.81291314155E+03  0.10100000352E+00 0. -1.
</event>
<event>
 5   0  0.8881384E-05  0.1997732E+04  0.7818609E-02  0.8607682E-01
       -1   -1    0    0    0  501  0.00000000000E+00  0.00000000000E+00  0.10124497993E+04  0.10124497993E+04  0.50400001928E-02 0.  1.
        1   -1    0    0  501    0  0.00000000000E+00  0.00000000000E+00 -0.98546459082E+03  0.98546459083E+03  0.50400001928E-02 0. -1.
    10030    2    1    2    0    0  0.00000000000E+00  0.00000000000E+00  0.26985208442E+02  0.19979143901E+04  0.19977321414E+04 0.  0.
        5    1    3    3  502    0 -0.38996023164E+03 -0.84211263004E+03  0.38297004263E+03  0.10039476119E+04  0.46999998093E+01 0.  1.
       -5    1    3    3    0  502  0.38996023164E+03  0.84211263004E+03 -0.35598483419E+03  0.99396677817E+03  0.46999998093E+01 0. -1.
</event>
<event>
 5   0  0.1782172E-04  0.2033916E+04  0.7818609E-02  0.8590926E-01
        2   -1    0    0  501    0  0.00000000000E+00  0.00000000000E+00  0.75110403025E+03  0.75110403026E+03  0.25500000920E-02 0. -1.
       -2   -1    0    0    0  501  0.00000000000E+00  0.00000000000E+00 -0.13769107172E+04  0.13769107172E+04  0.25500000920E-02 0.  1.
    10030    2    1    2    0    0  0.00000000000E+00  0.00000000000E+00 -0.62580668692E+03  0.21280147474E+04  0.20339156216E+04 0.  0.
        2    1    3    3  502    0  0.87905761776E+03  0.49695682333E+03 -0.18693890489E+03  0.10269637451E+04  0.25500000920E-02 0.  1.
       -2    1    3    3    0  502 -0.87905761776E+03 -0.49695682333E+03 -0.43886778203E+03  0.11010510023E+04  0.25500000920E-02 0. -1.
</event>
<event>
 5   0  0.8577422E-05  0.1992620E+04  0.7818609E-02  0.8610079E-01
       -1   -1    0    0    0  501  0.00000000000E+00  0.00000000000E+00  0.10268462516E+04  0.10268462516E+04  0.50400001928E-02 0.  1.
        1   -1    0    0  501    0  0.00000000000E+00  0.00000000000E+00 -0.96668175325E+03  0.96668175326E+03  0.50400001928E-02 0. -1.
    10030    2    1    2    0    0  0.00000000000E+00  0.00000000000E+00  0.60164498377E+02  0.19935280049E+04  0.19926199185E+04 0.  0.
        2    1    3    3  502    0  0.74011474463E+03 -0.47024188864E+03 -0.44314099267E+03  0.98248216698E+03  0.25500000920E-02 0. -1.
       -2    1    3    3    0  502 -0.74011474463E+03  0.47024188864E+03  0.50330549105E+03  0.10110458379E+04  0.25500000920E-02 0.  1.
</event>
<event>
 5   0  0.8577422E-05  0.2012130E+04  0.7818609E-02  0.8600970E-01
       -1   -1    0    0    0  501  0.00000000000E+00  0.00000000000E+00  0.21261554760E+04  0.21261554760E+04  0.50400001928E-02 0. -1.
        1   -1    0    0  501    0  0.00000000000E+00  0.00000000000E+00 -0.47605491131E+03  0.47605491133E+03  0.50400001928E-02 0.  1.
    10030    2    1    2    0    0  0.00000000000E+00  0.00000000000E+00  0.16501005647E+04  0.26022103873E+04  0.20121299725E+04 0.  0.
        2    1    3    3  502    0  0.28452487497E+03 -0.13461465678E+03  0.20608368360E+04  0.20847359484E+04  0.25500000920E-02 0. -1.
       -2    1    3    3    0  502 -0.28452487497E+03  0.13461465678E+03 -0.41073627130E+03  0.51747443885E+03  0.25500000920E-02 0.  1.
</event>
<event>
 5   0  0.8861350E-05  0.1998728E+04  0.7818609E-02  0.8607216E-01
        1   -1    0    0  501    0  0.00000000000E+00  0.00000000000E+00  0.11412443970E+04  0.11412443971E+04  0.50400001928E-02 0. -1.
       -1   -1    0    0    0  501  0.00000000000E+00  0.00000000000E+00 -0.87512239230E+03  0.87512239232E+03  0.50400001928E-02 0.  1.
    10030    2    1    2    0    0  0.00000000000E+00  0.00000000000E+00  0.26612200474E+03  0.20163667894E+04  0.19987281225E+04 0.  0.
        1    1    3    3  502    0  0.42843956251E+03 -0.12082680063E+03 -0.76958026376E+03  0.88905194272E+03  0.50400001928E-02 0.  1.
       -1    1    3    3    0  502 -0.42843956251E+03  0.12082680063E+03  0.10357022685E+04  0.11273148466E+04  0.50400001928E-02 0. -1.
</event>
<event>
 5   0  0.1782172E-04  0.1975855E+04  0.7818609E-02  0.8617993E-01
       -2   -1    0    0    0  501  0.00000000000E+00  0.00000000000E+00  0.77743830278E+03  0.77743830278E+03  0.25500000920E-02 0. -1.
        2   -1    0    0  501    0  0.00000000000E+00  0.00000000000E+00 -0.12554058131E+04  0.12554058131E+04  0.25500000920E-02 0.  1.
    10030    2    1    2    0    0  0.00000000000E+00  0.00000000000E+00 -0.47796751032E+03  0.20328441159E+04  0.19758548172E+04 0.  0.
        2    1    3    3  502    0  0.29288141303E+03  0.85578938307E+03  0.16977329068E+03  0.92031405537E+03  0.25500000920E-02 0. -1.
       -2    1    3    3    0  502 -0.29288141303E+03 -0.85578938307E+03 -0.64774080099E+03  0.11125300605E+04  0.25500000920E-02 0.  1.
</event>
<event>
 5   0  0.1893687E-04  0.1718340E+04  0.7818609E-02  0.8750973E-01
        2   -1    0    0  501    0  0.00000000000E+00  0.00000000000E+00  0.13248077755E+04  0.13248077755E+04  0.25500000920E-02 0. -1.
       -2   -1    0    0    0  501  0.00000000000E+00  0.00000000000E+00 -0.55719250629E+03  0.55719250630E+03  0.25500000920E-02 0.  1.
    10030    2    1    2    0    0  0.00000000000E+00  0.00000000000E+00  0.76761526919E+03  0.18820002818E+04  0.17183398555E+04 0.  0.
        4    1    3    3  502    0  0.25189587117E+03 -0.57030011334E+03  0.10312785950E+04  0.12050854338E+04  0.12699999809E+01 0.  1.
       -4    1    3    3    0  502 -0.25189587117E+03  0.57030011334E+03 -0.26366332583E+03  0.67691484803E+03  0.12699999809E+01 0. -1.
</event>
<event>
 5   0  0.8861350E-05  0.2003635E+04  0.7818609E-02  0.8604923E-01
        1   -1    0    0  501    0  0.00000000000E+00  0.00000000000E+00  0.11163161140E+04  0.11163161140E+04  0.50400001928E-02 0.  1.
       -1   -1    0    0    0  501  0.00000000000E+00  0.00000000000E+00 -0.89906249314E+03  0.89906249315E+03  0.50400001928E-02 0. -1.
    10030    2    1    2    0    0  0.00000000000E+00  0.00000000000E+00  0.21725362085E+03  0.20153786071E+04  0.20036346459E+04 0.  0.
        1    1    3    3  502    0  0.82832015646E+03  0.49408568943E+03  0.38114469689E+03  0.10370661648E+04  0.50400001928E-02 0.  1.
       -1    1    3    3    0  502 -0.82832015646E+03 -0.49408568943E+03 -0.16389107605E+03  0.97831244239E+03  0.50400001928E-02 0. -1.
</event>
<event>
 5   0  0.1834645E-04  0.2008624E+04  0.7818609E-02  0.8602599E-01
        2   -1    0    0  501    0  0.00000000000E+00  0.00000000000E+00  0.26138773094E+04  0.26138773094E+04  0.25500000920E-02 0.  1.
       -2   -1    0    0    0  501  0.00000000000E+00  0.00000000000E+00 -0.38587971977E+03  0.38587971978E+03  0.25500000920E-02 0. -1.
    10030    2    1    2    0    0  0.00000000000E+00  0.00000000000E+00  0.22279975896E+04  0.29997570292E+04  0.20086236518E+04 0.  0.
        1    1    3    3  502    0 -0.37883060500E+03  0.88222208309E+03  0.67396916420E+03  0.11730570598E+04  0.50400001928E-02 0. -1.
       -1    1    3    3    0  502  0.37883060500E+03 -0.88222208309E+03  0.15540284254E+04  0.18266999694E+04  0.50400001928E-02 0.  1.
</event>
<event>
 5   0  0.8577422E-05  0.2027157E+04  0.7818609E-02  0.8594028E-01
       -1   -1    0    0    0  501  0.00000000000E+00  0.00000000000E+00  0.14721386706E+04  0.14721386706E+04  0.50400001928E-02 0.  1.
        1   -1    0    0  501    0  0.00000000000E+00  0.00000000000E+00 -0.69785627780E+03  0.69785627782E+03  0.50400001928E-02 0. -1.
    10030    2    1    2    0    0  0.00000000000E+00  0.00000000000E+00  0.77428239280E+03  0.21699949484E+04  0.20271568396E+04 0.  0.
        2    1    3    3  502    0  0.23436387873E+03  0.82341359792E+03 -0.19368184795E+03  0.87775226523E+03  0.25500000920E-02 0.  1.
       -2    1    3    3    0  502 -0.23436387873E+03 -0.82341359792E+03  0.96796424075E+03  0.12922426832E+04  0.25500000920E-02 0. -1.
</event>
<event>
 5   0  0.8861350E-05  0.1958964E+04  0.7818609E-02  0.8626051E-01
        1   -1    0    0  501    0  0.00000000000E+00  0.00000000000E+00  0.14766540443E+04  0.14766540443E+04  0.50400001928E-02 0.  1.
       -1   -1    0    0    0  501  0.00000000000E+00  0.00000000000E+00 -0.64970161232E+03  0.64970161234E+03  0.50400001928E-02 0. -1.
    10030    2    1    2    0    0  0.00000000000E+00  0.00000000000E+00  0.82695243200E+03  0.21263556567E+04  0.19589635152E+04 0.  0.
        1    1    3    3  502    0 -0.69531988868E+03 -0.45569180033E+03  0.97567165280E+03  0.12818189960E+04  0.50400001928E-02 0.  1.
       -1    1    3    3    0  502  0.69531988868E+03  0.45569180033E+03 -0.14871922080E+03  0.84453666063E+03  0.50400001928E-02 0. -1.
</event>
<event>
 5   0  0.8765057E-05  0.1461913E+04  0.7818609E-02  0.8910183E-01
       -1   -1    0    0    0  501  0.00000000000E+00  0.00000000000E+00  0.81339668690E+03  0.81339668692E+03  0.50400001928E-02 0. -1.
        1   -1    0    0  501    0  0.00000000000E+00  0.00000000000E+00 -0.65687150965E+03  0.65687150967E+03  0.50400001928E-02 0.  1.
    10030    2    1    2    0    0  0.00000000000E+00  0.00000000000E+00  0.15652517725E+03  0.14702681966E+04  0.14619125962E+04 0.  0.
        3    1    3    3  502    0  0.26567097411E+03  0.30136082603E+03  0.69240628551E+03  0.80051601381E+03  0.10100000352E+00 0. -1.
       -3    1    3    3    0  502 -0.26567097411E+03 -0.30136082603E+03 -0.53588110826E+03  0.66975218278E+03  0.10100000352E+00 0.  1.
</event>
<event>
 5   0  0.8861350E-05  0.2003227E+04  0.7818609E-02  0.8605114E-01
       -1   -1    0    0    0  501  0.00000000000E+00  0.00000000000E+00  0.15188307030E+04  0.15188307030E+04  0.50400001928E-02 0.  1.
        1   -1    0    0  501    0  0.00000000000E+00  0.00000000000E+00 -0.66052738326E+03  0.66052738328E+03  0.50400001928E-02 0. -1.
    10030    2    1    2    0    0  0.00000000000E+00  0.00000000000E+00  0.85830331972E+03  0.21793580863E+04  0.20032266670E+04 0.  0.
        1    1    3    3  502    0 -0.21772234458E+03 -0.89781474369E+03  0.81448942591E+01  0.92387264958E+03  0.50400001928E-02 0. -1.
       -1    1    3    3    0  502  0.21772234458E+03  0.89781474369E+03  0.85015842546E+03  0.12554854367E+04  0.50400001928E-02 0.  1.
</event>
<event>
 5   0  0.8861350E-05  0.1975116E+04  0.7818609E-02  0.8618344E-01
       -1   -1    0    0    0  501  0.00000000000E+00  0.00000000000E+00  0.68752506592E+03  0.68752506594E+03  0.50400001928E-02 0.  1.
        1   -1    0    0  501    0  0.00000000000E+00  0.00000000000E+00 -0.14185237377E+04  0.14185237377E+04  0.50400001928E-02 0. -1.
    10030    2    1    2    0    0  0.00000000000E+00  0.00000000000E+00 -0.73099867177E+03  0.21060488036E+04  0.19751158207E+04 0.  0.
        1    1    3    3  502    0 -0.24966646037E+03  0.56716267618E+03  0.45441126630E+03  0.76843766283E+03  0.50400001928E-02 0.  1.
       -1    1    3    3    0  502  0.24966646037E+03 -0.56716267618E+03 -0.11854099381E+04  0.13376111408E+04  0.50400001928E-02 0. -1.
</event>
<event>
 5   0  0.8577422E-05  0.1995294E+04  0.7818609E-02  0.8608824E-01
        1   -1    0    0  501    0  0.00000000000E+00  0.00000000000E+00  0.96265051055E+03  0.96265051057E+03  0.50400001928E-02 0. -1.
       -1   -1    0    0    0  501  0.00000000000E+00  0.00000000000E+00 -0.10339154555E+04  0.10339154555E+04  0.50400001928E-02 0.  1.
    10030    2    1    2    0    0  0.00000000000E+00  0.00000000000E+00 -0.71264944915E+02  0.19965659660E+04  0.19952937038E+04 0.  0.
        2    1    3    3  502    0 -0.75010625697E+03  0.60201836852E+03  0.22951521816E+03  0.98881886519E+03  0.25500000920E-02 0. -1.
       -2    1    3    3    0  502  0.75010625697E+03 -0.60201836852E+03 -0.30078016308E+03  0.10077471009E+04  0.25500000920E-02 0.  1.
</event>
<event>
 5   0  0.8861350E-05  0.1989904E+04  0.7818609E-02  0.8611356E-01
       -1   -1    0    0    0  501  0.00000000000E+00  0.00000000000E+00  0.95537456712E+03  0.95537456713E+03  0.50400001928E-02 0. -1.
        1   -1    0    0  501    0  0.00000000000E+00  0.00000000000E+00 -0.10361686700E+04  0.10361686700E+04  0.50400001928E-02 0.  1.
    10030    2    1    2    0    0  0.00000000000E+00  0.00000000000E+00 -0.80794102844E+02  0.19915432371E+04  0.19899037108E+04 0.  0.
        1    1    3    3  502    0 -0.71833732713E+03  0.42803196797E+03 -0.58001594895E+03  0.10176631968E+04  0.50400001928E-02 0.  1.
       -1    1    3    3    0  502  0.71833732713E+03 -0.42803196797E+03  0.49922184610E+03  0.97388004025E+03  0.50400001928E-02 0. -1.
</event>
<event>
 5   0  0.1782172E-04  0.1989061E+04  0.7818609E-02  0.8611752E-01
        2   -1    0    0  501    0  0.00000000000E+00  0.00000000000E+00  0.10547374922E+04  0.10547374922E+04  0.25500000920E-02 0. -1.
       -2   -1    0    0    0  501  0.00000000000E+00  0.00000000000E+00 -0.93776041335E+03  0.93776041335E+03  0.25500000920E-02 0.  1.
    10030    2    1    2    0    0  0.00000000000E+00  0.00000000000E+00  0.11697707884E+03  0.19924979055E+04  0.19890611521E+04 0.  0.
        2    1    3    3  502    0  0.43307447296E+03  0.12812260459E+03  0.94609071387E+03  0.10483589747E+04  0.25500000920E-02 0. -1.
       -2    1    3    3    0  502 -0.43307447296E+03 -0.12812260459E+03 -0.82911363503E+03  0.94413893085E+03  0.25500000920E-02 0.  1.
</event>
<event>
 5   0  0.8577422E-05  0.1907932E+04  0.7818609E-02  0.8650918E-01
       -1   -1    0    0    0  501  0.00000000000E+00  0.00000000000E+00  0.11418674044E+04  0.11418674044E+04  0.50400001928E-02 0. -1.
        1   -1    0    0  501    0  0.00000000000E+00  0.00000000000E+00 -0.79698528323E+03  0.79698528325E+03  0.50400001928E-02 0.  1.
    10030    2    1    2    0    0  0.00000000000E+00  0.00000000000E+00  0.34488212113E+03  0.19388526876E+04  0.19079324062E+04 0.  0.
        2    1    3    3  502    0  0.67297793639E+02 -0.88208852723E+03  0.53521720469E+03  0.10339567782E+04  0.25500000920E-02 0.  1.
       -2    1    3    3    0  502 -0.67297793639E+02  0.88208852723E+03 -0.19033508356E+03  0.90489590945E+03  0.25500000920E-02 0. -1.
</event>
<event>
 5   0  0.8881384E-05  0.2005407E+04  0.7818609E-02  0.8604097E-01
       -1   -1    0    0    0  501  0.00000000000E+00  0.00000000000E+00  0.66641040804E+03  0.66641040806E+03  0.50400001928E-02 0. -1.
        1   -1    0    0  501    0  0.00000000000E+00  0.00000000000E+00 -0.15087012050E+04  0.15087012051E+04  0.50400001928E-02 0.  1.
    10030    2    1    2    0    0  0.00000000000E+00  0.00000000000E+00 -0.84229079700E+03  0.21751116131E+04  0.20054068771E+04 0.  0.
        5    1    3    3  502    0  0.47024100259E+02  0.69978411105E+03  0.35607124808E+03  0.78658622654E+03  0.46999998093E+01 0. -1.
       -5    1    3    3    0  502 -0.47024100259E+02 -0.69978411105E+03 -0.11983620451E+04  0.13885253866E+04  0.46999998093E+01 0.  1.
</event>
<event>
 5   0  0.1834645E-04  0.2033395E+04  0.7818609E-02  0.8591165E-01
       -2   -1    0    0    0  501  0.00000000000E+00  0.00000000000E+00  0.12697792777E+04  0.12697792777E+04  0.25500000920E-02 0. -1.
        2   -1    0    0  501    0  0.00000000000E+00  0.00000000000E+00 -0.81405798109E+03  0.81405798109E+03  0.25500000920E-02 0.  1.
    10030    2    1    2    0    0  0.00000000000E+00  0.00000000000E+00  0.45572129665E+03  0.20838372588E+04  0.20333951463E+04 0.  0.
        1    1    3    3  502    0  0.13161820990E+03  0.14517652561E+03 -0.79452190177E+03  0.81833039121E+03  0.50400001928E-02 0.  1.
       -1    1    3    3    0  502 -0.13161820990E+03 -0.14517652561E+03  0.12502431984E+04  0.12655068676E+04  0.50400001928E-02 0. -1.
</event>
<event>
 5   0  0.1834645E-04  0.2019194E+04  0.7818609E-02  0.8597699E-01
        2   -1    0    0  501    0  0.00000000000E+00  0.00000000000E+00  0.23457194408E+04  0.23457194408E+04  0.25500000920E-02 0.  1.
       -2   -1    0    0    0  501  0.00000000000E+00  0.00000000000E+00 -0.43453044179E+03  0.43453044180E+03  0.25500000920E-02 0. -1.
    10030    2    1    2    0    0  0.00000000000E+00  0.00000000000E+00  0.19111889990E+04  0.27802498826E+04  0.20191943987E+04 0.  0.
        1    1    3    3  502    0  0.18508672492E+02 -0.96974299901E+03  0.13414795197E+04  0.16553885818E+04  0.50400001928E-02 0.  1.
       -1    1    3    3    0  502 -0.18508672492E+02  0.96974299901E+03  0.56970947929E+03  0.11248613007E+04  0.50400001928E-02 0. -1.
</event>
<event>
 5   0  0.1782172E-04  0.1743454E+04  0.7818609E-02  0.8736962E-01
       -2   -1    0    0    0  501  0.00000000000E+00  0.00000000000E+00  0.45256716909E+03  0.45256716909E+03  0.25500000920E-02 0.  1.
        2   -1    0    0  501    0  0.00000000000E+00  0.00000000000E+00 -0.16791053925E+04  0.16791053925E+04  0.25500000920E-02 0. -1.
    10030    2    1    2    0    0  0.00000000000E+00  0.00000000000E+00 -0.12265382234E+04  0.21316725616E+04  0.17434540133E+04 0.  0.
        2    1    3    3  502    0 -0.60266812340E+03 -0.55963074699E+03 -0.25993478650E+03  0.86253204763E+03  0.25500000920E-02 0.  1.
       -2    1    3    3    0  502  0.60266812340E+03  0.55963074699E+03 -0.96660343693E+03  0.12691405140E+04  0.25500000920E-02 0. -1.
</event>
<event>
 5   0  0.1807498E-04  0.2042580E+04  0.7818609E-02  0.8586968E-01
        2   -1    0    0  501    0  0.00000000000E+00  0.00000000000E+00  0.14010552639E+04  0.14010552639E+04  0.25500000920E-02 0. -1.
       -2   -1    0    0    0  501  0.00000000000E+00  0.00000000000E+00 -0.74446269325E+03  0.74446269325E+03  0.25500000920E-02 0.  1.
    10030    2    1    2    0    0  0.00000000000E+00  0.00000000000E+00  0.65659257063E+03  0.21455179571E+04  0.20425801087E+04 0.  0.
        5    1    3    3  502    0  0.17374011444E+02  0.39970664489E+03  0.13153019425E+04  0.13748121865E+04  0.46999998093E+01 0. -1.
       -5    1    3    3    0  502 -0.17374011444E+02 -0.39970664489E+03 -0.65870937188E+03  0.77070577060E+03  0.46999998093E+01 0.  1.
</event>
<event>
 5   0  0.8958919E-05  0.1989626E+04  0.7818609E-02  0.8611486E-01
       -1   -1    0    0    0  501  0.00000000000E+00  0.00000000000E+00  0.58197492202E+03  0.58197492204E+03  0.50400001928E-02 0.  1.
        1   -1    0    0  501    0  0.00000000000E+00  0.00000000000E+00 -0.17005073315E+04  0.17005073315E+04  0.50400001928E-02 0. -1.
    10030    2    1    2    0    0  0.00000000000E+00  0.00000000000E+00 -0.11185324095E+04  0.22824822535E+04  0.19896257152E+04 0.  0.
        4    1    3    3  502    0  0.75344817139E+03  0.46816352492E+03 -0.42660673715E+02  0.88807813790E+03  0.12699999809E+01 0.  1.
       -4    1    3    3    0  502 -0.75344817139E+03 -0.46816352492E+03 -0.10758717358E+04  0.13944041156E+04  0.12699999809E+01 0. -1.
</event>
<event>
 5   0  0.1834645E-04  0.2110034E+04  0.7818609E-02  0.8556836E-01
        2   -1    0    0  501    0  0.00000000000E+00  0.00000000000E+00  0.73227492862E+03  0.73227492862E+03  0.25500000920E-02 0.  1.
       -2   -1    0    0    0  501  0.00000000000E+00  0.00000000000E+00 -0.15200038156E+04  0.15200038156E+04  0.25500000920E-02 0. -1.
    10030    2    1    2    0    0  0.00000000000E+00  0.00000000000E+00 -0.78772888700E+03  0.22522787442E+04  0.21100338249E+04 0.  0.
        1    1    3    3  502    0 -0.18098200161E+02 -0.19481373454E+03 -0.15004695258E+04  0.15131717464E+04  0.50400001928E-02 0. -1.
       -1    1    3    3    0  502  0.18098200161E+02  0.19481373454E+03  0.71274063884E+03  0.73910699787E+03  0.50400001928E-02 0.  1.
</event>
<event>
 5   0  0.8861350E-05  0.1960827E+04  0.7818609E-02  0.8625158E-01
       -1   -1    0    0    0  501  0.00000000000E+00  0.00000000000E+00  0.13682228350E+04  0.13682228350E+04  0.50400001928E-02 0.  1.
        1   -1    0    0  501    0  0.00000000000E+00  0.00000000000E+00 -0.70252481589E+03  0.70252481591E+03  0.50400001928E-02 0. -1.
    10030    2    1    2    0    0  0.00000000000E+00  0.00000000000E+00  0.66569801912E+03  0.20707476509E+04  0.19608268616E+04 0.  0.
        1    1    3    3  502    0  0.18323555669E+03 -0.26248565890E+03 -0.64577956459E+03  0.72076711664E+03  0.50400001928E-02 0. -1.
       -1    1    3    3    0  502 -0.18323555669E+03  0.26248565890E+03  0.13114775837E+04  0.13499805343E+04  0.50400001928E-02 0.  1.
</event>
<event>
 5   0  0.8577422E-05  0.1588484E+04  0.7818609E-02  0.8827654E-01
        1   -1    0    0  501    0  0.00000000000E+00  0.00000000000E+00  0.15904621175E+04  0.15904621175E+04  0.50400001928E-02 0. -1.
       -1   -1    0    0    0  501  0.00000000000E+00  0.00000000000E+00 -0.39662710181E+03  0.39662710184E+03  0.50400001928E-02 0.  1.
    10030    2    1    2    0    0  0.00000000000E+00  0.00000000000E+00  0.11938350157E+04  0.19870892193E+04  0.15884840323E+04 0.  0.
        2    1    3    3  502    0  0.49801886417E+03  0.29116404511E+03 -0.85983907740E+02  0.58326025291E+03  0.25500000920E-02 0.  1.
       -2    1    3    3    0  502 -0.49801886417E+03 -0.29116404511E+03  0.12798189234E+04  0.14038289664E+04  0.25500000920E-02 0. -1.
</event>
<event>
 5   0  0.8861350E-05  0.1999797E+04  0.7818609E-02  0.8606715E-01
        1   -1    0    0  501    0  0.00000000000E+00  0.00000000000E+00  0.73326259048E+03  0.73326259050E+03  0.50400001928E-02 0.  1.
       -1   -1    0    0    0  501  0.00000000000E+00  0.00000000000E+00 -0.13634913693E+04  0.13634913693E+04  0.50400001928E-02 0. -1.
    10030    2    1    2    0    0  0.00000000000E+00  0.00000000000E+00 -0.63022877885E+03  0.20967539598E+04  0.19997972033E+04 0.  0.
        1    1    3    3  502    0 -0.14233461720E+03 -0.94048836045E+03  0.80833950697E+01  0.95123227484E+03  0.50400001928E-02 0.  1.
       -1    1    3    3    0  502  0.14233461720E+03  0.94048836045E+03 -0.63831217392E+03  0.11455216850E+04  0.50400001928E-02 0. -1.
</event>
<event>
 5   0  0.8881384E-05  0.1981506E+04  0.7818609E-02  0.8615316E-01
        1   -1    0    0  501    0  0.00000000000E+00  0.00000000000E+00  0.19205343072E+04  0.19205343072E+04  0.50400001928E-02 0. -1.
       -1   -1    0    0    0  501  0.00000000000E+00  0.00000000000E+00 -0.51110343407E+03  0.51110343410E+03  0.50400001928E-02 0.  1.
    10030    2    1    2    0    0  0.00000000000E+00  0.00000000000E+00  0.14094308731E+04  0.24316377413E+04  0.19815061743E+04 0.  0.
        5    1    3    3  502    0  0.50158352251E+03  0.82430783322E+03  0.98048720507E+03  0.13756622708E+04  0.46999998093E+01 0. -1.
       -5    1    3    3    0  502 -0.50158352251E+03 -0.82430783322E+03  0.42894366805E+03  0.10559754705E+04  0.46999998093E+01 0.  1.
</event>
<event>
 5   0  0.8577422E-05  0.1996941E+04  0.7818609E-02  0.8608052E-01
        1   -1    0    0  501    0  0.00000000000E+00  0.00000000000E+00  0.74017260777E+03  0.74017260779E+03  0.50400001928E-02 0. -1.
       -1   -1    0    0    0  501  0.00000000000E+00  0.00000000000E+00 -0.13469059779E+04  0.13469059779E+04  0.50400001928E-02 0.  1.
    10030    2    1    2    0    0  0.00000000000E+00  0.00000000000E+00 -0.60673337010E+03  0.20870785857E+04  0.19969405701E+04 0.  0.
        2    1    3    3  502    0 -0.60103631840E+03 -0.70327530697E+03 -0.69595773566E+03  0.11576692029E+04  0.25500000920E-02 0. -1.
       -2    1    3    3    0  502  0.60103631840E+03  0.70327530697E+03  0.89224365562E+02  0.92940938280E+03  0.25500000920E-02 0.  1.
</event>
<event>
 5   0  0.1834645E-04  0.1981475E+04  0.7818609E-02  0.8615331E-01
       -2   -1    0    0    0  501  0.00000000000E+00  0.00000000000E+00  0.10967644056E+04  0.10967644056E+04  0.25500000920E-02 0. -1.
        2   -1    0    0  501    0  0.00000000000E+00  0.00000000000E+00 -0.89496021616E+03  0.89496021617E+03  0.25500000920E-02 0.  1.
    10030    2    1    2    0    0  0.00000000000E+00  0.00000000000E+00  0.20180418944E+03  0.19917246218E+04  0.19814747130E+04 0.  0.
        1    1    3    3  502    0  0.25277430610E+03 -0.28763294899E+03 -0.81757125013E+03  0.90280136920E+03  0.50400001928E-02 0.  1.
       -1    1    3    3    0  502 -0.25277430610E+03  0.28763294899E+03  0.10193754396E+04  0.10889232526E+04  0.50400001928E-02 0. -1.
</event>
<event>
 5   0  0.1812865E-04  0.1996829E+04  0.7818609E-02  0.8608105E-01
       -2   -1    0    0    0  501  0.00000000000E+00  0.00000000000E+00  0.69268915988E+03  0.69268915988E+03  0.25500000920E-02 0.  1.
        2   -1    0    0  501    0  0.00000000000E+00  0.00000000000E+00 -0.14390746507E+04  0.14390746507E+04  0.25500000920E-02 0. -1.
    10030    2    1    2    0    0  0.00000000000E+00  0.00000000000E+00 -0.74638549078E+03  0.21317638105E+04  0.19968288968E+04 0.  0.
        3    1    3    3  502    0 -0.23993080911E+03 -0.70807335436E+03  0.33326157349E+03  0.81853402793E+03  0.10100000352E+00 0.  1.
       -3    1    3    3    0  502  0.23993080911E+03  0.70807335436E+03 -0.10796470643E+04  0.13132297826E+04  0.10100000352E+00 0. -1.
</event>
<event>
 5   0  0.8861350E-05  0.2047236E+04  0.7818609E-02  0.8584849E-01
        1   -1    0    0  501    0  0.00000000000E+00  0.00000000000E+00  0.14720179649E+04  0.14720179649E+04  0.50400001928E-02 0.  1.
       -1   -1    0    0    0  501  0.00000000000E+00  0.00000000000E+00 -0.71180763794E+03  0.71180763796E+03  0.50400001928E-02 0. -1.
    10030    2    1    2    0    0  0.00000000000E+00  0.00000000000E+00  0.76021032699E+03  0.21838256029E+04  0.20472358249E+04 0.  0.
        1    1    3    3  502    0  0.99895703218E+03 -0.96029016579E+02  0.16501663626E+03  0.10170384528E+04  0.50400001928E-02 0.  1.
       -1    1    3    3    0  502 -0.99895703218E+03  0.96029016579E+02  0.59519369073E+03  0.11667871501E+04  0.50400001928E-02 0. -1.
</event>
<event>
 5   0  0.8577422E-05  0.2004350E+04  0.7818609E-02  0.8604590E-01
        1   -1    0    0  501    0  0.00000000000E+00  0.00000000000E+00  0.11979828673E+04  0.11979828673E+04  0.50400001928E-02 0. -1.
       -1   -1    0    0    0  501  0.00000000000E+00  0.00000000000E+00 -0.83837161617E+03  0.83837161619E+03  0.50400001928E-02 0.  1.
    10030    2    1    2    0    0  0.00000000000E+00  0.00000000000E+00  0.35961125113E+03  0.20363544835E+04  0.20043501018E+04 0.  0.
        2    1    3    3  502    0 -0.67931926353E+03 -0.49528558198E+03 -0.37440659208E+03  0.92030580011E+03  0.25500000920E-02 0.  1.
       -2    1    3    3    0  502  0.67931926353E+03  0.49528558198E+03  0.73401784322E+03  0.11160486834E+04  0.25500000920E-02 0. -1.
</event>
<event>
 5   0  0.8861350E-05  0.1986124E+04  0.7818609E-02  0.8613136E-01
       -1   -1    0    0    0  501  0.00000000000E+00  0.00000000000E+00  0.68905251455E+03  0.68905251457E+03  0.50400001928E-02 0.  1.
        1   -1    0    0  501    0  0.00000000000E+00  0.00000000000E+00 -0.14312007329E+04  0.14312007329E+04  0.50400001928E-02 0. -1.
    10030    2    1    2    0    0  0.00000000000E+00  0.00000000000E+00 -0.74214821834E+03  0.21202532475E+04  0.19861243303E+04 0.  0.
        1    1    3    3  502    0 -0.52807365177E+03 -0.58947790012E+03 -0.10114395267E+04  0.12842725149E+04  0.50400001928E-02 0. -1.
       -1    1    3    3    0  502  0.52807365177E+03  0.58947790012E+03  0.26929130834E+03  0.83598073255E+03  0.50400001928E-02 0.  1.
</event>
<event>
 5   0  0.8577422E-05  0.1612054E+04  0.7818609E-02  0.8813177E-01
       -1   -1    0    0    0  501  0.00000000000E+00  0.00000000000E+00  0.67551793039E+03  0.67551793041E+03  0.50400001928E-02 0. -1.
        1   -1    0    0  501    0  0.00000000000E+00  0.00000000000E+00 -0.96175011401E+03  0.96175011403E+03  0.50400001928E-02 0.  1.
    10030    2    1    2    0    0  0.00000000000E+00  0.00000000000E+00 -0.28623218362E+03  0.16372680444E+04  0.16120539031E+04 0.  0.
        2    1    3    3  502    0 -0.44553292579E+03  0.31938193358E+03 -0.74326887065E+03  0.92355455797E+03  0.25500000920E-02 0.  1.
       -2    1    3    3    0  502  0.44553292579E+03 -0.31938193358E+03  0.45703668703E+03  0.71371348646E+03  0.25500000920E-02 0. -1.
</event>
<event>
 5   0  0.8765057E-05  0.1983583E+04  0.7818609E-02  0.8614335E-01
       -1   -1    0    0    0  501  0.00000000000E+00  0.00000000000E+00  0.55839793885E+03  0.55839793887E+03  0.50400001928E-02 0. -1.
        1   -1    0    0  501    0  0.00000000000E+00  0.00000000000E+00 -0.17615587507E+04  0.17615587507E+04  0.50400001928E-02 0.  1.
    10030    2    1    2    0    0  0.00000000000E+00  0.00000000000E+00 -0.12031608118E+04  0.23199566896E+04  0.19835833994E+04 0.  0.
        3    1    3    3  502    0 -0.51161797836E+01  0.16704691006E+03  0.54181049365E+03  0.56700041154E+03  0.10100000352E+00 0. -1.
       -3    1    3    3    0  502  0.51161797836E+01 -0.16704691006E+03 -0.17449713055E+04  0.17529562780E+04  0.10100000352E+00 0.  1.
</event>
<event>
 5   0  0.1834645E-04  0.2004526E+04  0.7818609E-02  0.8604508E-01
       -2   -1    0    0    0  501  0.00000000000E+00  0.00000000000E+00  0.88688034562E+03  0.88688034563E+03  0.25500000920E-02 0.  1.
        2   -1    0    0  501    0  0.00000000000E+00  0.00000000000E+00 -0.11326563591E+04  0.11326563591E+04  0.25500000920E-02 0. -1.
    10030    2    1    2    0    0  0.00000000000E+00  0.00000000000E+00 -0.24577601343E+03  0.20195367047E+04  0.20045255431E+04 0.  0.
        1    1    3    3  502    0  0.58172980074E+02 -0.24446517585E+03 -0.11004029640E+04  0.11287311465E+04  0.50400001928E-02 0. -1.
       -1    1    3    3    0  502 -0.58172980074E+02  0.24446517585E+03  0.85462695059E+03  0.89080555819E+03  0.50400001928E-02 0.  1.
</event>
<event>
 5   0  0.8881384E-05  0.1968202E+04  0.7818609E-02  0.8621633E-01
       -1   -1    0    0    0  501  0.00000000000E+00  0.00000000000E+00  0.99292906966E+03  0.99292906968E+03  0.50400001928E-02 0.  1.
        1   -1    0    0  501    0  0.00000000000E+00  0.00000000000E+00 -0.97535096829E+03  0.97535096830E+03  0.50400001928E-02 0. -1.
    10030    2    1    2    0    0  0.00000000000E+00  0.00000000000E+00  0.17578101374E+02  0.19682800380E+04  0.19682015441E+04 0.  0.
        5    1    3    3  502    0 -0.24395267702E+03  0.26842324881E+03 -0.90605248864E+03  0.97596985163E+03  0.46999998093E+01 0. -1.
       -5    1    3    3    0  502  0.24395267702E+03 -0.26842324881E+03  0.92363059001E+03  0.99231018635E+03  0.46999998093E+01 0.  1.
</event>
<event>
 5   0  0.1782172E-04  0.2029139E+04  0.7818609E-02  0.8593117E-01
        2   -1    0    0  501    0  0.00000000000E+00  0.00000000000E+00  0.87078918968E+03  0.87078918968E+03  0.25500000920E-02 0.  1.
       -2   -1    0    0    0  501  0.00000000000E+00  0.00000000000E+00 -0.11820895366E+04  0.11820895366E+04  0.25500000920E-02 0. -1.
    10030    2    1    2    0    0  0.00000000000E+00  0.00000000000E+00 -0.31130034697E+03  0.20528787263E+04  0.20291385263E+04 0.  0.
        2    1    3    3  502    0 -0.47039875301E+03  0.84484562675E+03  0.15504486268E+03  0.97932529290E+03  0.25500000920E-02 0.  1.
       -2    1    3    3    0  502  0.47039875301E+03 -0.84484562675E+03 -0.46634520965E+03  0.10735534334E+04  0.25500000920E-02 0. -1.
</event>
<event>
 5   0  0.8577422E-05  0.2015037E+04  0.7818609E-02  0.8599623E-01
        1   -1    0    0  501    0  0.00000000000E+00  0.00000000000E+00  0.19365396695E+04  0.19365396695E+04  0.50400001928E-02 0. -1.
       -1   -1    0    0    0  501  0.00000000000E+00  0.00000000000E+00 -0.52417902519E+03  0.52417902521E+03  0.50400001928E-02 0.  1.
    10030    2    1    2    0    0  0.00000000000E+00  0.00000000000E+00  0.14123606443E+04  0.24607186947E+04  0.20150369488E+04 0.  0.
        2    1    3    3  502    0 -0.17178594887E+03 -0.39182818140E+02 -0.50521821708E+03  0.53506182105E+03  0.25500000920E-02 0.  1.
       -2    1    3    3    0  502  0.17178594887E+03  0.39182818140E+02  0.19175788614E+04  0.19256568737E+04  0.25500000920E-02 0. -1.
</event>
<event>
 5   0  0.1812865E-04  0.1854536E+04  0.7818609E-02  0.8677824E-01
        2   -1    0    0  501    0  0.00000000000E+00  0.00000000000E+00  0.83918120331E+03  0.83918120331E+03  0.25500000920E-02 0. -1.
       -2   -1    0    0    0  501  0.00000000000E+00  0.00000000000E+00 -0.10246010261E+04  0.10246010261E+04  0.25500000920E-02 0.  1.
    10030    2    1    2    0    0  0.00000000000E+00  0.00000000000E+00 -0.18541982279E+03  0.18637822294E+04  0.18545359765E+04 0.  0.
        3    1    3    3  502    0 -0.28878800460E+03 -0.28425324781E+02  0.79237357069E+03  0.84383789700E+03  0.10100000352E+00 0. -1.
       -3    1    3    3    0  502  0.28878800460E+03  0.28425324781E+02 -0.97779339347E+03  0.10199443324E+04  0.10100000352E+00 0.  1.
</event>
<event>
 5   0  0.8861350E-05  0.2031333E+04  0.7818609E-02  0.8592110E-01
        1   -1    0    0  501    0  0.00000000000E+00  0.00000000000E+00  0.90405164552E+03  0.90405164554E+03  0.50400001928E-02 0.  1.
       -1   -1    0    0    0  501  0.00000000000E+00  0.00000000000E+00 -0.11410617821E+04  0.11410617821E+04  0.50400001928E-02 0. -1.
    10030    2    1    2    0    0  0.00000000000E+00  0.00000000000E+00 -0.23701013653E+03  0.20451134276E+04  0.20313333372E+04 0.  0.
        1    1    3    3  502    0 -0.56147715436E+02  0.72319549532E+03  0.59724277677E+03  0.93960801659E+03  0.50400001928E-02 0. -1.
       -1    1    3    3    0  502  0.56147715436E+02 -0.72319549532E+03 -0.83425291330E+03  0.11055054110E+04  0.50400001928E-02 0.  1.
</event>
<event>
 5   0  0.1812865E-04  0.2010431E+04  0.7818609E-02  0.8601759E-01
        2   -1    0    0  501    0  0.00000000000E+00  0.00000000000E+00  0.10268292400E+04  0.10268292400E+04  0.25500000920E-02 0.  1.
       -2   -1    0    0    0  501  0.00000000000E+00  0.00000000000E+00 -0.98405675529E+03  0.98405675529E+03  0.25500000920E-02 0. -1.
    10030    2    1    2    0    0  0.00000000000E+00  0.00000000000E+00  0.42772484730E+02  0.20108859953E+04  0.20104310485E+04 0.  0.
        3    1    3    3  502    0  0.20327000262E+03 -0.52591707920E+03 -0.81099843211E+03  0.98773778669E+03  0.10100000352E+00 0. -1.
       -3    1    3    3    0  502 -0.20327000262E+03  0.52591707920E+03  0.85377091684E+03  0.10231482086E+04  0.10100000352E+00 0.  1.
</event>
<event>
 5   0  0.8765057E-05  0.2033620E+04  0.7818609E-02  0.8591062E-01
        1   -1    0    0  501    0  0.00000000000E+00  0.00000000000E+00  0.16927502186E+04  0.16927502186E+04  0.50400001928E-02 0.  1.
       -1   -1    0    0    0  501  0.00000000000E+00  0.00000000000E+00 -0.61078273250E+03  0.61078273252E+03  0.50400001928E-02 0. -1.
    10030    2    1    2    0    0  0.00000000000E+00  0.00000000000E+00  0.10819674861E+04  0.23035329511E+04  0.20336200274E+04 0.  0.
        3    1    3    3  502    0  0.29977781376E+03  0.87100142928E+03  0.53263768202E+02  0.92268481435E+03  0.10100000352E+00 0.  1.
       -3    1    3    3    0  502 -0.29977781376E+03 -0.87100142928E+03  0.10287037179E+04  0.13808481368E+04  0.10100000352E+00 0. -1.
</event>
<event>
 5   0  0.8881384E-05  0.1964816E+04  0.7818609E-02  0.8623250E-01
       -1   -1    0    0    0  501  0.00000000000E+00  0.00000000000E+00  0.11214452691E+04  0.11214452691E+04  0.50400001928E-02 0.  1.
        1   -1    0    0  501    0  0.00000000000E+00  0.00000000000E+00 -0.86060819694E+03  0.86060819696E+03  0.50400001928E-02 0. -1.
    10030    2    1    2    0    0  0.00000000000E+00  0.00000000000E+00  0.26083707214E+03  0.19820534661E+04  0.19648155038E+04 0.  0.
        5    1    3    3  502    0 -0.80017102301E+03  0.54121694522E+03 -0.49792128695E+02  0.96731111537E+03  0.46999998093E+01 0. -1.
       -5    1    3    3    0  502  0.80017102301E+03 -0.54121694522E+03  0.31062920083E+03  0.10147423507E+04  0.46999998093E+01 0.  1.
</event>
<event>
 5   0  0.8765057E-05  0.1984865E+04  0.7818609E-02  0.8613729E-01
       -1   -1    0    0    0  501  0.00000000000E+00  0.00000000000E+00  0.53127977661E+03  0.53127977664E+03  0.50400001928E-02 0.  1.
        1   -1    0    0  501    0  0.00000000000E+00  0.00000000000E+00 -0.18538680774E+04  0.18538680774E+04  0.50400001928E-02 0. -1.
    10030    2    1    2    0    0  0.00000000000E+00  0.00000000000E+00 -0.13225883008E+04  0.23851478540E+04  0.19848653537E+04 0.  0.
        3    1    3    3  502    0  0.27728508468E+03 -0.91186388280E+03 -0.99374546541E+03  0.13769215007E+04  0.10100000352E+00 0. -1.
       -3    1    3    3    0  502 -0.27728508468E+03  0.91186388280E+03 -0.32884283538E+03  0.10082263533E+04  0.10100000352E+00 0.  1.
</event>
<event>
 5   0  0.1807498E-04  0.1926940E+04  0.7818609E-02  0.8641561E-01
        2   -1    0    0  501    0  0.00000000000E+00  0.00000000000E+00  0.14509522860E+04  0.14509522860E+04  0.25500000920E-02 0. -1.
       -2   -1    0    0    0  501  0.00000000000E+00  0.00000000000E+00 -0.63976929245E+03  0.63976929245E+03  0.25500000920E-02 0.  1.
    10030    2    1    2    0    0  0.00000000000E+00  0.00000000000E+00  0.81118299359E+03  0.20907215785E+04  0.19269402870E+04 0.  0.
        5    1    3    3  502    0 -0.18275112412E+03 -0.12590599213E+03  0.14228303962E+04  0.14400412212E+04  0.46999998093E+01 0. -1.
       -5    1    3    3    0  502  0.18275112412E+03  0.12590599213E+03 -0.61164740266E+03  0.65068035731E+03  0.46999998093E+01 0.  1.
</event>
<event>
 5   0  0.1834645E-04  0.2033196E+04  0.7818609E-02  0.8591256E-01
       -2   -1    0    0    0  501  0.00000000000E+00  0.00000000000E+00  0.60881720662E+03  0.60881720663E+03  0.25500000920E-02 0.  1.
        2   -1    0    0  501    0  0.00000000000E+00  0.00000000000E+00 -0.16975069249E+04  0.16975069249E+04  0.25500000920E-02 0. -1.
    10030    2    1    2    0    0  0.00000000000E+00  0.00000000000E+00 -0.10886897182E+04  0.23063241315E+04  0.20331959318E+04 0.  0.
        1    1    3    3  502    0 -0.39638455340E+03  0.34180311393E+03 -0.15329232242E+04  0.16198159446E+04  0.50400001928E-02 0. -1.
       -1    1    3    3    0  502  0.39638455340E+03 -0.34180311393E+03  0.44423350598E+03  0.68650818694E+03  0.50400001928E-02 0.  1.
</event>
<event>
 5   0  0.1834645E-04  0.2005007E+04  0.7818609E-02  0.8604283E-01
       -2   -1    0    0    0  501  0.00000000000E+00  0.00000000000E+00  0.87187519970E+03  0.87187519970E+03  0.25500000920E-02 0.  1.
        2   -1    0    0  501    0  0.00000000000E+00  0.00000000000E+00 -0.11527034307E+04  0.11527034307E+04  0.25500000920E-02 0. -1.
    10030    2    1    2    0    0  0.00000000000E+00  0.00000000000E+00 -0.28082823099E+03  0.20245786304E+04  0.20050072657E+04 0.  0.
        1    1    3    3  502    0  0.41368988016E+02 -0.97811023111E+03 -0.35839749528E+03  0.10425256745E+04  0.50400001928E-02 0.  1.
       -1    1    3    3    0  502 -0.41368988016E+02  0.97811023111E+03  0.77569264293E+02  0.98205295588E+03  0.50400001928E-02 0. -1.
</event>
<event>
 5   0  0.8577422E-05  0.2043484E+04  0.7818609E-02  0.8586556E-01
       -1   -1    0    0    0  501  0.00000000000E+00  0.00000000000E+00  0.44978254877E+03  0.44978254880E+03  0.50400001928E-02 0. -1.
        1   -1    0    0  501    0  0.00000000000E+00  0.00000000000E+00 -0.23210252706E+04  0.23210252706E+04  0.50400001928E-02 0.  1.
    10030    2    1    2    0    0  0.00000000000E+00  0.00000000000E+00 -0.18712427219E+04  0.27708078194E+04  0.20434839486E+04 0.  0.
        2    1    3    3  502    0  0.27523171073E+02  0.35504813212E+03  0.36291161282E+03  0.50845013502E+03  0.25500000920E-02 0. -1.
       -2    1    3    3    0  502 -0.27523171073E+02 -0.35504813212E+03 -0.22341543347E+04  0.22623576844E+04  0.25500000920E-02 0.  1.
</event>
<event>
 5   0  0.6531625E-05  0.2009328E+04  0.7818609E-02  0.8602272E-01
        4   -1    0    0  501    0  0.00000000000E+00  0.00000000000E+00  0.17438928406E+04  0.17438933031E+04  0.12699999809E+01 0. -1.
       -4   -1    0    0    0  501  0.00000000000E+00  0.00000000000E+00 -0.57878988721E+03  0.57879128055E+03  0.12699999809E+01 0.  1.
    10030    2    1    2    0    0  0.00000000000E+00  0.00000000000E+00  0.11651029534E+04  0.23226845836E+04  0.20093279431E+04 0.  0.
        1    1    3    3  502    0  0.66470338815E+03 -0.66376201184E+03  0.17070333652E+03  0.95475139786E+03  0.50400001928E-02 0.  1.
       -1    1    3    3    0  502 -0.66470338815E+03  0.66376201184E+03  0.99439961689E+03  0.13679331858E+04  0.50400001928E-02 0. -1.
</event>
<event>
 5   0  0.1782172E-04  0.1975188E+04  0.7818609E-02  0.8618310E-01
       -2   -1    0    0    0  501  0.00000000000E+00  0.00000000000E+00  0.10832920300E+04  0.10832920300E+04  0.25500000920E-02 0. -1.
        2   -1    0    0  501    0  0.00000000000E+00  0.00000000000E+00 -0.90034963278E+03  0.90034963279E+03  0.25500000920E-02 0.  1.
    10030    2    1    2    0    0  0.00000000000E+00  0.00000000000E+00  0.18294239724E+03  0.19836416628E+04  0.19751876685E+04 0.  0.
        2    1    3    3  502    0  0.76992994946E+03 -0.58195159056E+03 -0.11890522873E+03  0.97241875458E+03  0.25500000920E-02 0.  1.
       -2    1    3    3    0  502 -0.76992994946E+03  0.58195159056E+03  0.30184762596E+03  0.10112229082E+04  0.25500000920E-02 0. -1.
</event>
<event>
 5   0  0.8881384E-05  0.2003255E+04  0.7818609E-02  0.8605100E-01
        1   -1    0    0  501    0  0.00000000000E+00  0.00000000000E+00  0.22231283248E+04  0.22231283248E+04  0.50400001928E-02 0.  1.
       -1   -1    0    0    0  501  0.00000000000E+00  0.00000000000E+00 -0.45128185930E+03  0.45128185933E+03  0.50400001928E-02 0. -1.
    10030    2    1    2    0    0  0.00000000000E+00  0.00000000000E+00  0.17718464655E+04  0.26744101841E+04  0.20032548354E+04 0.  0.
        5    1    3    3  502    0  0.10567951188E+03  0.54540600761E+03  0.19985744761E+04  0.20743572255E+04  0.46999998093E+01 0.  1.
       -5    1    3    3    0  502 -0.10567951188E+03 -0.54540600761E+03 -0.22672801063E+03  0.60005295864E+03  0.46999998093E+01 0. -1.
</event>
<event>
 5   0  0.8958919E-05  0.1931347E+04  0.7818609E-02  0.8639408E-01
       -1   -1    0    0    0  501  0.00000000000E+00  0.00000000000E+00  0.15245707867E+04  0.15245707867E+04  0.50400001928E-02 0.  1.
        1   -1    0    0  501    0  0.00000000000E+00  0.00000000000E+00 -0.61166412795E+03  0.61166412797E+03  0.50400001928E-02 0. -1.
    10030    2    1    2    0    0  0.00000000000E+00  0.00000000000E+00  0.91290665876E+03  0.21362349147E+04  0.19313469505E+04 0.  0.
        4    1    3    3  502    0 -0.38497795223E+03  0.64679885756E+03  0.11255819276E+04  0.13540653878E+04  0.12699999809E+01 0.  1.
       -4    1    3    3    0  502  0.38497795223E+03 -0.64679885756E+03 -0.21267526887E+03  0.78216952685E+03  0.12699999809E+01 0. -1.
</event>
<event>
 5   0  0.8765057E-05  0.1980113E+04  0.7818609E-02  0.8615975E-01
       -1   -1    0    0    0  501  0.00000000000E+00  0.00000000000E+00  0.18080987720E+04  0.18080987720E+04  0.50400001928E-02 0. -1.
        1   -1    0    0  501    0  0.00000000000E+00  0.00000000000E+00 -0.54212282959E+03  0.54212282961E+03  0.50400001928E-02 0.  1.
    10030    2    1    2    0    0  0.00000000000E+00  0.00000000000E+00  0.12659759424E+04  0.23502216016E+04  0.19801127468E+04 0.  0.
        3    1    3    3  502    0 -0.75434660899E+03 -0.38438763296E+02 -0.12672469594E+03  0.76588217357E+03  0.10100000352E+00 0.  1.
       -3    1    3    3    0  502  0.75434660899E+03  0.38438763296E+02  0.13927006384E+04  0.15843394281E+04  0.10100000352E+00 0. -1.
</event>
<event>
 5   0  0.8881384E-05  0.1774781E+04  0.7818609E-02  0.8719827E-01
        1   -1    0    0  501    0  0.00000000000E+00  0.00000000000E+00  0.11123389742E+04  0.11123389742E+04  0.50400001928E-02 0.  1.
       -1   -1    0    0    0  501  0.00000000000E+00  0.00000000000E+00 -0.70793303120E+03  0.70793303121E+03  0.50400001928E-02 0. -1.
    10030    2    1    2    0    0  0.00000000000E+00  0.00000000000E+00  0.40440594297E+03  0.18202720054E+04  0.17747805518E+04 0.  0.
        5    1    3    3  502    0  0.98288873971E+02 -0.87979892775E+03  0.26486360458E+03  0.92405718169E+03  0.46999998093E+01 0.  1.
       -5    1    3    3    0  502 -0.98288873971E+02  0.87979892775E+03  0.13954233839E+03  0.89621482370E+03  0.46999998093E+01 0. -1.
</event>
<event>
 5   0  0.1782172E-04  0.1807459E+04  0.7818609E-02  0.8702343E-01
       -2   -1    0    0    0  501  0.00000000000E+00  0.00000000000E+00  0.22179305613E+04  0.22179305613E+04  0.25500000920E-02 0.  1.
        2   -1    0    0  501    0  0.00000000000E+00  0.00000000000E+00 -0.36823846829E+03  0.36823846830E+03  0.25500000920E-02 0. -1.
    10030    2    1    2    0    0  0.00000000000E+00  0.00000000000E+00  0.18496920930E+04  0.25861690296E+04  0.18074593801E+04 0.  0.
        2    1    3    3  502    0  0.25329688892E+03 -0.51178831097E+03 -0.77390359483E+02  0.57626023369E+03  0.25500000920E-02 0. -1.
       -2    1    3    3    0  502 -0.25329688892E+03  0.51178831097E+03  0.19270824525E+04  0.20099087959E+04  0.25500000920E-02 0.  1.
</event>
<event>
 5   0  0.1782172E-04  0.1979401E+04  0.7818609E-02  0.8616312E-01
        2   -1    0    0  501    0  0.00000000000E+00  0.00000000000E+00  0.14818126594E+04  0.14818126594E+04  0.25500000920E-02 0.  1.
       -2   -1    0    0    0  501  0.00000000000E+00  0.00000000000E+00 -0.66101974024E+03  0.66101974024E+03  0.25500000920E-02 0. -1.
    10030    2    1    2    0    0  0.00000000000E+00  0.00000000000E+00  0.82079291914E+03  0.21428323996E+04  0.19794013430E+04 0.  0.
        2    1    3    3  502    0  0.62002931636E+03 -0.42088704662E+02 -0.42346014705E+03  0.75201483253E+03  0.25500000920E-02 0. -1.
       -2    1    3    3    0  502 -0.62002931636E+03  0.42088704662E+02  0.12442530662E+04  0.13908175671E+04  0.25500000920E-02 0.  1.
</event>
<event>
 5   0  0.8958919E-05  0.1999909E+04  0.7818609E-02  0.8606663E-01
        1   -1    0    0  501    0  0.00000000000E+00  0.00000000000E+00  0.92538043305E+03  0.92538043306E+03  0.50400001928E-02 0.  1.
       -1   -1    0    0    0  501  0.00000000000E+00  0.00000000000E+00 -0.10805385279E+04  0.10805385279E+04  0.50400001928E-02 0. -1.
    10030    2    1    2    0    0  0.00000000000E+00  0.00000000000E+00 -0.15515809488E+03  0.20059189610E+04  0.19999092089E+04 0.  0.
        4    1    3    3  502    0 -0.94835639998E+03 -0.30917792154E+03 -0.14805219149E+03  0.10084105874E+04  0.12699999809E+01 0.  1.
       -4    1    3    3    0  502  0.94835639998E+03  0.30917792154E+03 -0.71059033829E+01  0.99750837356E+03  0.12699999809E+01 0. -1.
</event>
<event>
 5   0  0.8861350E-05  0.1973903E+04  0.7818609E-02  0.8618920E-01
       -1   -1    0    0    0  501  0.00000000000E+00  0.00000000000E+00  0.72258932052E+03  0.72258932054E+03  0.50400001928E-02 0.  1.
        1   -1    0    0  501    0  0.00000000000E+00  0.00000000000E+00 -0.13480316348E+04  0.13480316348E+04  0.50400001928E-02 0. -1.
    10030    2    1    2    0    0  0.00000000000E+00  0.00000000000E+00 -0.62544231427E+03  0.20706209553E+04  0.19739029997E+04 0.  0.
        1    1    3    3  502    0  0.43603604551E+03  0.75636226198E+03 -0.79555898712E+03  0.11811542686E+04  0.50400001928E-02 0. -1.
       -1    1    3    3    0  502 -0.43603604551E+03 -0.75636226198E+03  0.17011667285E+03  0.88946668669E+03  0.50400001928E-02 0.  1.
</event>
<event>
 5   0  0.8861350E-05  0.2083029E+04  0.7818609E-02  0.8568756E-01
       -1   -1    0    0    0  501  0.00000000000E+00  0.00000000000E+00  0.73610029709E+03  0.73610029711E+03  0.50400001928E-02 0.  1.
        1   -1    0    0  501    0  0.00000000000E+00  0.00000000000E+00 -0.14736477257E+04  0.14736477257E+04  0.50400001928E-02 0. -1.
    10030    2    1    2    0    0  0.00000000000E+00  0.00000000000E+00 -0.73754742862E+03  0.22097480228E+04  0.20830290720E+04 0.  0.
        1    1    3    3  502    0 -0.81500416883E+03 -0.66523703036E+02  0.31552203729E+03  0.87647667072E+03  0.50400001928E-02 0.  1.
       -1    1    3    3    0  502  0.81500416883E+03  0.66523703036E+02 -0.10530694659E+04  0.13332713521E+04  0.50400001928E-02 0. -1.
</event>
<event>
 5   0  0.8881384E-05  0.2039921E+04  0.7818609E-02  0.8588180E-01
        1   -1    0    0  501    0  0.00000000000E+00  0.00000000000E+00  0.70017232914E+03  0.70017232916E+03  0.50400001928E-02 0. -1.
       -1   -1    0    0    0  501  0.00000000000E+00  0.00000000000E+00 -0.14858049905E+04  0.14858049905E+04  0.50400001928E-02 0.  1.
    10030    2    1    2    0    0  0.00000000000E+00  0.00000000000E+00 -0.78563266131E+03  0.21859773196E+04  0.20399211170E+04 0.  0.
        5    1    3    3  502    0  0.59722741882E+03  0.71126052770E+03 -0.84457545589E+03  0.12553493214E+04  0.46999998093E+01 0.  1.
       -5    1    3    3    0  502 -0.59722741882E+03 -0.71126052770E+03  0.58942794576E+02  0.93062799823E+03  0.46999998093E+01 0. -1.
</event>
<event>
 5   0  0.1834645E-04  0.2010367E+04  0.7818609E-02  0.8601789E-01
       -2   -1    0    0    0  501  0.00000000000E+00  0.00000000000E+00  0.78684793765E+03  0.78684793766E+03  0.25500000920E-02 0. -1.
        2   -1    0    0  501    0  0.00000000000E+00  0.00000000000E+00 -0.12841029661E+04  0.12841029661E+04  0.25500000920E-02 0.  1.
    10030    2    1    2    0    0  0.00000000000E+00  0.00000000000E+00 -0.49725502844E+03  0.20709509037E+04  0.20103669024E+04 0.  0.
        1    1    3    3  502    0 -0.90224313089E+03  0.25162886065E+01 -0.70508900895E+03  0.11450762025E+04  0.50400001928E-02 0.  1.
       -1    1    3    3    0  502  0.90224313089E+03 -0.25162886065E+01  0.20783398051E+03  0.92587470126E+03  0.50400001928E-02 0. -1.
</event>
<event>
 5   0  0.1812865E-04  0.1949920E+04  0.7818609E-02  0.8630399E-01
       -2   -1    0    0    0  501  0.00000000000E+00  0.00000000000E+00  0.10957925103E+04  0.10957925103E+04  0.25500000920E-02 0.  1.
        2   -1    0    0  501    0  0.00000000000E+00  0.00000000000E+00 -0.86745198299E+03  0.86745198299E+03  0.25500000920E-02 0. -1.
    10030    2    1    2    0    0  0.00000000000E+00  0.00000000000E+00  0.22834052735E+03  0.19632444933E+04  0.19499203943E+04 0.  0.
        3    1    3    3  502    0  0.44944651738E+02 -0.23294763742E+03  0.10662867328E+04  0.10923607601E+04  0.10100000352E+00 0.  1.
       -3    1    3    3    0  502 -0.44944651738E+02  0.23294763742E+03 -0.83794620540E+03  0.87088373326E+03  0.10100000352E+00 0. -1.
</event>
<event>
 5   0  0.1834645E-04  0.1984325E+04  0.7818609E-02  0.8613984E-01
       -2   -1    0    0    0  501  0.00000000000E+00  0.00000000000E+00  0.37488107184E+03  0.37488107185E+03  0.25500000920E-02 0. -1.
        2   -1    0    0  501    0  0.00000000000E+00  0.00000000000E+00 -0.26258644835E+04  0.26258644835E+04  0.25500000920E-02 0.  1.
    10030    2    1    2    0    0  0.00000000000E+00  0.00000000000E+00 -0.22509834117E+04  0.30007455554E+04  0.19843254694E+04 0.  0.
        1    1    3    3  502    0  0.39602129889E+02  0.82030354600E+03 -0.28362850550E+03  0.86885635489E+03  0.50400001928E-02 0. -1.
       -1    1    3    3    0  502 -0.39602129889E+02 -0.82030354600E+03 -0.19673549062E+04  0.21318892005E+04  0.50400001928E-02 0.  1.
</event>
<event>
 5   0  0.1812865E-04  0.2016530E+04  0.7818609E-02  0.8598931E-01
        2   -1    0    0  501    0  0.00000000000E+00  0.00000000000E+00  0.11618885494E+04  0.11618885494E+04  0.25500000920E-02 0. -1.
       -2   -1    0    0    0  501  0.00000000000E+00  0.00000000000E+00 -0.87495340673E+03  0.87495340673E+03  0.25500000920E-02 0.  1.
    10030    2    1    2    0    0  0.00000000000E+00  0.00000000000E+00  0.28693514267E+03  0.20368419561E+04  0.20165300340E+04 0.  0.
        3    1    3    3  502    0  0.91128704257E+03  0.51856298055E+02  0.57611035956E+03  0.10793684756E+04  0.10100000352E+00 0.  1.
       -3    1    3    3    0  502 -0.91128704257E+03 -0.51856298055E+02 -0.28917521689E+03  0.95747348050E+03  0.10100000352E+00 0. -1.
</event>
<event>
 5   0  0.1807498E-04  0.2012443E+04  0.7818609E-02  0.8600825E-01
        2   -1    0    0  501    0  0.00000000000E+00  0.00000000000E+00  0.10510703115E+04  0.10510703116E+04  0.25500000920E-02 0.  1.
       -2   -1    0    0    0  501  0.00000000000E+00  0.00000000000E+00 -0.96328678730E+03  0.96328678731E+03  0.25500000920E-02 0. -1.
    10030    2    1    2    0    0  0.00000000000E+00  0.00000000000E+00  0.87783524246E+02  0.20143570989E+04  0.20124434339E+04 0.  0.
        5    1    3    3  502    0  0.46489971109E+03 -0.52002453188E+03  0.76977291837E+03  0.10388116725E+04  0.46999998093E+01 0.  1.
       -5    1    3    3    0  502 -0.46489971109E+03  0.52002453188E+03 -0.68198939412E+03  0.97554542633E+03  0.46999998093E+01 0. -1.
</event>
<event>
 5   0  0.6531625E-05  0.2060486E+04  0.7818609E-02  0.8578852E-01
        4   -1    0    0  501    0  0.00000000000E+00  0.00000000000E+00  0.13324995698E+04  0.13325001751E+04  0.12699999809E+01 0.  1.
       -4   -1    0    0    0  501  0.00000000000E+00  0.00000000000E+00 -0.79654724789E+03  0.79654826032E+03  0.12699999809E+01 0. -1.
    10030    2    1    2    0    0  0.00000000000E+00  0.00000000000E+00  0.53595232195E+03  0.21290484354E+04  0.20604859497E+04 0.  0.
        4    1    3    3  502    0  0.31634673551E+03  0.85121864779E+02 -0.74129490200E+03  0.81045711396E+03  0.12699999809E+01 0. -1.
       -4    1    3    3    0  502 -0.31634673551E+03 -0.85121864779E+02  0.12772472239E+04  0.13185913214E+04  0.12699999809E+01 0.  1.
</event>
<event>
 5   0  0.8765057E-05  0.1995054E+04  0.7818609E-02  0.8608937E-01
       -1   -1    0    0    0  501  0.00000000000E+00  0.00000000000E+00  0.16230130733E+04  0.16230130733E+04  0.50400001928E-02 0. -1.
        1   -1    0    0  501    0  0.00000000000E+00  0.00000000000E+00 -0.61309420659E+03  0.61309420661E+03  0.50400001928E-02 0.  1.
    10030    2    1    2    0    0  0.00000000000E+00  0.00000000000E+00  0.10099188667E+04  0.22361072799E+04  0.19950537963E+04 0.  0.
        3    1    3    3  502    0 -0.16852859129E+03  0.91561489334E+03  0.90643937167E+03  0.12993786452E+04  0.10100000352E+00 0. -1.
       -3    1    3    3    0  502  0.16852859129E+03 -0.91561489334E+03  0.10347949506E+03  0.93672863471E+03  0.10100000352E+00 0.  1.
</event>
<event>
 5   0  0.1834645E-04  0.1993826E+04  0.7818609E-02  0.8609513E-01
        2   -1    0    0  501    0  0.00000000000E+00  0.00000000000E+00  0.89926327158E+03  0.89926327158E+03  0.25500000920E-02 0.  1.
       -2   -1    0    0    0  501  0.00000000000E+00  0.00000000000E+00 -0.11051659697E+04  0.11051659697E+04  0.25500000920E-02 0. -1.
    10030    2    1    2    0    0  0.00000000000E+00  0.00000000000E+00 -0.20590269813E+03  0.20044292413E+04  0.19938256349E+04 0.  0.
        1    1    3    3  502    0 -0.77431643080E+03 -0.47281850997E+03  0.31241894689E+03  0.95954618272E+03  0.50400001928E-02 0.  1.
       -1    1    3    3    0  502  0.77431643080E+03  0.47281850997E+03 -0.51832164502E+03  0.10448830586E+04  0.50400001928E-02 0. -1.
</event>
<event>
 5   0  0.8765057E-05  0.2061603E+04  0.7818609E-02  0.8578349E-01
        1   -1    0    0  501    0  0.00000000000E+00  0.00000000000E+00  0.73455729431E+03  0.73455729433E+03  0.50400001928E-02 0. -1.
       -1   -1    0    0    0  501  0.00000000000E+00  0.00000000000E+00 -0.14465196199E+04  0.14465196200E+04  0.50400001928E-02 0.  1.
    10030    2    1    2    0    0  0.00000000000E+00  0.00000000000E+00 -0.71196232564E+03  0.21810769143E+04  0.20616028116E+04 0.  0.
        3    1    3    3  502    0  0.53812461035E+03  0.39915790486E+03  0.47277176952E+03  0.82001114964E+03  0.10100000352E+00 0. -1.
       -3    1    3    3    0  502 -0.53812461035E+03 -0.39915790486E+03 -0.11847340952E+04  0.13610657646E+04  0.10100000352E+00 0.  1.
</event>
<event>
 5   0  0.8577422E-05  0.1992848E+04  0.7818609E-02  0.8609972E-01
        1   -1    0    0  501    0  0.00000000000E+00  0.00000000000E+00  0.10774593441E+04  0.10774593441E+04  0.50400001928E-02 0.  1.
       -1   -1    0    0    0  501  0.00000000000E+00  0.00000000000E+00 -0.92148323930E+03  0.92148323932E+03  0.50400001928E-02 0. -1.
    10030    2    1    2    0    0  0.00000000000E+00  0.00000000000E+00  0.15597610482E+03  0.19989425834E+04  0.19928479387E+04 0.  0.
        2    1    3    3  502    0 -0.32529961130E+03 -0.63278225737E+03 -0.62173226416E+03  0.94487260022E+03  0.25500000920E-02 0. -1.
       -2    1    3    3    0  502  0.32529961130E+03  0.63278225737E+03  0.77770836897E+03  0.10540699832E+04  0.25500000920E-02 0.  1.
</event>
<event>
 5   0  0.8958919E-05  0.1977959E+04  0.7818609E-02  0.8616995E-01
        1   -1    0    0  501    0  0.00000000000E+00  0.00000000000E+00  0.17529702799E+04  0.17529702799E+04  0.50400001928E-02 0.  1.
       -1   -1    0    0    0  501  0.00000000000E+00  0.00000000000E+00 -0.55795636417E+03  0.55795636419E+03  0.50400001928E-02 0. -1.
    10030    2    1    2    0    0  0.00000000000E+00  0.00000000000E+00  0.11950139157E+04  0.23109266441E+04  0.19779594778E+04 0.  0.
        4    1    3    3  502    0  0.47757461412E+02 -0.22744139555E+03  0.17206135026E+04  0.17362381179E+04  0.12699999809E+01 0.  1.
       -4    1    3    3    0  502 -0.47757461412E+02  0.22744139555E+03 -0.52559958691E+03  0.57468852624E+03  0.12699999809E+01 0. -1.
</event>
<event>
 5   0  0.1893687E-04  0.2000287E+04  0.7818609E-02  0.8606487E-01
        2   -1    0    0  501    0  0.00000000000E+00  0.00000000000E+00  0.18433501883E+04  0.18433501883E+04  0.25500000920E-02 0.  1.
       -2   -1    0    0    0  501  0.00000000000E+00  0.00000000000E+00 -0.54264610668E+03  0.54264610669E+03  0.25500000920E-02 0. -1.
    10030    2    1    2    0    0  0.00000000000E+00  0.00000000000E+00  0.13007040816E+04  0.23859962950E+04  0.20002867824E+04 0.  0.
        4    1    3    3  502    0 -0.92686850719E+03  0.17198889775E+03  0.10488701672E+04  0.14102466632E+04  0.12699999809E+01 0. -1.
       -4    1    3    3    0  502  0.92686850719E+03 -0.17198889775E+03  0.25183391443E+03  0.97574963178E+03  0.12699999809E+01 0.  1.
</event>
<event>
 5   0  0.8881384E-05  0.2028657E+04  0.7818609E-02  0.8593338E-01
       -1   -1    0    0    0  501  0.00000000000E+00  0.00000000000E+00  0.13018688756E+04  0.13018688756E+04  0.50400001928E-02 0. -1.
        1   -1    0    0  501    0  0.00000000000E+00  0.00000000000E+00 -0.79029671671E+03  0.79029671672E+03  0.50400001928E-02 0.  1.
    10030    2    1    2    0    0  0.00000000000E+00  0.00000000000E+00  0.51157215886E+03  0.20921655923E+04  0.20286573865E+04 0.  0.
        5    1    3    3  502    0  0.34999547184E+03  0.24127862529E+03 -0.69398327524E+03  0.81384708738E+03  0.46999998093E+01 0.  1.
       -5    1    3    3    0  502 -0.34999547184E+03 -0.24127862529E+03  0.12055554341E+04  0.12783185049E+04  0.46999998093E+01 0. -1.
</event>
<event>
 5   0  0.8881384E-05  0.1946045E+04  0.7818609E-02  0.8632270E-01
        1   -1    0    0  501    0  0.00000000000E+00  0.00000000000E+00  0.12661589111E+04  0.12661589111E+04  0.50400001928E-02 0. -1.
       -1   -1    0    0    0  501  0.00000000000E+00  0.00000000000E+00 -0.74775196003E+03  0.74775196005E+03  0.50400001928E-02 0.  1.
    10030    2    1    2    0    0  0.00000000000E+00  0.00000000000E+00  0.51840695107E+03  0.20139108712E+04  0.19460450226E+04 0.  0.
        5    1    3    3  502    0  0.38455041376E+03  0.89342554194E+03  0.28584012456E+03  0.10138120568E+04  0.46999998093E+01 0. -1.
       -5    1    3    3    0  502 -0.38455041376E+03 -0.89342554194E+03  0.23256682652E+03  0.10000988144E+04  0.46999998093E+01 0.  1.
</event>
<event>
 5   0  0.8881384E-05  0.1993337E+04  0.7818609E-02  0.8609742E-01
        1   -1    0    0  501    0  0.00000000000E+00  0.00000000000E+00  0.53747583170E+03  0.53747583172E+03  0.50400001928E-02 0.  1.
       -1   -1    0    0    0  501  0.00000000000E+00  0.00000000000E+00 -0.18481725960E+04  0.18481725960E+04  0.50400001928E-02 0. -1.
    10030    2    1    2    0    0  0.00000000000E+00  0.00000000000E+00 -0.13106967643E+04  0.23856484277E+04  0.19933370043E+04 0.  0.
        5    1    3    3  502    0  0.14089906003E+01 -0.70046471355E+03 -0.15038810842E+04  0.16590157339E+04  0.46999998093E+01 0. -1.
       -5    1    3    3    0  502 -0.14089906003E+01  0.70046471355E+03  0.19318431989E+03  0.72663269375E+03  0.46999998093E+01 0.  1.
</event>
<event>
 5   0  0.1807498E-04  0.1998920E+04  0.7818609E-02  0.8607126E-01
        2   -1    0    0  501    0  0.00000000000E+00  0.00000000000E+00  0.60592796393E+03  0.60592796393E+03  0.25500000920E-02 0.  1.
       -2   -1    0    0    0  501  0.00000000000E+00  0.00000000000E+00 -0.16485795787E+04  0.16485795787E+04  0.25500000920E-02 0. -1.
    10030    2    1    2    0    0  0.00000000000E+00  0.00000000000E+00 -0.10426516148E+04  0.22545075427E+04  0.19989201760E+04 0.  0.
        5    1    3    3  502    0  0.98121070922E+03  0.15599284045E+03 -0.64379194046E+03  0.11838912006E+04  0.46999998093E+01 0. -1.
       -5    1    3    3    0  502 -0.98121070922E+03 -0.15599284045E+03 -0.39885967434E+03  0.10706163421E+04  0.46999998093E+01 0.  1.
</event>
<event>
 5   0  0.1834645E-04  0.2024686E+04  0.7818609E-02  0.8595165E-01
       -2   -1    0    0    0  501  0.00000000000E+00  0.00000000000E+00  0.96327514717E+03  0.96327514717E+03  0.25500000920E-02 0. -1.
        2   -1    0    0  501    0  0.00000000000E+00  0.00000000000E+00 -0.10639107641E+04  0.10639107641E+04  0.25500000920E-02 0.  1.
    10030    2    1    2    0    0  0.00000000000E+00  0.00000000000E+00 -0.10063561692E+03  0.20271859113E+04  0.20246864427E+04 0.  0.
        1    1    3    3  502    0  0.51371170416E+03  0.18509022341E+03 -0.90382584542E+03  0.10559636664E+04  0.50400001928E-02 0.  1.
       -1    1    3    3    0  502 -0.51371170416E+03 -0.18509022341E+03  0.80319022850E+03  0.97122224490E+03  0.50400001928E-02 0. -1.
</event>
<event>
 5   0  0.8577422E-05  0.1952219E+04  0.7818609E-02  0.8629291E-01
       -1   -1    0    0    0  501  0.00000000000E+00  0.00000000000E+00  0.15649713086E+04  0.15649713086E+04  0.50400001928E-02 0. -1.
        1   -1    0    0  501    0  0.00000000000E+00  0.00000000000E+00 -0.60882259869E+03  0.60882259871E+03  0.50400001928E-02 0.  1.
    10030    2    1    2    0    0  0.00000000000E+00  0.00000000000E+00  0.95614870992E+03  0.21737939073E+04  0.19522191465E+04 0.  0.
        2    1    3    3  502    0  0.28341365265E+03  0.10646669630E+03  0.15113698191E+04  0.15413945588E+04  0.25500000920E-02 0. -1.
       -2    1    3    3    0  502 -0.28341365265E+03 -0.10646669630E+03 -0.55522110916E+03  0.63239934850E+03  0.25500000920E-02 0.  1.
</event>
<event>
 5   0  0.6531625E-05  0.1926895E+04  0.7818609E-02  0.8641584E-01
        4   -1    0    0  501    0  0.00000000000E+00  0.00000000000E+00  0.12695486630E+04  0.12695492983E+04  0.12699999809E+01 0.  1.
       -4   -1    0    0    0  501  0.00000000000E+00  0.00000000000E+00 -0.73114926100E+03  0.73115036399E+03  0.12699999809E+01 0. -1.
    10030    2    1    2    0    0  0.00000000000E+00  0.00000000000E+00  0.53839940205E+03  0.20006996623E+04  0.19268952287E+04 0.  0.
        4    1    3    3  502    0 -0.14484679707E+03 -0.77848905716E+02 -0.71647055926E+03  0.73510048423E+03  0.12699999809E+01 0. -1.
       -4    1    3    3    0  502  0.14484679707E+03  0.77848905716E+02  0.12548699613E+04  0.12655991780E+04  0.12699999809E+01 0.  1.
</event>
<event>
 5   0  0.1834645E-04  0.2088441E+04  0.7818609E-02  0.8566352E-01
        2   -1    0    0  501    0  0.00000000000E+00  0.00000000000E+00  0.14178188761E+04  0.14178188761E+04  0.25500000920E-02 0.  1.
       -2   -1    0    0    0  501  0.00000000000E+00  0.00000000000E+00 -0.76906611147E+03  0.76906611147E+03  0.25500000920E-02 0. -1.
    10030    2    1    2    0    0  0.00000000000E+00  0.00000000000E+00  0.64875276465E+03  0.21868849876E+04  0.20884409973E+04 0.  0.
        1    1    3    3  502    0  0.13334371481E+03 -0.35803663055E+03 -0.69324828492E+03  0.79155793197E+03  0.50400001928E-02 0. -1.
       -1    1    3    3    0  502 -0.13334371481E+03  0.35803663055E+03  0.13420010496E+04  0.13953270556E+04  0.50400001928E-02 0.  1.
</event>
<event>
 5   0  0.1834645E-04  0.2118220E+04  0.7818609E-02  0.8553260E-01
       -2   -1    0    0    0  501  0.00000000000E+00  0.00000000000E+00  0.92433543424E+03  0.92433543425E+03  0.25500000920E-02 0.  1.
        2   -1    0    0  501    0  0.00000000000E+00  0.00000000000E+00 -0.12135352900E+04  0.12135352900E+04  0.25500000920E-02 0. -1.
    10030    2    1    2    0    0  0.00000000000E+00  0.00000000000E+00 -0.28919985575E+03  0.21378707242E+04  0.21182196952E+04 0.  0.
        1    1    3    3  502    0  0.52645759199E+03  0.64388536578E+03  0.51720250398E+03  0.97941022589E+03  0.50400001928E-02 0.  1.
       -1    1    3    3    0  502 -0.52645759199E+03 -0.64388536578E+03 -0.80640235973E+03  0.11584604984E+04  0.50400001928E-02 0. -1.
</event>
<event>
 5   0  0.1812865E-04  0.1928697E+04  0.7818609E-02  0.8640702E-01
        2   -1    0    0  501    0  0.00000000000E+00  0.00000000000E+00  0.10297690284E+04  0.10297690284E+04  0.25500000920E-02 0. -1.
       -2   -1    0    0    0  501  0.00000000000E+00  0.00000000000E+00 -0.90308409227E+03  0.90308409227E+03  0.25500000920E-02 0.  1.
    10030    2    1    2    0    0  0.00000000000E+00  0.00000000000E+00  0.12668493616E+03  0.19328531207E+04  0.19286969988E+04 0.  0.
        3    1    3    3  502    0  0.49025277168E+03  0.40760791010E+03 -0.66173306078E+03  0.91890295595E+03  0.10100000352E+00 0.  1.
       -3    1    3    3    0  502 -0.49025277168E+03 -0.40760791010E+03  0.78841799694E+03  0.10139501648E+04  0.10100000352E+00 0. -1.
</event>
<event>
 5   0  0.8958919E-05  0.1967215E+04  0.7818609E-02  0.8622104E-01
       -1   -1    0    0    0  501  0.00000000000E+00  0.00000000000E+00  0.85997490373E+03  0.85997490374E+03  0.50400001928E-02 0. -1.
        1   -1    0    0  501    0  0.00000000000E+00  0.00000000000E+00 -0.11250133887E+04  0.11250133887E+04  0.50400001928E-02 0.  1.
    10030    2    1    2    0    0  0.00000000000E+00  0.00000000000E+00 -0.26503848493E+03  0.19849882924E+04  0.19672145594E+04 0.  0.
        4    1    3    3  502    0 -0.88221820891E+03  0.27539847072E+03  0.20716512728E+03  0.94713900177E+03  0.12699999809E+01 0. -1.
       -4    1    3    3    0  502  0.88221820891E+03 -0.27539847072E+03 -0.47220361221E+03  0.10378492906E+04  0.12699999809E+01 0.  1.
</event>
<event>
 5   0  0.8958919E-05  0.1960431E+04  0.7818609E-02  0.8625347E-01
       -1   -1    0    0    0  501  0.00000000000E+00  0.00000000000E+00  0.47156362711E+03  0.47156362714E+03  0.50400001928E-02 0.  1.
        1   -1    0    0  501    0  0.00000000000E+00  0.00000000000E+00 -0.20375251530E+04  0.20375251530E+04  0.50400001928E-02 0. -1.
    10030    2    1    2    0    0  0.00000000000E+00  0.00000000000E+00 -0.15659615259E+04  0.25090887801E+04  0.19604313316E+04 0.  0.
        4    1    3    3  502    0  0.29298586444E+03  0.24815278984E+03 -0.19372753040E+04  0.19749576553E+04  0.12699999809E+01 0. -1.
       -4    1    3    3    0  502 -0.29298586444E+03 -0.24815278984E+03  0.37131377807E+03  0.53413112487E+03  0.12699999809E+01 0.  1.
</event>
<event>
 5   0  0.8861350E-05  0.2006351E+04  0.7818609E-02  0.8603657E-01
        1   -1    0    0  501    0  0.00000000000E+00  0.00000000000E+00  0.14880450947E+04  0.14880450947E+04  0.50400001928E-02 0.  1.
       -1   -1    0    0    0  501  0.00000000000E+00  0.00000000000E+00 -0.67629768728E+03  0.67629768730E+03  0.50400001928E-02 0. -1.
    10030    2    1    2    0    0  0.00000000000E+00  0.00000000000E+00  0.81174740743E+03  0.21643427820E+04  0.20063513712E+04 0.  0.
        1    1    3    3  502    0 -0.42405977140E+03 -0.32938754030E+03 -0.50822470142E+03  0.73933428744E+03  0.50400001928E-02 0. -1.
       -1    1    3    3    0  502  0.42405977140E+03  0.32938754030E+03  0.13199721089E+04  0.14250084946E+04  0.50400001928E-02 0.  1.
</event>
<event>
 5   0  0.1807498E-04  0.1988820E+04  0.7818609E-02  0.8611865E-01
        2   -1    0    0  501    0  0.00000000000E+00  0.00000000000E+00  0.15330255867E+04  0.15330255867E+04  0.25500000920E-02 0.  1.
       -2   -1    0    0    0  501  0.00000000000E+00  0.00000000000E+00 -0.64503271237E+03  0.64503271237E+03  0.25500000920E-02 0. -1.
    10030    2    1    2    0    0  0.00000000000E+00  0.00000000000E+00  0.88799287432E+03  0.21780582991E+04  0.19888204065E+04 0.  0.
        5    1    3    3  502    0 -0.30342568713E+03  0.52645441479E+03 -0.41805364652E+03  0.73757192180E+03  0.46999998093E+01 0. -1.
       -5    1    3    3    0  502  0.30342568713E+03 -0.52645441479E+03  0.13060465208E+04  0.14404863773E+04  0.46999998093E+01 0.  1.
</event>
<event>
 5   0  0.8861350E-05  0.1990446E+04  0.7818609E-02  0.8611100E-01
        1   -1    0    0  501    0  0.00000000000E+00  0.00000000000E+00  0.10377544000E+04  0.10377544000E+04  0.50400001928E-02 0. -1.
       -1   -1    0    0    0  501  0.00000000000E+00  0.00000000000E+00 -0.95443499347E+03  0.95443499348E+03  0.50400001928E-02 0.  1.
    10030    2    1    2    0    0  0.00000000000E+00  0.00000000000E+00  0.83319406554E+02  0.19921893935E+04  0.19904462957E+04 0.  0.
        1    1    3    3  502    0  0.11712010335E+03  0.92705093405E+03  0.38449223941E+03  0.10104329939E+04  0.50400001928E-02 0. -1.
       -1    1    3    3    0  502 -0.11712010335E+03 -0.92705093405E+03 -0.30117283285E+03  0.98175639963E+03  0.50400001928E-02 0.  1.
</event>
<event>
 5   0  0.1807498E-04  0.1913183E+04  0.7818609E-02  0.8648322E-01
        2   -1    0    0  501    0  0.00000000000E+00  0.00000000000E+00  0.67066528819E+03  0.67066528820E+03  0.25500000920E-02 0. -1.
       -2   -1    0    0    0  501  0.00000000000E+00  0.00000000000E+00 -0.13644166782E+04  0.13644166782E+04  0.25500000920E-02 0.  1.
    10030    2    1    2    0    0  0.00000000000E+00  0.00000000000E+00 -0.69375138996E+03  0.20350819664E+04  0.19131825890E+04 0.  0.
        5    1    3    3  502    0  0.60854608997E+03 -0.72913211168E+03 -0.22520768230E+03  0.97606483907E+03  0.46999998093E+01 0.  1.
       -5    1    3    3    0  502 -0.60854608997E+03  0.72913211168E+03 -0.46854370766E+03  0.10590171273E+04  0.46999998093E+01 0. -1.
</event>
<event>
 5   0  0.1834645E-04  0.2046854E+04  0.7818609E-02  0.8585023E-01
        2   -1    0    0  501    0  0.00000000000E+00  0.00000000000E+00  0.19313602770E+04  0.19313602770E+04  0.25500000920E-02 0. -1.
       -2   -1    0    0    0  501  0.00000000000E+00  0.00000000000E+00 -0.54231346959E+03  0.54231346960E+03  0.25500000920E-02 0.  1.
    10030    2    1    2    0    0  0.00000000000E+00  0.00000000000E+00  0.13890468074E+04  0.24736737466E+04  0.20468538715E+04 0.  0.
        1    1    3    3  502    0 -0.68496278468E+02 -0.99089603951E+03  0.99260548956E+03  0.14042194840E+04  0.50400001928E-02 0.  1.
       -1    1    3    3    0  502  0.68496278468E+02  0.99089603951E+03  0.39644131784E+03  0.10694542626E+04  0.50400001928E-02 0. -1.
</event>
<event>
 5   0  0.1893687E-04  0.2006586E+04  0.7818609E-02  0.8603548E-01
        2   -1    0    0  501    0  0.00000000000E+00  0.00000000000E+00  0.20823784618E+04  0.20823784618E+04  0.25500000920E-02 0.  1.
       -2   -1    0    0    0  501  0.00000000000E+00  0.00000000000E+00 -0.48338798047E+03  0.48338798047E+03  0.25500000920E-02 0. -1.
    10030    2    1    2    0    0  0.00000000000E+00  0.00000000000E+00  0.15989904813E+04  0.25657664422E+04  0.20065858758E+04 0.  0.
        4    1    3    3  502    0  0.34082372021E+03 -0.50761918283E+03  0.18166285352E+04  0.19167626068E+04  0.12699999809E+01 0.  1.
       -4    1    3    3    0  502 -0.34082372021E+03  0.50761918283E+03 -0.21763805389E+03  0.64900383545E+03  0.12699999809E+01 0. -1.
</event>
<event>
 5   0  0.1807498E-04  0.1976916E+04  0.7818609E-02  0.8617490E-01
        2   -1    0    0  501    0  0.00000000000E+00  0.00000000000E+00  0.16612382493E+04  0.16612382493E+04  0.25500000920E-02 0.  1.
       -2   -1    0    0    0  501  0.00000000000E+00  0.00000000000E+00 -0.58814488215E+03  0.58814488215E+03  0.25500000920E-02 0. -1.
    10030    2    1    2    0    0  0.00000000000E+00  0.00000000000E+00  0.10730933671E+04  0.22493831314E+04  0.19769155514E+04 0.  0.
        5    1    3    3  502    0  0.14147140283E+03 -0.80468896770E+03  0.11695374253E+04  0.14266668748E+04  0.46999998093E+01 0.  1.
       -5    1    3    3    0  502 -0.14147140283E+03  0.80468896770E+03 -0.96444058145E+02  0.82271625662E+03  0.46999998093E+01 0. -1.
</event>
<event>
 5   0  0.8958919E-05  0.1980708E+04  0.7818609E-02  0.8615694E-01
        1   -1    0    0  501    0  0.00000000000E+00  0.00000000000E+00  0.10771658700E+04  0.10771658700E+04  0.50400001928E-02 0. -1.
       -1   -1    0    0    0  501  0.00000000000E+00  0.00000000000E+00 -0.91053825232E+03  0.91053825233E+03  0.50400001928E-02 0.  1.
    10030    2    1    2    0    0  0.00000000000E+00  0.00000000000E+00  0.16662761764E+03  0.19877041223E+04  0.19807076803E+04 0.  0.
        4    1    3    3  502    0  0.64895802006E+02 -0.92038709631E+03  0.44441150804E+03  0.10241225872E+04  0.12699999809E+01 0. -1.
       -4    1    3    3    0  502 -0.64895802006E+02  0.92038709631E+03 -0.27778389041E+03  0.96358153513E+03  0.12699999809E+01 0.  1.
</event>
<event>
 5   0  0.1834645E-04  0.1986568E+04  0.7818609E-02  0.8612926E-01
        2   -1    0    0  501    0  0.00000000000E+00  0.00000000000E+00  0.25169326553E+04  0.25169326553E+04  0.25500000920E-02 0.  1.
       -2   -1    0    0    0  501  0.00000000000E+00  0.00000000000E+00 -0.39199045484E+03  0.39199045485E+03  0.25500000920E-02 0. -1.
    10030    2    1    2    0    0  0.00000000000E+00  0.00000000000E+00  0.21249422005E+04  0.29089231102E+04  0.19865684749E+04 0.  0.
        1    1    3    3  502    0 -0.86301700156E+03 -0.44128836458E+03  0.13801921995E+04  0.16865539639E+04  0.50400001928E-02 0.  1.
       -1    1    3    3    0  502  0.86301700156E+03  0.44128836458E+03  0.74475000098E+03  0.12223691462E+04  0.50400001928E-02 0. -1.
</event>
<event>
 5   0  0.8958919E-05  0.2006423E+04  0.7818609E-02  0.8603624E-01
       -1   -1    0    0    0  501  0.00000000000E+00  0.00000000000E+00  0.93911866587E+03  0.93911866588E+03  0.50400001928E-02 0.  1.
        1   -1    0    0  501    0  0.00000000000E+00  0.00000000000E+00 -0.10716785890E+04  0.10716785891E+04  0.50400001928E-02 0. -1.
    10030    2    1    2    0    0  0.00000000000E+00  0.00000000000E+00 -0.13255992317E+03  0.20107972549E+04  0.20064230529E+04 0.  0.
        4    1    3    3  502    0 -0.29497063853E+03 -0.81252465416E+03 -0.57653409379E+03  0.10390366526E+04  0.12699999809E+01 0. -1.
       -4    1    3    3    0  502  0.29497063853E+03  0.81252465416E+03  0.44397417062E+03  0.97176060235E+03  0.12699999809E+01 0.  1.
</event>
<event>
 5   0  0.8577422E-05  0.2036046E+04  0.7818609E-02  0.8589951E-01
       -1   -1    0    0    0  501  0.00000000000E+00  0.00000000000E+00  0.46476610669E+03  0.46476610672E+03  0.50400001928E-02 0.  1.
        1   -1    0    0  501    0  0.00000000000E+00  0.00000000000E+00 -0.22298769507E+04  0.22298769507E+04  0.50400001928E-02 0. -1.
    10030    2    1    2    0    0  0.00000000000E+00  0.00000000000E+00 -0.17651108440E+04  0.26946430574E+04  0.20360463932E+04 0.  0.
        2    1    3    3  502    0  0.97589432505E+03  0.25530898776E+03 -0.70099979137E+03  0.12283945296E+04  0.25500000920E-02 0. -1.
       -2    1    3    3    0  502 -0.97589432505E+03 -0.25530898776E+03 -0.10641110526E+04  0.14662485278E+04  0.25500000920E-02 0.  1.
</event>
<event>
 5   0  0.8577422E-05  0.1979441E+04  0.7818609E-02  0.8616293E-01
       -1   -1    0    0    0  501  0.00000000000E+00  0.00000000000E+00  0.50384644604E+03  0.50384644606E+03  0.50400001928E-02 0. -1.
        1   -1    0    0  501    0  0.00000000000E+00  0.00000000000E+00 -0.19441371658E+04  0.19441371658E+04  0.50400001928E-02 0.  1.
    10030    2    1    2    0    0  0.00000000000E+00  0.00000000000E+00 -0.14402907198E+04  0.24479836119E+04  0.19794409328E+04 0.  0.
        2    1    3    3  502    0  0.58704043183E+03 -0.46188052108E+03  0.82852645652E+02  0.75154151266E+03  0.25500000920E-02 0. -1.
       -2    1    3    3    0  502 -0.58704043183E+03  0.46188052108E+03 -0.15231433654E+04  0.16964420992E+04  0.25500000920E-02 0.  1.
</event>
<event>
 5   0  0.8861350E-05  0.2077440E+04  0.7818609E-02  0.8571247E-01
        1   -1    0    0  501    0  0.00000000000E+00  0.00000000000E+00  0.11838004986E+04  0.11838004986E+04  0.50400001928E-02 0. -1.
       -1   -1    0    0    0  501  0.00000000000E+00  0.00000000000E+00 -0.91142000099E+03  0.91142000101E+03  0.50400001928E-02 0.  1.
    10030    2    1    2    0    0  0.00000000000E+00  0.00000000000E+00  0.27238049764E+03  0.20952204996E+04  0.20774402053E+04 0.  0.
        1    1    3    3  502    0  0.56898765181E+03  0.32707387515E+03  0.94819917266E+03  0.11531721202E+04  0.50400001928E-02 0. -1.
       -1    1    3    3    0  502 -0.56898765181E+03 -0.32707387515E+03 -0.67581867502E+03  0.94204837946E+03  0.50400001928E-02 0.  1.
</event>
<event>
 5   0  0.8958919E-05  0.2026321E+04  0.7818609E-02  0.8594413E-01
        1   -1    0    0  501    0  0.00000000000E+00  0.00000000000E+00  0.14317952596E+04  0.14317952596E+04  0.50400001928E-02 0. -1.
       -1   -1    0    0    0  501  0.00000000000E+00  0.00000000000E+00 -0.71692794182E+03  0.71692794183E+03  0.50400001928E-02 0.  1.
    10030    2    1    2    0    0  0.00000000000E+00  0.00000000000E+00  0.71486731774E+03  0.21487232014E+04  0.20263208320E+04 0.  0.
        4    1    3    3  502    0  0.91614655339E+03  0.27769679249E+03  0.56529476617E+01  0.95732626860E+03  0.12699999809E+01 0.  1.
       -4    1    3    3    0  502 -0.91614655339E+03 -0.27769679249E+03  0.70921437007E+03  0.11913969328E+04  0.12699999809E+01 0. -1.
</event>
<event>
 5   0  0.1893687E-04  0.2002871E+04  0.7818609E-02  0.8605279E-01
       -2   -1    0    0    0  501  0.00000000000E+00  0.00000000000E+00  0.69519893865E+03  0.69519893865E+03  0.25500000920E-02 0. -1.
        2   -1    0    0  501    0  0.00000000000E+00  0.00000000000E+00 -0.14425704930E+04  0.14425704930E+04  0.25500000920E-02 0.  1.
    10030    2    1    2    0    0  0.00000000000E+00  0.00000000000E+00 -0.74737155433E+03  0.21377694316E+04  0.20028714144E+04 0.  0.
        4    1    3    3  502    0 -0.11866311555E+03  0.55679375651E+03 -0.12530517144E+04  0.13763140754E+04  0.12699999809E+01 0.  1.
       -4    1    3    3    0  502  0.11866311555E+03 -0.55679375651E+03  0.50568016010E+03  0.76145535621E+03  0.12699999809E+01 0. -1.
</event>
<event>
 5   0  0.1782172E-04  0.1992661E+04  0.7818609E-02  0.8610060E-01
       -2   -1    0    0    0  501  0.00000000000E+00  0.00000000000E+00  0.12864121741E+04  0.12864121741E+04  0.25500000920E-02 0. -1.
        2   -1    0    0  501    0  0.00000000000E+00  0.00000000000E+00 -0.77166107287E+03  0.77166107287E+03  0.25500000920E-02 0.  1.
    10030    2    1    2    0    0  0.00000000000E+00  0.00000000000E+00  0.51475110123E+03  0.20580732470E+04  0.19926607322E+04 0.  0.
        2    1    3    3  502    0  0.88712867933E+03 -0.18084742928E+01  0.72577543114E+03  0.11461895745E+04  0.25500000920E-02 0. -1.
       -2    1    3    3    0  502 -0.88712867933E+03  0.18084742928E+01 -0.21102432991E+03  0.91188367246E+03  0.25500000920E-02 0.  1.
</event>
<event>
 5   0  0.8881384E-05  0.2028194E+04  0.7818609E-02  0.8593551E-01
       -1   -1    0    0    0  501  0.00000000000E+00  0.00000000000E+00  0.50683432568E+03  0.50683432571E+03  0.50400001928E-02 0. -1.
        1   -1    0    0  501    0  0.00000000000E+00  0.00000000000E+00 -0.20290510007E+04  0.20290510007E+04  0.50400001928E-02 0.  1.
    10030    2    1    2    0    0  0.00000000000E+00  0.00000000000E+00 -0.15222166750E+04  0.25358853264E+04  0.20281939707E+04 0.  0.
        5    1    3    3  502    0 -0.63249387275E+03 -0.27899673839E+02  0.22936346335E+03  0.67339184669E+03  0.46999998093E+01 0. -1.
       -5    1    3    3    0  502  0.63249387275E+03  0.27899673839E+02 -0.17515801383E+04  0.18624934797E+04  0.46999998093E+01 0.  1.
</event>
<event>
 5   0  0.1782172E-04  0.2137023E+04  0.7818609E-02  0.8545107E-01
       -2   -1    0    0    0  501  0.00000000000E+00  0.00000000000E+00  0.64816201196E+03  0.64816201197E+03  0.25500000920E-02 0. -1.
        2   -1    0    0  501    0  0.00000000000E+00  0.00000000000E+00 -0.17614687724E+04  0.17614687724E+04  0.25500000920E-02 0.  1.
    10030    2    1    2    0    0  0.00000000000E+00  0.00000000000E+00 -0.11133067604E+04  0.24096307843E+04  0.21370232975E+04 0.  0.
        2    1    3    3  502    0 -0.78304802579E+03 -0.70847320046E+03 -0.74061800392E+03  0.12898114258E+04  0.25500000920E-02 0.  1.
       -2    1    3    3    0  502  0.78304802579E+03  0.70847320046E+03 -0.37268875648E+03  0.11198193585E+04  0.25500000920E-02 0. -1.
</event>
<event>
 5   0  0.8881384E-05  0.1963795E+04  0.7818609E-02  0.8623737E-01
        1   -1    0    0  501    0  0.00000000000E+00  0.00000000000E+00  0.91528844804E+03  0.91528844805E+03  0.50400001928E-02 0.  1.
       -1   -1    0    0    0  501  0.00000000000E+00  0.00000000000E+00 -0.10533539055E+04  0.10533539055E+04  0.50400001928E-02 0. -1.
    10030    2    1    2    0    0  0.00000000000E+00  0.00000000000E+00 -0.13806545747E+03  0.19686423536E+04  0.19637949602E+04 0.  0.
        5    1    3    3  502    0 -0.71822077196E+03 -0.32658525904E+03 -0.65494232023E+03  0.10254123763E+04  0.46999998093E+01 0. -1.
       -5    1    3    3    0  502  0.71822077196E+03  0.32658525904E+03  0.51687686277E+03  0.94322997724E+03  0.46999998093E+01 0.  1.
</event>
<event>
 5   0  0.1834645E-04  0.2003597E+04  0.7818609E-02  0.8604941E-01
        2   -1    0    0  501    0  0.00000000000E+00  0.00000000000E+00  0.55585805502E+03  0.55585805503E+03  0.25500000920E-02 0.  1.
       -2   -1    0    0    0  501  0.00000000000E+00  0.00000000000E+00 -0.18054974320E+04  0.18054974320E+04  0.25500000920E-02 0. -1.
    10030    2    1    2    0    0  0.00000000000E+00  0.00000000000E+00 -0.12496393770E+04  0.23613554870E+04  0.20035970562E+04 0.  0.
        1    1    3    3  502    0  0.65680568374E+03  0.69756038126E+03 -0.96966847787E+03  0.13631731910E+04  0.50400001928E-02 0. -1.
       -1    1    3    3    0  502 -0.65680568374E+03 -0.69756038126E+03 -0.27997089910E+03  0.99818229601E+03  0.50400001928E-02 0.  1.
</event>
<event>
 5   0  0.1893687E-04  0.1965306E+04  0.7818609E-02  0.8623015E-01
       -2   -1    0    0    0  501  0.00000000000E+00  0.00000000000E+00  0.68756927427E+03  0.68756927428E+03  0.25500000920E-02 0. -1.
        2   -1    0    0  501    0  0.00000000000E+00  0.00000000000E+00 -0.14043777619E+04  0.14043777619E+04  0.25500000920E-02 0.  1.
    10030    2    1    2    0    0  0.00000000000E+00  0.00000000000E+00 -0.71680848759E+03  0.20919470361E+04  0.19653060815E+04 0.  0.
        4    1    3    3  502    0 -0.88520949828E+03  0.88390492890E+02  0.85859003691E+02  0.89374611412E+03  0.12699999809E+01 0. -1.
       -4    1    3    3    0  502  0.88520949828E+03 -0.88390492890E+02 -0.80266749128E+03  0.11982009220E+04  0.12699999809E+01 0.  1.
</event>
<event>
 5   0  0.8881384E-05  0.2033742E+04  0.7818609E-02  0.8591006E-01
       -1   -1    0    0    0  501  0.00000000000E+00  0.00000000000E+00  0.64615869878E+03  0.64615869880E+03  0.50400001928E-02 0. -1.
        1   -1    0    0  501    0  0.00000000000E+00  0.00000000000E+00 -0.16002669595E+04  0.16002669595E+04  0.50400001928E-02 0.  1.
    10030    2    1    2    0    0  0.00000000000E+00  0.00000000000E+00 -0.95410826074E+03  0.22464256583E+04  0.20337417892E+04 0.  0.
        5    1    3    3  502    0 -0.79429810537E+03  0.33194106730E+03  0.12075606636E+03  0.86930919120E+03  0.46999998093E+01 0. -1.
       -5    1    3    3    0  502  0.79429810537E+03 -0.33194106730E+03 -0.10748643271E+04  0.13771164671E+04  0.46999998093E+01 0.  1.
</event>
<event>
 5   0  0.1893687E-04  0.1989874E+04  0.7818609E-02  0.8611370E-01
        2   -1    0    0  501    0  0.00000000000E+00  0.00000000000E+00  0.93921963269E+03  0.93921963269E+03  0.25500000920E-02 0.  1.
       -2   -1    0    0    0  501  0.00000000000E+00  0.00000000000E+00 -0.10539594272E+04  0.10539594272E+04  0.25500000920E-02 0. -1.
    10030    2    1    2    0    0  0.00000000000E+00  0.00000000000E+00 -0.11473979452E+03  0.19931790599E+04  0.19898737509E+04 0.  0.
        4    1    3    3  502    0 -0.74322215697E+03 -0.16372498887E+03 -0.69930314974E+03  0.10335432041E+04  0.12699999809E+01 0. -1.
       -4    1    3    3    0  502  0.74322215697E+03  0.16372498887E+03  0.58456335522E+03  0.95963585581E+03  0.12699999809E+01 0.  1.
</event>
<event>
 5   0  0.1807498E-04  0.1985970E+04  0.7818609E-02  0.8613208E-01
        2   -1    0    0  501    0  0.00000000000E+00  0.00000000000E+00  0.21705948688E+04  0.21705948688E+04  0.25500000920E-02 0.  1.
       -2   -1    0    0    0  501  0.00000000000E+00  0.00000000000E+00 -0.45426222231E+03  0.45426222232E+03  0.25500000920E-02 0. -1.
    10030    2    1    2    0    0  0.00000000000E+00  0.00000000000E+00  0.17163326465E+04  0.26248570912E+04  0.19859700389E+04 0.  0.
        5    1    3    3  502    0  0.55611975980E+03 -0.17708703060E+02  0.19451909544E+04  0.20232085222E+04  0.46999998093E+01 0.  1.
       -5    1    3    3    0  502 -0.55611975980E+03  0.17708703060E+02 -0.22885830787E+03  0.60164856892E+03  0.46999998093E+01 0. -1.
</event>
<event>
 5   0  0.1834645E-04  0.1960469E+04  0.7818609E-02  0.8625329E-01
       -2   -1    0    0    0  501  0.00000000000E+00  0.00000000000E+00  0.12029532803E+04  0.12029532803E+04  0.25500000920E-02 0. -1.
        2   -1    0    0  501    0  0.00000000000E+00  0.00000000000E+00 -0.79875090213E+03  0.79875090214E+03  0.25500000920E-02 0.  1.
    10030    2    1    2    0    0  0.00000000000E+00  0.00000000000E+00  0.40420237814E+03  0.20017041824E+04  0.19604693498E+04 0.  0.
        1    1    3    3  502    0  0.64435750202E+03 -0.69987989952E+03 -0.39155684991E+02  0.95213530124E+03  0.50400001928E-02 0. -1.
       -1    1    3    3    0  502 -0.64435750202E+03  0.69987989952E+03  0.44335806313E+03  0.10495688812E+04  0.50400001928E-02 0.  1.
</event>
<event>
 5   0  0.8958919E-05  0.1733316E+04  0.7818609E-02  0.8742588E-01
        1   -1    0    0  501    0  0.00000000000E+00  0.00000000000E+00  0.19429581839E+04  0.19429581839E+04  0.50400001928E-02 0. -1.
       -1   -1    0    0    0  501  0.00000000000E+00  0.00000000000E+00 -0.38657362036E+03  0.38657362040E+03  0.50400001928E-02 0.  1.
    10030    2    1    2    0    0  0.00000000000E+00  0.00000000000E+00  0.15563845636E+04  0.23295318043E+04  0.17333163351E+04 0.  0.
        4    1    3    3  502    0  0.77368168059E+03 -0.52206264567E+01  0.25338096376E+03  0.81413397148E+03  0.12699999809E+01 0.  1.
       -4    1    3    3    0  502 -0.77368168059E+03  0.52206264567E+01  0.13030035998E+04  0.15153978329E+04  0.12699999809E+01 0. -1.
</event>
<event>
 5   0  0.1834645E-04  0.2029421E+04  0.7818609E-02  0.8592987E-01
        2   -1    0    0  501    0  0.00000000000E+00  0.00000000000E+00  0.13598458421E+04  0.13598458421E+04  0.25500000920E-02 0.  1.
       -2   -1    0    0    0  501  0.00000000000E+00  0.00000000000E+00 -0.75717250640E+03  0.75717250640E+03  0.25500000920E-02 0. -1.
    10030    2    1    2    0    0  0.00000000000E+00  0.00000000000E+00  0.60267333567E+03  0.21170183485E+04  0.20294214787E+04 0.  0.
        1    1    3    3  502    0  0.75933370329E+03 -0.63867384613E+03  0.52298357259E+03  0.11216076729E+04  0.50400001928E-02 0.  1.
       -1    1    3    3    0  502 -0.75933370329E+03  0.63867384613E+03  0.79689763077E+02  0.99541067557E+03  0.50400001928E-02 0. -1.
</event>
<event>
 5   0  0.8577422E-05  0.1978825E+04  0.7818609E-02  0.8616585E-01
        1   -1    0    0  501    0  0.00000000000E+00  0.00000000000E+00  0.12200454567E+04  0.12200454567E+04  0.50400001928E-02 0.  1.
       -1   -1    0    0    0  501  0.00000000000E+00  0.00000000000E+00 -0.80237715795E+03  0.80237715796E+03  0.50400001928E-02 0. -1.
    10030    2    1    2    0    0  0.00000000000E+00  0.00000000000E+00  0.41766829871E+03  0.20224226146E+04  0.19788245057E+04 0.  0.
        2    1    3    3  502    0 -0.64108911406E+03 -0.18763070219E+03 -0.53713468849E+03  0.85715471541E+03  0.25500000920E-02 0. -1.
       -2    1    3    3    0  502  0.64108911406E+03  0.18763070219E+03  0.95480298719E+03  0.11652678992E+04  0.25500000920E-02 0.  1.
</event>
<event>
 5   0  0.1812865E-04  0.2022846E+04  0.7818609E-02  0.8596013E-01
       -2   -1    0    0    0  501  0.00000000000E+00  0.00000000000E+00  0.79158095630E+03  0.79158095631E+03  0.25500000920E-02 0. -1.
        2   -1    0    0  501    0  0.00000000000E+00  0.00000000000E+00 -0.12923212024E+04  0.12923212024E+04  0.25500000920E-02 0.  1.
    10030    2    1    2    0    0  0.00000000000E+00  0.00000000000E+00 -0.50074024607E+03  0.20839021587E+04  0.20228463641E+04 0.  0.
        3    1    3    3  502    0 -0.29748381129E+03 -0.82280348725E+02  0.74187868058E+03  0.80352390174E+03  0.10100000352E+00 0. -1.
       -3    1    3    3    0  502  0.29748381129E+03  0.82280348725E+02 -0.12426189266E+04  0.12803782569E+04  0.10100000352E+00 0.  1.
</event>
<event>
 5   0  0.8958919E-05  0.1993157E+04  0.7818609E-02  0.8609827E-01
        1   -1    0    0  501    0  0.00000000000E+00  0.00000000000E+00  0.11596682604E+04  0.11596682604E+04  0.50400001928E-02 0. -1.
       -1   -1    0    0    0  501  0.00000000000E+00  0.00000000000E+00 -0.85642475262E+03  0.85642475264E+03  0.50400001928E-02 0.  1.
    10030    2    1    2    0    0  0.00000000000E+00  0.00000000000E+00  0.30324350779E+03  0.20160930131E+04  0.19931568961E+04 0.  0.
        4    1    3    3  502    0 -0.23214410495E+03  0.60638263597E+03 -0.61310475966E+03  0.89302286974E+03  0.12699999809E+01 0.  1.
       -4    1    3    3    0  502  0.23214410495E+03 -0.60638263597E+03  0.91634826744E+03  0.11230701433E+04  0.12699999809E+01 0. -1.
</event>
<event>
 5   0  0.8861350E-05  0.2007599E+04  0.7818609E-02  0.8603076E-01
        1   -1    0    0  501    0  0.00000000000E+00  0.00000000000E+00  0.78948262304E+03  0.78948262306E+03  0.50400001928E-02 0. -1.
       -1   -1    0    0    0  501  0.00000000000E+00  0.00000000000E+00 -0.12762964319E+04  0.12762964319E+04  0.50400001928E-02 0.  1.
    10030    2    1    2    0    0  0.00000000000E+00  0.00000000000E+00 -0.48681380886E+03  0.20657790550E+04  0.20075994171E+04 0.  0.
        1    1    3    3  502    0  0.63648457912E+02 -0.81462582037E+03 -0.84335369669E+03  0.11742707572E+04  0.50400001928E-02 0.  1.
       -1    1    3    3    0  502 -0.63648457912E+02  0.81462582037E+03  0.35653988783E+03  0.89150829780E+03  0.50400001928E-02 0. -1.
</event>
<event>
 5   0  0.1834645E-04  0.1991278E+04  0.7818609E-02  0.8610709E-01
       -2   -1    0    0    0  501  0.00000000000E+00  0.00000000000E+00  0.47604087892E+03  0.47604087893E+03  0.25500000920E-02 0.  1.
        2   -1    0    0  501    0  0.00000000000E+00  0.00000000000E+00 -0.20823777621E+04  0.20823777621E+04  0.25500000920E-02 0. -1.
    10030    2    1    2    0    0  0.00000000000E+00  0.00000000000E+00 -0.16063368832E+04  0.25584186410E+04  0.19912779215E+04 0.  0.
        1    1    3    3  502    0 -0.71462850773E+03 -0.46048114524E+02  0.85567635569E+02  0.72120465417E+03  0.50400001928E-02 0.  1.
       -1    1    3    3    0  502  0.71462850773E+03  0.46048114524E+02 -0.16919045187E+04  0.18372139868E+04  0.50400001928E-02 0. -1.
</event>
<event>
 5   0  0.1893687E-04  0.1915688E+04  0.7818609E-02  0.8647087E-01
        2   -1    0    0  501    0  0.00000000000E+00  0.00000000000E+00  0.27940208022E+04  0.27940208022E+04  0.25500000920E-02 0. -1.
       -2   -1    0    0    0  501  0.00000000000E+00  0.00000000000E+00 -0.32836721536E+03  0.32836721537E+03  0.25500000920E-02 0.  1.
    10030    2    1    2    0    0  0.00000000000E+00  0.00000000000E+00  0.24656535868E+04  0.31223880175E+04  0.19156876890E+04 0.  0.
        4    1    3    3  502    0  0.62884612434E+03 -0.54233529793E+03  0.20109046874E+04  0.21756181417E+04  0.12699999809E+01 0. -1.
       -4    1    3    3    0  502 -0.62884612434E+03  0.54233529793E+03  0.45474889936E+03  0.94676987587E+03  0.12699999809E+01 0.  1.
</event>
<event>
 5   0  0.8881384E-05  0.2174520E+04  0.7818609E-02  0.8529109E-01
       -1   -1    0    0    0  501  0.00000000000E+00  0.00000000000E+00  0.15726818256E+04  0.15726818256E+04  0.50400001928E-02 0.  1.
        1   -1    0    0  501    0  0.00000000000E+00  0.00000000000E+00 -0.75166795628E+03  0.75166795630E+03  0.50400001928E-02 0. -1.
    10030    2    1    2    0    0  0.00000000000E+00  0.00000000000E+00  0.82101386927E+03  0.23243497819E+04  0.21745202080E+04 0.  0.
        5    1    3    3  502    0 -0.49105970441E+02  0.37243056964E+03 -0.68008598631E+03  0.77695235652E+03  0.46999998093E+01 0. -1.
       -5    1    3    3    0  502  0.49105970441E+02 -0.37243056964E+03  0.15010998556E+04  0.15473974253E+04  0.46999998093E+01 0.  1.
</event>
<event>
 5   0  0.1834645E-04  0.1967278E+04  0.7818609E-02  0.8622074E-01
       -2   -1    0    0    0  501  0.00000000000E+00  0.00000000000E+00  0.11518664749E+04  0.11518664749E+04  0.25500000920E-02 0.  1.
        2   -1    0    0  501    0  0.00000000000E+00  0.00000000000E+00 -0.83998104872E+03  0.83998104872E+03  0.25500000920E-02 0. -1.
    10030    2    1    2    0    0  0.00000000000E+00  0.00000000000E+00  0.31188542615E+03  0.19918475236E+04  0.19672783327E+04 0.  0.
        1    1    3    3  502    0 -0.48247780906E+03 -0.82807494806E+03 -0.68302564327E+02  0.96081121775E+03  0.50400001928E-02 0. -1.
       -1    1    3    3    0  502  0.48247780906E+03  0.82807494806E+03  0.38018799047E+03  0.10310363058E+04  0.50400001928E-02 0.  1.
</event>
<event>
 5   0  0.1812865E-04  0.1984171E+04  0.7818609E-02  0.8614057E-01
        2   -1    0    0  501    0  0.00000000000E+00  0.00000000000E+00  0.10074930107E+04  0.10074930107E+04  0.25500000920E-02 0.  1.
       -2   -1    0    0    0  501  0.00000000000E+00  0.00000000000E+00 -0.97691374910E+03  0.97691374910E+03  0.25500000920E-02 0. -1.
    10030    2    1    2    0    0  0.00000000000E+00  0.00000000000E+00  0.30579261569E+02  0.19844067598E+04  0.19841711360E+04 0.  0.
        3    1    3    3  502    0 -0.35718897884E+03  0.96175399381E+02 -0.90536305205E+03  0.97801632924E+03  0.10100000352E+00 0. -1.
       -3    1    3    3    0  502  0.35718897884E+03 -0.96175399381E+02  0.93594231362E+03  0.10063904305E+04  0.10100000352E+00 0.  1.
</event>
<event>
 5   0  0.8861350E-05  0.2002017E+04  0.7818609E-02  0.8605678E-01
        1   -1    0    0  501    0  0.00000000000E+00  0.00000000000E+00  0.22841529376E+04  0.22841529376E+04  0.50400001928E-02 0. -1.
       -1   -1    0    0    0  501  0.00000000000E+00  0.00000000000E+00 -0.43868266055E+03  0.43868266058E+03  0.50400001928E-02 0.  1.
    10030    2    1    2    0    0  0.00000000000E+00  0.00000000000E+00  0.18454702771E+04  0.27228355982E+04  0.20020172705E+04 0.  0.
        1    1    3    3  502    0  0.95248820416E+03  0.29949318392E+03  0.82571950422E+03  0.12956630140E+04  0.50400001928E-02 0. -1.
       -1    1    3    3    0  502 -0.95248820416E+03 -0.29949318392E+03  0.10197507728E+04  0.14271725842E+04  0.50400001928E-02 0.  1.
</event>
<event>
 5   0  0.8861350E-05  0.2011083E+04  0.7818609E-02  0.8601457E-01
       -1   -1    0    0    0  501  0.00000000000E+00  0.00000000000E+00  0.78520295853E+03  0.78520295855E+03  0.50400001928E-02 0.  1.
        1   -1    0    0  501    0  0.00000000000E+00  0.00000000000E+00 -0.12877096871E+04  0.12877096871E+04  0.50400001928E-02 0. -1.
    10030    2    1    2    0    0  0.00000000000E+00  0.00000000000E+00 -0.50250672856E+03  0.20729126456E+04  0.20110827492E+04 0.  0.
        1    1    3    3  502    0  0.44367939069E+03  0.24932574167E+03 -0.11451524386E+04  0.12531515610E+04  0.50400001928E-02 0. -1.
       -1    1    3    3    0  502 -0.44367939069E+03 -0.24932574167E+03  0.64264571006E+03  0.81976108462E+03  0.50400001928E-02 0.  1.
</event>
<event>
 5   0  0.8765057E-05  0.1998984E+04  0.7818609E-02  0.8607096E-01
       -1   -1    0    0    0  501  0.00000000000E+00  0.00000000000E+00  0.11921178426E+04  0.11921178426E+04  0.50400001928E-02 0.  1.
        1   -1    0    0  501    0  0.00000000000E+00  0.00000000000E+00 -0.83799091861E+03  0.83799091862E+03  0.50400001928E-02 0. -1.
    10030    2    1    2    0    0  0.00000000000E+00  0.00000000000E+00  0.35412692399E+03  0.20301087612E+04  0.19989836678E+04 0.  0.
        3    1    3    3  502    0 -0.81545959607E+03  0.53579369895E+03 -0.42953907463E+02  0.97667511949E+03  0.10100000352E+00 0. -1.
       -3    1    3    3    0  502  0.81545959607E+03 -0.53579369895E+03  0.39708083145E+03  0.10534336417E+04  0.10100000352E+00 0.  1.
</event>
<event>
 5   0  0.8881384E-05  0.1976720E+04  0.7818609E-02  0.8617583E-01
        1   -1    0    0  501    0  0.00000000000E+00  0.00000000000E+00  0.11804618379E+04  0.11804618380E+04  0.50400001928E-02 0. -1.
       -1   -1    0    0    0  501  0.00000000000E+00  0.00000000000E+00 -0.82751980873E+03  0.82751980875E+03  0.50400001928E-02 0.  1.
    10030    2    1    2    0    0  0.00000000000E+00  0.00000000000E+00  0.35294202922E+03  0.20079816467E+04  0.19767200655E+04 0.  0.
        5    1    3    3  502    0  0.55418743891E+03  0.15603505466E+03 -0.63957854583E+03  0.86055415984E+03  0.46999998093E+01 0.  1.
       -5    1    3    3    0  502 -0.55418743891E+03 -0.15603505466E+03  0.99252057505E+03  0.11474274869E+04  0.46999998093E+01 0. -1.
</event>
<event>
 5   0  0.8881384E-05  0.1979221E+04  0.7818609E-02  0.8616398E-01
       -1   -1    0    0    0  501  0.00000000000E+00  0.00000000000E+00  0.65158614405E+03  0.65158614407E+03  0.50400001928E-02 0. -1.
        1   -1    0    0  501    0  0.00000000000E+00  0.00000000000E+00 -0.15029919452E+04  0.15029919452E+04  0.50400001928E-02 0.  1.
    10030    2    1    2    0    0  0.00000000000E+00  0.00000000000E+00 -0.85140580114E+03  0.21545780893E+04  0.19792207822E+04 0.  0.
        5    1    3    3  502    0  0.50316836570E+03  0.59913145668E+03  0.23392866717E+03  0.81662820056E+03  0.46999998093E+01 0. -1.
       -5    1    3    3    0  502 -0.50316836570E+03 -0.59913145668E+03 -0.10853344683E+04  0.13379498887E+04  0.46999998093E+01 0.  1.
</event>
<event>
 5   0  0.1893687E-04  0.2017315E+04  0.7818609E-02  0.8598568E-01
        2   -1    0    0  501    0  0.00000000000E+00  0.00000000000E+00  0.10398875623E+04  0.10398875623E+04  0.25500000920E-02 0.  1.
       -2   -1    0    0    0  501  0.00000000000E+00  0.00000000000E+00 -0.97836510785E+03  0.97836510785E+03  0.25500000920E-02 0. -1.
    10030    2    1    2    0    0  0.00000000000E+00  0.00000000000E+00  0.61522454488E+02  0.20182526702E+04  0.20173147569E+04 0.  0.
        4    1    3    3  502    0 -0.69717351071E+03  0.71927304768E+03  0.14906794200E+03  0.10127326821E+04  0.12699999809E+01 0.  1.
       -4    1    3    3    0  502  0.69717351071E+03 -0.71927304768E+03 -0.87545487511E+02  0.10055199881E+04  0.12699999809E+01 0. -1.
</event>
<event>
 5   0  0.1834645E-04  0.2003713E+04  0.7818609E-02  0.8604886E-01
       -2   -1    0    0    0  501  0.00000000000E+00  0.00000000000E+00  0.60639810867E+03  0.60639810868E+03  0.25500000920E-02 0.  1.
        2   -1    0    0  501    0  0.00000000000E+00  0.00000000000E+00 -0.16552111914E+04  0.16552111914E+04  0.25500000920E-02 0. -1.
    10030    2    1    2    0    0  0.00000000000E+00  0.00000000000E+00 -0.10488130827E+04  0.22616093000E+04  0.20037134884E+04 0.  0.
        1    1    3    3  502    0  0.10592195620E+03 -0.31132639062E+03  0.54374418782E+03  0.63545363647E+03  0.50400001928E-02 0.  1.
       -1    1    3    3    0  502 -0.10592195620E+03  0.31132639062E+03 -0.15925572705E+04  0.16261556636E+04  0.50400001928E-02 0. -1.
</event>
<event>
 5   0  0.8577422E-05  0.1962529E+04  0.7818609E-02  0.8624343E-01
        1   -1    0    0  501    0  0.00000000000E+00  0.00000000000E+00  0.10281390390E+04  0.10281390390E+04  0.50400001928E-02 0.  1.
       -1   -1    0    0    0  501  0.00000000000E+00  0.00000000000E+00 -0.93652715916E+03  0.93652715917E+03  0.50400001928E-02 0. -1.
    10030    2    1    2    0    0  0.00000000000E+00  0.00000000000E+00  0.91611879836E+02  0.19646661982E+04  0.19625291167E+04 0.  0.
        2    1    3    3  502    0 -0.79677099811E+03  0.57245766672E+03  0.63945544862E+02  0.98317894421E+03  0.25500000920E-02 0. -1.
       -2    1    3    3    0  502  0.79677099811E+03 -0.57245766672E+03  0.27666334974E+02  0.98148725397E+03  0.25500000920E-02 0.  1.
</event>
<event>
 5   0  0.1807498E-04  0.1973918E+04  0.7818609E-02  0.8618913E-01
        2   -1    0    0  501    0  0.00000000000E+00  0.00000000000E+00  0.86091768577E+03  0.86091768577E+03  0.25500000920E-02 0.  1.
       -2   -1    0    0    0  501  0.00000000000E+00  0.00000000000E+00 -0.11314537669E+04  0.11314537669E+04  0.25500000920E-02 0. -1.
    10030    2    1    2    0    0  0.00000000000E+00  0.00000000000E+00 -0.27053608109E+03  0.19923714526E+04  0.19739184973E+04 0.  0.
        5    1    3    3  502    0 -0.66558146128E+03  0.67227637448E+03 -0.41916647530E+03  0.10347351493E+04  0.46999998093E+01 0.  1.
       -5    1    3    3    0  502  0.66558146128E+03 -0.67227637448E+03  0.14863039422E+03  0.95763630328E+03  0.46999998093E+01 0. -1.
</event>
<event>
 5   0  0.8577422E-05  0.2098661E+04  0.7818609E-02  0.8561833E-01
        1   -1    0    0  501    0  0.00000000000E+00  0.00000000000E+00  0.83444042728E+03  0.83444042729E+03  0.50400001928E-02 0.  1.
       -1   -1    0    0    0  501  0.00000000000E+00  0.00000000000E+00 -0.13195607678E+04  0.13195607678E+04  0.50400001928E-02 0. -1.
    10030    2    1    2    0    0  0.00000000000E+00  0.00000000000E+00 -0.48512034052E+03  0.21540011951E+04  0.20986613361E+04 0.  0.
        2    1    3    3  502    0 -0.30307442582E+03 -0.20988388167E+02 -0.12734355436E+04  0.13091725264E+04  0.25500000920E-02 0. -1.
       -2    1    3    3    0  502  0.30307442582E+03  0.20988388167E+02  0.78831520312E+03  0.84482866872E+03  0.25500000920E-02 0.  1.
</event>
<event>
 5   0  0.1782172E-04  0.2138755E+04  0.7818609E-02  0.8544361E-01
        2   -1    0    0  501    0  0.00000000000E+00  0.00000000000E+00  0.22714583911E+04  0.22714583911E+04  0.25500000920E-02 0.  1.
       -2   -1    0    0    0  501  0.00000000000E+00  0.00000000000E+00 -0.50345106917E+03  0.50345106918E+03  0.25500000920E-02 0. -1.
    10030    2    1    2    0    0  0.00000000000E+00  0.00000000000E+00  0.17680073219E+04  0.27749094603E+04  0.21387549234E+04 0.  0.
        2    1    3    3  502    0  0.11049944697E+03 -0.86229975838E+03  0.76043207473E+02  0.87267036760E+03  0.25500000920E-02 0. -1.
       -2    1    3    3    0  502 -0.11049944697E+03  0.86229975838E+03  0.16919641145E+04  0.19022390927E+04  0.25500000920E-02 0.  1.
</event>
<event>
 5   0  0.1812865E-04  0.1975863E+04  0.7818609E-02  0.8617989E-01
       -2   -1    0    0    0  501  0.00000000000E+00  0.00000000000E+00  0.55008869266E+03  0.55008869267E+03  0.25500000920E-02 0. -1.
        2   -1    0    0  501    0  0.00000000000E+00  0.00000000000E+00 -0.17742752398E+04  0.17742752398E+04  0.25500000920E-02 0.  1.
    10030    2    1    2    0    0  0.00000000000E+00  0.00000000000E+00 -0.12241865471E+04  0.23243639325E+04  0.19758630996E+04 0.  0.
        3    1    3    3  502    0 -0.12069422585E+02 -0.51067846393E+03 -0.16068610989E+04  0.16861022406E+04  0.10100000352E+00 0. -1.
       -3    1    3    3    0  502  0.12069422585E+02  0.51067846393E+03  0.38267455177E+03  0.63826169183E+03  0.10100000352E+00 0.  1.
</event>
<event>
 5   0  0.1834645E-04  0.2111924E+04  0.7818609E-02  0.8556009E-01
       -2   -1    0    0    0  501  0.00000000000E+00  0.00000000000E+00  0.50201900101E+03  0.50201900101E+03  0.25500000920E-02 0. -1.
        2   -1    0    0  501    0  0.00000000000E+00  0.00000000000E+00 -0.22211421909E+04  0.22211421909E+04  0.25500000920E-02 0.  1.
    10030    2    1    2    0    0  0.00000000000E+00  0.00000000000E+00 -0.17191231899E+04  0.27231611919E+04  0.21119238469E+04 0.  0.
        1    1    3    3  502    0 -0.17682492392E+03  0.10179660681E+04 -0.57843915505E+03  0.11841088741E+04  0.50400001928E-02 0. -1.
       -1    1    3    3    0  502  0.17682492392E+03 -0.10179660681E+04 -0.11406840348E+04  0.15390523178E+04  0.50400001928E-02 0.  1.
</event>
<event>
 5   0  0.1893687E-04  0.2046614E+04  0.7818609E-02  0.8585132E-01
       -2   -1    0    0    0  501  0.00000000000E+00  0.00000000000E+00  0.60160102108E+03  0.60160102109E+03  0.25500000920E-02 0. -1.
        2   -1    0    0  501    0  0.00000000000E+00  0.00000000000E+00 -0.17406182624E+04  0.17406182624E+04  0.25500000920E-02 0.  1.
    10030    2    1    2    0    0  0.00000000000E+00  0.00000000000E+00 -0.11390172413E+04  0.23422192835E+04  0.20466144962E+04 0.  0.
        4    1    3    3  502    0  0.94206171625E+03  0.12081733033E+03 -0.13360167121E+03  0.95912883596E+03  0.12699999809E+01 0. -1.
       -4    1    3    3    0  502 -0.94206171625E+03 -0.12081733033E+03 -0.10054155701E+04  0.13830904475E+04  0.12699999809E+01 0.  1.
</event>
<event>
 5   0  0.8881384E-05  0.1951953E+04  0.7818609E-02  0.8629420E-01
       -1   -1    0    0    0  501  0.00000000000E+00  0.00000000000E+00  0.57701721867E+03  0.57701721869E+03  0.50400001928E-02 0. -1.
        1   -1    0    0  501    0  0.00000000000E+00  0.00000000000E+00 -0.16507820084E+04  0.16507820084E+04  0.50400001928E-02 0.  1.
    10030    2    1    2    0    0  0.00000000000E+00  0.00000000000E+00 -0.10737647897E+04  0.22277992271E+04  0.19519525027E+04 0.  0.
        5    1    3    3  502    0 -0.12740223591E+03  0.47681567504E+03 -0.14978446893E+04  0.15770685847E+04  0.46999998093E+01 0.  1.
       -5    1    3    3    0  502  0.12740223591E+03 -0.47681567504E+03  0.42407989959E+03  0.65073064236E+03  0.46999998093E+01 0. -1.
</event>
<event>
 5   0  0.8958919E-05  0.1986229E+04  0.7818609E-02  0.8613086E-01
        1   -1    0    0  501    0  0.00000000000E+00  0.00000000000E+00  0.90202942458E+03  0.90202942460E+03  0.50400001928E-02 0. -1.
       -1   -1    0    0    0  501  0.00000000000E+00  0.00000000000E+00 -0.10933973535E+04  0.10933973535E+04  0.50400001928E-02 0.  1.
    10030    2    1    2    0    0  0.00000000000E+00  0.00000000000E+00 -0.19136792890E+03  0.19954267781E+04  0.19862291767E+04 0.  0.
        4    1    3    3  502    0 -0.73894632973E+03 -0.42040319899E+03  0.42001014491E+03  0.94825664388E+03  0.12699999809E+01 0. -1.
       -4    1    3    3    0  502  0.73894632973E+03  0.42040319899E+03 -0.61137807381E+03  0.10471701342E+04  0.12699999809E+01 0.  1.
</event>
<event>
 5   0  0.8881384E-05  0.1966645E+04  0.7818609E-02  0.8622376E-01
       -1   -1    0    0    0  501  0.00000000000E+00  0.00000000000E+00  0.11173852708E+04  0.11173852708E+04  0.50400001928E-02 0.  1.
        1   -1    0    0  501    0  0.00000000000E+00  0.00000000000E+00 -0.86534427884E+03  0.86534427886E+03  0.50400001928E-02 0. -1.
    10030    2    1    2    0    0  0.00000000000E+00  0.00000000000E+00  0.25204099198E+03  0.19827295497E+04  0.19666448092E+04 0.  0.
        5    1    3    3  502    0 -0.30493684116E+03 -0.56323228041E+03  0.87823522630E+03  0.10869849500E+04  0.46999998093E+01 0.  1.
       -5    1    3    3    0  502  0.30493684116E+03  0.56323228041E+03 -0.62619423432E+03  0.89574459970E+03  0.46999998093E+01 0. -1.
</event>
<event>
 5   0  0.1812865E-04  0.1895024E+04  0.7818609E-02  0.8657337E-01
        2   -1    0    0  501    0  0.00000000000E+00  0.00000000000E+00  0.81914968982E+03  0.81914968982E+03  0.25500000920E-02 0.  1.
       -2   -1    0    0    0  501  0.00000000000E+00  0.00000000000E+00 -0.10959884155E+04  0.10959884155E+04  0.25500000920E-02 0. -1.
    10030    2    1    2    0    0  0.00000000000E+00  0.00000000000E+00 -0.27683872566E+03  0.19151381053E+04  0.18950235572E+04 0.  0.
        3    1    3    3  502    0  0.81133362857E+03 -0.48275234944E+03 -0.57151431108E+02  0.94582153920E+03  0.10100000352E+00 0. -1.
       -3    1    3    3    0  502 -0.81133362857E+03  0.48275234944E+03 -0.21968729455E+03  0.96931656611E+03  0.10100000352E+00 0.  1.
</event>
<event>
 5   0  0.1782172E-04  0.2021575E+04  0.7818609E-02  0.8596600E-01
       -2   -1    0    0    0  501  0.00000000000E+00  0.00000000000E+00  0.11344592186E+04  0.11344592186E+04  0.25500000920E-02 0. -1.
        2   -1    0    0  501    0  0.00000000000E+00  0.00000000000E+00 -0.90059749498E+03  0.90059749498E+03  0.25500000920E-02 0.  1.
    10030    2    1    2    0    0  0.00000000000E+00  0.00000000000E+00  0.23386172362E+03  0.20350567136E+04  0.20215747628E+04 0.  0.
        2    1    3    3  502    0  0.58280030854E+03  0.54473477701E+03 -0.50793331038E+03  0.94572111360E+03  0.25500000920E-02 0.  1.
       -2    1    3    3    0  502 -0.58280030854E+03 -0.54473477701E+03  0.74179503400E+03  0.10893356000E+04  0.25500000920E-02 0. -1.
</event>
<event>
 5   0  0.1807498E-04  0.1997232E+04  0.7818609E-02  0.8607916E-01
       -2   -1    0    0    0  501  0.00000000000E+00  0.00000000000E+00  0.59152291659E+03  0.59152291660E+03  0.25500000920E-02 0.  1.
        2   -1    0    0  501    0  0.00000000000E+00  0.00000000000E+00 -0.16858758455E+04  0.16858758455E+04  0.25500000920E-02 0. -1.
    10030    2    1    2    0    0  0.00000000000E+00  0.00000000000E+00 -0.10943529289E+04  0.22773987621E+04  0.19972322821E+04 0.  0.
        5    1    3    3  502    0  0.26944510443E+03 -0.91447961245E+03 -0.88608731032E+03  0.13015553916E+04  0.46999998093E+01 0. -1.
       -5    1    3    3    0  502 -0.26944510443E+03  0.91447961245E+03 -0.20826561860E+03  0.97584337051E+03  0.46999998093E+01 0.  1.
</event>
<event>
 5   0  0.8958919E-05  0.2010630E+04  0.7818609E-02  0.8601667E-01
       -1   -1    0    0    0  501  0.00000000000E+00  0.00000000000E+00  0.66165306629E+03  0.66165306630E+03  0.50400001928E-02 0. -1.
        1   -1    0    0  501    0  0.00000000000E+00  0.00000000000E+00 -0.15274745311E+04  0.15274745311E+04  0.50400001928E-02 0.  1.
    10030    2    1    2    0    0  0.00000000000E+00  0.00000000000E+00 -0.86582146483E+03  0.21891275974E+04  0.20106299582E+04 0.  0.
        4    1    3    3  502    0 -0.59411026985E+03 -0.73486625373E+03 -0.59440914991E+02  0.94685281797E+03  0.12699999809E+01 0. -1.
       -4    1    3    3    0  502  0.59411026985E+03  0.73486625373E+03 -0.80638054983E+03  0.12422747795E+04  0.12699999809E+01 0.  1.
</event>
<event>
 5   0  0.8861350E-05  0.1931052E+04  0.7818609E-02  0.8639552E-01
        1   -1    0    0  501    0  0.00000000000E+00  0.00000000000E+00  0.16219894237E+04  0.16219894237E+04  0.50400001928E-02 0.  1.
       -1   -1    0    0    0  501  0.00000000000E+00  0.00000000000E+00 -0.57475139144E+03  0.57475139147E+03  0.50400001928E-02 0. -1.
    10030    2    1    2    0    0  0.00000000000E+00  0.00000000000E+00  0.10472380323E+04  0.21967408152E+04  0.19310522294E+04 0.  0.
        1    1    3    3  502    0 -0.62333770549E+03  0.59842869676E+03  0.10136722061E+04  0.13319902934E+04  0.50400001928E-02 0.  1.
       -1    1    3    3    0  502  0.62333770549E+03 -0.59842869676E+03  0.33565826109E+02  0.86475052177E+03  0.50400001928E-02 0. -1.
</event>
<event>
 5   0  0.1782172E-04  0.2026882E+04  0.7818609E-02  0.8594155E-01
       -2   -1    0    0    0  501  0.00000000000E+00  0.00000000000E+00  0.69883079992E+03  0.69883079992E+03  0.25500000920E-02 0.  1.
        2   -1    0    0  501    0  0.00000000000E+00  0.00000000000E+00 -0.14696872182E+04  0.14696872182E+04  0.25500000920E-02 0. -1.
    10030    2    1    2    0    0  0.00000000000E+00  0.00000000000E+00 -0.77085641828E+03  0.21685180181E+04  0.20268820334E+04 0.  0.
        2    1    3    3  502    0 -0.14449796727E+02  0.88045411437E+03 -0.92213472685E+03  0.12750453712E+04  0.25500000920E-02 0.  1.
       -2    1    3    3    0  502  0.14449796727E+02 -0.88045411437E+03  0.15127830858E+03  0.89347264692E+03  0.25500000920E-02 0. -1.
</event>
<event>
 5   0  0.6531625E-05  0.1990775E+04  0.7818609E-02  0.8610946E-01
       -3   -1    0    0    0  501  0.00000000000E+00  0.00000000000E+00  0.59694151445E+03  0.59694152299E+03  0.10100000352E+00 0.  1.
        3   -1    0    0  501    0  0.00000000000E+00  0.00000000000E+00 -0.16597870693E+04  0.16597870724E+04  0.10100000352E+00 0. -1.
    10030    2    1    2    0    0  0.00000000000E+00  0.00000000000E+00 -0.10628455549E+04  0.22567285954E+04  0.19907745427E+04 0.  0.
        5    1    3    3  502    0  0.61249931060E+02 -0.19787934743E+03 -0.16350711122E+04  0.16481466628E+04  0.46999998093E+01 0. -1.
       -5    1    3    3    0  502 -0.61249931060E+02  0.19787934743E+03  0.57222555733E+03  0.60858193257E+03  0.46999998093E+01 0.  1.
</event>
<event>
 5   0  0.8958919E-05  0.1774078E+04  0.7818609E-02  0.8720207E-01
        1   -1    0    0  501    0  0.00000000000E+00  0.00000000000E+00  0.45938785574E+03  0.45938785577E+03  0.50400001928E-02 0.  1.
       -1   -1    0    0    0  501  0.00000000000E+00  0.00000000000E+00 -0.17127979235E+04  0.17127979235E+04  0.50400001928E-02 0. -1.
    10030    2    1    2    0    0  0.00000000000E+00  0.00000000000E+00 -0.12534100678E+04  0.21721857793E+04  0.17740784260E+04 0.  0.
        4    1    3    3  502    0  0.41120428757E+03  0.11445176511E+03  0.32538000781E+03  0.53671401606E+03  0.12699999809E+01 0.  1.
       -4    1    3    3    0  502 -0.41120428757E+03 -0.11445176511E+03 -0.15787900756E+04  0.16354717632E+04  0.12699999809E+01 0. -1.
</event>
<event>
 5   0  0.1893687E-04  0.1985075E+04  0.7818609E-02  0.8613631E-01
        2   -1    0    0  501    0  0.00000000000E+00  0.00000000000E+00  0.10832599174E+04  0.10832599174E+04  0.25500000920E-02 0.  1.
       -2   -1    0    0    0  501  0.00000000000E+00  0.00000000000E+00 -0.90941265341E+03  0.90941265342E+03  0.25500000920E-02 0. -1.
    10030    2    1    2    0    0  0.00000000000E+00  0.00000000000E+00  0.17384726395E+03  0.19926725708E+04  0.19850745838E+04 0.  0.
        4    1    3    3  502    0  0.57125971740E+03 -0.21153330181E+03 -0.69968569844E+03  0.92770991802E+03  0.12699999809E+01 0. -1.
       -4    1    3    3    0  502 -0.57125971740E+03  0.21153330181E+03  0.87353296238E+03  0.10649626528E+04  0.12699999809E+01 0.  1.
</event>
<event>
 5   0  0.8881384E-05  0.1983183E+04  0.7818609E-02  0.8614524E-01
        1   -1    0    0  501    0  0.00000000000E+00  0.00000000000E+00  0.89411169603E+03  0.89411169604E+03  0.50400001928E-02 0. -1.
       -1   -1    0    0    0  501  0.00000000000E+00  0.00000000000E+00 -0.10996988574E+04  0.10996988574E+04  0.50400001928E-02 0.  1.
    10030    2    1    2    0    0  0.00000000000E+00  0.00000000000E+00 -0.20558716133E+03  0.19938105534E+04  0.19831829068E+04 0.  0.
        5    1    3    3  502    0  0.96380479669E+03  0.11408986729E+03  0.10150795205E+03  0.97583919693E+03  0.46999998093E+01 0.  1.
       -5    1    3    3    0  502 -0.96380479669E+03 -0.11408986729E+03 -0.30709511338E+03  0.10179713565E+04  0.46999998093E+01 0. -1.
</event>
<event>
 5   0  0.1807498E-04  0.2000215E+04  0.7818609E-02  0.8606520E-01
        2   -1    0    0  501    0  0.00000000000E+00  0.00000000000E+00  0.11600222820E+04  0.11600222820E+04  0.25500000920E-02 0.  1.
       -2   -1    0    0    0  501  0.00000000000E+00  0.00000000000E+00 -0.86223748493E+03  0.86223748493E+03  0.25500000920E-02 0. -1.
    10030    2    1    2    0    0  0.00000000000E+00  0.00000000000E+00  0.29778479709E+03  0.20222597670E+04  0.20002146834E+04 0.  0.
        5    1    3    3  502    0 -0.46011311168E+03  0.85228804682E+03  0.40082466953E+03  0.10482277882E+04  0.46999998093E+01 0. -1.
       -5    1    3    3    0  502  0.46011311168E+03 -0.85228804682E+03 -0.10303987245E+03  0.97403197874E+03  0.46999998093E+01 0.  1.
</event>
<event>
 5   0  0.1834645E-04  0.1968846E+04  0.7818609E-02  0.8621326E-01
       -2   -1    0    0    0  501  0.00000000000E+00  0.00000000000E+00  0.43626971172E+03  0.43626971173E+03  0.25500000920E-02 0. -1.
        2   -1    0    0  501    0  0.00000000000E+00  0.00000000000E+00 -0.22213061320E+04  0.22213061320E+04  0.25500000920E-02 0.  1.
    10030    2    1    2    0    0  0.00000000000E+00  0.00000000000E+00 -0.17850364203E+04  0.26575758437E+04  0.19688459420E+04 0.  0.
        1    1    3    3  502    0  0.53079362714E+03 -0.81468330981E+03 -0.11000466428E+04  0.14681802976E+04  0.50400001928E-02 0. -1.
       -1    1    3    3    0  502 -0.53079362714E+03  0.81468330981E+03 -0.68498977749E+03  0.11893955461E+04  0.50400001928E-02 0.  1.
</event>
<event>
 5   0  0.8765057E-05  0.1965544E+04  0.7818609E-02  0.8622901E-01
        1   -1    0    0  501    0  0.00000000000E+00  0.00000000000E+00  0.17020631930E+04  0.17020631930E+04  0.50400001928E-02 0. -1.
       -1   -1    0    0    0  501  0.00000000000E+00  0.00000000000E+00 -0.56745311306E+03  0.56745311308E+03  0.50400001928E-02 0.  1.
    10030    2    1    2    0    0  0.00000000000E+00  0.00000000000E+00  0.11346100799E+04  0.22695163061E+04  0.19655442580E+04 0.  0.
        3    1    3    3  502    0  0.54841158775E+03 -0.60707457279E+03 -0.61472024343E+02  0.82041064503E+03  0.10100000352E+00 0.  1.
       -3    1    3    3    0  502 -0.54841158775E+03  0.60707457279E+03  0.11960821043E+04  0.14491056610E+04  0.10100000352E+00 0. -1.
</event>
<event>
 5   0  0.8958919E-05  0.1997975E+04  0.7818609E-02  0.8607568E-01
       -1   -1    0    0    0  501  0.00000000000E+00  0.00000000000E+00  0.42037743950E+03  0.42037743953E+03  0.50400001928E-02 0. -1.
        1   -1    0    0  501    0  0.00000000000E+00  0.00000000000E+00 -0.23740004602E+04  0.23740004602E+04  0.50400001928E-02 0.  1.
    10030    2    1    2    0    0  0.00000000000E+00  0.00000000000E+00 -0.19536230207E+04  0.27943778997E+04  0.19979752099E+04 0.  0.
        4    1    3    3  502    0 -0.82946802652E+03  0.55082737914E+03 -0.86364878756E+03  0.13180739167E+04  0.12699999809E+01 0.  1.
       -4    1    3    3    0  502  0.82946802652E+03 -0.55082737914E+03 -0.10899742331E+04  0.14763039831E+04  0.12699999809E+01 0. -1.
</event>
<event>
 5   0  0.8958919E-05  0.2020335E+04  0.7818609E-02  0.8597172E-01
       -1   -1    0    0    0  501  0.00000000000E+00  0.00000000000E+00  0.15843891063E+04  0.15843891063E+04  0.50400001928E-02 0.  1.
        1   -1    0    0  501    0  0.00000000000E+00  0.00000000000E+00 -0.64405800228E+03  0.64405800230E+03  0.50400001928E-02 0. -1.
    10030    2    1    2    0    0  0.00000000000E+00  0.00000000000E+00  0.94033110405E+03  0.22284471086E+04  0.20203351036E+04 0.  0.
        4    1    3    3  502    0  0.55659168650E+03  0.22670794809E+03 -0.42541096180E+03  0.73631983440E+03  0.12699999809E+01 0. -1.
       -4    1    3    3    0  502 -0.55659168650E+03 -0.22670794809E+03  0.13657420659E+04  0.14921272742E+04  0.12699999809E+01 0.  1.
</event>
<event>
 5   0  0.8958919E-05  0.1986365E+04  0.7818609E-02  0.8613022E-01
       -1   -1    0    0    0  501  0.00000000000E+00  0.00000000000E+00  0.13122224896E+04  0.13122224897E+04  0.50400001928E-02 0.  1.
        1   -1    0    0  501    0  0.00000000000E+00  0.00000000000E+00 -0.75171028556E+03  0.75171028558E+03  0.50400001928E-02 0. -1.
    10030    2    1    2    0    0  0.00000000000E+00  0.00000000000E+00  0.56051220408E+03  0.20639327752E+04  0.19863646618E+04 0.  0.
        4    1    3    3  502    0 -0.40773199825E+03 -0.79290289452E+03  0.73491528650E+03  0.11554403809E+04  0.12699999809E+01 0.  1.
       -4    1    3    3    0  502  0.40773199825E+03  0.79290289452E+03 -0.17440308242E+03  0.90849239435E+03  0.12699999809E+01 0. -1.
</event>
<event>
 5   0  0.8765057E-05  0.1566999E+04  0.7818609E-02  0.8841082E-01
        1   -1    0    0  501    0  0.00000000000E+00  0.00000000000E+00  0.73559159915E+03  0.73559159916E+03  0.50400001928E-02 0. -1.
       -1   -1    0    0    0  501  0.00000000000E+00  0.00000000000E+00 -0.83452793630E+03  0.83452793631E+03  0.50400001928E-02 0.  1.
    10030    2    1    2    0    0  0.00000000000E+00  0.00000000000E+00 -0.98936337150E+02  0.15701195355E+04  0.15669993481E+04 0.  0.
        3    1    3    3  502    0  0.12422785407E+03 -0.61891280650E+03  0.41555302327E+03  0.75575786277E+03  0.10100000352E+00 0. -1.
       -3    1    3    3    0  502 -0.12422785407E+03  0.61891280650E+03 -0.51448936042E+03  0.81436167271E+03  0.10100000352E+00 0.  1.
</event>
<event>
 5   0  0.1807498E-04  0.1990395E+04  0.7818609E-02  0.8611125E-01
        2   -1    0    0  501    0  0.00000000000E+00  0.00000000000E+00  0.20374680282E+04  0.20374680282E+04  0.25500000920E-02 0. -1.
       -2   -1    0    0    0  501  0.00000000000E+00  0.00000000000E+00 -0.48610231897E+03  0.48610231898E+03  0.25500000920E-02 0.  1.
    10030    2    1    2    0    0  0.00000000000E+00  0.00000000000E+00  0.15513657092E+04  0.25235703472E+04  0.19903948687E+04 0.  0.
        5    1    3    3  502    0 -0.82046400922E+03 -0.34456237303E+03  0.21078630164E+03  0.91451483000E+03  0.46999998093E+01 0.  1.
       -5    1    3    3    0  502  0.82046400922E+03  0.34456237303E+03  0.13405794076E+04  0.16090555172E+04  0.46999998093E+01 0. -1.
</event>
<event>
 5   0  0.1782172E-04  0.1956297E+04  0.7818609E-02  0.8627330E-01
        2   -1    0    0  501    0  0.00000000000E+00  0.00000000000E+00  0.15412940207E+04  0.15412940207E+04  0.25500000920E-02 0. -1.
       -2   -1    0    0    0  501  0.00000000000E+00  0.00000000000E+00 -0.62076021199E+03  0.62076021200E+03  0.25500000920E-02 0.  1.
    10030    2    1    2    0    0  0.00000000000E+00  0.00000000000E+00  0.92053380870E+03  0.21620542327E+04  0.19562965042E+04 0.  0.
        2    1    3    3  502    0  0.52246042092E+03 -0.11132320339E+03 -0.44531519800E+03  0.69545910923E+03  0.25500000920E-02 0.  1.
       -2    1    3    3    0  502 -0.52246042092E+03  0.11132320339E+03  0.13658490067E+04  0.14665951235E+04  0.25500000920E-02 0. -1.
</event>
<event>
 5   0  0.8577422E-05  0.1970919E+04  0.7818609E-02  0.8620339E-01
       -1   -1    0    0    0  501  0.00000000000E+00  0.00000000000E+00  0.11014877035E+04  0.11014877035E+04  0.50400001928E-02 0.  1.
        1   -1    0    0  501    0  0.00000000000E+00  0.00000000000E+00 -0.88165351868E+03  0.88165351870E+03  0.50400001928E-02 0. -1.
    10030    2    1    2    0    0  0.00000000000E+00  0.00000000000E+00  0.21983418482E+03  0.19831412222E+04  0.19709190847E+04 0.  0.
        2    1    3    3  502    0 -0.96283045704E+03  0.11827686367E+03 -0.64648249976E+02  0.97221978056E+03  0.25500000920E-02 0. -1.
       -2    1    3    3    0  502  0.96283045704E+03 -0.11827686367E+03  0.28448243479E+03  0.10109214416E+04  0.25500000920E-02 0.  1.
</event>
<event>
 5   0  0.8861350E-05  0.1486111E+04  0.7818609E-02  0.8893742E-01
        1   -1    0    0  501    0  0.00000000000E+00  0.00000000000E+00  0.75769405248E+03  0.75769405250E+03  0.50400001928E-02 0.  1.
       -1   -1    0    0    0  501  0.00000000000E+00  0.00000000000E+00 -0.72869984798E+03  0.72869984800E+03  0.50400001928E-02 0. -1.
    10030    2    1    2    0    0  0.00000000000E+00  0.00000000000E+00  0.28994204495E+02  0.14863939005E+04  0.14861110872E+04 0.  0.
        1    1    3    3  502    0 -0.27922796686E+03 -0.19829639493E+03  0.67404796715E+03  0.75606241790E+03  0.50400001928E-02 0.  1.
       -1    1    3    3    0  502  0.27922796686E+03  0.19829639493E+03 -0.64505376266E+03  0.73033148259E+03  0.50400001928E-02 0. -1.
</event>
<event>
 5   0  0.8765057E-05  0.1967989E+04  0.7818609E-02  0.8621735E-01
        1   -1    0    0  501    0  0.00000000000E+00  0.00000000000E+00  0.19016977300E+04  0.19016977300E+04  0.50400001928E-02 0. -1.
       -1   -1    0    0    0  501  0.00000000000E+00  0.00000000000E+00 -0.50914799040E+03  0.50914799043E+03  0.50400001928E-02 0.  1.
    10030    2    1    2    0    0  0.00000000000E+00  0.00000000000E+00  0.13925497395E+04  0.24108457204E+04  0.19679894081E+04 0.  0.
        3    1    3    3  502    0 -0.84840986245E+03 -0.46518214580E+03  0.47695742773E+03  0.10787409891E+04  0.10100000352E+00 0. -1.
       -3    1    3    3    0  502  0.84840986245E+03  0.46518214580E+03  0.91559231182E+03  0.13321047313E+04  0.10100000352E+00 0.  1.
</event>
<event>
 5   0  0.8861350E-05  0.1784161E+04  0.7818609E-02  0.8714768E-01
        1   -1    0    0  501    0  0.00000000000E+00  0.00000000000E+00  0.74276578903E+03  0.74276578905E+03  0.50400001928E-02 0.  1.
       -1   -1    0    0    0  501  0.00000000000E+00  0.00000000000E+00 -0.10714116097E+04  0.10714116097E+04  0.50400001928E-02 0. -1.
    10030    2    1    2    0    0  0.00000000000E+00  0.00000000000E+00 -0.32864582065E+03  0.18141773987E+04  0.17841613040E+04 0.  0.
        1    1    3    3  502    0  0.34112303921E+03 -0.59009346250E+03 -0.74953355507E+03  0.10131020544E+04  0.50400001928E-02 0. -1.
       -1    1    3    3    0  502 -0.34112303921E+03  0.59009346250E+03  0.42088773442E+03  0.80107534438E+03  0.50400001928E-02 0.  1.
</event>
<event>
 5   0  0.8958919E-05  0.2044951E+04  0.7818609E-02  0.8585888E-01
       -1   -1    0    0    0  501  0.00000000000E+00  0.00000000000E+00  0.98184895718E+03  0.98184895719E+03  0.50400001928E-02 0. -1.
        1   -1    0    0  501    0  0.00000000000E+00  0.00000000000E+00 -0.10647827472E+04  0.10647827472E+04  0.50400001928E-02 0.  1.
    10030    2    1    2    0    0  0.00000000000E+00  0.00000000000E+00 -0.82933790040E+02  0.20466317044E+04  0.20449506889E+04 0.  0.
        4    1    3    3  502    0 -0.53734298506E+03 -0.70136064316E+03  0.47355303215E+03  0.10024461694E+04  0.12699999809E+01 0. -1.
       -4    1    3    3    0  502  0.53734298506E+03  0.70136064316E+03 -0.55648682219E+03  0.10441855350E+04  0.12699999809E+01 0.  1.
</event>
<event>
 5   0  0.8958919E-05  0.2003671E+04  0.7818609E-02  0.8604906E-01
        1   -1    0    0  501    0  0.00000000000E+00  0.00000000000E+00  0.10952040211E+04  0.10952040211E+04  0.50400001928E-02 0. -1.
       -1   -1    0    0    0  501  0.00000000000E+00  0.00000000000E+00 -0.91642727527E+03  0.91642727529E+03  0.50400001928E-02 0.  1.
    10030    2    1    2    0    0  0.00000000000E+00  0.00000000000E+00  0.17877674580E+03  0.20116312964E+04  0.20036714670E+04 0.  0.
        4    1    3    3  502    0  0.98263881392E+03 -0.11598055453E+03 -0.68215172434E+02  0.99180918039E+03  0.12699999809E+01 0.  1.
       -4    1    3    3    0  502 -0.98263881392E+03  0.11598055453E+03  0.24699191823E+03  0.10198221160E+04  0.12699999809E+01 0. -1.
</event>
<event>
 5   0  0.8765057E-05  0.1987054E+04  0.7818609E-02  0.8612697E-01
        1   -1    0    0  501    0  0.00000000000E+00  0.00000000000E+00  0.98903291855E+03  0.98903291857E+03  0.50400001928E-02 0.  1.
       -1   -1    0    0    0  501  0.00000000000E+00  0.00000000000E+00 -0.99804162932E+03  0.99804162934E+03  0.50400001928E-02 0. -1.
    10030    2    1    2    0    0  0.00000000000E+00  0.00000000000E+00 -0.90087107691E+01  0.19870745479E+04  0.19870541266E+04 0.  0.
        3    1    3    3  502    0  0.79771556109E+03  0.25318082439E+03  0.53089387109E+03  0.99110996302E+03  0.10100000352E+00 0.  1.
       -3    1    3    3    0  502 -0.79771556109E+03 -0.25318082439E+03 -0.53990258186E+03  0.99596458488E+03  0.10100000352E+00 0. -1.
</event>
<event>
 5   0  0.1782172E-04  0.1992957E+04  0.7818609E-02  0.8609921E-01
        2   -1    0    0  501    0  0.00000000000E+00  0.00000000000E+00  0.21376360810E+04  0.21376360810E+04  0.25500000920E-02 0.  1.
       -2   -1    0    0    0  501  0.00000000000E+00  0.00000000000E+00 -0.46451732844E+03  0.46451732845E+03  0.25500000920E-02 0. -1.
    10030    2    1    2    0    0  0.00000000000E+00  0.00000000000E+00  0.16731187525E+04  0.26021534094E+04  0.19929565991E+04 0.  0.
        2    1    3    3  502    0  0.32421253724E+03  0.35234267546E+03 -0.30447638962E+03  0.56741959968E+03  0.25500000920E-02 0. -1.
       -2    1    3    3    0  502 -0.32421253724E+03 -0.35234267546E+03  0.19775951421E+04  0.20347338097E+04  0.25500000920E-02 0.  1.
</event>
<event>
 5   0  0.8881384E-05  0.1956724E+04  0.7818609E-02  0.8627125E-01
       -1   -1    0    0    0  501  0.00000000000E+00  0.00000000000E+00  0.12311323394E+04  0.12311323394E+04  0.50400001928E-02 0. -1.
        1   -1    0    0  501    0  0.00000000000E+00  0.00000000000E+00 -0.77748959221E+03  0.77748959222E+03  0.50400001928E-02 0.  1.
    10030    2    1    2    0    0  0.00000000000E+00  0.00000000000E+00  0.45364274719E+03  0.20086219316E+04  0.19567243858E+04 0.  0.
        5    1    3    3  502    0  0.50703412061E+02 -0.11034714776E+02  0.12297071666E+04  0.12308104673E+04  0.46999998093E+01 0. -1.
       -5    1    3    3    0  502 -0.50703412061E+02  0.11034714776E+02 -0.77606441941E+03  0.77781146430E+03  0.46999998093E+01 0.  1.
</event>
<event>
 5   0  0.1834645E-04  0.2139608E+04  0.7818609E-02  0.8543994E-01
       -2   -1    0    0    0  501  0.00000000000E+00  0.00000000000E+00  0.98447850789E+03  0.98447850789E+03  0.25500000920E-02 0.  1.
        2   -1    0    0  501    0  0.00000000000E+00  0.00000000000E+00 -0.11625244089E+04  0.11625244089E+04  0.25500000920E-02 0. -1.
    10030    2    1    2    0    0  0.00000000000E+00  0.00000000000E+00 -0.17804590098E+03  0.21470029168E+04  0.21396077168E+04 0.  0.
        1    1    3    3  502    0 -0.19597764579E+03  0.57898668630E+03  0.79199083887E+03  0.10004410575E+04  0.50400001928E-02 0.  1.
       -1    1    3    3    0  502  0.19597764579E+03 -0.57898668630E+03 -0.97003673984E+03  0.11465618593E+04  0.50400001928E-02 0. -1.
</event>
<event>
 5   0  0.8765057E-05  0.1983321E+04  0.7818609E-02  0.8614458E-01
        1   -1    0    0  501    0  0.00000000000E+00  0.00000000000E+00  0.84989077450E+03  0.84989077451E+03  0.50400001928E-02 0.  1.
       -1   -1    0    0    0  501  0.00000000000E+00  0.00000000000E+00 -0.11570792694E+04  0.11570792694E+04  0.50400001928E-02 0. -1.
    10030    2    1    2    0    0  0.00000000000E+00  0.00000000000E+00 -0.30718849486E+03  0.20069700439E+04  0.19833214529E+04 0.  0.
        3    1    3    3  502    0  0.18489254955E+03  0.77023757958E+03  0.45012644040E+03  0.91107903413E+03  0.10100000352E+00 0.  1.
       -3    1    3    3    0  502 -0.18489254955E+03 -0.77023757958E+03 -0.75731493526E+03  0.10958910097E+04  0.10100000352E+00 0. -1.
</event>
<event>
 5   0  0.1834645E-04  0.1933243E+04  0.7818609E-02  0.8638484E-01
       -2   -1    0    0    0  501  0.00000000000E+00  0.00000000000E+00  0.14803387016E+04  0.14803387016E+04  0.25500000920E-02 0. -1.
        2   -1    0    0  501    0  0.00000000000E+00  0.00000000000E+00 -0.63117782795E+03  0.63117782795E+03  0.25500000920E-02 0.  1.
    10030    2    1    2    0    0  0.00000000000E+00  0.00000000000E+00  0.84916087367E+03  0.21115165296E+04  0.19332428366E+04 0.  0.
        1    1    3    3  502    0  0.60774274340E+03 -0.24939241786E+03 -0.34989858814E+03  0.74429620599E+03  0.50400001928E-02 0.  1.
       -1    1    3    3    0  502 -0.60774274340E+03  0.24939241786E+03  0.11990594618E+04  0.13672203236E+04  0.50400001928E-02 0. -1.
</event>
<event>
 5   0  0.8861350E-05  0.1460072E+04  0.7818609E-02  0.8911448E-01
       -1   -1    0    0    0  501  0.00000000000E+00  0.00000000000E+00  0.39117796724E+03  0.39117796727E+03  0.50400001928E-02 0.  1.
        1   -1    0    0  501    0  0.00000000000E+00  0.00000000000E+00 -0.13624295259E+04  0.13624295259E+04  0.50400001928E-02 0. -1.
    10030    2    1    2    0    0  0.00000000000E+00  0.00000000000E+00 -0.97125155870E+03  0.17536074932E+04  0.14600717962E+04 0.  0.
        1    1    3    3  502    0  0.99194606859E+02 -0.68603331771E+03 -0.76074338735E+03  0.10291801516E+04  0.50400001928E-02 0. -1.
       -1    1    3    3    0  502 -0.99194606859E+02  0.68603331771E+03 -0.21050817135E+03  0.72442734160E+03  0.50400001928E-02 0.  1.
</event>
<event>
 5   0  0.1807498E-04  0.1993851E+04  0.7818609E-02  0.8609501E-01
       -2   -1    0    0    0  501  0.00000000000E+00  0.00000000000E+00  0.76501514765E+03  0.76501514766E+03  0.25500000920E-02 0. -1.
        2   -1    0    0  501    0  0.00000000000E+00  0.00000000000E+00 -0.12991384583E+04  0.12991384583E+04  0.25500000920E-02 0.  1.
    10030    2    1    2    0    0  0.00000000000E+00  0.00000000000E+00 -0.53412331061E+03  0.20641536059E+04  0.19938511474E+04 0.  0.
        5    1    3    3  502    0  0.81421264270E+03 -0.52554835112E+03 -0.50917790450E+03  0.10947271465E+04  0.46999998093E+01 0. -1.
       -5    1    3    3    0  502 -0.81421264270E+03  0.52554835112E+03 -0.24945406104E+02  0.96942645940E+03  0.46999998093E+01 0.  1.
</event>
<event>
 5   0  0.8577422E-05  0.1987290E+04  0.7818609E-02  0.8612586E-01
       -1   -1    0    0    0  501  0.00000000000E+00  0.00000000000E+00  0.10919958984E+04  0.10919958984E+04  0.50400001928E-02 0. -1.
        1   -1    0    0  501    0  0.00000000000E+00  0.00000000000E+00 -0.90415232407E+03  0.90415232408E+03  0.50400001928E-02 0.  1.
    10030    2    1    2    0    0  0.00000000000E+00  0.00000000000E+00  0.18784357434E+03  0.19961482225E+04  0.19872902450E+04 0.  0.
        2    1    3    3  502    0  0.57755506809E+03 -0.44670088982E+02  0.90484012538E+03  0.10743839751E+04  0.25500000920E-02 0. -1.
       -2    1    3    3    0  502 -0.57755506809E+03  0.44670088982E+02 -0.71699655104E+03  0.92176424737E+03  0.25500000920E-02 0.  1.
</event>
<event>
 5   0  0.1812865E-04  0.2128376E+04  0.7818609E-02  0.8548845E-01
        2   -1    0    0  501    0  0.00000000000E+00  0.00000000000E+00  0.10816570770E+04  0.10816570770E+04  0.25500000920E-02 0. -1.
       -2   -1    0    0    0  501  0.00000000000E+00  0.00000000000E+00 -0.10470012924E+04  0.10470012924E+04  0.25500000920E-02 0.  1.
    10030    2    1    2    0    0  0.00000000000E+00  0.00000000000E+00  0.34655784600E+02  0.21286583694E+04  0.21283762427E+04 0.  0.
        3    1    3    3  502    0 -0.22154483757E+03 -0.61482750054E+03  0.85732098641E+03  0.10780047562E+04  0.10100000352E+00 0. -1.
       -3    1    3    3    0  502  0.22154483757E+03  0.61482750054E+03 -0.82266520181E+03  0.10506536132E+04  0.10100000352E+00 0.  1.
</event>
<event>
 5   0  0.1782172E-04  0.2074009E+04  0.7818609E-02  0.8572780E-01
        2   -1    0    0  501    0  0.00000000000E+00  0.00000000000E+00  0.16324166568E+04  0.16324166568E+04  0.25500000920E-02 0.  1.
       -2   -1    0    0    0  501  0.00000000000E+00  0.00000000000E+00 -0.65876485311E+03  0.65876485312E+03  0.25500000920E-02 0. -1.
    10030    2    1    2    0    0  0.00000000000E+00  0.00000000000E+00  0.97365180373E+03  0.22911815100E+04  0.20740093724E+04 0.  0.
        2    1    3    3  502    0  0.64519202195E+03 -0.68103631845E+03  0.97502267793E+03  0.13530530051E+04  0.25500000920E-02 0.  1.
       -2    1    3    3    0  502 -0.64519202195E+03  0.68103631845E+03 -0.13708742004E+01  0.93812850482E+03  0.25500000920E-02 0. -1.
</event>
<event>
 5   0  0.8577422E-05  0.1926467E+04  0.7818609E-02  0.8641793E-01
       -1   -1    0    0    0  501  0.00000000000E+00  0.00000000000E+00  0.65837919659E+03  0.65837919661E+03  0.50400001928E-02 0. -1.
        1   -1    0    0  501    0  0.00000000000E+00  0.00000000000E+00 -0.14092464372E+04  0.14092464372E+04  0.50400001928E-02 0.  1.
    10030    2    1    2    0    0  0.00000000000E+00  0.00000000000E+00 -0.75086724065E+03  0.20676256338E+04  0.19264667525E+04 0.  0.
        2    1    3    3  502    0  0.65321306103E+03 -0.68710056783E+03 -0.19258598442E+03  0.96741090277E+03  0.25500000920E-02 0.  1.
       -2    1    3    3    0  502 -0.65321306103E+03  0.68710056783E+03 -0.55828125623E+03  0.11002147311E+04  0.25500000920E-02 0. -1.
</event>
<event>
 5   0  0.1807498E-04  0.1991808E+04  0.7818609E-02  0.8610460E-01
        2   -1    0    0  501    0  0.00000000000E+00  0.00000000000E+00  0.75333488557E+03  0.75333488558E+03  0.25500000920E-02 0.  1.
       -2   -1    0    0    0  501  0.00000000000E+00  0.00000000000E+00 -0.13165787819E+04  0.13165787819E+04  0.25500000920E-02 0. -1.
    10030    2    1    2    0    0  0.00000000000E+00  0.00000000000E+00 -0.56324389631E+03  0.20699136675E+04  0.19918079486E+04 0.  0.
        5    1    3    3  502    0  0.92322988590E+02  0.87037368854E+03  0.21211792784E+03  0.90060535043E+03  0.46999998093E+01 0.  1.
       -5    1    3    3    0  502 -0.92322988590E+02 -0.87037368854E+03 -0.77536182415E+03  0.11693083170E+04  0.46999998093E+01 0. -1.
</event>
<event>
 5   0  0.1807498E-04  0.1991221E+04  0.7818609E-02  0.8610736E-01
       -2   -1    0    0    0  501  0.00000000000E+00  0.00000000000E+00  0.62491435819E+03  0.62491435819E+03  0.25500000920E-02 0. -1.
        2   -1    0    0  501    0  0.00000000000E+00  0.00000000000E+00 -0.15862022200E+04  0.15862022200E+04  0.25500000920E-02 0.  1.
    10030    2    1    2    0    0  0.00000000000E+00  0.00000000000E+00 -0.96128786178E+03  0.22111165782E+04  0.19912212758E+04 0.  0.
        5    1    3    3  502    0 -0.28005739523E+03  0.86146347461E+03 -0.93938421663E+03  0.13049966510E+04  0.46999998093E+01 0.  1.
       -5    1    3    3    0  502  0.28005739523E+03 -0.86146347461E+03 -0.21903645155E+02  0.90611992715E+03  0.46999998093E+01 0. -1.
</event>
<event>
 5   0  0.1812865E-04  0.2025230E+04  0.7818609E-02  0.8594915E-01
       -2   -1    0    0    0  501  0.00000000000E+00  0.00000000000E+00  0.99585537297E+03  0.99585537297E+03  0.25500000920E-02 0. -1.
        2   -1    0    0  501    0  0.00000000000E+00  0.00000000000E+00 -0.10296566896E+04  0.10296566896E+04  0.25500000920E-02 0.  1.
    10030    2    1    2    0    0  0.00000000000E+00  0.00000000000E+00 -0.33801316612E+02  0.20255120626E+04  0.20252300083E+04 0.  0.
        3    1    3    3  502    0 -0.37090635938E+02 -0.95467945207E+03 -0.35250746837E+03  0.10183565667E+04  0.10100000352E+00 0.  1.
       -3    1    3    3    0  502  0.37090635938E+02  0.95467945207E+03  0.31870615176E+03  0.10071554959E+04  0.10100000352E+00 0. -1.
</event>
<event>
 5   0  0.1834645E-04  0.2088094E+04  0.7818609E-02  0.8566506E-01
       -2   -1    0    0    0  501  0.00000000000E+00  0.00000000000E+00  0.51431753092E+03  0.51431753093E+03  0.25500000920E-02 0.  1.
        2   -1    0    0  501    0  0.00000000000E+00  0.00000000000E+00 -0.21193789661E+04  0.21193789661E+04  0.25500000920E-02 0. -1.
    10030    2    1    2    0    0  0.00000000000E+00  0.00000000000E+00 -0.16050614352E+04  0.26336964971E+04  0.20880936348E+04 0.  0.
        1    1    3    3  502    0 -0.96279289216E+03 -0.31282528339E+03 -0.11246025139E+04  0.15131294147E+04  0.50400001928E-02 0. -1.
       -1    1    3    3    0  502  0.96279289216E+03  0.31282528339E+03 -0.48045892129E+03  0.11205670824E+04  0.50400001928E-02 0.  1.
</event>
<event>
 5   0  0.8881384E-05  0.2276686E+04  0.7818609E-02  0.8487170E-01
        1   -1    0    0  501    0  0.00000000000E+00  0.00000000000E+00  0.11533158748E+04  0.11533158748E+04  0.50400001928E-02 0.  1.
       -1   -1    0    0    0  501  0.00000000000E+00  0.00000000000E+00 -0.11235648661E+04  0.11235648662E+04  0.50400001928E-02 0. -1.
    10030    2    1    2    0    0  0.00000000000E+00  0.00000000000E+00  0.29751008670E+02  0.22768807410E+04  0.22766863610E+04 0.  0.
        5    1    3    3  502    0  0.38278380745E+03  0.75834158828E+03 -0.74294752990E+03  0.11285382271E+04  0.46999998093E+01 0. -1.
       -5    1    3    3    0  502 -0.38278380745E+03 -0.75834158828E+03  0.77269853857E+03  0.11483425139E+04  0.46999998093E+01 0.  1.
</event>
<event>
 5   0  0.8861350E-05  0.1992201E+04  0.7818609E-02  0.8610276E-01
        1   -1    0    0  501    0  0.00000000000E+00  0.00000000000E+00  0.16209527057E+04  0.16209527057E+04  0.50400001928E-02 0.  1.
       -1   -1    0    0    0  501  0.00000000000E+00  0.00000000000E+00 -0.61211890210E+03  0.61211890212E+03  0.50400001928E-02 0. -1.
    10030    2    1    2    0    0  0.00000000000E+00  0.00000000000E+00  0.10088338036E+04  0.22330716078E+04  0.19922005829E+04 0.  0.
        1    1    3    3  502    0 -0.28571514342E+03 -0.92763227101E+03  0.75526231115E+03  0.12298601270E+04  0.50400001928E-02 0.  1.
       -1    1    3    3    0  502  0.28571514342E+03  0.92763227101E+03  0.25357149244E+03  0.10032114808E+04  0.50400001928E-02 0. -1.
</event>
<event>
 5   0  0.1782172E-04  0.1993617E+04  0.7818609E-02  0.8609611E-01
       -2   -1    0    0    0  501  0.00000000000E+00  0.00000000000E+00  0.11498717528E+04  0.11498717528E+04  0.25500000920E-02 0. -1.
        2   -1    0    0  501    0  0.00000000000E+00  0.00000000000E+00 -0.86412018087E+03  0.86412018087E+03  0.25500000920E-02 0.  1.
    10030    2    1    2    0    0  0.00000000000E+00  0.00000000000E+00  0.28575157191E+03  0.20139919337E+04  0.19936172020E+04 0.  0.
        2    1    3    3  502    0 -0.67648142831E+03  0.59160410372E+03 -0.29281471063E+03  0.94517881544E+03  0.25500000920E-02 0.  1.
       -2    1    3    3    0  502  0.67648142831E+03 -0.59160410372E+03  0.57856628254E+03  0.10688131182E+04  0.25500000920E-02 0. -1.
</event>
<event>
 5   0  0.8577422E-05  0.1978979E+04  0.7818609E-02  0.8616512E-01
        1   -1    0    0  501    0  0.00000000000E+00  0.00000000000E+00  0.19300435056E+04  0.19300435056E+04  0.50400001928E-02 0. -1.
       -1   -1    0    0    0  501  0.00000000000E+00  0.00000000000E+00 -0.50728888551E+03  0.50728888554E+03  0.50400001928E-02 0.  1.
    10030    2    1    2    0    0  0.00000000000E+00  0.00000000000E+00  0.14227546201E+04  0.24373323911E+04  0.19789791499E+04 0.  0.
        2    1    3    3  502    0  0.32181007583E+03 -0.60959705563E+03 -0.16290974434E+03  0.70831481698E+03  0.25500000920E-02 0.  1.
       -2    1    3    3    0  502 -0.32181007583E+03  0.60959705563E+03  0.15856643644E+04  0.17290175741E+04  0.25500000920E-02 0. -1.
</event>
<event>
 5   0  0.1834645E-04  0.1932645E+04  0.7818609E-02  0.8638775E-01
        2   -1    0    0  501    0  0.00000000000E+00  0.00000000000E+00  0.10177097306E+04  0.10177097306E+04  0.25500000920E-02 0.  1.
       -2   -1    0    0    0  501  0.00000000000E+00  0.00000000000E+00 -0.91752983931E+03  0.91752983931E+03  0.25500000920E-02 0. -1.
    10030    2    1    2    0    0  0.00000000000E+00  0.00000000000E+00  0.10017989132E+03  0.19352395699E+04  0.19326448671E+04 0.  0.
        1    1    3    3  502    0 -0.79061194714E+03 -0.20203008874E+03 -0.46819130595E+03  0.94079036278E+03  0.50400001928E-02 0. -1.
       -1    1    3    3    0  502  0.79061194714E+03  0.20203008874E+03  0.56837119726E+03  0.99444920716E+03  0.50400001928E-02 0.  1.
</event>
<event>
 5   0  0.1807498E-04  0.1932294E+04  0.7818609E-02  0.8638946E-01
       -2   -1    0    0    0  501  0.00000000000E+00  0.00000000000E+00  0.98444015814E+03  0.98444015814E+03  0.25500000920E-02 0. -1.
        2   -1    0    0  501    0  0.00000000000E+00  0.00000000000E+00 -0.94819414703E+03  0.94819414703E+03  0.25500000920E-02 0.  1.
    10030    2    1    2    0    0  0.00000000000E+00  0.00000000000E+00  0.36246011112E+02  0.19326343052E+04  0.19322943834E+04 0.  0.
        5    1    3    3  502    0 -0.23738514203E+03 -0.64561297285E+03 -0.66041397567E+03  0.95359138295E+03  0.46999998093E+01 0.  1.
       -5    1    3    3    0  502  0.23738514203E+03  0.64561297285E+03  0.69665998678E+03  0.97904292222E+03  0.46999998093E+01 0. -1.
</event>
<event>
 5   0  0.8881384E-05  0.2012712E+04  0.7818609E-02  0.8600700E-01
       -1   -1    0    0    0  501  0.00000000000E+00  0.00000000000E+00  0.14224198970E+04  0.14224198970E+04  0.50400001928E-02 0. -1.
        1   -1    0    0  501    0  0.00000000000E+00  0.00000000000E+00 -0.71199278418E+03  0.71199278420E+03  0.50400001928E-02 0.  1.
    10030    2    1    2    0    0  0.00000000000E+00  0.00000000000E+00  0.71042711279E+03  0.21344126812E+04  0.20127123021E+04 0.  0.
        5    1    3    3  502    0  0.20497394368E+03 -0.85803113131E+03  0.86874503614E+03  0.12381323708E+04  0.46999998093E+01 0. -1.
       -5    1    3    3    0  502 -0.20497394368E+03  0.85803113131E+03 -0.15831792335E+03  0.89628031035E+03  0.46999998093E+01 0.  1.
</event>
<event>
 5   0  0.8881384E-05  0.2012166E+04  0.7818609E-02  0.8600954E-01
       -1   -1    0    0    0  501  0.00000000000E+00  0.00000000000E+00  0.71700677666E+03  0.71700677667E+03  0.50400001928E-02 0.  1.
        1   -1    0    0  501    0  0.00000000000E+00  0.00000000000E+00 -0.14117063798E+04  0.14117063798E+04  0.50400001928E-02 0. -1.
    10030    2    1    2    0    0  0.00000000000E+00  0.00000000000E+00 -0.69469960316E+03  0.21287131565E+04  0.20121660379E+04 0.  0.
        5    1    3    3  502    0 -0.24529129149E+03  0.68902700885E+02 -0.13769988007E+04  0.14003796582E+04  0.46999998093E+01 0. -1.
       -5    1    3    3    0  502  0.24529129149E+03 -0.68902700885E+02  0.68229919753E+03  0.72833349835E+03  0.46999998093E+01 0.  1.
</event>
<event>
 5   0  0.1834645E-04  0.1823713E+04  0.7818609E-02  0.8693790E-01
       -2   -1    0    0    0  501  0.00000000000E+00  0.00000000000E+00  0.71544223340E+03  0.71544223340E+03  0.25500000920E-02 0.  1.
        2   -1    0    0  501    0  0.00000000000E+00  0.00000000000E+00 -0.11621936876E+04  0.11621936876E+04  0.25500000920E-02 0. -1.
    10030    2    1    2    0    0  0.00000000000E+00  0.00000000000E+00 -0.44675145419E+03  0.18776359210E+04  0.18237131874E+04 0.  0.
        1    1    3    3  502    0  0.64686699679E+03 -0.91937587897E+02  0.43150775641E+03  0.78299960119E+03  0.50400001928E-02 0.  1.
       -1    1    3    3    0  502 -0.64686699679E+03  0.91937587897E+02 -0.87825921060E+03  0.10946363198E+04  0.50400001928E-02 0. -1.
</event>
<event>
 5   0  0.1893687E-04  0.1990673E+04  0.7818609E-02  0.8610994E-01
        2   -1    0    0  501    0  0.00000000000E+00  0.00000000000E+00  0.18989778981E+04  0.18989778981E+04  0.25500000920E-02 0.  1.
       -2   -1    0    0    0  501  0.00000000000E+00  0.00000000000E+00 -0.52169896586E+03  0.52169896587E+03  0.25500000920E-02 0. -1.
    10030    2    1    2    0    0  0.00000000000E+00  0.00000000000E+00  0.13772789322E+04  0.24206768639E+04  0.19906730577E+04 0.  0.
        4    1    3    3  502    0 -0.19558451248E+03  0.62333466038E+03  0.16017756187E+04  0.17298803849E+04  0.12699999809E+01 0.  1.
       -4    1    3    3    0  502  0.19558451248E+03 -0.62333466038E+03 -0.22449668650E+03  0.69079647908E+03  0.12699999809E+01 0. -1.
</event>
<event>
 5   0  0.8577422E-05  0.1872024E+04  0.7818609E-02  0.8668908E-01
       -1   -1    0    0    0  501  0.00000000000E+00  0.00000000000E+00  0.55230576553E+03  0.55230576556E+03  0.50400001928E-02 0. -1.
        1   -1    0    0  501    0  0.00000000000E+00  0.00000000000E+00 -0.15862925547E+04  0.15862925547E+04  0.50400001928E-02 0.  1.
    10030    2    1    2    0    0  0.00000000000E+00  0.00000000000E+00 -0.10339867892E+04  0.21385983203E+04  0.18720240637E+04 0.  0.
        2    1    3    3  502    0 -0.31463001103E+03 -0.64173202558E+03 -0.12074660543E+04  0.14031344585E+04  0.25500000920E-02 0.  1.
       -2    1    3    3    0  502  0.31463001103E+03  0.64173202558E+03  0.17347926509E+03  0.73546386174E+03  0.25500000920E-02 0. -1.
</event>
<event>
 5   0  0.8958919E-05  0.1994334E+04  0.7818609E-02  0.8609274E-01
       -1   -1    0    0    0  501  0.00000000000E+00  0.00000000000E+00  0.42216329556E+03  0.42216329559E+03  0.50400001928E-02 0.  1.
        1   -1    0    0  501    0  0.00000000000E+00  0.00000000000E+00 -0.23553482978E+04  0.23553482978E+04  0.50400001928E-02 0. -1.
    10030    2    1    2    0    0  0.00000000000E+00  0.00000000000E+00 -0.19331850022E+04  0.27775115934E+04  0.19943335725E+04 0.  0.
        4    1    3    3  502    0  0.16431023855E+03  0.13552783336E+03 -0.23232971543E+04  0.23330402757E+04  0.12699999809E+01 0. -1.
       -4    1    3    3    0  502 -0.16431023855E+03 -0.13552783336E+03  0.39011215208E+03  0.44447131764E+03  0.12699999809E+01 0.  1.
</event>
<event>
 5   0  0.1812865E-04  0.1981790E+04  0.7818609E-02  0.8615182E-01
        2   -1    0    0  501    0  0.00000000000E+00  0.00000000000E+00  0.14054844336E+04  0.14054844336E+04  0.25500000920E-02 0.  1.
       -2   -1    0    0    0  501  0.00000000000E+00  0.00000000000E+00 -0.69860114614E+03  0.69860114614E+03  0.25500000920E-02 0. -1.
    10030    2    1    2    0    0  0.00000000000E+00  0.00000000000E+00  0.70688328742E+03  0.21040855797E+04  0.19817901364E+04 0.  0.
        3    1    3    3  502    0 -0.59171942696E+03  0.40593976474E+03 -0.37206736938E+03  0.80830261066E+03  0.10100000352E+00 0. -1.
       -3    1    3    3    0  502  0.59171942696E+03 -0.40593976474E+03  0.10789506568E+04  0.12957829690E+04  0.10100000352E+00 0.  1.
</event>
<event>
 5   0  0.8861350E-05  0.2028992E+04  0.7818609E-02  0.8593185E-01
        1   -1    0    0  501    0  0.00000000000E+00  0.00000000000E+00  0.12243532605E+04  0.12243532605E+04  0.50400001928E-02 0.  1.
       -1   -1    0    0    0  501  0.00000000000E+00  0.00000000000E+00 -0.84060862102E+03  0.84060862103E+03  0.50400001928E-02 0. -1.
    10030    2    1    2    0    0  0.00000000000E+00  0.00000000000E+00  0.38374463951E+03  0.20649618816E+04  0.20289917752E+04 0.  0.
        1    1    3    3  502    0  0.23469162696E+03 -0.74307285756E+03  0.85297618613E+03  0.11553379616E+04  0.50400001928E-02 0.  1.
       -1    1    3    3    0  502 -0.23469162696E+03  0.74307285756E+03 -0.46923154662E+03  0.90962391996E+03  0.50400001928E-02 0. -1.
</event>
<event>
 5   0  0.1807498E-04  0.2028694E+04  0.7818609E-02  0.8593322E-01
       -2   -1    0    0    0  501  0.00000000000E+00  0.00000000000E+00  0.84596974783E+03  0.84596974783E+03  0.25500000920E-02 0.  1.
        2   -1    0    0  501    0  0.00000000000E+00  0.00000000000E+00 -0.12162371183E+04  0.12162371183E+04  0.25500000920E-02 0. -1.
    10030    2    1    2    0    0  0.00000000000E+00  0.00000000000E+00 -0.37026737043E+03  0.20622068661E+04  0.20286939722E+04 0.  0.
        5    1    3    3  502    0 -0.23425890874E+03 -0.39168102256E+03 -0.11059602986E+04  0.11964370154E+04  0.46999998093E+01 0. -1.
       -5    1    3    3    0  502  0.23425890874E+03  0.39168102256E+03  0.73569292818E+03  0.86576985067E+03  0.46999998093E+01 0.  1.
</event>
<event>
 5   0  0.8577422E-05  0.1968863E+04  0.7818609E-02  0.8621318E-01
        1   -1    0    0  501    0  0.00000000000E+00  0.00000000000E+00  0.93457571387E+03  0.93457571389E+03  0.50400001928E-02 0. -1.
       -1   -1    0    0    0  501  0.00000000000E+00  0.00000000000E+00 -0.10369473162E+04  0.10369473162E+04  0.50400001928E-02 0.  1.
    10030    2    1    2    0    0  0.00000000000E+00  0.00000000000E+00 -0.10237160228E+03  0.19715230301E+04  0.19688634064E+04 0.  0.
        2    1    3    3  502    0 -0.75873292204E+02  0.30064380242E+03  0.88440085300E+03  0.93718105038E+03  0.25500000920E-02 0. -1.
       -2    1    3    3    0  502  0.75873292204E+02 -0.30064380242E+03 -0.98677245528E+03  0.10343419797E+04  0.25500000920E-02 0.  1.
</event>
<event>
 5   0  0.1834645E-04  0.2024915E+04  0.7818609E-02  0.8595060E-01
        2   -1    0    0  501    0  0.00000000000E+00  0.00000000000E+00  0.12529170561E+04  0.12529170561E+04  0.25500000920E-02 0.  1.
       -2   -1    0    0    0  501  0.00000000000E+00  0.00000000000E+00 -0.81814706932E+03  0.81814706932E+03  0.25500000920E-02 0. -1.
    10030    2    1    2    0    0  0.00000000000E+00  0.00000000000E+00  0.43476998682E+03  0.20710641255E+04  0.20249152255E+04 0.  0.
        1    1    3    3  502    0 -0.28973807630E+03 -0.75182839475E+02  0.12066248075E+04  0.12431991145E+04  0.50400001928E-02 0.  1.
       -1    1    3    3    0  502  0.28973807630E+03  0.75182839475E+02 -0.77185482065E+03  0.82786501098E+03  0.50400001928E-02 0. -1.
</event>
<event>
 5   0  0.1782172E-04  0.1942469E+04  0.7818609E-02  0.8634001E-01
        2   -1    0    0  501    0  0.00000000000E+00  0.00000000000E+00  0.15809867705E+04  0.15809867705E+04  0.25500000920E-02 0. -1.
       -2   -1    0    0    0  501  0.00000000000E+00  0.00000000000E+00 -0.59665031782E+03  0.59665031782E+03  0.25500000920E-02 0.  1.
    10030    2    1    2    0    0  0.00000000000E+00  0.00000000000E+00  0.98433645271E+03  0.21776370883E+04  0.19424687993E+04 0.  0.
        2    1    3    3  502    0  0.62088360879E+02 -0.77321474922E+03  0.11473741670E+04  0.13849850151E+04  0.25500000920E-02 0. -1.
       -2    1    3    3    0  502 -0.62088360879E+02  0.77321474922E+03 -0.16303771426E+03  0.79265207326E+03  0.25500000920E-02 0.  1.
</event>
<event>
 5   0  0.6531625E-05  0.2019643E+04  0.7818609E-02  0.8597492E-01
       -3   -1    0    0    0  501  0.00000000000E+00  0.00000000000E+00  0.14917102915E+04  0.14917102949E+04  0.10100000352E+00 0.  1.
        3   -1    0    0  501    0  0.00000000000E+00  0.00000000000E+00 -0.68360404704E+03  0.68360405450E+03  0.10100000352E+00 0. -1.
    10030    2    1    2    0    0  0.00000000000E+00  0.00000000000E+00  0.80810624443E+03  0.21753143494E+04  0.20196427447E+04 0.  0.
        3    1    3    3  502    0 -0.35775917024E+03  0.91612422215E+03  0.65075819868E+03  0.11793054980E+04  0.10100000352E+00 0.  1.
       -3    1    3    3    0  502  0.35775917024E+03 -0.91612422215E+03  0.15734804575E+03  0.99600885137E+03  0.10100000352E+00 0. -1.
</event>
<event>
 5   0  0.8958919E-05  0.2007336E+04  0.7818609E-02  0.8603199E-01
        1   -1    0    0  501    0  0.00000000000E+00  0.00000000000E+00  0.10646957108E+04  0.10646957108E+04  0.50400001928E-02 0.  1.
       -1   -1    0    0    0  501  0.00000000000E+00  0.00000000000E+00 -0.94613828574E+03  0.94613828575E+03  0.50400001928E-02 0. -1.
    10030    2    1    2    0    0  0.00000000000E+00  0.00000000000E+00  0.11855742506E+03  0.20108339966E+04  0.20073359207E+04 0.  0.
        4    1    3    3  502    0  0.13127115948E+02  0.67729856422E+03  0.80113802656E+03  0.10491565263E+04  0.12699999809E+01 0.  1.
       -4    1    3    3    0  502 -0.13127115948E+02 -0.67729856422E+03 -0.68258060150E+03  0.96167747021E+03  0.12699999809E+01 0. -1.
</event>
<event>
 5   0  0.1893687E-04  0.1903165E+04  0.7818609E-02  0.8653282E-01
       -2   -1    0    0    0  501  0.00000000000E+00  0.00000000000E+00  0.46314802213E+03  0.46314802213E+03  0.25500000920E-02 0.  1.
        2   -1    0    0  501    0  0.00000000000E+00  0.00000000000E+00 -0.19551194061E+04  0.19551194061E+04  0.25500000920E-02 0. -1.
    10030    2    1    2    0    0  0.00000000000E+00  0.00000000000E+00 -0.14919713840E+04  0.24182674283E+04  0.19031654536E+04 0.  0.
        4    1    3    3  502    0 -0.29143138697E+02  0.84482887391E+03 -0.13011951037E+04  0.15516750496E+04  0.12699999809E+01 0. -1.
       -4    1    3    3    0  502  0.29143138697E+02 -0.84482887391E+03 -0.19077628028E+03  0.86659237866E+03  0.12699999809E+01 0.  1.
</event>
<event>
 5   0  0.1807498E-04  0.2131049E+04  0.7818609E-02  0.8547688E-01
       -2   -1    0    0    0  501  0.00000000000E+00  0.00000000000E+00  0.49445418531E+03  0.49445418532E+03  0.25500000920E-02 0.  1.
        2   -1    0    0  501    0  0.00000000000E+00  0.00000000000E+00 -0.22961519689E+04  0.22961519689E+04  0.25500000920E-02 0. -1.
    10030    2    1    2    0    0  0.00000000000E+00  0.00000000000E+00 -0.18016977836E+04  0.27906061543E+04  0.21310485224E+04 0.  0.
        5    1    3    3  502    0 -0.39849661466E+02  0.24835108457E+03 -0.22567045566E+04  0.22706835540E+04  0.46999998093E+01 0. -1.
       -5    1    3    3    0  502  0.39849661466E+02 -0.24835108457E+03  0.45500677300E+03  0.51992260020E+03  0.46999998093E+01 0.  1.
</event>
<event>
 5   0  0.8861350E-05  0.1824344E+04  0.7818609E-02  0.8693460E-01
        1   -1    0    0  501    0  0.00000000000E+00  0.00000000000E+00  0.49550896083E+03  0.49550896086E+03  0.50400001928E-02 0. -1.
       -1   -1    0    0    0  501  0.00000000000E+00  0.00000000000E+00 -0.16791978765E+04  0.16791978765E+04  0.50400001928E-02 0.  1.
    10030    2    1    2    0    0  0.00000000000E+00  0.00000000000E+00 -0.11836889157E+04  0.21747068374E+04  0.18243438216E+04 0.  0.
        1    1    3    3  502    0  0.27595990875E+03  0.70974445105E+03 -0.11904458983E+04  0.14131710773E+04  0.50400001928E-02 0. -1.
       -1    1    3    3    0  502 -0.27595990875E+03 -0.70974445105E+03  0.67569825774E+01  0.76153576007E+03  0.50400001928E-02 0.  1.
</event>
<event>
 5   0  0.1893687E-04  0.2017712E+04  0.7818609E-02  0.8598384E-01
        2   -1    0    0  501    0  0.00000000000E+00  0.00000000000E+00  0.80311704415E+03  0.80311704415E+03  0.25500000920E-02 0. -1.
       -2   -1    0    0    0  501  0.00000000000E+00  0.00000000000E+00 -0.12673000942E+04  0.12673000942E+04  0.25500000920E-02 0.  1.
    10030    2    1    2    0    0  0.00000000000E+00  0.00000000000E+00 -0.46418305006E+03  0.20704171384E+04  0.20177118781E+04 0.  0.
        4    1    3    3  502    0 -0.59435534041E+03 -0.47750100628E+03  0.44586582578E+03  0.88321199560E+03  0.12699999809E+01 0. -1.
       -4    1    3    3    0  502  0.59435534041E+03  0.47750100628E+03 -0.91004887584E+03  0.11872051428E+04  0.12699999809E+01 0.  1.
</event>
<event>
 5   0  0.8765057E-05  0.2005222E+04  0.7818609E-02  0.8604183E-01
       -1   -1    0    0    0  501  0.00000000000E+00  0.00000000000E+00  0.98253004558E+03  0.98253004559E+03  0.50400001928E-02 0. -1.
        1   -1    0    0  501    0  0.00000000000E+00  0.00000000000E+00 -0.10231025141E+04  0.10231025141E+04  0.50400001928E-02 0.  1.
    10030    2    1    2    0    0  0.00000000000E+00  0.00000000000E+00 -0.40572468538E+02  0.20056325597E+04  0.20052221422E+04 0.  0.
        3    1    3    3  502    0 -0.67763960925E+03 -0.71801634066E+03 -0.19492450291E+03  0.10063490833E+04  0.10100000352E+00 0.  1.
       -3    1    3    3    0  502  0.67763960925E+03  0.71801634066E+03  0.15435203437E+03  0.99928347639E+03  0.10100000352E+00 0. -1.
</event>
<event>
 5   0  0.8577422E-05  0.1837424E+04  0.7818609E-02  0.8686647E-01
        1   -1    0    0  501    0  0.00000000000E+00  0.00000000000E+00  0.15207742768E+04  0.15207742768E+04  0.50400001928E-02 0.  1.
       -1   -1    0    0    0  501  0.00000000000E+00  0.00000000000E+00 -0.55500151278E+03  0.55500151280E+03  0.50400001928E-02 0. -1.
    10030    2    1    2    0    0  0.00000000000E+00  0.00000000000E+00  0.96577276398E+03  0.20757757896E+04  0.18374243105E+04 0.  0.
        2    1    3    3  502    0  0.20452455636E+03  0.87323849991E+03  0.25791523688E+03  0.93321811025E+03  0.25500000920E-02 0. -1.
       -2    1    3    3    0  502 -0.20452455636E+03 -0.87323849991E+03  0.70785752709E+03  0.11425576793E+04  0.25500000920E-02 0.  1.
</event>
<event>
 5   0  0.8577422E-05  0.1935659E+04  0.7818609E-02  0.8637308E-01
        1   -1    0    0  501    0  0.00000000000E+00  0.00000000000E+00  0.65290779286E+03  0.65290779288E+03  0.50400001928E-02 0.  1.
       -1   -1    0    0    0  501  0.00000000000E+00  0.00000000000E+00 -0.14346489360E+04  0.14346489360E+04  0.50400001928E-02 0. -1.
    10030    2    1    2    0    0  0.00000000000E+00  0.00000000000E+00 -0.78174114317E+03  0.20875567289E+04  0.19356585137E+04 0.  0.
        2    1    3    3  502    0  0.45072340982E+03 -0.16283712296E+03 -0.12977033735E+04  0.13833660276E+04  0.25500000920E-02 0. -1.
       -2    1    3    3    0  502 -0.45072340982E+03  0.16283712296E+03  0.51596223028E+03  0.70419070134E+03  0.25500000920E-02 0.  1.
</event>
<event>
 5   0  0.8861350E-05  0.2016242E+04  0.7818609E-02  0.8599064E-01
        1   -1    0    0  501    0  0.00000000000E+00  0.00000000000E+00  0.82746942622E+03  0.82746942624E+03  0.50400001928E-02 0.  1.
       -1   -1    0    0    0  501  0.00000000000E+00  0.00000000000E+00 -0.12282121323E+04  0.12282121323E+04  0.50400001928E-02 0. -1.
    10030    2    1    2    0    0  0.00000000000E+00  0.00000000000E+00 -0.40074270608E+03  0.20556815586E+04  0.20162420375E+04 0.  0.
        1    1    3    3  502    0 -0.54501362395E+03 -0.53791029047E+03  0.46813775896E+03  0.89751896486E+03  0.50400001928E-02 0.  1.
       -1    1    3    3    0  502  0.54501362395E+03  0.53791029047E+03 -0.86888046503E+03  0.11581625937E+04  0.50400001928E-02 0. -1.
</event>
<event>
 5   0  0.8881384E-05  0.2010829E+04  0.7818609E-02  0.8601575E-01
       -1   -1    0    0    0  501  0.00000000000E+00  0.00000000000E+00  0.63780467783E+03  0.63780467785E+03  0.50400001928E-02 0. -1.
        1   -1    0    0  501    0  0.00000000000E+00  0.00000000000E+00 -0.15849023017E+04  0.15849023017E+04  0.50400001928E-02 0.  1.
    10030    2    1    2    0    0  0.00000000000E+00  0.00000000000E+00 -0.94709762388E+03  0.22227069796E+04  0.20108287863E+04 0.  0.
        5    1    3    3  502    0  0.54082741975E+03 -0.77314671811E+03 -0.89704310878E+02  0.94779697143E+03  0.46999998093E+01 0. -1.
       -5    1    3    3    0  502 -0.54082741975E+03  0.77314671811E+03 -0.85739331300E+03  0.12749100081E+04  0.46999998093E+01 0.  1.
</event>
<event>
 5   0  0.8577422E-05  0.1988491E+04  0.7818609E-02  0.8612021E-01
       -1   -1    0    0    0  501  0.00000000000E+00  0.00000000000E+00  0.13406151630E+04  0.13406151630E+04  0.50400001928E-02 0.  1.
        1   -1    0    0  501    0  0.00000000000E+00  0.00000000000E+00 -0.73736577675E+03  0.73736577676E+03  0.50400001928E-02 0. -1.
    10030    2    1    2    0    0  0.00000000000E+00  0.00000000000E+00  0.60324938622E+03  0.20779809397E+04  0.19884906245E+04 0.  0.
        2    1    3    3  502    0  0.48962731472E+03  0.23805070902E+03  0.11710032600E+04  0.12913758873E+04  0.25500000920E-02 0.  1.
       -2    1    3    3    0  502 -0.48962731472E+03 -0.23805070902E+03 -0.56775387375E+03  0.78660505246E+03  0.25500000920E-02 0. -1.
</event>
<event>
 5   0  0.1893687E-04  0.1938104E+04  0.7818609E-02  0.8636119E-01
       -2   -1    0    0    0  501  0.00000000000E+00  0.00000000000E+00  0.55539374076E+03  0.55539374076E+03  0.25500000920E-02 0.  1.
        2   -1    0    0  501    0  0.00000000000E+00  0.00000000000E+00 -0.16908037495E+04  0.16908037495E+04  0.25500000920E-02 0. -1.
    10030    2    1    2    0    0  0.00000000000E+00  0.00000000000E+00 -0.11354100088E+04  0.22461974903E+04  0.19381040420E+04 0.  0.
        4    1    3    3  502    0 -0.66904413242E+03  0.66528478855E+03 -0.31158573687E+03  0.99363533820E+03  0.12699999809E+01 0.  1.
       -4    1    3    3    0  502  0.66904413242E+03 -0.66528478855E+03 -0.82382427192E+03  0.12525621521E+04  0.12699999809E+01 0. -1.
</event>
<event>
 5   0  0.1893687E-04  0.2014164E+04  0.7818609E-02  0.8600027E-01
        2   -1    0    0  501    0  0.00000000000E+00  0.00000000000E+00  0.48805840790E+03  0.48805840791E+03  0.25500000920E-02 0.  1.
       -2   -1    0    0    0  501  0.00000000000E+00  0.00000000000E+00 -0.20780592034E+04  0.20780592034E+04  0.25500000920E-02 0. -1.
    10030    2    1    2    0    0  0.00000000000E+00  0.00000000000E+00 -0.15900007955E+04  0.25661176113E+04  0.20141641108E+04 0.  0.
        4    1    3    3  502    0  0.63818046311E+03 -0.75172658610E+03 -0.53438142344E+03  0.11215758032E+04  0.12699999809E+01 0. -1.
       -4    1    3    3    0  502 -0.63818046311E+03  0.75172658610E+03 -0.10556193721E+04  0.14445418081E+04  0.12699999809E+01 0.  1.
</event>
<event>
 5   0  0.1834645E-04  0.1951085E+04  0.7818609E-02  0.8629838E-01
       -2   -1    0    0    0  501  0.00000000000E+00  0.00000000000E+00  0.12107377068E+04  0.12107377068E+04  0.25500000920E-02 0. -1.
        2   -1    0    0  501    0  0.00000000000E+00  0.00000000000E+00 -0.78603608631E+03  0.78603608631E+03  0.25500000920E-02 0.  1.
    10030    2    1    2    0    0  0.00000000000E+00  0.00000000000E+00  0.42470162045E+03  0.19967737931E+04  0.19510853683E+04 0.  0.
        1    1    3    3  502    0 -0.19480546366E+03 -0.49590575454E+03 -0.62398299987E+03  0.82050379049E+03  0.50400001928E-02 0.  1.
       -1    1    3    3    0  502  0.19480546366E+03  0.49590575454E+03  0.10486846203E+04  0.11762700026E+04  0.50400001928E-02 0. -1.
</event>
<event>
 5   0  0.8958919E-05  0.2023375E+04  0.7818609E-02  0.8595770E-01
        1   -1    0    0  501    0  0.00000000000E+00  0.00000000000E+00  0.15488814743E+04  0.15488814743E+04  0.50400001928E-02 0. -1.
       -1   -1    0    0    0  501  0.00000000000E+00  0.00000000000E+00 -0.66080662998E+03  0.66080663000E+03  0.50400001928E-02 0.  1.
    10030    2    1    2    0    0  0.00000000000E+00  0.00000000000E+00  0.88807484434E+03  0.22096881043E+04  0.20233745549E+04 0.  0.
        4    1    3    3  502    0  0.55668056009E+03  0.21689138522E+03  0.13356558047E+04  0.14631859624E+04  0.12699999809E+01 0. -1.
       -4    1    3    3    0  502 -0.55668056009E+03 -0.21689138522E+03 -0.44758096036E+03  0.74650214195E+03  0.12699999809E+01 0.  1.
</event>
<event>
 5   0  0.8958919E-05  0.1989961E+04  0.7818609E-02  0.8611329E-01
       -1   -1    0    0    0  501  0.00000000000E+00  0.00000000000E+00  0.69784818479E+03  0.69784818480E+03  0.50400001928E-02 0.  1.
        1   -1    0    0  501    0  0.00000000000E+00  0.00000000000E+00 -0.14186266549E+04  0.14186266549E+04  0.50400001928E-02 0. -1.
    10030    2    1    2    0    0  0.00000000000E+00  0.00000000000E+00 -0.72077847011E+03  0.21164748397E+04  0.19899608399E+04 0.  0.
        4    1    3    3  502    0 -0.65093661732E+02 -0.72297016666E+03  0.36335956908E+03  0.81176033163E+03  0.12699999809E+01 0.  1.
       -4    1    3    3    0  502  0.65093661732E+02  0.72297016666E+03 -0.10841380392E+04  0.13047145081E+04  0.12699999809E+01 0. -1.
</event>
<event>
 5   0  0.1807498E-04  0.1995744E+04  0.7818609E-02  0.8608613E-01
        2   -1    0    0  501    0  0.00000000000E+00  0.00000000000E+00  0.22272971090E+04  0.22272971090E+04  0.25500000920E-02 0. -1.
       -2   -1    0    0    0  501  0.00000000000E+00  0.00000000000E+00 -0.44706589765E+03  0.44706589766E+03  0.25500000920E-02 0.  1.
    10030    2    1    2    0    0  0.00000000000E+00  0.00000000000E+00  0.17802312113E+04  0.26743630066E+04  0.19957440531E+04 0.  0.
        5    1    3    3  502    0  0.26442198350E+03  0.45325400471E+02 -0.39781798470E+03  0.47984853468E+03  0.46999998093E+01 0.  1.
       -5    1    3    3    0  502 -0.26442198350E+03 -0.45325400471E+02  0.21780491960E+04  0.21945144719E+04  0.46999998093E+01 0. -1.
</event>
<event>
 5   0  0.8881384E-05  0.1444230E+04  0.7818609E-02  0.8922410E-01
        1   -1    0    0  501    0  0.00000000000E+00  0.00000000000E+00  0.12049133916E+04  0.12049133917E+04  0.50400001928E-02 0. -1.
       -1   -1    0    0    0  501  0.00000000000E+00  0.00000000000E+00 -0.43277002136E+03  0.43277002139E+03  0.50400001928E-02 0.  1.
    10030    2    1    2    0    0  0.00000000000E+00  0.00000000000E+00  0.77214337028E+03  0.16376834130E+04  0.14442304446E+04 0.  0.
        5    1    3    3  502    0  0.35689121483E+03 -0.57063840012E+03  0.89443197493E+02  0.67898578666E+03  0.46999998093E+01 0.  1.
       -5    1    3    3    0  502 -0.35689121483E+03  0.57063840012E+03  0.68270017279E+03  0.95869762639E+03  0.46999998093E+01 0. -1.
</event>
<event>
 5   0  0.8881384E-05  0.2009355E+04  0.7818609E-02  0.8602259E-01
       -1   -1    0    0    0  501  0.00000000000E+00  0.00000000000E+00  0.56509874526E+03  0.56509874528E+03  0.50400001928E-02 0. -1.
        1   -1    0    0  501    0  0.00000000000E+00  0.00000000000E+00 -0.17861960279E+04  0.17861960279E+04  0.50400001928E-02 0.  1.
    10030    2    1    2    0    0  0.00000000000E+00  0.00000000000E+00 -0.12210972826E+04  0.23512947731E+04  0.20093552540E+04 0.  0.
        5    1    3    3  502    0 -0.57992720138E+03  0.57609300532E+03 -0.12940306253E+04  0.15305999016E+04  0.46999998093E+01 0.  1.
       -5    1    3    3    0  502  0.57992720138E+03 -0.57609300532E+03  0.72933342677E+02  0.82069487153E+03  0.46999998093E+01 0. -1.
</event>
<event>
 5   0  0.1782172E-04  0.2072629E+04  0.7818609E-02  0.8573397E-01
       -2   -1    0    0    0  501  0.00000000000E+00  0.00000000000E+00  0.17070439494E+04  0.17070439494E+04  0.25500000920E-02 0. -1.
        2   -1    0    0  501    0  0.00000000000E+00  0.00000000000E+00 -0.62912729603E+03  0.62912729604E+03  0.25500000920E-02 0.  1.
    10030    2    1    2    0    0  0.00000000000E+00  0.00000000000E+00  0.10779166533E+04  0.23361712454E+04  0.20726291941E+04 0.  0.
        2    1    3    3  502    0  0.56486518927E+03 -0.85347825203E+03  0.35564374491E+03  0.10835037065E+04  0.25500000920E-02 0. -1.
       -2    1    3    3    0  502 -0.56486518927E+03  0.85347825203E+03  0.72227290842E+03  0.12526675389E+04  0.25500000920E-02 0.  1.
</event>
<event>
 5   0  0.8765057E-05  0.1999454E+04  0.7818609E-02  0.8606876E-01
       -1   -1    0    0    0  501  0.00000000000E+00  0.00000000000E+00  0.55614475663E+03  0.55614475665E+03  0.50400001928E-02 0.  1.
        1   -1    0    0  501    0  0.00000000000E+00  0.00000000000E+00 -0.17971109119E+04  0.17971109119E+04  0.50400001928E-02 0. -1.
    10030    2    1    2    0    0  0.00000000000E+00  0.00000000000E+00 -0.12409661553E+04  0.23532556685E+04  0.19994537362E+04 0.  0.
        3    1    3    3  502    0  0.70573490072E+03 -0.44808364739E+03  0.24816976436E+02  0.83633521848E+03  0.10100000352E+00 0.  1.
       -3    1    3    3    0  502 -0.70573490072E+03  0.44808364739E+03 -0.12657831317E+04  0.15169204501E+04  0.10100000352E+00 0. -1.
</event>
<event>
 5   0  0.1812865E-04  0.2049499E+04  0.7818609E-02  0.8583822E-01
        2   -1    0    0  501    0  0.00000000000E+00  0.00000000000E+00  0.82594508562E+03  0.82594508563E+03  0.25500000920E-02 0.  1.
       -2   -1    0    0    0  501  0.00000000000E+00  0.00000000000E+00 -0.12714059186E+04  0.12714059186E+04  0.25500000920E-02 0. -1.
    10030    2    1    2    0    0  0.00000000000E+00  0.00000000000E+00 -0.44546083296E+03  0.20973510042E+04  0.20494989342E+04 0.  0.
        3    1    3    3  502    0  0.19786682332E+03  0.80159079542E+03  0.39841105647E+03  0.91674994584E+03  0.10100000352E+00 0.  1.
       -3    1    3    3    0  502 -0.19786682332E+03 -0.80159079542E+03 -0.84387188943E+03  0.11806010584E+04  0.10100000352E+00 0. -1.
</event>
<event>
 5   0  0.1893687E-04  0.1920196E+04  0.7818609E-02  0.8644869E-01
       -2   -1    0    0    0  501  0.00000000000E+00  0.00000000000E+00  0.56219905847E+03  0.56219905847E+03  0.25500000920E-02 0.  1.
        2   -1    0    0  501    0  0.00000000000E+00  0.00000000000E+00 -0.16396108853E+04  0.16396108853E+04  0.25500000920E-02 0. -1.
    10030    2    1    2    0    0  0.00000000000E+00  0.00000000000E+00 -0.10774118268E+04  0.22018099437E+04  0.19201955067E+04 0.  0.
        4    1    3    3  502    0  0.89876083400E+03 -0.20041855969E+02 -0.15220626666E+03  0.91177907041E+03  0.12699999809E+01 0.  1.
       -4    1    3    3    0  502 -0.89876083400E+03  0.20041855969E+02 -0.92520556015E+03  0.12900308733E+04  0.12699999809E+01 0. -1.
</event>
<event>
 5   0  0.1893687E-04  0.2024712E+04  0.7818609E-02  0.8595153E-01
        2   -1    0    0  501    0  0.00000000000E+00  0.00000000000E+00  0.20005128392E+04  0.20005128392E+04  0.25500000920E-02 0. -1.
       -2   -1    0    0    0  501  0.00000000000E+00  0.00000000000E+00 -0.51230111832E+03  0.51230111833E+03  0.25500000920E-02 0.  1.
    10030    2    1    2    0    0  0.00000000000E+00  0.00000000000E+00  0.14882117209E+04  0.25128139575E+04  0.20247122904E+04 0.  0.
        4    1    3    3  502    0 -0.55767121055E+02 -0.16741519282E+03  0.19812783124E+04  0.19891212087E+04  0.12699999809E+01 0. -1.
       -4    1    3    3    0  502  0.55767121055E+02  0.16741519282E+03 -0.49306659156E+03  0.52369274885E+03  0.12699999809E+01 0.  1.
</event>
<event>
 5   0  0.8577422E-05  0.1964888E+04  0.7818609E-02  0.8623215E-01
       -1   -1    0    0    0  501  0.00000000000E+00  0.00000000000E+00  0.71574823181E+03  0.71574823183E+03  0.50400001928E-02 0.  1.
        1   -1    0    0  501    0  0.00000000000E+00  0.00000000000E+00 -0.13485133440E+04  0.13485133440E+04  0.50400001928E-02 0. -1.
    10030    2    1    2    0    0  0.00000000000E+00  0.00000000000E+00 -0.63276511218E+03  0.20642615758E+04  0.19648878254E+04 0.  0.
        2    1    3    3  502    0 -0.44391310358E+03 -0.33100059153E+03  0.53618706382E+03  0.77078972654E+03  0.25500000920E-02 0.  1.
       -2    1    3    3    0  502  0.44391310358E+03  0.33100059153E+03 -0.11689521760E+04  0.12934718493E+04  0.25500000920E-02 0. -1.
</event>
<event>
 5   0  0.1834645E-04  0.2028388E+04  0.7818609E-02  0.8593462E-01
       -2   -1    0    0    0  501  0.00000000000E+00  0.00000000000E+00  0.61368996019E+03  0.61368996020E+03  0.25500000920E-02 0. -1.
        2   -1    0    0  501    0  0.00000000000E+00  0.00000000000E+00 -0.16760726821E+04  0.16760726821E+04  0.25500000920E-02 0.  1.
    10030    2    1    2    0    0  0.00000000000E+00  0.00000000000E+00 -0.10623827219E+04  0.22897626423E+04  0.20283875148E+04 0.  0.
        1    1    3    3  502    0  0.47671018901E+02  0.28952634991E+03 -0.16271095369E+04  0.16533552185E+04  0.50400001928E-02 0.  1.
       -1    1    3    3    0  502 -0.47671018901E+02 -0.28952634991E+03  0.56472681506E+03  0.63640742376E+03  0.50400001928E-02 0. -1.
</event>
<event>
 5   0  0.8861350E-05  0.2118060E+04  0.7818609E-02  0.8553329E-01
       -1   -1    0    0    0  501  0.00000000000E+00  0.00000000000E+00  0.75792798142E+03  0.75792798144E+03  0.50400001928E-02 0.  1.
        1   -1    0    0  501    0  0.00000000000E+00  0.00000000000E+00 -0.14797501743E+04  0.14797501743E+04  0.50400001928E-02 0. -1.
    10030    2    1    2    0    0  0.00000000000E+00  0.00000000000E+00 -0.72182219288E+03  0.22376781557E+04  0.21180595484E+04 0.  0.
        1    1    3    3  502    0 -0.19371970543E+03  0.74032984903E+03 -0.11343265826E+04  0.13683246711E+04  0.50400001928E-02 0. -1.
       -1    1    3    3    0  502  0.19371970543E+03 -0.74032984903E+03  0.41250438972E+03  0.86935348461E+03  0.50400001928E-02 0.  1.
</event>
<event>
 5   0  0.8881384E-05  0.1986907E+04  0.7818609E-02  0.8612766E-01
        1   -1    0    0  501    0  0.00000000000E+00  0.00000000000E+00  0.12537229914E+04  0.12537229914E+04  0.50400001928E-02 0. -1.
       -1   -1    0    0    0  501  0.00000000000E+00  0.00000000000E+00 -0.78721554172E+03  0.78721554174E+03  0.50400001928E-02 0.  1.
    10030    2    1    2    0    0  0.00000000000E+00  0.00000000000E+00  0.46650744970E+03  0.20409385332E+04  0.19869073696E+04 0.  0.
        5    1    3    3  502    0 -0.11188760381E+03  0.80583285640E+03 -0.35237519723E+03  0.88660915739E+03  0.46999998093E+01 0.  1.
       -5    1    3    3    0  502  0.11188760381E+03 -0.80583285640E+03  0.81888264694E+03  0.11543293758E+04  0.46999998093E+01 0. -1.
</event>
<event>
 5   0  0.1834645E-04  0.1999957E+04  0.7818609E-02  0.8606641E-01
        2   -1    0    0  501    0  0.00000000000E+00  0.00000000000E+00  0.82341411678E+03  0.82341411679E+03  0.25500000920E-02 0. -1.
       -2   -1    0    0    0  501  0.00000000000E+00  0.00000000000E+00 -0.12144036056E+04  0.12144036056E+04  0.25500000920E-02 0.  1.
    10030    2    1    2    0    0  0.00000000000E+00  0.00000000000E+00 -0.39098948879E+03  0.20378177224E+04  0.19999570718E+04 0.  0.
        1    1    3    3  502    0 -0.20959296247E+03  0.84175550923E+03 -0.70238131846E+03  0.11161635471E+04  0.50400001928E-02 0.  1.
       -1    1    3    3    0  502  0.20959296247E+03 -0.84175550923E+03  0.31139182967E+03  0.92165417530E+03  0.50400001928E-02 0. -1.
</event>
<event>
 5   0  0.8881384E-05  0.2001165E+04  0.7818609E-02  0.8606076E-01
        1   -1    0    0  501    0  0.00000000000E+00  0.00000000000E+00  0.12451355841E+04  0.12451355841E+04  0.50400001928E-02 0. -1.
       -1   -1    0    0    0  501  0.00000000000E+00  0.00000000000E+00 -0.80406158168E+03  0.80406158169E+03  0.50400001928E-02 0.  1.
    10030    2    1    2    0    0  0.00000000000E+00  0.00000000000E+00  0.44107400238E+03  0.20491971658E+04  0.20011653476E+04 0.  0.
        5    1    3    3  502    0  0.73970512596E+03 -0.24548477809E+03 -0.42199229997E+03  0.88629906966E+03  0.46999998093E+01 0.  1.
       -5    1    3    3    0  502 -0.73970512596E+03  0.24548477809E+03  0.86306630234E+03  0.11628980961E+04  0.46999998093E+01 0. -1.
</event>
<event>
 5   0  0.8765057E-05  0.2097975E+04  0.7818609E-02  0.8562136E-01
       -1   -1    0    0    0  501  0.00000000000E+00  0.00000000000E+00  0.12968877705E+04  0.12968877705E+04  0.50400001928E-02 0.  1.
        1   -1    0    0  501    0  0.00000000000E+00  0.00000000000E+00 -0.84847343907E+03  0.84847343909E+03  0.50400001928E-02 0. -1.
    10030    2    1    2    0    0  0.00000000000E+00  0.00000000000E+00  0.44841433141E+03  0.21453612096E+04  0.20979750492E+04 0.  0.
        3    1    3    3  502    0 -0.89904497037E+03 -0.70269049636E+02  0.77217928407E+03  0.11872154207E+04  0.10100000352E+00 0.  1.
       -3    1    3    3    0  502  0.89904497037E+03  0.70269049636E+02 -0.32376495265E+03  0.95814578894E+03  0.10100000352E+00 0. -1.
</event>
<event>
 5   0  0.8958919E-05  0.1954301E+04  0.7818609E-02  0.8628290E-01
       -1   -1    0    0    0  501  0.00000000000E+00  0.00000000000E+00  0.79159033533E+03  0.79159033534E+03  0.50400001928E-02 0.  1.
        1   -1    0    0  501    0  0.00000000000E+00  0.00000000000E+00 -0.12062080892E+04  0.12062080892E+04  0.50400001928E-02 0. -1.
    10030    2    1    2    0    0  0.00000000000E+00  0.00000000000E+00 -0.41461775391E+03  0.19977984246E+04  0.19543005561E+04 0.  0.
        4    1    3    3  502    0 -0.62532411517E+03  0.65604068232E+03  0.16606209343E+03  0.92141079744E+03  0.12699999809E+01 0.  1.
       -4    1    3    3    0  502  0.62532411517E+03 -0.65604068232E+03 -0.58067984733E+03  0.10763876271E+04  0.12699999809E+01 0. -1.
</event>
<event>
 5   0  0.1807498E-04  0.2004938E+04  0.7818609E-02  0.8604316E-01
       -2   -1    0    0    0  501  0.00000000000E+00  0.00000000000E+00  0.69747431947E+03  0.69747431948E+03  0.25500000920E-02 0.  1.
        2   -1    0    0  501    0  0.00000000000E+00  0.00000000000E+00 -0.14408326463E+04  0.14408326463E+04  0.25500000920E-02 0. -1.
    10030    2    1    2    0    0  0.00000000000E+00  0.00000000000E+00 -0.74335832683E+03  0.21383069658E+04  0.20049376743E+04 0.  0.
        5    1    3    3  502    0 -0.70387620127E+03  0.65269443433E+03 -0.63548977513E+02  0.96203549511E+03  0.46999998093E+01 0. -1.
       -5    1    3    3    0  502  0.70387620127E+03 -0.65269443433E+03 -0.67980934931E+03  0.11762714707E+04  0.46999998093E+01 0.  1.
</event>
<event>
 5   0  0.1834645E-04  0.1994241E+04  0.7818609E-02  0.8609318E-01
        2   -1    0    0  501    0  0.00000000000E+00  0.00000000000E+00  0.79315125807E+03  0.79315125807E+03  0.25500000920E-02 0. -1.
       -2   -1    0    0    0  501  0.00000000000E+00  0.00000000000E+00 -0.12535426753E+04  0.12535426753E+04  0.25500000920E-02 0.  1.
    10030    2    1    2    0    0  0.00000000000E+00  0.00000000000E+00 -0.46039141723E+03  0.20466939334E+04  0.19942406575E+04 0.  0.
        1    1    3    3  502    0 -0.68704321478E+02  0.67565722938E+03 -0.97947796563E+03  0.11918934770E+04  0.50400001928E-02 0.  1.
       -1    1    3    3    0  502  0.68704321478E+02 -0.67565722938E+03  0.51908654840E+03  0.85480045634E+03  0.50400001928E-02 0. -1.
</event>
<event>
 5   0  0.8577422E-05  0.1998666E+04  0.7818609E-02  0.8607245E-01
       -1   -1    0    0    0  501  0.00000000000E+00  0.00000000000E+00  0.10577762997E+04  0.10577762997E+04  0.50400001928E-02 0. -1.
        1   -1    0    0  501    0  0.00000000000E+00  0.00000000000E+00 -0.94411872827E+03  0.94411872829E+03  0.50400001928E-02 0.  1.
    10030    2    1    2    0    0  0.00000000000E+00  0.00000000000E+00  0.11365757140E+03  0.20018950280E+04  0.19986659700E+04 0.  0.
        2    1    3    3  502    0 -0.89091388022E+03  0.20211494100E+03  0.46256152595E+03  0.10239829865E+04  0.25500000920E-02 0.  1.
       -2    1    3    3    0  502  0.89091388022E+03 -0.20211494100E+03 -0.34890395455E+03  0.97791204147E+03  0.25500000920E-02 0. -1.
</event>
<event>
 5   0  0.8881384E-05  0.2050865E+04  0.7818609E-02  0.8583202E-01
        1   -1    0    0  501    0  0.00000000000E+00  0.00000000000E+00  0.75286438550E+03  0.75286438551E+03  0.50400001928E-02 0. -1.
       -1   -1    0    0    0  501  0.00000000000E+00  0.00000000000E+00 -0.13966813715E+04  0.13966813715E+04  0.50400001928E-02 0.  1.
    10030    2    1    2    0    0  0.00000000000E+00  0.00000000000E+00 -0.64381698604E+03  0.21495457571E+04  0.20508648542E+04 0.  0.
        5    1    3    3  502    0 -0.93761482795E+03 -0.39975411522E+03 -0.20442281597E+03  0.10395843861E+04  0.46999998093E+01 0.  1.
       -5    1    3    3    0  502  0.93761482795E+03  0.39975411522E+03 -0.43939417006E+03  0.11099613709E+04  0.46999998093E+01 0. -1.
</event>
<event>
 5   0  0.1812865E-04  0.1993021E+04  0.7818609E-02  0.8609891E-01
        2   -1    0    0  501    0  0.00000000000E+00  0.00000000000E+00  0.13749930646E+04  0.13749930646E+04  0.25500000920E-02 0. -1.
       -2   -1    0    0    0  501  0.00000000000E+00  0.00000000000E+00 -0.72220952281E+03  0.72220952281E+03  0.25500000920E-02 0.  1.
    10030    2    1    2    0    0  0.00000000000E+00  0.00000000000E+00  0.65278354177E+03  0.20972025874E+04  0.19930209081E+04 0.  0.
        3    1    3    3  502    0 -0.91150727812E+03 -0.33054700536E+03  0.56847462250E+03  0.11239529561E+04  0.10100000352E+00 0. -1.
       -3    1    3    3    0  502  0.91150727812E+03  0.33054700536E+03  0.84308919266E+02  0.97324963133E+03  0.10100000352E+00 0.  1.
</event>
<event>
 5   0  0.1834645E-04  0.2002080E+04  0.7818609E-02  0.8605649E-01
        2   -1    0    0  501    0  0.00000000000E+00  0.00000000000E+00  0.99569037385E+03  0.99569037385E+03  0.25500000920E-02 0.  1.
       -2   -1    0    0    0  501  0.00000000000E+00  0.00000000000E+00 -0.10064184081E+04  0.10064184081E+04  0.25500000920E-02 0. -1.
    10030    2    1    2    0    0  0.00000000000E+00  0.00000000000E+00 -0.10728034280E+02  0.20021087820E+04  0.20020800394E+04 0.  0.
        1    1    3    3  502    0 -0.87983185522E+03  0.27253761133E+03  0.38668788141E+03  0.99895363291E+03  0.50400001928E-02 0.  1.
       -1    1    3    3    0  502  0.87983185522E+03 -0.27253761133E+03 -0.39741591569E+03  0.10031551491E+04  0.50400001928E-02 0. -1.
</event>
<event>
 5   0  0.6531625E-05  0.2022631E+04  0.7818609E-02  0.8596113E-01
        3   -1    0    0  501    0  0.00000000000E+00  0.00000000000E+00  0.55604551518E+03  0.55604552435E+03  0.10100000352E+00 0. -1.
       -3   -1    0    0    0  501  0.00000000000E+00  0.00000000000E+00 -0.18393435918E+04  0.18393435946E+04  0.10100000352E+00 0.  1.
    10030    2    1    2    0    0  0.00000000000E+00  0.00000000000E+00 -0.12832980766E+04  0.23953891189E+04  0.20226307319E+04 0.  0.
        4    1    3    3  502    0 -0.96529924877E+03  0.16050852871E+03 -0.94403042514E+03  0.13596913929E+04  0.12699999809E+01 0. -1.
       -4    1    3    3    0  502  0.96529924877E+03 -0.16050852871E+03 -0.33926765150E+03  0.10356977260E+04  0.12699999809E+01 0.  1.
</event>
<event>
 5   0  0.8577422E-05  0.1865414E+04  0.7818609E-02  0.8672266E-01
       -1   -1    0    0    0  501  0.00000000000E+00  0.00000000000E+00  0.94032447942E+03  0.94032447943E+03  0.50400001928E-02 0.  1.
        1   -1    0    0  501    0  0.00000000000E+00  0.00000000000E+00 -0.92515147766E+03  0.92515147768E+03  0.50400001928E-02 0. -1.
    10030    2    1    2    0    0  0.00000000000E+00  0.00000000000E+00  0.15173001752E+02  0.18654759571E+04  0.18654142507E+04 0.  0.
        2    1    3    3  502    0  0.81589579009E+03  0.31012355803E+03  0.33635263451E+03  0.93541202487E+03  0.25500000920E-02 0.  1.
       -2    1    3    3    0  502 -0.81589579009E+03 -0.31012355803E+03 -0.32117963276E+03  0.93006393223E+03  0.25500000920E-02 0. -1.
</event>
<event>
 5   0  0.8881384E-05  0.2019280E+04  0.7818609E-02  0.8597659E-01
       -1   -1    0    0    0  501  0.00000000000E+00  0.00000000000E+00  0.50760337217E+03  0.50760337220E+03  0.50400001928E-02 0. -1.
        1   -1    0    0  501    0  0.00000000000E+00  0.00000000000E+00 -0.20082070688E+04  0.20082070688E+04  0.50400001928E-02 0.  1.
    10030    2    1    2    0    0  0.00000000000E+00  0.00000000000E+00 -0.15006036966E+04  0.25158104410E+04  0.20192797530E+04 0.  0.
        5    1    3    3  502    0 -0.53919019099E+03  0.67334659901E+03 -0.96677186044E+02  0.86803817471E+03  0.46999998093E+01 0.  1.
       -5    1    3    3    0  502  0.53919019099E+03 -0.67334659901E+03 -0.14039265106E+04  0.16477722663E+04  0.46999998093E+01 0. -1.
</event>
<event>
 5   0  0.8577422E-05  0.1995150E+04  0.7818609E-02  0.8608891E-01
        1   -1    0    0  501    0  0.00000000000E+00  0.00000000000E+00  0.72200131692E+03  0.72200131694E+03  0.50400001928E-02 0. -1.
       -1   -1    0    0    0  501  0.00000000000E+00  0.00000000000E+00 -0.13783301257E+04  0.13783301257E+04  0.50400001928E-02 0.  1.
    10030    2    1    2    0    0  0.00000000000E+00  0.00000000000E+00 -0.65632880879E+03  0.21003314427E+04  0.19951502860E+04 0.  0.
        2    1    3    3  502    0 -0.90627559213E+03 -0.26418971737E+03 -0.66769589426E+03  0.11562653082E+04  0.25500000920E-02 0.  1.
       -2    1    3    3    0  502  0.90627559213E+03  0.26418971737E+03  0.11367085464E+02  0.94406613449E+03  0.25500000920E-02 0. -1.
</event>
<event>
 5   0  0.8881384E-05  0.1968776E+04  0.7818609E-02  0.8621360E-01
       -1   -1    0    0    0  501  0.00000000000E+00  0.00000000000E+00  0.45551148130E+03  0.45551148133E+03  0.50400001928E-02 0. -1.
        1   -1    0    0  501    0  0.00000000000E+00  0.00000000000E+00 -0.21273214536E+04  0.21273214536E+04  0.50400001928E-02 0.  1.
    10030    2    1    2    0    0  0.00000000000E+00  0.00000000000E+00 -0.16718099723E+04  0.25828329349E+04  0.19687756059E+04 0.  0.
        5    1    3    3  502    0 -0.15191123252E+03  0.84010231621E+03 -0.19301022970E+03  0.87528507529E+03  0.46999998093E+01 0. -1.
       -5    1    3    3    0  502  0.15191123252E+03 -0.84010231621E+03 -0.14787997426E+04  0.17075478596E+04  0.46999998093E+01 0.  1.
</event>
<event>
 5   0  0.8577422E-05  0.1943687E+04  0.7818609E-02  0.8633411E-01
        1   -1    0    0  501    0  0.00000000000E+00  0.00000000000E+00  0.10960182057E+04  0.10960182057E+04  0.50400001928E-02 0. -1.
       -1   -1    0    0    0  501  0.00000000000E+00  0.00000000000E+00 -0.86173715845E+03  0.86173715847E+03  0.50400001928E-02 0.  1.
    10030    2    1    2    0    0  0.00000000000E+00  0.00000000000E+00  0.23428104721E+03  0.19577553641E+04  0.19436868206E+04 0.  0.
        2    1    3    3  502    0  0.11624020353E+03  0.64028007651E+03 -0.60989369325E+03  0.89187481093E+03  0.25500000920E-02 0.  1.
       -2    1    3    3    0  502 -0.11624020353E+03 -0.64028007651E+03  0.84417474045E+03  0.10658805532E+04  0.25500000920E-02 0. -1.
</event>
<event>
 5   0  0.1812865E-04  0.2040566E+04  0.7818609E-02  0.8587886E-01
        2   -1    0    0  501    0  0.00000000000E+00  0.00000000000E+00  0.18405362821E+04  0.18405362821E+04  0.25500000920E-02 0. -1.
       -2   -1    0    0    0  501  0.00000000000E+00  0.00000000000E+00 -0.56558349570E+03  0.56558349571E+03  0.25500000920E-02 0.  1.
    10030    2    1    2    0    0  0.00000000000E+00  0.00000000000E+00  0.12749527864E+04  0.24061197778E+04  0.20405655534E+04 0.  0.
        3    1    3    3  502    0 -0.32767974854E+03  0.51004587438E+03 -0.33018038846E+03  0.69031870227E+03  0.10100000352E+00 0.  1.
       -3    1    3    3    0  502  0.32767974854E+03 -0.51004587438E+03  0.16051331748E+04  0.17158010755E+04  0.10100000352E+00 0. -1.
</event>
<event>
 5   0  0.1782172E-04  0.1998178E+04  0.7818609E-02  0.8607473E-01
       -2   -1    0    0    0  501  0.00000000000E+00  0.00000000000E+00  0.10895199422E+04  0.10895199422E+04  0.25500000920E-02 0. -1.
        2   -1    0    0  501    0  0.00000000000E+00  0.00000000000E+00 -0.91616359119E+03  0.91616359120E+03  0.25500000920E-02 0.  1.
    10030    2    1    2    0    0  0.00000000000E+00  0.00000000000E+00  0.17335635099E+03  0.20056835334E+04  0.19981776727E+04 0.  0.
        2    1    3    3  502    0 -0.38749843967E+03  0.91944135251E+03  0.34996307177E+02  0.99837477080E+03  0.25500000920E-02 0. -1.
       -2    1    3    3    0  502  0.38749843967E+03 -0.91944135251E+03  0.13836004382E+03  0.10073087626E+04  0.25500000920E-02 0.  1.
</event>
<event>
 5   0  0.1834645E-04  0.1795261E+04  0.7818609E-02  0.8708824E-01
        2   -1    0    0  501    0  0.00000000000E+00  0.00000000000E+00  0.20407502394E+04  0.20407502394E+04  0.25500000920E-02 0.  1.
       -2   -1    0    0    0  501  0.00000000000E+00  0.00000000000E+00 -0.39482554482E+03  0.39482554483E+03  0.25500000920E-02 0. -1.
    10030    2    1    2    0    0  0.00000000000E+00  0.00000000000E+00  0.16459246946E+04  0.24355757842E+04  0.17952607890E+04 0.  0.
        1    1    3    3  502    0  0.24805649168E+03 -0.99946280298E+02  0.19854461869E+04  0.20033766104E+04  0.50400001928E-02 0.  1.
       -1    1    3    3    0  502 -0.24805649168E+03  0.99946280298E+02 -0.33952149237E+03  0.43219917378E+03  0.50400001928E-02 0. -1.
</event>
<event>
 5   0  0.8577422E-05  0.1979143E+04  0.7818609E-02  0.8616435E-01
        1   -1    0    0  501    0  0.00000000000E+00  0.00000000000E+00  0.11607864636E+04  0.11607864636E+04  0.50400001928E-02 0.  1.
       -1   -1    0    0    0  501  0.00000000000E+00  0.00000000000E+00 -0.84361032254E+03  0.84361032255E+03  0.50400001928E-02 0. -1.
    10030    2    1    2    0    0  0.00000000000E+00  0.00000000000E+00  0.31717614104E+03  0.20043967861E+04  0.19791426861E+04 0.  0.
        2    1    3    3  502    0 -0.50628296379E+03 -0.44296247723E+01 -0.70250188347E+03  0.86593934966E+03  0.25500000920E-02 0. -1.
       -2    1    3    3    0  502  0.50628296379E+03  0.44296247723E+01  0.10196780245E+04  0.11384574365E+04  0.25500000920E-02 0.  1.
</event>
<event>
 5   0  0.1893687E-04  0.1840264E+04  0.7818609E-02  0.8685176E-01
       -2   -1    0    0    0  501  0.00000000000E+00  0.00000000000E+00  0.37275636216E+03  0.37275636217E+03  0.25500000920E-02 0. -1.
        2   -1    0    0  501    0  0.00000000000E+00  0.00000000000E+00 -0.22713041649E+04  0.22713041649E+04  0.25500000920E-02 0.  1.
    10030    2    1    2    0    0  0.00000000000E+00  0.00000000000E+00 -0.18985478028E+04  0.26440605271E+04  0.18402641961E+04 0.  0.
        4    1    3    3  502    0  0.60773500116E+02  0.50069552561E+03  0.15644439947E+03  0.52807754233E+03  0.12699999809E+01 0. -1.
       -4    1    3    3    0  502 -0.60773500116E+02 -0.50069552561E+03 -0.20549922022E+04  0.21159829848E+04  0.12699999809E+01 0.  1.
</event>
<event>
 5   0  0.8861350E-05  0.2022076E+04  0.7818609E-02  0.8596368E-01
       -1   -1    0    0    0  501  0.00000000000E+00  0.00000000000E+00  0.62548023102E+03  0.62548023104E+03  0.50400001928E-02 0.  1.
        1   -1    0    0  501    0  0.00000000000E+00  0.00000000000E+00 -0.16342610905E+04  0.16342610905E+04  0.50400001928E-02 0. -1.
    10030    2    1    2    0    0  0.00000000000E+00  0.00000000000E+00 -0.10087808595E+04  0.22597413216E+04  0.20220761652E+04 0.  0.
        1    1    3    3  502    0 -0.37584912260E+03 -0.11437084366E+03 -0.15454719556E+04  0.15946243503E+04  0.50400001928E-02 0. -1.
       -1    1    3    3    0  502  0.37584912260E+03  0.11437084366E+03  0.53669109612E+03  0.66511697130E+03  0.50400001928E-02 0.  1.
</event>
<event>
 5   0  0.8958919E-05  0.2029815E+04  0.7818609E-02  0.8592807E-01
        1   -1    0    0  501    0  0.00000000000E+00  0.00000000000E+00  0.16365043627E+04  0.16365043627E+04  0.50400001928E-02 0.  1.
       -1   -1    0    0    0  501  0.00000000000E+00  0.00000000000E+00 -0.62941302498E+03  0.62941302500E+03  0.50400001928E-02 0. -1.
    10030    2    1    2    0    0  0.00000000000E+00  0.00000000000E+00  0.10070913378E+04  0.22659173877E+04  0.20298149289E+04 0.  0.
        4    1    3    3  502    0 -0.24610492721E+03 -0.12472451085E+03  0.15938348928E+04  0.16175398348E+04  0.12699999809E+01 0.  1.
       -4    1    3    3    0  502  0.24610492721E+03  0.12472451085E+03 -0.58674355507E+03  0.64837755291E+03  0.12699999809E+01 0. -1.
</event>
<event>
 5   0  0.1812865E-04  0.1933219E+04  0.7818609E-02  0.8638496E-01
       -2   -1    0    0    0  501  0.00000000000E+00  0.00000000000E+00  0.46674419222E+03  0.46674419223E+03  0.25500000920E-02 0.  1.
        2   -1    0    0  501    0  0.00000000000E+00  0.00000000000E+00 -0.20018114949E+04  0.20018114949E+04  0.25500000920E-02 0. -1.
    10030    2    1    2    0    0  0.00000000000E+00  0.00000000000E+00 -0.15350673026E+04  0.24685556871E+04  0.19332189624E+04 0.  0.
        3    1    3    3  502    0  0.87941646524E+03 -0.23619224736E+03 -0.35342373737E+03  0.97676427319E+03  0.10100000352E+00 0.  1.
       -3    1    3    3    0  502 -0.87941646524E+03  0.23619224736E+03 -0.11816435653E+04  0.14917914139E+04  0.10100000352E+00 0. -1.
</event>
<event>
 5   0  0.8881384E-05  0.1921265E+04  0.7818609E-02  0.8644343E-01
        1   -1    0    0  501    0  0.00000000000E+00  0.00000000000E+00  0.10861635912E+04  0.10861635912E+04  0.50400001928E-02 0. -1.
       -1   -1    0    0    0  501  0.00000000000E+00  0.00000000000E+00 -0.84960944159E+03  0.84960944160E+03  0.50400001928E-02 0.  1.
    10030    2    1    2    0    0  0.00000000000E+00  0.00000000000E+00  0.23655414963E+03  0.19357730328E+04  0.19212650439E+04 0.  0.
        5    1    3    3  502    0  0.40900305366E+03  0.86908208249E+03  0.13272369553E+03  0.96965191350E+03  0.46999998093E+01 0.  1.
       -5    1    3    3    0  502 -0.40900305366E+03 -0.86908208249E+03  0.10383045410E+03  0.96612111932E+03  0.46999998093E+01 0. -1.
</event>
<event>
 5   0  0.1812865E-04  0.1961365E+04  0.7818609E-02  0.8624900E-01
       -2   -1    0    0    0  501  0.00000000000E+00  0.00000000000E+00  0.73984261866E+03  0.73984261866E+03  0.25500000920E-02 0. -1.
        2   -1    0    0  501    0  0.00000000000E+00  0.00000000000E+00 -0.12999229896E+04  0.12999229896E+04  0.25500000920E-02 0.  1.
    10030    2    1    2    0    0  0.00000000000E+00  0.00000000000E+00 -0.56008037093E+03  0.20397656083E+04  0.19613652681E+04 0.  0.
        3    1    3    3  502    0  0.18178538870E+03  0.58583858795E+02 -0.12803943337E+04  0.12945607966E+04  0.10100000352E+00 0.  1.
       -3    1    3    3    0  502 -0.18178538870E+03 -0.58583858795E+02  0.72031396282E+03  0.74520481164E+03  0.10100000352E+00 0. -1.
</event>
<event>
 5   0  0.8958919E-05  0.2031408E+04  0.7818609E-02  0.8592076E-01
        1   -1    0    0  501    0  0.00000000000E+00  0.00000000000E+00  0.86180654548E+03  0.86180654549E+03  0.50400001928E-02 0. -1.
       -1   -1    0    0    0  501  0.00000000000E+00  0.00000000000E+00 -0.11970835602E+04  0.11970835602E+04  0.50400001928E-02 0.  1.
    10030    2    1    2    0    0  0.00000000000E+00  0.00000000000E+00 -0.33527701473E+03  0.20588901057E+04  0.20314078347E+04 0.  0.
        4    1    3    3  502    0  0.47556290076E+03 -0.11750896721E+03 -0.10694423644E+04  0.11762980122E+04  0.12699999809E+01 0.  1.
       -4    1    3    3    0  502 -0.47556290076E+03  0.11750896721E+03  0.73416534965E+03  0.88259209348E+03  0.12699999809E+01 0. -1.
</event>
<event>
 5   0  0.8881384E-05  0.1982694E+04  0.7818609E-02  0.8614755E-01
       -1   -1    0    0    0  501  0.00000000000E+00  0.00000000000E+00  0.88555737940E+03  0.88555737941E+03  0.50400001928E-02 0. -1.
        1   -1    0    0  501    0  0.00000000000E+00  0.00000000000E+00 -0.11097742376E+04  0.11097742376E+04  0.50400001928E-02 0.  1.
    10030    2    1    2    0    0  0.00000000000E+00  0.00000000000E+00 -0.22421685818E+03  0.19953316170E+04  0.19826938902E+04 0.  0.
        5    1    3    3  502    0 -0.13274085262E+03  0.31319627555E+03 -0.10491905224E+04  0.11029664017E+04  0.46999998093E+01 0.  1.
       -5    1    3    3    0  502  0.13274085262E+03 -0.31319627555E+03  0.82497366418E+03  0.89236521535E+03  0.46999998093E+01 0. -1.
</event>
<event>
 5   0  0.1807498E-04  0.1988589E+04  0.7818609E-02  0.8611974E-01
       -2   -1    0    0    0  501  0.00000000000E+00  0.00000000000E+00  0.53962480833E+03  0.53962480834E+03  0.25500000920E-02 0. -1.
        2   -1    0    0  501    0  0.00000000000E+00  0.00000000000E+00 -0.18320532812E+04  0.18320532812E+04  0.25500000920E-02 0.  1.
    10030    2    1    2    0    0  0.00000000000E+00  0.00000000000E+00 -0.12924284728E+04  0.23716780895E+04  0.19885888471E+04 0.  0.
        5    1    3    3  502    0  0.82773868340E+03  0.38776388813E+03 -0.11128522457E+04  0.14401299843E+04  0.46999998093E+01 0. -1.
       -5    1    3    3    0  502 -0.82773868340E+03 -0.38776388813E+03 -0.17957622710E+03  0.93154810518E+03  0.46999998093E+01 0.  1.
</event>
<event>
 5   0  0.8861350E-05  0.2024360E+04  0.7818609E-02  0.8595316E-01
        1   -1    0    0  501    0  0.00000000000E+00  0.00000000000E+00  0.14070863514E+04  0.14070863514E+04  0.50400001928E-02 0. -1.
       -1   -1    0    0    0  501  0.00000000000E+00  0.00000000000E+00 -0.72810596062E+03  0.72810596064E+03  0.50400001928E-02 0.  1.
    10030    2    1    2    0    0  0.00000000000E+00  0.00000000000E+00  0.67898039074E+03  0.21351923120E+04  0.20243596119E+04 0.  0.
        1    1    3    3  502    0  0.91352474620E+03 -0.14128137354E+03  0.77440023150E+03  0.12058953549E+04  0.50400001928E-02 0. -1.
       -1    1    3    3    0  502 -0.91352474620E+03  0.14128137354E+03 -0.95419840766E+02  0.92929695709E+03  0.50400001928E-02 0.  1.
</event>
<event>
 5   0  0.1807498E-04  0.1896867E+04  0.7818609E-02  0.8656418E-01
        2   -1    0    0  501    0  0.00000000000E+00  0.00000000000E+00  0.12286534194E+04  0.12286534194E+04  0.25500000920E-02 0. -1.
       -2   -1    0    0    0  501  0.00000000000E+00  0.00000000000E+00 -0.73212341012E+03  0.73212341012E+03  0.25500000920E-02 0.  1.
    10030    2    1    2    0    0  0.00000000000E+00  0.00000000000E+00  0.49653000930E+03  0.19607768295E+04  0.18968668180E+04 0.  0.
        5    1    3    3  502    0  0.51026543849E+03  0.46968631698E+03  0.91699911415E+03  0.11497328035E+04  0.46999998093E+01 0. -1.
       -5    1    3    3    0  502 -0.51026543849E+03 -0.46968631698E+03 -0.42046910484E+03  0.81104402605E+03  0.46999998093E+01 0.  1.
</event>
<event>
 5   0  0.8577422E-05  0.2034484E+04  0.7818609E-02  0.8590666E-01
        1   -1    0    0  501    0  0.00000000000E+00  0.00000000000E+00  0.12171477817E+04  0.12171477817E+04  0.50400001928E-02 0. -1.
       -1   -1    0    0    0  501  0.00000000000E+00  0.00000000000E+00 -0.85016885833E+03  0.85016885834E+03  0.50400001928E-02 0.  1.
    10030    2    1    2    0    0  0.00000000000E+00  0.00000000000E+00  0.36697892340E+03  0.20673166401E+04  0.20344838560E+04 0.  0.
        2    1    3    3  502    0 -0.99875662074E+03  0.19136643007E+03  0.20930101064E+03  0.10382402473E+04  0.25500000920E-02 0.  1.
       -2    1    3    3    0  502  0.99875662074E+03 -0.19136643007E+03  0.15767791276E+03  0.10290763928E+04  0.25500000920E-02 0. -1.
</event>
<event>
 5   0  0.8765057E-05  0.2008439E+04  0.7818609E-02  0.8602685E-01
        1   -1    0    0  501    0  0.00000000000E+00  0.00000000000E+00  0.14611865721E+04  0.14611865721E+04  0.50400001928E-02 0. -1.
       -1   -1    0    0    0  501  0.00000000000E+00  0.00000000000E+00 -0.69016299912E+03  0.69016299914E+03  0.50400001928E-02 0.  1.
    10030    2    1    2    0    0  0.00000000000E+00  0.00000000000E+00  0.77102357297E+03  0.21513495712E+04  0.20084391023E+04 0.  0.
        3    1    3    3  502    0 -0.70560677927E+03  0.16377644129E+03 -0.35950191998E+03  0.80866883849E+03  0.10100000352E+00 0.  1.
       -3    1    3    3    0  502  0.70560677927E+03 -0.16377644129E+03  0.11305254930E+04  0.13426807327E+04  0.10100000352E+00 0. -1.
</event>
<event>
 5   0  0.8881384E-05  0.2039445E+04  0.7818609E-02  0.8588398E-01
        1   -1    0    0  501    0  0.00000000000E+00  0.00000000000E+00  0.12685612507E+04  0.12685612507E+04  0.50400001928E-02 0.  1.
       -1   -1    0    0    0  501  0.00000000000E+00  0.00000000000E+00 -0.81969517363E+03  0.81969517364E+03  0.50400001928E-02 0. -1.
    10030    2    1    2    0    0  0.00000000000E+00  0.00000000000E+00  0.44886607705E+03  0.20882564243E+04  0.20394445662E+04 0.  0.
        5    1    3    3  502    0  0.87851954293E+03  0.51126653147E+03  0.30775251697E+03  0.10620375489E+04  0.46999998093E+01 0.  1.
       -5    1    3    3    0  502 -0.87851954293E+03 -0.51126653147E+03  0.14111356008E+03  0.10262188755E+04  0.46999998093E+01 0. -1.
</event>
<event>
 5   0  0.1782172E-04  0.2000374E+04  0.7818609E-02  0.8606446E-01
        2   -1    0    0  501    0  0.00000000000E+00  0.00000000000E+00  0.14484276562E+04  0.14484276562E+04  0.25500000920E-02 0. -1.
       -2   -1    0    0    0  501  0.00000000000E+00  0.00000000000E+00 -0.69066184401E+03  0.69066184401E+03  0.25500000920E-02 0.  1.
    10030    2    1    2    0    0  0.00000000000E+00  0.00000000000E+00  0.75776581221E+03  0.21390895002E+04  0.20003736810E+04 0.  0.
        2    1    3    3  502    0 -0.54694167269E+03  0.55497638665E+03 -0.29168227370E+03  0.83199911770E+03  0.25500000920E-02 0.  1.
       -2    1    3    3    0  502  0.54694167269E+03 -0.55497638665E+03  0.10494480859E+04  0.13070903825E+04  0.25500000920E-02 0. -1.
</event>
<event>
 5   0  0.1834645E-04  0.2031330E+04  0.7818609E-02  0.8592111E-01
        2   -1    0    0  501    0  0.00000000000E+00  0.00000000000E+00  0.17651829919E+04  0.17651829919E+04  0.25500000920E-02 0. -1.
       -2   -1    0    0    0  501  0.00000000000E+00  0.00000000000E+00 -0.58440151483E+03  0.58440151484E+03  0.25500000920E-02 0.  1.
    10030    2    1    2    0    0  0.00000000000E+00  0.00000000000E+00  0.11807814771E+04  0.23495845068E+04  0.20313302188E+04 0.  0.
        1    1    3    3  502    0 -0.38808230990E+03  0.88400972722E+03  0.22554425993E+03  0.99143899978E+03  0.50400001928E-02 0.  1.
       -1    1    3    3    0  502  0.38808230990E+03 -0.88400972722E+03  0.95523721717E+03  0.13581455070E+04  0.50400001928E-02 0. -1.
</event>
<event>
 5   0  0.8861350E-05  0.2011236E+04  0.7818609E-02  0.8601385E-01
        1   -1    0    0  501    0  0.00000000000E+00  0.00000000000E+00  0.93749458720E+03  0.93749458721E+03  0.50400001928E-02 0. -1.
       -1   -1    0    0    0  501  0.00000000000E+00  0.00000000000E+00 -0.10786919913E+04  0.10786919913E+04  0.50400001928E-02 0.  1.
    10030    2    1    2    0    0  0.00000000000E+00  0.00000000000E+00 -0.14119740407E+03  0.20161865785E+04  0.20112363393E+04 0.  0.
        1    1    3    3  502    0 -0.18044306006E+03  0.66599888723E+03 -0.80394123313E+03  0.10594506700E+04  0.50400001928E-02 0.  1.
       -1    1    3    3    0  502  0.18044306006E+03 -0.66599888723E+03  0.66274382906E+03  0.95673590854E+03  0.50400001928E-02 0. -1.
</event>
<event>
 5   0  0.8765057E-05  0.2014605E+04  0.7818609E-02  0.8599822E-01
       -1   -1    0    0    0  501  0.00000000000E+00  0.00000000000E+00  0.16862228117E+04  0.16862228118E+04  0.50400001928E-02 0.  1.
        1   -1    0    0  501    0  0.00000000000E+00  0.00000000000E+00 -0.60173464523E+03  0.60173464526E+03  0.50400001928E-02 0. -1.
    10030    2    1    2    0    0  0.00000000000E+00  0.00000000000E+00  0.10844881665E+04  0.22879574570E+04  0.20146053563E+04 0.  0.
        3    1    3    3  502    0 -0.61151546963E+03  0.99968535902E+01  0.14512233832E+04  0.15748334594E+04  0.10100000352E+00 0.  1.
       -3    1    3    3    0  502  0.61151546963E+03 -0.99968535902E+01 -0.36673521665E+03  0.71312399765E+03  0.10100000352E+00 0. -1.
</event>
<event>
 5   0  0.8765057E-05  0.1937020E+04  0.7818609E-02  0.8636645E-01
       -1   -1    0    0    0  501  0.00000000000E+00  0.00000000000E+00  0.72522467742E+03  0.72522467743E+03  0.50400001928E-02 0. -1.
        1   -1    0    0  501    0  0.00000000000E+00  0.00000000000E+00 -0.12934083560E+04  0.12934083560E+04  0.50400001928E-02 0.  1.
    10030    2    1    2    0    0  0.00000000000E+00  0.00000000000E+00 -0.56818367859E+03  0.20186330334E+04  0.19370200389E+04 0.  0.
        3    1    3    3  502    0  0.74854341924E+03  0.61838854801E+02  0.35311991201E+03  0.82996082854E+03  0.10100000352E+00 0. -1.
       -3    1    3    3    0  502 -0.74854341924E+03 -0.61838854801E+02 -0.92130359060E+03  0.11886722049E+04  0.10100000352E+00 0.  1.
</event>
<event>
 5   0  0.8577422E-05  0.1974661E+04  0.7818609E-02  0.8618560E-01
        1   -1    0    0  501    0  0.00000000000E+00  0.00000000000E+00  0.98689930764E+03  0.98689930765E+03  0.50400001928E-02 0.  1.
       -1   -1    0    0    0  501  0.00000000000E+00  0.00000000000E+00 -0.98776210955E+03  0.98776210956E+03  0.50400001928E-02 0. -1.
    10030    2    1    2    0    0  0.00000000000E+00  0.00000000000E+00 -0.86280191108E+00  0.19746614172E+04  0.19746612287E+04 0.  0.
        2    1    3    3  502    0 -0.57827483813E+03  0.17195399238E+03  0.78113874609E+03  0.98698921198E+03  0.25500000920E-02 0.  1.
       -2    1    3    3    0  502  0.57827483813E+03 -0.17195399238E+03 -0.78200154800E+03  0.98767220523E+03  0.25500000920E-02 0. -1.
</event>
<event>
 5   0  0.1834645E-04  0.1986148E+04  0.7818609E-02  0.8613124E-01
       -2   -1    0    0    0  501  0.00000000000E+00  0.00000000000E+00  0.53364040897E+03  0.53364040898E+03  0.25500000920E-02 0.  1.
        2   -1    0    0  501    0  0.00000000000E+00  0.00000000000E+00 -0.18480534339E+04  0.18480534339E+04  0.25500000920E-02 0. -1.
    10030    2    1    2    0    0  0.00000000000E+00  0.00000000000E+00 -0.13144130249E+04  0.23816938428E+04  0.19861480209E+04 0.  0.
        1    1    3    3  502    0  0.49392400036E+03  0.85805999492E+03 -0.56456769684E+03  0.11397212630E+04  0.50400001928E-02 0.  1.
       -1    1    3    3    0  502 -0.49392400036E+03 -0.85805999492E+03 -0.74984532804E+03  0.12419725798E+04  0.50400001928E-02 0. -1.
</event>
<event>
 5   0  0.1812865E-04  0.2017329E+04  0.7818609E-02  0.8598561E-01
       -2   -1    0    0    0  501  0.00000000000E+00  0.00000000000E+00  0.58445905772E+03  0.58445905773E+03  0.25500000920E-02 0.  1.
        2   -1    0    0  501    0  0.00000000000E+00  0.00000000000E+00 -0.17407625362E+04  0.17407625362E+04  0.25500000920E-02 0. -1.
    10030    2    1    2    0    0  0.00000000000E+00  0.00000000000E+00 -0.11563034785E+04  0.23252215939E+04  0.20173293550E+04 0.  0.
        3    1    3    3  502    0 -0.86216478469E+03  0.39402897641E+03 -0.18084338978E+03  0.96503434760E+03  0.10100000352E+00 0.  1.
       -3    1    3    3    0  502  0.86216478469E+03 -0.39402897641E+03 -0.97546008867E+03  0.13601872463E+04  0.10100000352E+00 0. -1.
</event>
<event>
 5   0  0.8765057E-05  0.1957244E+04  0.7818609E-02  0.8626876E-01
        1   -1    0    0  501    0  0.00000000000E+00  0.00000000000E+00  0.26737773196E+04  0.26737773196E+04  0.50400001928E-02 0. -1.
       -1   -1    0    0    0  501  0.00000000000E+00  0.00000000000E+00 -0.35818276460E+03  0.35818276464E+03  0.50400001928E-02 0.  1.
    10030    2    1    2    0    0  0.00000000000E+00  0.00000000000E+00  0.23155945550E+04  0.30319600842E+04  0.19572439320E+04 0.  0.
        3    1    3    3  502    0  0.93497964698E+03 -0.28392278181E+03  0.10743491798E+04  0.14522483454E+04  0.10100000352E+00 0.  1.
       -3    1    3    3    0  502 -0.93497964698E+03  0.28392278181E+03  0.12412453752E+04  0.15797117388E+04  0.10100000352E+00 0. -1.
</event>
<event>
 5   0  0.1893687E-04  0.1854693E+04  0.7818609E-02  0.8677743E-01
        2   -1    0    0  501    0  0.00000000000E+00  0.00000000000E+00  0.23446823733E+04  0.23446823733E+04  0.25500000920E-02 0. -1.
       -2   -1    0    0    0  501  0.00000000000E+00  0.00000000000E+00 -0.36677511283E+03  0.36677511284E+03  0.25500000920E-02 0.  1.
    10030    2    1    2    0    0  0.00000000000E+00  0.00000000000E+00  0.19779072605E+04  0.27114574862E+04  0.18546925805E+04 0.  0.
        4    1    3    3  502    0  0.71322583675E+03  0.18578896590E+03  0.18117581061E+04  0.19559339667E+04  0.12699999809E+01 0. -1.
       -4    1    3    3    0  502 -0.71322583675E+03 -0.18578896590E+03  0.16614915434E+03  0.75552351945E+03  0.12699999809E+01 0.  1.
</event>
<event>
 5   0  0.8765057E-05  0.1885799E+04  0.7818609E-02  0.8661958E-01
       -1   -1    0    0    0  501  0.00000000000E+00  0.00000000000E+00  0.84357242274E+03  0.84357242275E+03  0.50400001928E-02 0.  1.
        1   -1    0    0  501    0  0.00000000000E+00  0.00000000000E+00 -0.10539216331E+04  0.10539216331E+04  0.50400001928E-02 0. -1.
    10030    2    1    2    0    0  0.00000000000E+00  0.00000000000E+00 -0.21034921038E+03  0.18974940559E+04  0.18857987437E+04 0.  0.
        3    1    3    3  502    0 -0.92249166684E+03  0.77846674466E+01  0.90990203258E+02  0.92700091894E+03  0.10100000352E+00 0.  1.
       -3    1    3    3    0  502  0.92249166684E+03 -0.77846674466E+01 -0.30133941364E+03  0.97049313694E+03  0.10100000352E+00 0. -1.
</event>
<event>
 5   0  0.8765057E-05  0.1943067E+04  0.7818609E-02  0.8633711E-01
       -1   -1    0    0    0  501  0.00000000000E+00  0.00000000000E+00  0.73778972980E+03  0.73778972982E+03  0.50400001928E-02 0.  1.
        1   -1    0    0  501    0  0.00000000000E+00  0.00000000000E+00 -0.12793313464E+04  0.12793313464E+04  0.50400001928E-02 0. -1.
    10030    2    1    2    0    0  0.00000000000E+00  0.00000000000E+00 -0.54154161656E+03  0.20171210762E+04  0.19430671922E+04 0.  0.
        3    1    3    3  502    0 -0.34571257025E+03 -0.38152532201E+02 -0.12124845878E+04  0.12613848274E+04  0.10100000352E+00 0. -1.
       -3    1    3    3    0  502  0.34571257025E+03  0.38152532201E+02  0.67094297121E+03  0.75573624881E+03  0.10100000352E+00 0.  1.
</event>
<event>
 5   0  0.1807498E-04  0.2002490E+04  0.7818609E-02  0.8605457E-01
       -2   -1    0    0    0  501  0.00000000000E+00  0.00000000000E+00  0.64979567205E+03  0.64979567206E+03  0.25500000920E-02 0.  1.
        2   -1    0    0  501    0  0.00000000000E+00  0.00000000000E+00 -0.15427797175E+04  0.15427797176E+04  0.25500000920E-02 0. -1.
    10030    2    1    2    0    0  0.00000000000E+00  0.00000000000E+00 -0.89298404550E+03  0.21925753896E+04  0.20024900333E+04 0.  0.
        5    1    3    3  502    0  0.37025218751E+03 -0.86712001829E+01  0.57202768393E+03  0.68146873241E+03  0.46999998093E+01 0.  1.
       -5    1    3    3    0  502 -0.37025218751E+03  0.86712001829E+01 -0.14650117294E+04  0.15111066572E+04  0.46999998093E+01 0. -1.
</event>
<event>
 5   0  0.8958919E-05  0.2107176E+04  0.7818609E-02  0.8558089E-01
       -1   -1    0    0    0  501  0.00000000000E+00  0.00000000000E+00  0.85314170165E+03  0.85314170167E+03  0.50400001928E-02 0.  1.
        1   -1    0    0  501    0  0.00000000000E+00  0.00000000000E+00 -0.13011289937E+04  0.13011289937E+04  0.50400001928E-02 0. -1.
    10030    2    1    2    0    0  0.00000000000E+00  0.00000000000E+00 -0.44798729201E+03  0.21542706953E+04  0.21071757437E+04 0.  0.
        4    1    3    3  502    0  0.74321861591E+02 -0.16258310513E+03  0.83752292855E+03  0.85638967412E+03  0.12699999809E+01 0.  1.
       -4    1    3    3    0  502 -0.74321861591E+02  0.16258310513E+03 -0.12855102206E+04  0.12978810212E+04  0.12699999809E+01 0. -1.
</event>
<event>
 5   0  0.8765057E-05  0.1972826E+04  0.7818609E-02  0.8619432E-01
        1   -1    0    0  501    0  0.00000000000E+00  0.00000000000E+00  0.70987941537E+03  0.70987941539E+03  0.50400001928E-02 0. -1.
       -1   -1    0    0    0  501  0.00000000000E+00  0.00000000000E+00 -0.13706698526E+04  0.13706698526E+04  0.50400001928E-02 0.  1.
    10030    2    1    2    0    0  0.00000000000E+00  0.00000000000E+00 -0.66079043722E+03  0.20805492680E+04  0.19728257031E+04 0.  0.
        3    1    3    3  502    0  0.10814105314E+03  0.14667704104E+03  0.69197311940E+03  0.71556652375E+03  0.10100000352E+00 0. -1.
       -3    1    3    3    0  502 -0.10814105314E+03 -0.14667704104E+03 -0.13527635566E+04  0.13649827442E+04  0.10100000352E+00 0.  1.
</event>
<event>
 5   0  0.1782172E-04  0.2001786E+04  0.7818609E-02  0.8605786E-01
       -2   -1    0    0    0  501  0.00000000000E+00  0.00000000000E+00  0.16424545764E+04  0.16424545764E+04  0.25500000920E-02 0.  1.
        2   -1    0    0  501    0  0.00000000000E+00  0.00000000000E+00 -0.60993269343E+03  0.60993269344E+03  0.25500000920E-02 0. -1.
    10030    2    1    2    0    0  0.00000000000E+00  0.00000000000E+00  0.10325218829E+04  0.22523872698E+04  0.20017859462E+04 0.  0.
        2    1    3    3  502    0  0.98421946255E+03 -0.12471536070E+03  0.36722173505E+03  0.10578722391E+04  0.25500000920E-02 0. -1.
       -2    1    3    3    0  502 -0.98421946255E+03  0.12471536070E+03  0.66530014787E+03  0.11945150306E+04  0.25500000920E-02 0.  1.
</event>
<event>
 5   0  0.8958919E-05  0.1994172E+04  0.7818609E-02  0.8609350E-01
       -1   -1    0    0    0  501  0.00000000000E+00  0.00000000000E+00  0.47455856258E+03  0.47455856260E+03  0.50400001928E-02 0. -1.
        1   -1    0    0  501    0  0.00000000000E+00  0.00000000000E+00 -0.20949589364E+04  0.20949589364E+04  0.50400001928E-02 0.  1.
    10030    2    1    2    0    0  0.00000000000E+00  0.00000000000E+00 -0.16204003738E+04  0.25695174990E+04  0.19941722108E+04 0.  0.
        4    1    3    3  502    0 -0.81741616296E+03 -0.27358926390E+03 -0.16445208756E+03  0.87753425619E+03  0.12699999809E+01 0. -1.
       -4    1    3    3    0  502  0.81741616296E+03  0.27358926390E+03 -0.14559482863E+04  0.16919832428E+04  0.12699999809E+01 0.  1.
</event>
<event>
 5   0  0.1834645E-04  0.1965733E+04  0.7818609E-02  0.8622811E-01
        2   -1    0    0  501    0  0.00000000000E+00  0.00000000000E+00  0.10413963988E+04  0.10413963988E+04  0.25500000920E-02 0.  1.
       -2   -1    0    0    0  501  0.00000000000E+00  0.00000000000E+00 -0.92762631941E+03  0.92762631941E+03  0.25500000920E-02 0. -1.
    10030    2    1    2    0    0  0.00000000000E+00  0.00000000000E+00  0.11377007936E+03  0.19690227182E+04  0.19657331543E+04 0.  0.
        1    1    3    3  502    0  0.55494798436E+02  0.88835092451E+03 -0.36068146031E+03  0.96038437803E+03  0.50400001928E-02 0. -1.
       -1    1    3    3    0  502 -0.55494798436E+02 -0.88835092451E+03  0.47445153967E+03  0.10086383402E+04  0.50400001928E-02 0.  1.
</event>
<event>
 5   0  0.8577422E-05  0.1987101E+04  0.7818609E-02  0.8612675E-01
       -1   -1    0    0    0  501  0.00000000000E+00  0.00000000000E+00  0.66280947088E+03  0.66280947090E+03  0.50400001928E-02 0. -1.
        1   -1    0    0  501    0  0.00000000000E+00  0.00000000000E+00 -0.14893301940E+04  0.14893301940E+04  0.50400001928E-02 0.  1.
    10030    2    1    2    0    0  0.00000000000E+00  0.00000000000E+00 -0.82652072310E+03  0.21521396649E+04  0.19871005590E+04 0.  0.
        2    1    3    3  502    0 -0.16494768951E+03 -0.13550102795E+03 -0.14642000891E+04  0.14796790766E+04  0.25500000920E-02 0.  1.
       -2    1    3    3    0  502  0.16494768951E+03  0.13550102795E+03  0.63767936604E+03  0.67246058823E+03  0.25500000920E-02 0. -1.
</event>
<event>
 5   0  0.8958919E-05  0.2047426E+04  0.7818609E-02  0.8584763E-01
       -1   -1    0    0    0  501  0.00000000000E+00  0.00000000000E+00  0.11490948798E+04  0.11490948798E+04  0.50400001928E-02 0.  1.
        1   -1    0    0  501    0  0.00000000000E+00  0.00000000000E+00 -0.91201161482E+03  0.91201161483E+03  0.50400001928E-02 0. -1.
    10030    2    1    2    0    0  0.00000000000E+00  0.00000000000E+00  0.23708326494E+03  0.20611064946E+04  0.20474255805E+04 0.  0.
        4    1    3    3  502    0  0.47601271522E+03 -0.14866100603E+03  0.10185502904E+04  0.11340787040E+04  0.12699999809E+01 0.  1.
       -4    1    3    3    0  502 -0.47601271522E+03  0.14866100603E+03 -0.78146702549E+03  0.92702779063E+03  0.12699999809E+01 0. -1.
</event>
<event>
 5   0  0.1812865E-04  0.2031999E+04  0.7818609E-02  0.8591804E-01
        2   -1    0    0  501    0  0.00000000000E+00  0.00000000000E+00  0.13224346528E+04  0.13224346528E+04  0.25500000920E-02 0.  1.
       -2   -1    0    0    0  501  0.00000000000E+00  0.00000000000E+00 -0.78057186648E+03  0.78057186648E+03  0.25500000920E-02 0. -1.
    10030    2    1    2    0    0  0.00000000000E+00  0.00000000000E+00  0.54186278628E+03  0.21030065192E+04  0.20319992965E+04 0.  0.
        3    1    3    3  502    0  0.97332557107E+03 -0.29065719068E+03  0.24994969034E+03  0.10460970929E+04  0.10100000352E+00 0.  1.
       -3    1    3    3    0  502 -0.97332557107E+03  0.29065719068E+03  0.29191309594E+03  0.10569094264E+04  0.10100000352E+00 0. -1.
</event>
<event>
 5   0  0.8765057E-05  0.2016550E+04  0.7818609E-02  0.8598922E-01
       -1   -1    0    0    0  501  0.00000000000E+00  0.00000000000E+00  0.99754629151E+03  0.99754629152E+03  0.50400001928E-02 0.  1.
        1   -1    0    0  501    0  0.00000000000E+00  0.00000000000E+00 -0.10191186175E+04  0.10191186175E+04  0.50400001928E-02 0. -1.
    10030    2    1    2    0    0  0.00000000000E+00  0.00000000000E+00 -0.21572326012E+02  0.20166649091E+04  0.20165495258E+04 0.  0.
        3    1    3    3  502    0  0.91596489483E+03 -0.32500767938E+03  0.25755046577E+03  0.10054620494E+04  0.10100000352E+00 0.  1.
       -3    1    3    3    0  502 -0.91596489483E+03  0.32500767938E+03 -0.27912279178E+03  0.10112028596E+04  0.10100000352E+00 0. -1.
</event>
<event>
 5   0  0.1782172E-04  0.1965300E+04  0.7818609E-02  0.8623018E-01
        2   -1    0    0  501    0  0.00000000000E+00  0.00000000000E+00  0.11825326790E+04  0.11825326790E+04  0.25500000920E-02 0.  1.
       -2   -1    0    0    0  501  0.00000000000E+00  0.00000000000E+00 -0.81655301009E+03  0.81655301010E+03  0.25500000920E-02 0. -1.
    10030    2    1    2    0    0  0.00000000000E+00  0.00000000000E+00  0.36597966893E+03  0.19990856891E+04  0.19652995890E+04 0.  0.
        2    1    3    3  502    0  0.12571862359E+03 -0.76164134718E+03 -0.43549085067E+03  0.88631540383E+03  0.25500000920E-02 0. -1.
       -2    1    3    3    0  502 -0.12571862359E+03  0.76164134718E+03  0.80147051959E+03  0.11127702853E+04  0.25500000920E-02 0.  1.
</event>
<event>
 5   0  0.1812865E-04  0.1997739E+04  0.7818609E-02  0.8607679E-01
        2   -1    0    0  501    0  0.00000000000E+00  0.00000000000E+00  0.91152945160E+03  0.91152945161E+03  0.25500000920E-02 0.  1.
       -2   -1    0    0    0  501  0.00000000000E+00  0.00000000000E+00 -0.10945777838E+04  0.10945777838E+04  0.25500000920E-02 0. -1.
    10030    2    1    2    0    0  0.00000000000E+00  0.00000000000E+00 -0.18304833224E+03  0.20061072354E+04  0.19977386086E+04 0.  0.
        3    1    3    3  502    0  0.59785366355E+02 -0.17132023850E+03 -0.10778888094E+04  0.10930549894E+04  0.10100000352E+00 0. -1.
       -3    1    3    3    0  502 -0.59785366355E+02  0.17132023850E+03  0.89484047721E+03  0.91305224604E+03  0.10100000352E+00 0.  1.
</event>
<event>
 5   0  0.1782172E-04  0.2065355E+04  0.7818609E-02  0.8576660E-01
        2   -1    0    0  501    0  0.00000000000E+00  0.00000000000E+00  0.17455398493E+04  0.17455398493E+04  0.25500000920E-02 0.  1.
       -2   -1    0    0    0  501  0.00000000000E+00  0.00000000000E+00 -0.61094132863E+03  0.61094132864E+03  0.25500000920E-02 0. -1.
    10030    2    1    2    0    0  0.00000000000E+00  0.00000000000E+00  0.11345985206E+04  0.23564811779E+04  0.20653546279E+04 0.  0.
        2    1    3    3  502    0 -0.33874671946E+03 -0.83211572525E+03  0.11482431419E+04  0.14579534400E+04  0.25500000920E-02 0. -1.
       -2    1    3    3    0  502  0.33874671946E+03  0.83211572525E+03 -0.13644621282E+02  0.89852773794E+03  0.25500000920E-02 0.  1.
</event>
<event>
 5   0  0.1782172E-04  0.1945847E+04  0.7818609E-02  0.8632366E-01
       -2   -1    0    0    0  501  0.00000000000E+00  0.00000000000E+00  0.52130774429E+03  0.52130774430E+03  0.25500000920E-02 0.  1.
        2   -1    0    0  501    0  0.00000000000E+00  0.00000000000E+00 -0.18157797919E+04  0.18157797919E+04  0.25500000920E-02 0. -1.
    10030    2    1    2    0    0  0.00000000000E+00  0.00000000000E+00 -0.12944720476E+04  0.23370875362E+04  0.19458469287E+04 0.  0.
        2    1    3    3  502    0 -0.65623715954E+02 -0.72304543782E+03 -0.14251317067E+04  0.15994066271E+04  0.25500000920E-02 0. -1.
       -2    1    3    3    0  502  0.65623715954E+02  0.72304543782E+03  0.13065965906E+03  0.73768090917E+03  0.25500000920E-02 0.  1.
</event>
<event>
 5   0  0.8881384E-05  0.1862489E+04  0.7818609E-02  0.8673756E-01
       -1   -1    0    0    0  501  0.00000000000E+00  0.00000000000E+00  0.45396053698E+03  0.45396053701E+03  0.50400001928E-02 0. -1.
        1   -1    0    0  501    0  0.00000000000E+00  0.00000000000E+00 -0.19103347390E+04  0.19103347390E+04  0.50400001928E-02 0.  1.
    10030    2    1    2    0    0  0.00000000000E+00  0.00000000000E+00 -0.14563742020E+04  0.23642952760E+04  0.18624892848E+04 0.  0.
        5    1    3    3  502    0  0.72411661352E+03  0.21043085030E+03 -0.14218203635E+04  0.16094164311E+04  0.46999998093E+01 0.  1.
       -5    1    3    3    0  502 -0.72411661352E+03 -0.21043085030E+03 -0.34553838542E+02  0.75487884491E+03  0.46999998093E+01 0. -1.
</event>
<event>
 5   0  0.8958919E-05  0.2005304E+04  0.7818609E-02  0.8604145E-01
       -1   -1    0    0    0  501  0.00000000000E+00  0.00000000000E+00  0.89165779009E+03  0.89165779010E+03  0.50400001928E-02 0. -1.
        1   -1    0    0  501    0  0.00000000000E+00  0.00000000000E+00 -0.11274633237E+04  0.11274633237E+04  0.50400001928E-02 0.  1.
    10030    2    1    2    0    0  0.00000000000E+00  0.00000000000E+00 -0.23580553365E+03  0.20191211139E+04  0.20053044215E+04 0.  0.
        4    1    3    3  502    0  0.25427774832E+03  0.83317267530E+03  0.38198135774E+03  0.95118097685E+03  0.12699999809E+01 0. -1.
       -4    1    3    3    0  502 -0.25427774832E+03 -0.83317267530E+03 -0.61778689139E+03  0.10679401370E+04  0.12699999809E+01 0.  1.
</event>
<event>
 5   0  0.1782172E-04  0.2031201E+04  0.7818609E-02  0.8592170E-01
        2   -1    0    0  501    0  0.00000000000E+00  0.00000000000E+00  0.17014815616E+04  0.17014815616E+04  0.25500000920E-02 0.  1.
       -2   -1    0    0    0  501  0.00000000000E+00  0.00000000000E+00 -0.60620381595E+03  0.60620381596E+03  0.25500000920E-02 0. -1.
    10030    2    1    2    0    0  0.00000000000E+00  0.00000000000E+00  0.10952777456E+04  0.23076853775E+04  0.20312012361E+04 0.  0.
        2    1    3    3  502    0  0.23913193136E+03  0.79788659755E+03  0.12077985469E+04  0.14671688495E+04  0.25500000920E-02 0.  1.
       -2    1    3    3    0  502 -0.23913193136E+03 -0.79788659755E+03 -0.11252080125E+03  0.84051652801E+03  0.25500000920E-02 0. -1.
</event>
<event>
 5   0  0.1782172E-04  0.1735114E+04  0.7818609E-02  0.8741587E-01
        2   -1    0    0  501    0  0.00000000000E+00  0.00000000000E+00  0.16641919852E+04  0.16641919852E+04  0.25500000920E-02 0. -1.
       -2   -1    0    0    0  501  0.00000000000E+00  0.00000000000E+00 -0.45226436680E+03  0.45226436681E+03  0.25500000920E-02 0.  1.
    10030    2    1    2    0    0  0.00000000000E+00  0.00000000000E+00  0.12119276184E+04  0.21164563520E+04  0.17351135230E+04 0.  0.
        2    1    3    3  502    0 -0.61347053704E+03  0.35152678149E+03  0.12191838123E+04  0.14093709044E+04  0.25500000920E-02 0. -1.
       -2    1    3    3    0  502  0.61347053704E+03 -0.35152678149E+03 -0.72561938865E+01  0.70708544765E+03  0.25500000920E-02 0.  1.
</event>
<event>
 5   0  0.1812865E-04  0.2017642E+04  0.7818609E-02  0.8598417E-01
       -2   -1    0    0    0  501  0.00000000000E+00  0.00000000000E+00  0.10037290569E+04  0.10037290569E+04  0.25500000920E-02 0.  1.
        2   -1    0    0  501    0  0.00000000000E+00  0.00000000000E+00 -0.10139383316E+04  0.10139383316E+04  0.25500000920E-02 0. -1.
    10030    2    1    2    0    0  0.00000000000E+00  0.00000000000E+00 -0.10209274735E+02  0.20176673886E+04  0.20176415592E+04 0.  0.
        3    1    3    3  502    0 -0.26481404470E+03  0.88867797190E+03 -0.40240600983E+03  0.10108440151E+04  0.10100000352E+00 0.  1.
       -3    1    3    3    0  502  0.26481404470E+03 -0.88867797190E+03  0.39219673509E+03  0.10068233734E+04  0.10100000352E+00 0. -1.
</event>
<event>
 5   0  0.8577422E-05  0.1968833E+04  0.7818609E-02  0.8621333E-01
       -1   -1    0    0    0  501  0.00000000000E+00  0.00000000000E+00  0.56097570072E+03  0.56097570075E+03  0.50400001928E-02 0.  1.
        1   -1    0    0  501    0  0.00000000000E+00  0.00000000000E+00 -0.17274819999E+04  0.17274820000E+04  0.50400001928E-02 0. -1.
    10030    2    1    2    0    0  0.00000000000E+00  0.00000000000E+00 -0.11665062992E+04  0.22884577007E+04  0.19688325733E+04 0.  0.
        2    1    3    3  502    0 -0.81436754743E+02 -0.85494919942E+03 -0.11425142546E+04  0.14293036419E+04  0.25500000920E-02 0. -1.
       -2    1    3    3    0  502  0.81436754743E+02  0.85494919942E+03 -0.23992044595E+02  0.85915405884E+03  0.25500000920E-02 0.  1.
</event>
<event>
 5   0  0.8861350E-05  0.2012296E+04  0.7818609E-02  0.8600894E-01
       -1   -1    0    0    0  501  0.00000000000E+00  0.00000000000E+00  0.12713196973E+04  0.12713196973E+04  0.50400001928E-02 0.  1.
        1   -1    0    0  501    0  0.00000000000E+00  0.00000000000E+00 -0.79628550744E+03  0.79628550746E+03  0.50400001928E-02 0. -1.
    10030    2    1    2    0    0  0.00000000000E+00  0.00000000000E+00  0.47503418982E+03  0.20676052047E+04  0.20122956545E+04 0.  0.
        1    1    3    3  502    0 -0.20596398901E+03 -0.72137973007E+03  0.92641055478E+03  0.11920765058E+04  0.50400001928E-02 0.  1.
       -1    1    3    3    0  502  0.20596398901E+03  0.72137973007E+03 -0.45137636496E+03  0.87552869890E+03  0.50400001928E-02 0. -1.
</event>
<event>
 5   0  0.1782172E-04  0.2019267E+04  0.7818609E-02  0.8597665E-01
       -2   -1    0    0    0  501  0.00000000000E+00  0.00000000000E+00  0.47918682928E+03  0.47918682928E+03  0.25500000920E-02 0. -1.
        2   -1    0    0  501    0  0.00000000000E+00  0.00000000000E+00 -0.21272702877E+04  0.21272702877E+04  0.25500000920E-02 0.  1.
    10030    2    1    2    0    0  0.00000000000E+00  0.00000000000E+00 -0.16480834584E+04  0.26064571170E+04  0.20192670989E+04 0.  0.
        2    1    3    3  502    0  0.81936946027E+03  0.45319188434E+03 -0.13114948806E+04  0.16114490431E+04  0.25500000920E-02 0.  1.
       -2    1    3    3    0  502 -0.81936946027E+03 -0.45319188434E+03 -0.33658857778E+03  0.99500807391E+03  0.25500000920E-02 0. -1.
</event>
<event>
 5   0  0.1807498E-04  0.2032504E+04  0.7818609E-02  0.8591573E-01
       -2   -1    0    0    0  501  0.00000000000E+00  0.00000000000E+00  0.69692433970E+03  0.69692433971E+03  0.25500000920E-02 0. -1.
        2   -1    0    0  501    0  0.00000000000E+00  0.00000000000E+00 -0.14818944957E+04  0.14818944957E+04  0.25500000920E-02 0.  1.
    10030    2    1    2    0    0  0.00000000000E+00  0.00000000000E+00 -0.78497015596E+03  0.21788188354E+04  0.20325042120E+04 0.  0.
        5    1    3    3  502    0 -0.34657440028E+03 -0.29939756960E+03 -0.13649811998E+04  0.14397737619E+04  0.46999998093E+01 0.  1.
       -5    1    3    3    0  502  0.34657440028E+03  0.29939756960E+03  0.58001104386E+03  0.73904507347E+03  0.46999998093E+01 0. -1.
</event>
<event>
 5   0  0.8577422E-05  0.2133605E+04  0.7818609E-02  0.8546583E-01
        1   -1    0    0  501    0  0.00000000000E+00  0.00000000000E+00  0.15334444583E+04  0.15334444583E+04  0.50400001928E-02 0.  1.
       -1   -1    0    0    0  501  0.00000000000E+00  0.00000000000E+00 -0.74216443501E+03  0.74216443503E+03  0.50400001928E-02 0. -1.
    10030    2    1    2    0    0  0.00000000000E+00  0.00000000000E+00  0.79128002327E+03  0.22756088933E+04  0.21336053431E+04 0.  0.
        2    1    3    3  502    0  0.34454976702E+03  0.98244439899E+03  0.14743620970E+03  0.10514984427E+04  0.25500000920E-02 0. -1.
       -2    1    3    3    0  502 -0.34454976702E+03 -0.98244439899E+03  0.64384381357E+03  0.12241104506E+04  0.25500000920E-02 0.  1.
</event>
<event>
 5   0  0.8881384E-05  0.1964399E+04  0.7818609E-02  0.8623449E-01
        1   -1    0    0  501    0  0.00000000000E+00  0.00000000000E+00  0.13364364022E+04  0.13364364022E+04  0.50400001928E-02 0.  1.
       -1   -1    0    0    0  501  0.00000000000E+00  0.00000000000E+00 -0.72185664986E+03  0.72185664988E+03  0.50400001928E-02 0. -1.
    10030    2    1    2    0    0  0.00000000000E+00  0.00000000000E+00  0.61457975231E+03  0.20582930521E+04  0.19643986399E+04 0.  0.
        5    1    3    3  502    0  0.72265324165E+01  0.69450534941E+03  0.10349654466E+04  0.12464210640E+04  0.46999998093E+01 0.  1.
       -5    1    3    3    0  502 -0.72265324165E+01 -0.69450534941E+03 -0.42038569425E+03  0.81187198810E+03  0.46999998093E+01 0. -1.
</event>
<event>
 5   0  0.1893687E-04  0.1955530E+04  0.7818609E-02  0.8627699E-01
       -2   -1    0    0    0  501  0.00000000000E+00  0.00000000000E+00  0.75082426574E+03  0.75082426575E+03  0.25500000920E-02 0.  1.
        2   -1    0    0  501    0  0.00000000000E+00  0.00000000000E+00 -0.12733000289E+04  0.12733000289E+04  0.25500000920E-02 0. -1.
    10030    2    1    2    0    0  0.00000000000E+00  0.00000000000E+00 -0.52247576320E+03  0.20241242947E+04  0.19555301678E+04 0.  0.
        4    1    3    3  502    0 -0.54963984669E+02 -0.82144733910E+03 -0.80721149082E+03  0.11529912291E+04  0.12699999809E+01 0. -1.
       -4    1    3    3    0  502  0.54963984669E+02  0.82144733910E+03  0.28473572762E+03  0.87113306561E+03  0.12699999809E+01 0.  1.
</event>
<event>
 5   0  0.8765057E-05  0.1983254E+04  0.7818609E-02  0.8614490E-01
        1   -1    0    0  501    0  0.00000000000E+00  0.00000000000E+00  0.15989162465E+04  0.15989162465E+04  0.50400001928E-02 0.  1.
       -1   -1    0    0    0  501  0.00000000000E+00  0.00000000000E+00 -0.61499405342E+03  0.61499405344E+03  0.50400001928E-02 0. -1.
    10030    2    1    2    0    0  0.00000000000E+00  0.00000000000E+00  0.98392219303E+03  0.22139102999E+04  0.19832538753E+04 0.  0.
        3    1    3    3  502    0 -0.40524814559E+03  0.83314863425E+03  0.97349885764E+02  0.93157915215E+03  0.10100000352E+00 0. -1.
       -3    1    3    3    0  502  0.40524814559E+03 -0.83314863425E+03  0.88657230727E+03  0.12823311477E+04  0.10100000352E+00 0.  1.
</event>
<event>
 5   0  0.8577422E-05  0.2053093E+04  0.7818609E-02  0.8582192E-01
       -1   -1    0    0    0  501  0.00000000000E+00  0.00000000000E+00  0.60449611835E+03  0.60449611837E+03  0.50400001928E-02 0.  1.
        1   -1    0    0  501    0  0.00000000000E+00  0.00000000000E+00 -0.17432670813E+04  0.17432670813E+04  0.50400001928E-02 0. -1.
    10030    2    1    2    0    0  0.00000000000E+00  0.00000000000E+00 -0.11387709630E+04  0.23477631997E+04  0.20530934552E+04 0.  0.
        2    1    3    3  502    0 -0.47306015710E+03 -0.41825729073E+02 -0.16100953469E+04  0.16786727882E+04  0.25500000920E-02 0. -1.
       -2    1    3    3    0  502  0.47306015710E+03  0.41825729073E+02  0.47132438392E+03  0.66909041147E+03  0.25500000920E-02 0.  1.
</event>
<event>
 5   0  0.1782172E-04  0.1903289E+04  0.7818609E-02  0.8653221E-01
        2   -1    0    0  501    0  0.00000000000E+00  0.00000000000E+00  0.11663665958E+04  0.11663665958E+04  0.25500000920E-02 0.  1.
       -2   -1    0    0    0  501  0.00000000000E+00  0.00000000000E+00 -0.77645194394E+03  0.77645194395E+03  0.25500000920E-02 0. -1.
    10030    2    1    2    0    0  0.00000000000E+00  0.00000000000E+00  0.38991465189E+03  0.19428185398E+04  0.19032893744E+04 0.  0.
        2    1    3    3  502    0  0.65999157459E+03  0.61921101243E+02 -0.50201518743E+03  0.83153012556E+03  0.25500000920E-02 0. -1.
       -2    1    3    3    0  502 -0.65999157459E+03 -0.61921101243E+02  0.89192983932E+03  0.11112884142E+04  0.25500000920E-02 0.  1.
</event>
<event>
 5   0  0.1807498E-04  0.1997677E+04  0.7818609E-02  0.8607707E-01
       -2   -1    0    0    0  501  0.00000000000E+00  0.00000000000E+00  0.74173916333E+03  0.74173916334E+03  0.25500000920E-02 0. -1.
        2   -1    0    0  501    0  0.00000000000E+00  0.00000000000E+00 -0.13450529720E+04  0.13450529720E+04  0.25500000920E-02 0.  1.
    10030    2    1    2    0    0  0.00000000000E+00  0.00000000000E+00 -0.60331380871E+03  0.20867921354E+04  0.19976771172E+04 0.  0.
        5    1    3    3  502    0 -0.68406545583E+03  0.70973560002E+03 -0.13326339897E+03  0.99471171366E+03  0.46999998093E+01 0.  1.
       -5    1    3    3    0  502  0.68406545583E+03 -0.70973560002E+03 -0.47005040974E+03  0.10920804217E+04  0.46999998093E+01 0. -1.
</event>
<event>
 5   0  0.8958919E-05  0.1914993E+04  0.7818609E-02  0.8647429E-01
       -1   -1    0    0    0  501  0.00000000000E+00  0.00000000000E+00  0.49245317967E+03  0.49245317970E+03  0.50400001928E-02 0. -1.
        1   -1    0    0  501    0  0.00000000000E+00  0.00000000000E+00 -0.18616987197E+04  0.18616987197E+04  0.50400001928E-02 0.  1.
    10030    2    1    2    0    0  0.00000000000E+00  0.00000000000E+00 -0.13692455400E+04  0.23541518994E+04  0.19149929025E+04 0.  0.
        4    1    3    3  502    0 -0.68650064886E+03  0.65569383187E+03 -0.83806864221E+03  0.12663246835E+04  0.12699999809E+01 0.  1.
       -4    1    3    3    0  502  0.68650064886E+03 -0.65569383187E+03 -0.53117689783E+03  0.10878272159E+04  0.12699999809E+01 0. -1.
</event>
<event>
 5   0  0.1807498E-04  0.1976501E+04  0.7818609E-02  0.8617687E-01
       -2   -1    0    0    0  501  0.00000000000E+00  0.00000000000E+00  0.56836241258E+03  0.56836241259E+03  0.25500000920E-02 0. -1.
        2   -1    0    0  501    0  0.00000000000E+00  0.00000000000E+00 -0.17183385585E+04  0.17183385585E+04  0.25500000920E-02 0.  1.
    10030    2    1    2    0    0  0.00000000000E+00  0.00000000000E+00 -0.11499761459E+04  0.22867009711E+04  0.19765009980E+04 0.  0.
        5    1    3    3  502    0 -0.50244863555E+03 -0.71655949054E+03 -0.11060553932E+04  0.14104229003E+04  0.46999998093E+01 0. -1.
       -5    1    3    3    0  502  0.50244863555E+03  0.71655949054E+03 -0.43920752725E+02  0.87627807080E+03  0.46999998093E+01 0.  1.
</event>
<event>
 5   0  0.8765057E-05  0.1991165E+04  0.7818609E-02  0.8610763E-01
       -1   -1    0    0    0  501  0.00000000000E+00  0.00000000000E+00  0.82767942433E+03  0.82767942434E+03  0.50400001928E-02 0. -1.
        1   -1    0    0  501    0  0.00000000000E+00  0.00000000000E+00 -0.11975462566E+04  0.11975462566E+04  0.50400001928E-02 0.  1.
    10030    2    1    2    0    0  0.00000000000E+00  0.00000000000E+00 -0.36986683229E+03  0.20252256810E+04  0.19911648815E+04 0.  0.
        3    1    3    3  502    0  0.32729182072E+03 -0.93343370570E+03 -0.29985274080E+03  0.10336005492E+04  0.10100000352E+00 0.  1.
       -3    1    3    3    0  502 -0.32729182072E+03  0.93343370570E+03 -0.70014091490E+02  0.99162513182E+03  0.10100000352E+00 0. -1.
</event>
<event>
 5   0  0.1782172E-04  0.2000545E+04  0.7818609E-02  0.8606366E-01
        2   -1    0    0  501    0  0.00000000000E+00  0.00000000000E+00  0.23131986085E+04  0.23131986085E+04  0.25500000920E-02 0. -1.
       -2   -1    0    0    0  501  0.00000000000E+00  0.00000000000E+00 -0.43253754791E+03  0.43253754791E+03  0.25500000920E-02 0.  1.
    10030    2    1    2    0    0  0.00000000000E+00  0.00000000000E+00  0.18806610606E+04  0.27457361564E+04  0.20005451796E+04 0.  0.
        2    1    3    3  502    0  0.85856469774E+03 -0.39806081164E+03  0.13849836295E+04  0.16774282112E+04  0.25500000920E-02 0. -1.
       -2    1    3    3    0  502 -0.85856469774E+03  0.39806081164E+03  0.49567743110E+03  0.10683079451E+04  0.25500000920E-02 0.  1.
</event>
<event>
 5   0  0.1812865E-04  0.1956978E+04  0.7818609E-02  0.8627003E-01
       -2   -1    0    0    0  501  0.00000000000E+00  0.00000000000E+00  0.67474529495E+03  0.67474529495E+03  0.25500000920E-02 0. -1.
        2   -1    0    0  501    0  0.00000000000E+00  0.00000000000E+00 -0.14189666967E+04  0.14189666967E+04  0.25500000920E-02 0.  1.
    10030    2    1    2    0    0  0.00000000000E+00  0.00000000000E+00 -0.74422140177E+03  0.20937119917E+04  0.19569783875E+04 0.  0.
        3    1    3    3  502    0 -0.86976483217E+03 -0.44645417507E+03 -0.32893117114E+03  0.10315075953E+04  0.10100000352E+00 0.  1.
       -3    1    3    3    0  502  0.86976483217E+03  0.44645417507E+03 -0.41529023063E+03  0.10622043963E+04  0.10100000352E+00 0. -1.
</event>
<event>
 5   0  0.1834645E-04  0.2049200E+04  0.7818609E-02  0.8583958E-01
       -2   -1    0    0    0  501  0.00000000000E+00  0.00000000000E+00  0.11210161078E+04  0.11210161078E+04  0.25500000920E-02 0. -1.
        2   -1    0    0  501    0  0.00000000000E+00  0.00000000000E+00 -0.93647605853E+03  0.93647605853E+03  0.25500000920E-02 0.  1.
    10030    2    1    2    0    0  0.00000000000E+00  0.00000000000E+00  0.18454004930E+03  0.20574921664E+04  0.20491995961E+04 0.  0.
        1    1    3    3  502    0 -0.48354946775E+03  0.86763255568E+03 -0.16014022919E+03  0.10061069687E+04  0.50400001928E-02 0.  1.
       -1    1    3    3    0  502  0.48354946775E+03 -0.86763255568E+03  0.34468027849E+03  0.10513851977E+04  0.50400001928E-02 0. -1.
</event>
<event>
 5   0  0.8861350E-05  0.2018106E+04  0.7818609E-02  0.8598202E-01
        1   -1    0    0  501    0  0.00000000000E+00  0.00000000000E+00  0.11832838996E+04  0.11832838996E+04  0.50400001928E-02 0.  1.
       -1   -1    0    0    0  501  0.00000000000E+00  0.00000000000E+00 -0.86047609627E+03  0.86047609629E+03  0.50400001928E-02 0. -1.
    10030    2    1    2    0    0  0.00000000000E+00  0.00000000000E+00  0.32280780336E+03  0.20437599959E+04  0.20181055580E+04 0.  0.
        1    1    3    3  502    0  0.69797263115E+03  0.60418869747E+03 -0.25117872096E+03  0.95671339798E+03  0.50400001928E-02 0. -1.
       -1    1    3    3    0  502 -0.69797263115E+03 -0.60418869747E+03  0.57398652432E+03  0.10870465980E+04  0.50400001928E-02 0.  1.
</event>
<event>
 5   0  0.1812865E-04  0.2000943E+04  0.7818609E-02  0.8606180E-01
       -2   -1    0    0    0  501  0.00000000000E+00  0.00000000000E+00  0.57752112215E+03  0.57752112216E+03  0.25500000920E-02 0.  1.
        2   -1    0    0  501    0  0.00000000000E+00  0.00000000000E+00 -0.17331724129E+04  0.17331724129E+04  0.25500000920E-02 0. -1.
    10030    2    1    2    0    0  0.00000000000E+00  0.00000000000E+00 -0.11556512908E+04  0.23106935351E+04  0.20009434543E+04 0.  0.
        3    1    3    3  502    0  0.44132692574E+03 -0.51063832435E+03 -0.14306785699E+04  0.15818856262E+04  0.10100000352E+00 0. -1.
       -3    1    3    3    0  502 -0.44132692574E+03  0.51063832435E+03  0.27502727911E+03  0.72880790894E+03  0.10100000352E+00 0.  1.
</event>
<event>
 5   0  0.8958919E-05  0.1986730E+04  0.7818609E-02  0.8612850E-01
       -1   -1    0    0    0  501  0.00000000000E+00  0.00000000000E+00  0.66435459415E+03  0.66435459417E+03  0.50400001928E-02 0.  1.
        1   -1    0    0  501    0  0.00000000000E+00  0.00000000000E+00 -0.14853124967E+04  0.14853124967E+04  0.50400001928E-02 0. -1.
    10030    2    1    2    0    0  0.00000000000E+00  0.00000000000E+00 -0.82095790251E+03  0.21496670908E+04  0.19867301588E+04 0.  0.
        4    1    3    3  502    0 -0.79115740653E+03  0.54994054187E+03 -0.14898104375E+03  0.97496748961E+03  0.12699999809E+01 0.  1.
       -4    1    3    3    0  502  0.79115740653E+03 -0.54994054187E+03 -0.67197685876E+03  0.11746996012E+04  0.12699999809E+01 0. -1.
</event>
<event>
 5   0  0.1807498E-04  0.1986083E+04  0.7818609E-02  0.8613155E-01
       -2   -1    0    0    0  501  0.00000000000E+00  0.00000000000E+00  0.53700902151E+03  0.53700902152E+03  0.25500000920E-02 0.  1.
        2   -1    0    0  501    0  0.00000000000E+00  0.00000000000E+00 -0.18363402664E+04  0.18363402664E+04  0.25500000920E-02 0. -1.
    10030    2    1    2    0    0  0.00000000000E+00  0.00000000000E+00 -0.12993312449E+04  0.23733492879E+04  0.19860828680E+04 0.  0.
        5    1    3    3  502    0  0.46978770016E+03  0.55963001093E+02  0.39366189304E+03  0.61548689405E+03  0.46999998093E+01 0.  1.
       -5    1    3    3    0  502 -0.46978770016E+03 -0.55963001093E+02 -0.16929931380E+04  0.17578623939E+04  0.46999998093E+01 0. -1.
</event>
<event>
 5   0  0.8958919E-05  0.2000718E+04  0.7818609E-02  0.8606285E-01
       -1   -1    0    0    0  501  0.00000000000E+00  0.00000000000E+00  0.61154042327E+03  0.61154042329E+03  0.50400001928E-02 0.  1.
        1   -1    0    0  501    0  0.00000000000E+00  0.00000000000E+00 -0.16363890019E+04  0.16363890019E+04  0.50400001928E-02 0. -1.
    10030    2    1    2    0    0  0.00000000000E+00  0.00000000000E+00 -0.10248485786E+04  0.22479294252E+04  0.20007178940E+04 0.  0.
        4    1    3    3  502    0 -0.17064754716E+03  0.82907136344E+03 -0.11114379661E+04  0.13970597254E+04  0.12699999809E+01 0. -1.
       -4    1    3    3    0  502  0.17064754716E+03 -0.82907136344E+03  0.86589387483E+02  0.85086969975E+03  0.12699999809E+01 0.  1.
</event>
<event>
 5   0  0.8765057E-05  0.1900514E+04  0.7818609E-02  0.8654600E-01
        1   -1    0    0  501    0  0.00000000000E+00  0.00000000000E+00  0.13625182955E+04  0.13625182955E+04  0.50400001928E-02 0. -1.
       -1   -1    0    0    0  501  0.00000000000E+00  0.00000000000E+00 -0.66273498375E+03  0.66273498377E+03  0.50400001928E-02 0.  1.
    10030    2    1    2    0    0  0.00000000000E+00  0.00000000000E+00  0.69978331173E+03  0.20252532793E+04  0.19005141835E+04 0.  0.
        3    1    3    3  502    0  0.29102793273E+03 -0.55575344572E+02 -0.61225443863E+03  0.68017746536E+03  0.10100000352E+00 0.  1.
       -3    1    3    3    0  502 -0.29102793273E+03  0.55575344572E+02  0.13120377504E+04  0.13450758139E+04  0.10100000352E+00 0. -1.
</event>
<event>
 5   0  0.1834645E-04  0.1992377E+04  0.7818609E-02  0.8610193E-01
       -2   -1    0    0    0  501  0.00000000000E+00  0.00000000000E+00  0.10949147022E+04  0.10949147022E+04  0.25500000920E-02 0.  1.
        2   -1    0    0  501    0  0.00000000000E+00  0.00000000000E+00 -0.90636450227E+03  0.90636450228E+03  0.25500000920E-02 0. -1.
    10030    2    1    2    0    0  0.00000000000E+00  0.00000000000E+00  0.18855019992E+03  0.20012792045E+04  0.19923772927E+04 0.  0.
        1    1    3    3  502    0  0.80855682030E+03 -0.45553018352E+03  0.45799785245E+03  0.10349076831E+04  0.50400001928E-02 0.  1.
       -1    1    3    3    0  502 -0.80855682030E+03  0.45553018352E+03 -0.26944765253E+03  0.96637152133E+03  0.50400001928E-02 0. -1.
</event>
<event>
 5   0  0.1893687E-04  0.2011513E+04  0.7818609E-02  0.8601257E-01
        2   -1    0    0  501    0  0.00000000000E+00  0.00000000000E+00  0.67893687304E+03  0.67893687304E+03  0.25500000920E-02 0. -1.
       -2   -1    0    0    0  501  0.00000000000E+00  0.00000000000E+00 -0.14898978175E+04  0.14898978176E+04  0.25500000920E-02 0.  1.
    10030    2    1    2    0    0  0.00000000000E+00  0.00000000000E+00 -0.81096094451E+03  0.21688346906E+04  0.20115134257E+04 0.  0.
        4    1    3    3  502    0 -0.29195872250E+02 -0.46220643396E+03  0.55712519541E+03  0.72448414945E+03  0.12699999809E+01 0. -1.
       -4    1    3    3    0  502  0.29195872250E+02  0.46220643396E+03 -0.13680861399E+04  0.14443505411E+04  0.12699999809E+01 0.  1.
</event>
<event>
 5   0  0.1812865E-04  0.1968563E+04  0.7818609E-02  0.8621461E-01
       -2   -1    0    0    0  501  0.00000000000E+00  0.00000000000E+00  0.76070527825E+03  0.76070527826E+03  0.25500000920E-02 0. -1.
        2   -1    0    0  501    0  0.00000000000E+00  0.00000000000E+00 -0.12735677196E+04  0.12735677196E+04  0.25500000920E-02 0.  1.
    10030    2    1    2    0    0  0.00000000000E+00  0.00000000000E+00 -0.51286244133E+03  0.20342729978E+04  0.19685626091E+04 0.  0.
        3    1    3    3  502    0 -0.14300776883E+03 -0.92937799734E+03 -0.55702754277E+03  0.10929201149E+04  0.10100000352E+00 0.  1.
       -3    1    3    3    0  502  0.14300776883E+03  0.92937799734E+03  0.44165101440E+02  0.94135288297E+03  0.10100000352E+00 0. -1.
</event>
<event>
 5   0  0.8958919E-05  0.1989024E+04  0.7818609E-02  0.8611769E-01
        1   -1    0    0  501    0  0.00000000000E+00  0.00000000000E+00  0.93149745542E+03  0.93149745543E+03  0.50400001928E-02 0.  1.
       -1   -1    0    0    0  501  0.00000000000E+00  0.00000000000E+00 -0.10617898390E+04  0.10617898390E+04  0.50400001928E-02 0. -1.
    10030    2    1    2    0    0  0.00000000000E+00  0.00000000000E+00 -0.13029238361E+03  0.19932872945E+04  0.19890244174E+04 0.  0.
        4    1    3    3  502    0  0.80221921051E+03  0.34039327548E+03  0.41507773102E+03  0.96525353115E+03  0.12699999809E+01 0.  1.
       -4    1    3    3    0  502 -0.80221921051E+03 -0.34039327548E+03 -0.54537011463E+03  0.10280337633E+04  0.12699999809E+01 0. -1.
</event>
<event>
 5   0  0.8577422E-05  0.1971578E+04  0.7818609E-02  0.8620025E-01
       -1   -1    0    0    0  501  0.00000000000E+00  0.00000000000E+00  0.81572690623E+03  0.81572690624E+03  0.50400001928E-02 0.  1.
        1   -1    0    0  501    0  0.00000000000E+00  0.00000000000E+00 -0.11913056087E+04  0.11913056088E+04  0.50400001928E-02 0. -1.
    10030    2    1    2    0    0  0.00000000000E+00  0.00000000000E+00 -0.37557870251E+03  0.20070325150E+04  0.19715780873E+04 0.  0.
        2    1    3    3  502    0 -0.99888875021E+02 -0.64120895230E+03  0.56761513714E+03  0.86215639636E+03  0.25500000920E-02 0.  1.
       -2    1    3    3    0  502  0.99888875021E+02  0.64120895230E+03 -0.94319383965E+03  0.11448761186E+04  0.25500000920E-02 0. -1.
</event>
<event>
 5   0  0.1807498E-04  0.2002570E+04  0.7818609E-02  0.8605420E-01
        2   -1    0    0  501    0  0.00000000000E+00  0.00000000000E+00  0.15470036125E+04  0.15470036125E+04  0.25500000920E-02 0.  1.
       -2   -1    0    0    0  501  0.00000000000E+00  0.00000000000E+00 -0.64807322429E+03  0.64807322429E+03  0.25500000920E-02 0. -1.
    10030    2    1    2    0    0  0.00000000000E+00  0.00000000000E+00  0.89893038817E+03  0.21950768368E+04  0.20025699679E+04 0.  0.
        5    1    3    3  502    0  0.66494917361E+03 -0.66424822703E+03  0.71075785528E+02  0.94257995304E+03  0.46999998093E+01 0. -1.
       -5    1    3    3    0  502 -0.66494917361E+03  0.66424822703E+03  0.82785460264E+03  0.12524968837E+04  0.46999998093E+01 0.  1.
</event>
<event>
 5   0  0.8861350E-05  0.1859533E+04  0.7818609E-02  0.8675266E-01
        1   -1    0    0  501    0  0.00000000000E+00  0.00000000000E+00  0.13890559275E+04  0.13890559275E+04  0.50400001928E-02 0.  1.
       -1   -1    0    0    0  501  0.00000000000E+00  0.00000000000E+00 -0.62234040367E+03  0.62234040369E+03  0.50400001928E-02 0. -1.
    10030    2    1    2    0    0  0.00000000000E+00  0.00000000000E+00  0.76671552384E+03  0.20113963312E+04  0.18595328732E+04 0.  0.
        1    1    3    3  502    0  0.57842798033E+03 -0.68488076696E+03  0.11658900143E+03  0.90400972819E+03  0.50400001928E-02 0. -1.
       -1    1    3    3    0  502 -0.57842798033E+03  0.68488076696E+03  0.65012652241E+03  0.11073866030E+04  0.50400001928E-02 0.  1.
</event>
<event>
 5   0  0.1812865E-04  0.2026871E+04  0.7818609E-02  0.8594160E-01
       -2   -1    0    0    0  501  0.00000000000E+00  0.00000000000E+00  0.72976576333E+03  0.72976576333E+03  0.25500000920E-02 0. -1.
        2   -1    0    0  501    0  0.00000000000E+00  0.00000000000E+00 -0.14073718061E+04  0.14073718061E+04  0.25500000920E-02 0.  1.
    10030    2    1    2    0    0  0.00000000000E+00  0.00000000000E+00 -0.67760604276E+03  0.21371375694E+04  0.20268712444E+04 0.  0.
        3    1    3    3  502    0  0.79832452878E+03  0.10904649914E+03 -0.98692903835E+03  0.12740651982E+04  0.10100000352E+00 0.  1.
       -3    1    3    3    0  502 -0.79832452878E+03 -0.10904649914E+03  0.30932299559E+03  0.86307237126E+03  0.10100000352E+00 0. -1.
</event>
<event>
 5   0  0.8577422E-05  0.2047368E+04  0.7818609E-02  0.8584789E-01
        1   -1    0    0  501    0  0.00000000000E+00  0.00000000000E+00  0.13040113577E+04  0.13040113577E+04  0.50400001928E-02 0. -1.
       -1   -1    0    0    0  501  0.00000000000E+00  0.00000000000E+00 -0.80361942464E+03  0.80361942465E+03  0.50400001928E-02 0.  1.
    10030    2    1    2    0    0  0.00000000000E+00  0.00000000000E+00  0.50039193302E+03  0.21076307823E+04  0.20473679269E+04 0.  0.
        2    1    3    3  502    0  0.35669610751E+03  0.10629326020E+02 -0.73751594731E+03  0.81931365681E+03  0.25500000920E-02 0.  1.
       -2    1    3    3    0  502 -0.35669610751E+03 -0.10629326020E+02  0.12379078803E+04  0.12883171255E+04  0.25500000920E-02 0. -1.
</event>
<event>
 5   0  0.8958919E-05  0.2014870E+04  0.7818609E-02  0.8599700E-01
        1   -1    0    0  501    0  0.00000000000E+00  0.00000000000E+00  0.14165969910E+04  0.14165969910E+04  0.50400001928E-02 0. -1.
       -1   -1    0    0    0  501  0.00000000000E+00  0.00000000000E+00 -0.71645337342E+03  0.71645337344E+03  0.50400001928E-02 0.  1.
    10030    2    1    2    0    0  0.00000000000E+00  0.00000000000E+00  0.70014361760E+03  0.21330503645E+04  0.20148704107E+04 0.  0.
        4    1    3    3  502    0  0.43052382054E+03  0.85673159658E+03  0.67737274948E+03  0.11739570875E+04  0.12699999809E+01 0. -1.
       -4    1    3    3    0  502 -0.43052382054E+03 -0.85673159658E+03  0.22770868125E+02  0.95909327699E+03  0.12699999809E+01 0.  1.
</event>
<event>
 5   0  0.6531625E-05  0.1942660E+04  0.7818609E-02  0.8633908E-01
        3   -1    0    0  501    0  0.00000000000E+00  0.00000000000E+00  0.66315090521E+03  0.66315091290E+03  0.10100000352E+00 0. -1.
       -3   -1    0    0    0  501  0.00000000000E+00  0.00000000000E+00 -0.14227260789E+04  0.14227260825E+04  0.10100000352E+00 0.  1.
    10030    2    1    2    0    0  0.00000000000E+00  0.00000000000E+00 -0.75957517367E+03  0.20858769954E+04  0.19426601338E+04 0.  0.
        4    1    3    3  502    0  0.90737560567E+02  0.45282534578E+03  0.53772431472E+03  0.70882519017E+03  0.12699999809E+01 0. -1.
       -4    1    3    3    0  502 -0.90737560567E+02 -0.45282534578E+03 -0.12972994884E+04  0.13770518052E+04  0.12699999809E+01 0.  1.
</event>
<event>
 5   0  0.1893687E-04  0.1954890E+04  0.7818609E-02  0.8628006E-01
        2   -1    0    0  501    0  0.00000000000E+00  0.00000000000E+00  0.81772371482E+03  0.81772371483E+03  0.25500000920E-02 0.  1.
       -2   -1    0    0    0  501  0.00000000000E+00  0.00000000000E+00 -0.11683640967E+04  0.11683640967E+04  0.25500000920E-02 0. -1.
    10030    2    1    2    0    0  0.00000000000E+00  0.00000000000E+00 -0.35064038183E+03  0.19860878115E+04  0.19548903083E+04 0.  0.
        4    1    3    3  502    0 -0.27137938038E+03 -0.53176369344E+03 -0.96160791731E+03  0.11318616494E+04  0.12699999809E+01 0. -1.
       -4    1    3    3    0  502  0.27137938038E+03  0.53176369344E+03  0.61096753548E+03  0.85422616213E+03  0.12699999809E+01 0.  1.
</event>
<event>
 5   0  0.8881384E-05  0.1960329E+04  0.7818609E-02  0.8625396E-01
       -1   -1    0    0    0  501  0.00000000000E+00  0.00000000000E+00  0.99011397573E+03  0.99011397575E+03  0.50400001928E-02 0. -1.
        1   -1    0    0  501    0  0.00000000000E+00  0.00000000000E+00 -0.97031520637E+03  0.97031520639E+03  0.50400001928E-02 0.  1.
    10030    2    1    2    0    0  0.00000000000E+00  0.00000000000E+00  0.19798769361E+02  0.19604291821E+04  0.19603292037E+04 0.  0.
        5    1    3    3  502    0  0.86714546572E+03  0.25193558560E+03 -0.37128636883E+03  0.97636491933E+03  0.46999998093E+01 0. -1.
       -5    1    3    3    0  502 -0.86714546572E+03 -0.25193558560E+03  0.39108513819E+03  0.98406426280E+03  0.46999998093E+01 0.  1.
</event>
<event>
 5   0  0.1782172E-04  0.2004480E+04  0.7818609E-02  0.8604529E-01
       -2   -1    0    0    0  501  0.00000000000E+00  0.00000000000E+00  0.55097146881E+03  0.55097146881E+03  0.25500000920E-02 0.  1.
        2   -1    0    0  501    0  0.00000000000E+00  0.00000000000E+00 -0.18231158411E+04  0.18231158411E+04  0.25500000920E-02 0. -1.
    10030    2    1    2    0    0  0.00000000000E+00  0.00000000000E+00 -0.12721443723E+04  0.23740873099E+04  0.20044797956E+04 0.  0.
        2    1    3    3  502    0 -0.64660370668E+03  0.71751777502E+03 -0.95289770955E+03  0.13568132354E+04  0.25500000920E-02 0. -1.
       -2    1    3    3    0  502  0.64660370668E+03 -0.71751777502E+03 -0.31924666276E+03  0.10172740745E+04  0.25500000920E-02 0.  1.
</event>
<event>
 5   0  0.8577422E-05  0.2018160E+04  0.7818609E-02  0.8598177E-01
       -1   -1    0    0    0  501  0.00000000000E+00  0.00000000000E+00  0.82619971077E+03  0.82619971079E+03  0.50400001928E-02 0. -1.
        1   -1    0    0  501    0  0.00000000000E+00  0.00000000000E+00 -0.12324413942E+04  0.12324413942E+04  0.50400001928E-02 0.  1.
    10030    2    1    2    0    0  0.00000000000E+00  0.00000000000E+00 -0.40624168340E+03  0.20586411050E+04  0.20181602745E+04 0.  0.
        2    1    3    3  502    0 -0.80165220130E+03 -0.58729571842E+03 -0.24449805640E+02  0.99406252607E+03  0.25500000920E-02 0. -1.
       -2    1    3    3    0  502  0.80165220130E+03  0.58729571842E+03 -0.38179187776E+03  0.10645785789E+04  0.25500000920E-02 0.  1.
</event>
<event>
 5   0  0.8861350E-05  0.2131682E+04  0.7818609E-02  0.8547414E-01
        1   -1    0    0  501    0  0.00000000000E+00  0.00000000000E+00  0.26249889667E+04  0.26249889667E+04  0.50400001928E-02 0. -1.
       -1   -1    0    0    0  501  0.00000000000E+00  0.00000000000E+00 -0.43277016355E+03  0.43277016358E+03  0.50400001928E-02 0.  1.
    10030    2    1    2    0    0  0.00000000000E+00  0.00000000000E+00  0.21922188031E+04  0.30577591303E+04  0.21316818754E+04 0.  0.
        1    1    3    3  502    0 -0.26478421296E+03 -0.21926514205E+03 -0.35105641029E+03  0.49135372715E+03  0.50400001928E-02 0.  1.
       -1    1    3    3    0  502  0.26478421296E+03  0.21926514205E+03  0.25432752134E+04  0.25664054031E+04  0.50400001928E-02 0. -1.
</event>
<event>
 5   0  0.1782172E-04  0.2013520E+04  0.7818609E-02  0.8600325E-01
       -2   -1    0    0    0  501  0.00000000000E+00  0.00000000000E+00  0.57755335265E+03  0.57755335265E+03  0.25500000920E-02 0.  1.
        2   -1    0    0  501    0  0.00000000000E+00  0.00000000000E+00 -0.17549305891E+04  0.17549305891E+04  0.25500000920E-02 0. -1.
    10030    2    1    2    0    0  0.00000000000E+00  0.00000000000E+00 -0.11773772364E+04  0.23324839418E+04  0.20135203455E+04 0.  0.
        2    1    3    3  502    0 -0.13257262453E+03 -0.76037738794E+03 -0.13374709275E+04  0.15442078082E+04  0.25500000920E-02 0. -1.
       -2    1    3    3    0  502  0.13257262453E+03  0.76037738794E+03  0.16009369105E+03  0.78827613359E+03  0.25500000920E-02 0.  1.
</event>
<event>
 5   0  0.1834645E-04  0.1991093E+04  0.7818609E-02  0.8610796E-01
       -2   -1    0    0    0  501  0.00000000000E+00  0.00000000000E+00  0.10482716900E+04  0.10482716900E+04  0.25500000920E-02 0. -1.
        2   -1    0    0  501    0  0.00000000000E+00  0.00000000000E+00 -0.94547332856E+03  0.94547332857E+03  0.25500000920E-02 0.  1.
    10030    2    1    2    0    0  0.00000000000E+00  0.00000000000E+00  0.10279836143E+03  0.19937450186E+04  0.19910930907E+04 0.  0.
        1    1    3    3  502    0  0.14302700882E+03 -0.74517388417E+03 -0.59395288000E+03  0.96359787598E+03  0.50400001928E-02 0.  1.
       -1    1    3    3    0  502 -0.14302700882E+03  0.74517388417E+03  0.69675124144E+03  0.10301471426E+04  0.50400001928E-02 0. -1.
</event>
<event>
 5   0  0.8577422E-05  0.1990382E+04  0.7818609E-02  0.8611131E-01
       -1   -1    0    0    0  501  0.00000000000E+00  0.00000000000E+00  0.66357252828E+03  0.66357252830E+03  0.50400001928E-02 0. -1.
        1   -1    0    0  501    0  0.00000000000E+00  0.00000000000E+00 -0.14925341229E+04  0.14925341229E+04  0.50400001928E-02 0.  1.
    10030    2    1    2    0    0  0.00000000000E+00  0.00000000000E+00 -0.82896159461E+03  0.21561066512E+04  0.19903815127E+04 0.  0.
        2    1    3    3  502    0 -0.86447615368E+03  0.44723092834E+03 -0.63929406631E+03  0.11644876241E+04  0.25500000920E-02 0.  1.
       -2    1    3    3    0  502  0.86447615368E+03 -0.44723092834E+03 -0.18966752830E+03  0.99161902706E+03  0.25500000920E-02 0. -1.
</event>
<event>
 5   0  0.8861350E-05  0.1987730E+04  0.7818609E-02  0.8612379E-01
        1   -1    0    0  501    0  0.00000000000E+00  0.00000000000E+00  0.14609811181E+04  0.14609811181E+04  0.50400001928E-02 0.  1.
       -1   -1    0    0    0  501  0.00000000000E+00  0.00000000000E+00 -0.67609850681E+03  0.67609850683E+03  0.50400001928E-02 0. -1.
    10030    2    1    2    0    0  0.00000000000E+00  0.00000000000E+00  0.78488261128E+03  0.21370796249E+04  0.19877295112E+04 0.  0.
        1    1    3    3  502    0 -0.65097922070E+03 -0.26282985886E+02  0.11993682610E+04  0.13648988851E+04  0.50400001928E-02 0.  1.
       -1    1    3    3    0  502  0.65097922070E+03  0.26282985886E+02 -0.41448564968E+03  0.77218073982E+03  0.50400001928E-02 0. -1.
</event>
<event>
 5   0  0.8958919E-05  0.2098721E+04  0.7818609E-02  0.8561807E-01
       -1   -1    0    0    0  501  0.00000000000E+00  0.00000000000E+00  0.61496333607E+03  0.61496333609E+03  0.50400001928E-02 0.  1.
        1   -1    0    0  501    0  0.00000000000E+00  0.00000000000E+00 -0.17906062062E+04  0.17906062062E+04  0.50400001928E-02 0. -1.
    10030    2    1    2    0    0  0.00000000000E+00  0.00000000000E+00 -0.11756428701E+04  0.24055695423E+04  0.20987207210E+04 0.  0.
        4    1    3    3  502    0  0.72905666600E+03 -0.67678007303E+03 -0.97073138778E+03  0.13899193968E+04  0.12699999809E+01 0. -1.
       -4    1    3    3    0  502 -0.72905666600E+03  0.67678007303E+03 -0.20491148231E+03  0.10156501455E+04  0.12699999809E+01 0.  1.
</event>
<event>
 5   0  0.1893687E-04  0.2020610E+04  0.7818609E-02  0.8597045E-01
        2   -1    0    0  501    0  0.00000000000E+00  0.00000000000E+00  0.13330179478E+04  0.13330179478E+04  0.25500000920E-02 0.  1.
       -2   -1    0    0    0  501  0.00000000000E+00  0.00000000000E+00 -0.76571837303E+03  0.76571837303E+03  0.25500000920E-02 0. -1.
    10030    2    1    2    0    0  0.00000000000E+00  0.00000000000E+00  0.56729957476E+03  0.20987363208E+04  0.20206101397E+04 0.  0.
        4    1    3    3  502    0 -0.18192743593E+03 -0.35563331787E+03  0.12475071174E+04  0.13099039161E+04  0.12699999809E+01 0.  1.
       -4    1    3    3    0  502  0.18192743593E+03  0.35563331787E+03 -0.68020754262E+03  0.78883240467E+03  0.12699999809E+01 0. -1.
</event>
<event>
 5   0  0.8765057E-05  0.2011213E+04  0.7818609E-02  0.8601396E-01
       -1   -1    0    0    0  501  0.00000000000E+00  0.00000000000E+00  0.75685294853E+03  0.75685294855E+03  0.50400001928E-02 0. -1.
        1   -1    0    0  501    0  0.00000000000E+00  0.00000000000E+00 -0.13361179764E+04  0.13361179764E+04  0.50400001928E-02 0.  1.
    10030    2    1    2    0    0  0.00000000000E+00  0.00000000000E+00 -0.57926502788E+03  0.20929709250E+04  0.20112133950E+04 0.  0.
        3    1    3    3  502    0 -0.38918916439E+03 -0.88681356742E+03 -0.57145165951E+03  0.11244836675E+04  0.10100000352E+00 0. -1.
       -3    1    3    3    0  502  0.38918916439E+03  0.88681356742E+03 -0.78133683721E+01  0.96848725751E+03  0.10100000352E+00 0.  1.
</event>
<event>
 5   0  0.8861350E-05  0.2075838E+04  0.7818609E-02  0.8571962E-01
        1   -1    0    0  501    0  0.00000000000E+00  0.00000000000E+00  0.19657631811E+04  0.19657631811E+04  0.50400001928E-02 0. -1.
       -1   -1    0    0    0  501  0.00000000000E+00  0.00000000000E+00 -0.54801934455E+03  0.54801934457E+03  0.50400001928E-02 0.  1.
    10030    2    1    2    0    0  0.00000000000E+00  0.00000000000E+00  0.14177438365E+04  0.25137825257E+04  0.20758383849E+04 0.  0.
        1    1    3    3  502    0  0.74140881420E+03  0.16852284242E+03 -0.14672022178E+03  0.77434733918E+03  0.50400001928E-02 0.  1.
       -1    1    3    3    0  502 -0.74140881420E+03 -0.16852284242E+03  0.15644640583E+04  0.17394351865E+04  0.50400001928E-02 0. -1.
</event>
<event>
 5   0  0.8861350E-05  0.2038522E+04  0.7818609E-02  0.8588819E-01
        1   -1    0    0  501    0  0.00000000000E+00  0.00000000000E+00  0.68600673249E+03  0.68600673251E+03  0.50400001928E-02 0.  1.
       -1   -1    0    0    0  501  0.00000000000E+00  0.00000000000E+00 -0.15144066973E+04  0.15144066973E+04  0.50400001928E-02 0. -1.
    10030    2    1    2    0    0  0.00000000000E+00  0.00000000000E+00 -0.82839996482E+03  0.22004134298E+04  0.20385222001E+04 0.  0.
        1    1    3    3  502    0  0.54720967547E+03 -0.84387830686E+03 -0.23577227877E+03  0.10330332004E+04  0.50400001928E-02 0.  1.
       -1    1    3    3    0  502 -0.54720967547E+03  0.84387830686E+03 -0.59262768605E+03  0.11673802294E+04  0.50400001928E-02 0. -1.
</event>
<event>
 5   0  0.1893687E-04  0.2014102E+04  0.7818609E-02  0.8600056E-01
        2   -1    0    0  501    0  0.00000000000E+00  0.00000000000E+00  0.89878646326E+03  0.89878646326E+03  0.25500000920E-02 0. -1.
       -2   -1    0    0    0  501  0.00000000000E+00  0.00000000000E+00 -0.11283562512E+04  0.11283562513E+04  0.25500000920E-02 0.  1.
    10030    2    1    2    0    0  0.00000000000E+00  0.00000000000E+00 -0.22956978799E+03  0.20271427145E+04  0.20141016105E+04 0.  0.
        4    1    3    3  502    0 -0.51028279226E+03  0.34417912695E+03  0.68743426413E+03  0.92272166979E+03  0.12699999809E+01 0. -1.
       -4    1    3    3    0  502  0.51028279226E+03 -0.34417912695E+03 -0.91700405212E+03  0.11044210447E+04  0.12699999809E+01 0.  1.
</event>
<event>
 5   0  0.1812865E-04  0.1982971E+04  0.7818609E-02  0.8614624E-01
       -2   -1    0    0    0  501  0.00000000000E+00  0.00000000000E+00  0.42779963852E+03  0.42779963853E+03  0.25500000920E-02 0. -1.
        2   -1    0    0  501    0  0.00000000000E+00  0.00000000000E+00 -0.22979074437E+04  0.22979074437E+04  0.25500000920E-02 0.  1.
    10030    2    1    2    0    0  0.00000000000E+00  0.00000000000E+00 -0.18701078051E+04  0.27257070822E+04  0.19829714812E+04 0.  0.
        3    1    3    3  502    0 -0.72279872577E+03 -0.64418329492E+03 -0.12286878481E+04  0.15643158101E+04  0.10100000352E+00 0. -1.
       -3    1    3    3    0  502  0.72279872577E+03  0.64418329492E+03 -0.64141995703E+03  0.11613912721E+04  0.10100000352E+00 0.  1.
</event>
<event>
 5   0  0.1807498E-04  0.1974661E+04  0.7818609E-02  0.8618560E-01
        2   -1    0    0  501    0  0.00000000000E+00  0.00000000000E+00  0.17628415945E+04  0.17628415945E+04  0.25500000920E-02 0.  1.
       -2   -1    0    0    0  501  0.00000000000E+00  0.00000000000E+00 -0.55298281789E+03  0.55298281789E+03  0.25500000920E-02 0. -1.
    10030    2    1    2    0    0  0.00000000000E+00  0.00000000000E+00  0.12098587766E+04  0.23158244124E+04  0.19746605910E+04 0.  0.
        5    1    3    3  502    0  0.51903670687E+03  0.69780856658E+03  0.11530829476E+04  0.14442846924E+04  0.46999998093E+01 0.  1.
       -5    1    3    3    0  502 -0.51903670687E+03 -0.69780856658E+03  0.56775828961E+02  0.87153971994E+03  0.46999998093E+01 0. -1.
</event>
<event>
 5   0  0.1812865E-04  0.1996770E+04  0.7818609E-02  0.8608132E-01
        2   -1    0    0  501    0  0.00000000000E+00  0.00000000000E+00  0.15473903952E+04  0.15473903952E+04  0.25500000920E-02 0.  1.
       -2   -1    0    0    0  501  0.00000000000E+00  0.00000000000E+00 -0.64416340304E+03  0.64416340305E+03  0.25500000920E-02 0. -1.
    10030    2    1    2    0    0  0.00000000000E+00  0.00000000000E+00  0.90322699217E+03  0.21915537983E+04  0.19967696540E+04 0.  0.
        3    1    3    3  502    0 -0.96902705914E+03 -0.22391614558E+03  0.35580319026E+03  0.10562896393E+04  0.10100000352E+00 0. -1.
       -3    1    3    3    0  502  0.96902705914E+03  0.22391614558E+03  0.54742380190E+03  0.11352641590E+04  0.10100000352E+00 0.  1.
</event>
<event>
 5   0  0.8881384E-05  0.2031514E+04  0.7818609E-02  0.8592027E-01
        1   -1    0    0  501    0  0.00000000000E+00  0.00000000000E+00  0.10829122149E+04  0.10829122149E+04  0.50400001928E-02 0.  1.
       -1   -1    0    0    0  501  0.00000000000E+00  0.00000000000E+00 -0.95276662676E+03  0.95276662678E+03  0.50400001928E-02 0. -1.
    10030    2    1    2    0    0  0.00000000000E+00  0.00000000000E+00  0.13014558810E+03  0.20356788416E+04  0.20315143298E+04 0.  0.
        5    1    3    3  502    0  0.38264980865E+03 -0.86184787120E+03  0.44338865453E+03  0.10420260160E+04  0.46999998093E+01 0.  1.
       -5    1    3    3    0  502 -0.38264980865E+03  0.86184787120E+03 -0.31324306643E+03  0.99365282560E+03  0.46999998093E+01 0. -1.
</event>
<event>
 5   0  0.1807498E-04  0.2025053E+04  0.7818609E-02  0.8594996E-01
        2   -1    0    0  501    0  0.00000000000E+00  0.00000000000E+00  0.71817779490E+03  0.71817779491E+03  0.25500000920E-02 0. -1.
       -2   -1    0    0    0  501  0.00000000000E+00  0.00000000000E+00 -0.14275151756E+04  0.14275151756E+04  0.25500000920E-02 0.  1.
    10030    2    1    2    0    0  0.00000000000E+00  0.00000000000E+00 -0.70933738069E+03  0.21456929705E+04  0.20250527904E+04 0.  0.
        5    1    3    3  502    0  0.88576414352E+03 -0.14930133509E+03 -0.84975008133E+03  0.12365137675E+04  0.46999998093E+01 0.  1.
       -5    1    3    3    0  502 -0.88576414352E+03  0.14930133509E+03  0.14041270063E+03  0.90917920296E+03  0.46999998093E+01 0. -1.
</event>
<event>
 5   0  0.1782172E-04  0.1997847E+04  0.7818609E-02  0.8607628E-01
       -2   -1    0    0    0  501  0.00000000000E+00  0.00000000000E+00  0.72997273992E+03  0.72997273992E+03  0.25500000920E-02 0.  1.
        2   -1    0    0  501    0  0.00000000000E+00  0.00000000000E+00 -0.13669669578E+04  0.13669669578E+04  0.25500000920E-02 0. -1.
    10030    2    1    2    0    0  0.00000000000E+00  0.00000000000E+00 -0.63699421785E+03  0.20969396977E+04  0.19978474572E+04 0.  0.
        2    1    3    3  502    0  0.78010084156E+03 -0.94142029021E+02 -0.96587845189E+03  0.12451269929E+04  0.25500000920E-02 0. -1.
       -2    1    3    3    0  502 -0.78010084156E+03  0.94142029021E+02  0.32888423404E+03  0.85181270479E+03  0.25500000920E-02 0.  1.
</event>
<event>
 5   0  0.1807498E-04  0.1923299E+04  0.7818609E-02  0.8643345E-01
       -2   -1    0    0    0  501  0.00000000000E+00  0.00000000000E+00  0.10709996261E+04  0.10709996261E+04  0.25500000920E-02 0.  1.
        2   -1    0    0  501    0  0.00000000000E+00  0.00000000000E+00 -0.86346413375E+03  0.86346413376E+03  0.25500000920E-02 0. -1.
    10030    2    1    2    0    0  0.00000000000E+00  0.00000000000E+00  0.20753549233E+03  0.19344637598E+04  0.19232990037E+04 0.  0.
        5    1    3    3  502    0  0.26569441975E+03 -0.77059680104E+03  0.61695969883E+03  0.10222887627E+04  0.46999998093E+01 0.  1.
       -5    1    3    3    0  502 -0.26569441975E+03  0.77059680104E+03 -0.40942420651E+03  0.91217499709E+03  0.46999998093E+01 0. -1.
</event>
<event>
 5   0  0.8861350E-05  0.1967191E+04  0.7818609E-02  0.8622115E-01
        1   -1    0    0  501    0  0.00000000000E+00  0.00000000000E+00  0.96168647063E+03  0.96168647065E+03  0.50400001928E-02 0.  1.
       -1   -1    0    0    0  501  0.00000000000E+00  0.00000000000E+00 -0.10060038196E+04  0.10060038196E+04  0.50400001928E-02 0. -1.
    10030    2    1    2    0    0  0.00000000000E+00  0.00000000000E+00 -0.44317348980E+02  0.19676902903E+04  0.19671911577E+04 0.  0.
        1    1    3    3  502    0 -0.15830557774E+03  0.65122874498E+03 -0.74227239971E+03  0.10000639228E+04  0.50400001928E-02 0. -1.
       -1    1    3    3    0  502  0.15830557774E+03 -0.65122874498E+03  0.69795505073E+03  0.96762636751E+03  0.50400001928E-02 0.  1.
</event>
<event>
 5   0  0.1782172E-04  0.2052215E+04  0.7818609E-02  0.8582590E-01
        2   -1    0    0  501    0  0.00000000000E+00  0.00000000000E+00  0.18245031381E+04  0.18245031381E+04  0.25500000920E-02 0.  1.
       -2   -1    0    0    0  501  0.00000000000E+00  0.00000000000E+00 -0.57708694256E+03  0.57708694257E+03  0.25500000920E-02 0. -1.
    10030    2    1    2    0    0  0.00000000000E+00  0.00000000000E+00  0.12474161956E+04  0.24015900807E+04  0.20522153276E+04 0.  0.
        2    1    3    3  502    0  0.44651829911E+03  0.87983247169E+03  0.95348650418E+03  0.13720861064E+04  0.25500000920E-02 0. -1.
       -2    1    3    3    0  502 -0.44651829911E+03 -0.87983247169E+03  0.29392969141E+03  0.10295039743E+04  0.25500000920E-02 0.  1.
</event>
<event>
 5   0  0.8881384E-05  0.1951141E+04  0.7818609E-02  0.8629811E-01
       -1   -1    0    0    0  501  0.00000000000E+00  0.00000000000E+00  0.10551660756E+04  0.10551660756E+04  0.50400001928E-02 0. -1.
        1   -1    0    0  501    0  0.00000000000E+00  0.00000000000E+00 -0.90197959397E+03  0.90197959399E+03  0.50400001928E-02 0.  1.
    10030    2    1    2    0    0  0.00000000000E+00  0.00000000000E+00  0.15318648161E+03  0.19571456696E+04  0.19511414797E+04 0.  0.
        5    1    3    3  502    0  0.43027654896E+03 -0.44254840534E+03  0.83438421421E+03  0.10378854015E+04  0.46999998093E+01 0. -1.
       -5    1    3    3    0  502 -0.43027654896E+03  0.44254840534E+03 -0.68119773259E+03  0.91926026812E+03  0.46999998093E+01 0.  1.
</event>
<event>
 5   0  0.8765057E-05  0.2042952E+04  0.7818609E-02  0.8586798E-01
        1   -1    0    0  501    0  0.00000000000E+00  0.00000000000E+00  0.13216125470E+04  0.13216125470E+04  0.50400001928E-02 0. -1.
       -1   -1    0    0    0  501  0.00000000000E+00  0.00000000000E+00 -0.78950029641E+03  0.78950029642E+03  0.50400001928E-02 0.  1.
    10030    2    1    2    0    0  0.00000000000E+00  0.00000000000E+00  0.53211225063E+03  0.21111128435E+04  0.20429522732E+04 0.  0.
        3    1    3    3  502    0  0.10984629212E+03  0.13823512745E+02  0.13153942539E+04  0.13200452078E+04  0.10100000352E+00 0. -1.
       -3    1    3    3    0  502 -0.10984629212E+03 -0.13823512745E+02 -0.78328200323E+03  0.79106763565E+03  0.10100000352E+00 0.  1.
</event>
<event>
 5   0  0.1893687E-04  0.2003069E+04  0.7818609E-02  0.8605187E-01
        2   -1    0    0  501    0  0.00000000000E+00  0.00000000000E+00  0.17967610162E+04  0.17967610162E+04  0.25500000920E-02 0. -1.
       -2   -1    0    0    0  501  0.00000000000E+00  0.00000000000E+00 -0.55826645010E+03  0.55826645010E+03  0.25500000920E-02 0.  1.
    10030    2    1    2    0    0  0.00000000000E+00  0.00000000000E+00  0.12384945661E+04  0.23550274663E+04  0.20030690394E+04 0.  0.
        4    1    3    3  502    0 -0.25672821973E+03  0.70365374197E+03  0.14009233625E+04  0.15885924109E+04  0.12699999809E+01 0. -1.
       -4    1    3    3    0  502  0.25672821973E+03 -0.70365374197E+03 -0.16242879639E+03  0.76643505543E+03  0.12699999809E+01 0.  1.
</event>
<event>
 5   0  0.8881384E-05  0.2034596E+04  0.7818609E-02  0.8590614E-01
       -1   -1    0    0    0  501  0.00000000000E+00  0.00000000000E+00  0.12613675286E+04  0.12613675286E+04  0.50400001928E-02 0. -1.
        1   -1    0    0  501    0  0.00000000000E+00  0.00000000000E+00 -0.82045509608E+03  0.82045509610E+03  0.50400001928E-02 0.  1.
    10030    2    1    2    0    0  0.00000000000E+00  0.00000000000E+00  0.44091243248E+03  0.20818226247E+04  0.20345961927E+04 0.  0.
        5    1    3    3  502    0 -0.23964961016E+03  0.87293549722E+03 -0.25445623531E+03  0.94032886994E+03  0.46999998093E+01 0.  1.
       -5    1    3    3    0  502  0.23964961016E+03 -0.87293549722E+03  0.69536866779E+03  0.11414937547E+04  0.46999998093E+01 0. -1.
</event>
<event>
 5   0  0.8861350E-05  0.1959232E+04  0.7818609E-02  0.8625922E-01
        1   -1    0    0  501    0  0.00000000000E+00  0.00000000000E+00  0.67259141588E+03  0.67259141590E+03  0.50400001928E-02 0.  1.
       -1   -1    0    0    0  501  0.00000000000E+00  0.00000000000E+00 -0.14267906136E+04  0.14267906136E+04  0.50400001928E-02 0. -1.
    10030    2    1    2    0    0  0.00000000000E+00  0.00000000000E+00 -0.75419919769E+03  0.20993820295E+04  0.19592316034E+04 0.  0.
        1    1    3    3  502    0  0.35962763665E+03  0.11154191838E+03  0.59195614819E+03  0.70155949000E+03  0.50400001928E-02 0.  1.
       -1    1    3    3    0  502 -0.35962763665E+03 -0.11154191838E+03 -0.13461553459E+04  0.13978225395E+04  0.50400001928E-02 0. -1.
</event>
<event>
 5   0  0.8765057E-05  0.2013323E+04  0.7818609E-02  0.8600417E-01
        1   -1    0    0  501    0  0.00000000000E+00  0.00000000000E+00  0.13204019784E+04  0.13204019784E+04  0.50400001928E-02 0. -1.
       -1   -1    0    0    0  501  0.00000000000E+00  0.00000000000E+00 -0.76746870061E+03  0.76746870062E+03  0.50400001928E-02 0.  1.
    10030    2    1    2    0    0  0.00000000000E+00  0.00000000000E+00  0.55293327783E+03  0.20878706791E+04  0.20133228163E+04 0.  0.
        3    1    3    3  502    0 -0.30209880596E+03  0.49582475795E+03  0.11292671422E+04  0.12697835122E+04  0.10100000352E+00 0. -1.
       -3    1    3    3    0  502  0.30209880596E+03 -0.49582475795E+03 -0.57633386439E+03  0.81808716687E+03  0.10100000352E+00 0.  1.
</event>
<event>
 5   0  0.1807498E-04  0.2014485E+04  0.7818609E-02  0.8599878E-01
       -2   -1    0    0    0  501  0.00000000000E+00  0.00000000000E+00  0.10494520496E+04  0.10494520496E+04  0.25500000920E-02 0. -1.
        2   -1    0    0  501    0  0.00000000000E+00  0.00000000000E+00 -0.96673093999E+03  0.96673093999E+03  0.25500000920E-02 0.  1.
    10030    2    1    2    0    0  0.00000000000E+00  0.00000000000E+00  0.82721109561E+02  0.20161829896E+04  0.20144853103E+04 0.  0.
        5    1    3    3  502    0 -0.32251217879E+03 -0.95418163959E+03  0.47608375608E+02  0.10083478339E+04  0.46999998093E+01 0. -1.
       -5    1    3    3    0  502  0.32251217879E+03  0.95418163959E+03  0.35112733954E+02  0.10078351556E+04  0.46999998093E+01 0.  1.
</event>
<event>
 5   0  0.8958919E-05  0.1892307E+04  0.7818609E-02  0.8658695E-01
       -1   -1    0    0    0  501  0.00000000000E+00  0.00000000000E+00  0.96819719400E+03  0.96819719401E+03  0.50400001928E-02 0. -1.
        1   -1    0    0  501    0  0.00000000000E+00  0.00000000000E+00 -0.92461216865E+03  0.92461216866E+03  0.50400001928E-02 0.  1.
    10030    2    1    2    0    0  0.00000000000E+00  0.00000000000E+00  0.43585025350E+02  0.18928093627E+04  0.18923074880E+04 0.  0.
        4    1    3    3  502    0 -0.20865389397E+03 -0.22512709317E+03 -0.87342342099E+03  0.92579087313E+03  0.12699999809E+01 0.  1.
       -4    1    3    3    0  502  0.20865389397E+03  0.22512709317E+03  0.91700844634E+03  0.96701848954E+03  0.12699999809E+01 0. -1.
</event>
<event>
 5   0  0.6531625E-05  0.1981437E+04  0.7818609E-02  0.8615349E-01
       -3   -1    0    0    0  501  0.00000000000E+00  0.00000000000E+00  0.70016897547E+03  0.70016898275E+03  0.10100000352E+00 0.  1.
        3   -1    0    0  501    0  0.00000000000E+00  0.00000000000E+00 -0.14018381800E+04  0.14018381837E+04  0.10100000352E+00 0. -1.
    10030    2    1    2    0    0  0.00000000000E+00  0.00000000000E+00 -0.70166920457E+03  0.21020071664E+04  0.19814374719E+04 0.  0.
        2    1    3    3  502    0 -0.16434274398E+03 -0.77478294635E+03  0.28055048691E+03  0.84024146956E+03  0.25500000920E-02 0.  1.
       -2    1    3    3    0  502  0.16434274398E+03  0.77478294635E+03 -0.98221969147E+03  0.12617656969E+04  0.25500000920E-02 0. -1.
</event>
<event>
 5   0  0.1807498E-04  0.1462113E+04  0.7818609E-02  0.8910046E-01
        2   -1    0    0  501    0  0.00000000000E+00  0.00000000000E+00  0.60837574107E+03  0.60837574107E+03  0.25500000920E-02 0.  1.
       -2   -1    0    0    0  501  0.00000000000E+00  0.00000000000E+00 -0.87847609033E+03  0.87847609034E+03  0.25500000920E-02 0. -1.
    10030    2    1    2    0    0  0.00000000000E+00  0.00000000000E+00 -0.27010034927E+03  0.14868518314E+04  0.14621129128E+04 0.  0.
        5    1    3    3  502    0  0.71693454749E+03 -0.96056290001E+02 -0.27431900328E+02  0.72387606355E+03  0.46999998093E+01 0.  1.
       -5    1    3    3    0  502 -0.71693454749E+03  0.96056290001E+02 -0.24266844894E+03  0.76297576786E+03  0.46999998093E+01 0. -1.
</event>
<event>
 5   0  0.8881384E-05  0.1967062E+04  0.7818609E-02  0.8622177E-01
       -1   -1    0    0    0  501  0.00000000000E+00  0.00000000000E+00  0.58738250796E+03  0.58738250798E+03  0.50400001928E-02 0.  1.
        1   -1    0    0  501    0  0.00000000000E+00  0.00000000000E+00 -0.16468544422E+04  0.16468544422E+04  0.50400001928E-02 0. -1.
    10030    2    1    2    0    0  0.00000000000E+00  0.00000000000E+00 -0.10594719343E+04  0.22342369502E+04  0.19670622690E+04 0.  0.
        5    1    3    3  502    0 -0.22900703707E+03 -0.32186232325E+03 -0.15527799808E+04  0.16022444685E+04  0.46999998093E+01 0. -1.
       -5    1    3    3    0  502  0.22900703707E+03  0.32186232325E+03  0.49330804652E+03  0.63199248169E+03  0.46999998093E+01 0.  1.
</event>
<event>
 5   0  0.1893687E-04  0.2008891E+04  0.7818609E-02  0.8602475E-01
        2   -1    0    0  501    0  0.00000000000E+00  0.00000000000E+00  0.76746847660E+03  0.76746847660E+03  0.25500000920E-02 0. -1.
       -2   -1    0    0    0  501  0.00000000000E+00  0.00000000000E+00 -0.13145957979E+04  0.13145957979E+04  0.25500000920E-02 0.  1.
    10030    2    1    2    0    0  0.00000000000E+00  0.00000000000E+00 -0.54712732130E+03  0.20820642745E+04  0.20088910716E+04 0.  0.
        4    1    3    3  502    0 -0.26513222605E+03 -0.42769667588E+03  0.62740459341E+03  0.80427463007E+03  0.12699999809E+01 0. -1.
       -4    1    3    3    0  502  0.26513222605E+03  0.42769667588E+03 -0.11745319147E+04  0.12777896444E+04  0.12699999809E+01 0.  1.
</event>
<event>
 5   0  0.8958919E-05  0.1998509E+04  0.7818609E-02  0.8607318E-01
        1   -1    0    0  501    0  0.00000000000E+00  0.00000000000E+00  0.16368673788E+04  0.16368673788E+04  0.50400001928E-02 0. -1.
       -1   -1    0    0    0  501  0.00000000000E+00  0.00000000000E+00 -0.61001235569E+03  0.61001235571E+03  0.50400001928E-02 0.  1.
    10030    2    1    2    0    0  0.00000000000E+00  0.00000000000E+00  0.10268550231E+04  0.22468797345E+04  0.19985087698E+04 0.  0.
        4    1    3    3  502    0 -0.62957470971E+03 -0.76210126901E+03  0.67768394644E+03  0.11985073231E+04  0.12699999809E+01 0. -1.
       -4    1    3    3    0  502  0.62957470971E+03  0.76210126901E+03  0.34917107664E+03  0.10483724114E+04  0.12699999809E+01 0.  1.
</event>
<event>
 5   0  0.8577422E-05  0.1971866E+04  0.7818609E-02  0.8619888E-01
        1   -1    0    0  501    0  0.00000000000E+00  0.00000000000E+00  0.16359000851E+04  0.16359000851E+04  0.50400001928E-02 0. -1.
       -1   -1    0    0    0  501  0.00000000000E+00  0.00000000000E+00 -0.59420733373E+03  0.59420733375E+03  0.50400001928E-02 0.  1.
    10030    2    1    2    0    0  0.00000000000E+00  0.00000000000E+00  0.10416927514E+04  0.22301074189E+04  0.19718659466E+04 0.  0.
        2    1    3    3  502    0 -0.64014334155E+03  0.60876804972E+03  0.10159987042E+04  0.13463414882E+04  0.25500000920E-02 0.  1.
       -2    1    3    3    0  502  0.64014334155E+03 -0.60876804972E+03  0.25694047234E+02  0.88376593064E+03  0.25500000920E-02 0. -1.
</event>
<event>
 5   0  0.8765057E-05  0.1992490E+04  0.7818609E-02  0.8610140E-01
        1   -1    0    0  501    0  0.00000000000E+00  0.00000000000E+00  0.91213641353E+03  0.91213641355E+03  0.50400001928E-02 0.  1.
       -1   -1    0    0    0  501  0.00000000000E+00  0.00000000000E+00 -0.10881091761E+04  0.10881091761E+04  0.50400001928E-02 0. -1.
    10030    2    1    2    0    0  0.00000000000E+00  0.00000000000E+00 -0.17597276256E+03  0.20002455897E+04  0.19924899010E+04 0.  0.
        3    1    3    3  502    0 -0.30918028080E+03 -0.89062681935E+03  0.23528478293E+03  0.97168282720E+03  0.10100000352E+00 0.  1.
       -3    1    3    3    0  502  0.30918028080E+03  0.89062681935E+03 -0.41125754549E+03  0.10285627625E+04  0.10100000352E+00 0. -1.
</event>
<event>
 5   0  0.1812865E-04  0.2129669E+04  0.7818609E-02  0.8548285E-01
        2   -1    0    0  501    0  0.00000000000E+00  0.00000000000E+00  0.14696978434E+04  0.14696978434E+04  0.25500000920E-02 0. -1.
       -2   -1    0    0    0  501  0.00000000000E+00  0.00000000000E+00 -0.77150037752E+03  0.77150037753E+03  0.25500000920E-02 0.  1.
    10030    2    1    2    0    0  0.00000000000E+00  0.00000000000E+00  0.69819746588E+03  0.22411982209E+04  0.21296689330E+04 0.  0.
        3    1    3    3  502    0 -0.40344165746E+02  0.44146027210E+03 -0.66977608289E+03  0.80319041015E+03  0.10100000352E+00 0.  1.
       -3    1    3    3    0  502  0.40344165746E+02 -0.44146027210E+03  0.13679735488E+04  0.14380078108E+04  0.10100000352E+00 0. -1.
</event>
<event>
 5   0  0.8577422E-05  0.1956309E+04  0.7818609E-02  0.8627324E-01
        1   -1    0    0  501    0  0.00000000000E+00  0.00000000000E+00  0.13904284093E+04  0.13904284093E+04  0.50400001928E-02 0. -1.
       -1   -1    0    0    0  501  0.00000000000E+00  0.00000000000E+00 -0.68812346867E+03  0.68812346869E+03  0.50400001928E-02 0.  1.
    10030    2    1    2    0    0  0.00000000000E+00  0.00000000000E+00  0.70230494059E+03  0.20785518780E+04  0.19563091984E+04 0.  0.
        2    1    3    3  502    0 -0.14385288979E+03  0.73547683474E+03  0.10190556054E+04  0.12649482816E+04  0.25500000920E-02 0. -1.
       -2    1    3    3    0  502  0.14385288979E+03 -0.73547683474E+03 -0.31675066478E+03  0.81360359634E+03  0.25500000920E-02 0.  1.
</event>
<event>
 5   0  0.8577422E-05  0.1990694E+04  0.7818609E-02  0.8610984E-01
       -1   -1    0    0    0  501  0.00000000000E+00  0.00000000000E+00  0.82513093116E+03  0.82513093117E+03  0.50400001928E-02 0. -1.
        1   -1    0    0  501    0  0.00000000000E+00  0.00000000000E+00 -0.12006771224E+04  0.12006771224E+04  0.50400001928E-02 0.  1.
    10030    2    1    2    0    0  0.00000000000E+00  0.00000000000E+00 -0.37554619128E+03  0.20258080536E+04  0.19906941825E+04 0.  0.
        2    1    3    3  502    0  0.93011073623E+03  0.27663602873E+03 -0.41322632247E+03  0.10546987568E+04  0.25500000920E-02 0.  1.
       -2    1    3    3    0  502 -0.93011073623E+03 -0.27663602873E+03  0.37680131193E+02  0.97110929680E+03  0.25500000920E-02 0. -1.
</event>
<event>
 5   0  0.1807498E-04  0.2057671E+04  0.7818609E-02  0.8580122E-01
        2   -1    0    0  501    0  0.00000000000E+00  0.00000000000E+00  0.15251826465E+04  0.15251826465E+04  0.25500000920E-02 0.  1.
       -2   -1    0    0    0  501  0.00000000000E+00  0.00000000000E+00 -0.69401719097E+03  0.69401719098E+03  0.25500000920E-02 0. -1.
    10030    2    1    2    0    0  0.00000000000E+00  0.00000000000E+00  0.83116545548E+03  0.22191998374E+04  0.20576714762E+04 0.  0.
        5    1    3    3  502    0  0.97710822242E+03 -0.47651235845E+02  0.75913174221E+03  0.12382706532E+04  0.46999998093E+01 0.  1.
       -5    1    3    3    0  502 -0.97710822242E+03  0.47651235845E+02  0.72033713275E+02  0.98092918422E+03  0.46999998093E+01 0. -1.
</event>
<event>
 5   0  0.1893687E-04  0.1992236E+04  0.7818609E-02  0.8610259E-01
        2   -1    0    0  501    0  0.00000000000E+00  0.00000000000E+00  0.13305740493E+04  0.13305740493E+04  0.25500000920E-02 0. -1.
       -2   -1    0    0    0  501  0.00000000000E+00  0.00000000000E+00 -0.74573142150E+03  0.74573142151E+03  0.25500000920E-02 0.  1.
    10030    2    1    2    0    0  0.00000000000E+00  0.00000000000E+00  0.58484262783E+03  0.20763054708E+04  0.19922358066E+04 0.  0.
        4    1    3    3  502    0 -0.15355424944E+03 -0.46306791680E+03  0.11975385689E+04  0.12931013262E+04  0.12699999809E+01 0. -1.
       -4    1    3    3    0  502  0.15355424944E+03  0.46306791680E+03 -0.61269594103E+03  0.78320414462E+03  0.12699999809E+01 0.  1.
</event>
<event>
 5   0  0.8577422E-05  0.1506137E+04  0.7818609E-02  0.8880382E-01
       -1   -1    0    0    0  501  0.00000000000E+00  0.00000000000E+00  0.51238342982E+03  0.51238342984E+03  0.50400001928E-02 0.  1.
        1   -1    0    0  501    0  0.00000000000E+00  0.00000000000E+00 -0.11068122518E+04  0.11068122518E+04  0.50400001928E-02 0. -1.
    10030    2    1    2    0    0  0.00000000000E+00  0.00000000000E+00 -0.59442882199E+03  0.16191956817E+04  0.15061371223E+04 0.  0.
        2    1    3    3  502    0  0.66793203379E+03 -0.30889463834E+03 -0.12532778782E+03  0.74649591678E+03  0.25500000920E-02 0. -1.
       -2    1    3    3    0  502 -0.66793203379E+03  0.30889463834E+03 -0.46910103417E+03  0.87269976488E+03  0.25500000920E-02 0.  1.
</event>
<event>
 5   0  0.8765057E-05  0.1962548E+04  0.7818609E-02  0.8624334E-01
        1   -1    0    0  501    0  0.00000000000E+00  0.00000000000E+00  0.44934494602E+03  0.44934494605E+03  0.50400001928E-02 0.  1.
       -1   -1    0    0    0  501  0.00000000000E+00  0.00000000000E+00 -0.21428944344E+04  0.21428944344E+04  0.50400001928E-02 0. -1.
    10030    2    1    2    0    0  0.00000000000E+00  0.00000000000E+00 -0.16935494884E+04  0.25922393804E+04  0.19625481232E+04 0.  0.
        3    1    3    3  502    0  0.64448348933E+03 -0.19583263114E+03 -0.17893031775E+04  0.19118878782E+04  0.10100000352E+00 0. -1.
       -3    1    3    3    0  502 -0.64448348933E+03  0.19583263114E+03  0.95753689157E+02  0.68035150226E+03  0.10100000352E+00 0.  1.
</event>
<event>
 5   0  0.8765057E-05  0.2038492E+04  0.7818609E-02  0.8588833E-01
       -1   -1    0    0    0  501  0.00000000000E+00  0.00000000000E+00  0.15991216421E+04  0.15991216422E+04  0.50400001928E-02 0. -1.
        1   -1    0    0  501    0  0.00000000000E+00  0.00000000000E+00 -0.64964575042E+03  0.64964575044E+03  0.50400001928E-02 0.  1.
    10030    2    1    2    0    0  0.00000000000E+00  0.00000000000E+00  0.94947589172E+03  0.22487673926E+04  0.20384921675E+04 0.  0.
        3    1    3    3  502    0  0.33551485731E+03 -0.37577693105E+03 -0.50270983436E+03  0.71168511938E+03  0.10100000352E+00 0.  1.
       -3    1    3    3    0  502 -0.33551485731E+03  0.37577693105E+03  0.14521857261E+04  0.15370822732E+04  0.10100000352E+00 0. -1.
</event>
<event>
 5   0  0.1782172E-04  0.2011331E+04  0.7818609E-02  0.8601341E-01
       -2   -1    0    0    0  501  0.00000000000E+00  0.00000000000E+00  0.80392852293E+03  0.80392852293E+03  0.25500000920E-02 0. -1.
        2   -1    0    0  501    0  0.00000000000E+00  0.00000000000E+00 -0.12580260017E+04  0.12580260017E+04  0.25500000920E-02 0.  1.
    10030    2    1    2    0    0  0.00000000000E+00  0.00000000000E+00 -0.45409747872E+03  0.20619545246E+04  0.20113308881E+04 0.  0.
        2    1    3    3  502    0 -0.92019295134E+03  0.10344155207E+03 -0.62923369641E+03  0.11195491356E+04  0.25500000920E-02 0.  1.
       -2    1    3    3    0  502  0.92019295134E+03 -0.10344155207E+03  0.17513621769E+03  0.94240538896E+03  0.25500000920E-02 0. -1.
</event>
<event>
 5   0  0.8861350E-05  0.1943975E+04  0.7818609E-02  0.8633271E-01
       -1   -1    0    0    0  501  0.00000000000E+00  0.00000000000E+00  0.87329638732E+03  0.87329638733E+03  0.50400001928E-02 0.  1.
        1   -1    0    0  501    0  0.00000000000E+00  0.00000000000E+00 -0.10818321163E+04  0.10818321163E+04  0.50400001928E-02 0. -1.
    10030    2    1    2    0    0  0.00000000000E+00  0.00000000000E+00 -0.20853572895E+03  0.19551285036E+04  0.19439753896E+04 0.  0.
        1    1    3    3  502    0  0.32402499625E+03 -0.76900249797E+03  0.39699207453E+03  0.92409942503E+03  0.50400001928E-02 0.  1.
       -1    1    3    3    0  502 -0.32402499625E+03  0.76900249797E+03 -0.60552780348E+03  0.10310290786E+04  0.50400001928E-02 0. -1.
</event>
<event>
 5   0  0.1807498E-04  0.2004306E+04  0.7818609E-02  0.8604610E-01
        2   -1    0    0  501    0  0.00000000000E+00  0.00000000000E+00  0.11258654795E+04  0.11258654795E+04  0.25500000920E-02 0.  1.
       -2   -1    0    0    0  501  0.00000000000E+00  0.00000000000E+00 -0.89203410870E+03  0.89203410870E+03  0.25500000920E-02 0. -1.
    10030    2    1    2    0    0  0.00000000000E+00  0.00000000000E+00  0.23383137075E+03  0.20178995882E+04  0.20043057746E+04 0.  0.
        5    1    3    3  502    0  0.92159856783E+03  0.22759952311E+03 -0.20642112593E+03  0.97148197841E+03  0.46999998093E+01 0.  1.
       -5    1    3    3    0  502 -0.92159856783E+03 -0.22759952311E+03  0.44025249669E+03  0.10464176097E+04  0.46999998093E+01 0. -1.
</event>
<event>
 5   0  0.8765057E-05  0.1877956E+04  0.7818609E-02  0.8665908E-01
       -1   -1    0    0    0  501  0.00000000000E+00  0.00000000000E+00  0.45649968306E+03  0.45649968308E+03  0.50400001928E-02 0. -1.
        1   -1    0    0  501    0  0.00000000000E+00  0.00000000000E+00 -0.19313912533E+04  0.19313912533E+04  0.50400001928E-02 0.  1.
    10030    2    1    2    0    0  0.00000000000E+00  0.00000000000E+00 -0.14748915702E+04  0.23878909364E+04  0.18779557982E+04 0.  0.
        3    1    3    3  502    0  0.45936176882E+03  0.58772762797E+03 -0.14626039759E+04  0.16418426843E+04  0.10100000352E+00 0.  1.
       -3    1    3    3    0  502 -0.45936176882E+03 -0.58772762797E+03 -0.12287594346E+02  0.74604825213E+03  0.10100000352E+00 0. -1.
</event>
<event>
 5   0  0.1782172E-04  0.1948139E+04  0.7818609E-02  0.8631259E-01
        2   -1    0    0  501    0  0.00000000000E+00  0.00000000000E+00  0.11456623514E+04  0.11456623514E+04  0.25500000920E-02 0. -1.
       -2   -1    0    0    0  501  0.00000000000E+00  0.00000000000E+00 -0.82817746233E+03  0.82817746233E+03  0.25500000920E-02 0.  1.
    10030    2    1    2    0    0  0.00000000000E+00  0.00000000000E+00  0.31748488906E+03  0.19738398137E+04  0.19481393573E+04 0.  0.
        2    1    3    3  502    0 -0.78061176413E+03  0.80592736460E+02  0.74338322451E+03  0.10809572304E+04  0.25500000920E-02 0. -1.
       -2    1    3    3    0  502  0.78061176413E+03 -0.80592736460E+02 -0.42589833544E+03  0.89288258333E+03  0.25500000920E-02 0.  1.
</event>
<event>
 5   0  0.6531625E-05  0.1980724E+04  0.7818609E-02  0.8615686E-01
        3   -1    0    0  501    0  0.00000000000E+00  0.00000000000E+00  0.12374076283E+04  0.12374076324E+04  0.10100000352E+00 0. -1.
       -3   -1    0    0    0  501  0.00000000000E+00  0.00000000000E+00 -0.79263875042E+03  0.79263875685E+03  0.10100000352E+00 0.  1.
    10030    2    1    2    0    0  0.00000000000E+00  0.00000000000E+00  0.44476887788E+03  0.20300463893E+04  0.19807243594E+04 0.  0.
        5    1    3    3  502    0 -0.20580468116E+03  0.77564677817E+03  0.81719063263E+03  0.11453410459E+04  0.46999998093E+01 0. -1.
       -5    1    3    3    0  502  0.20580468116E+03 -0.77564677817E+03 -0.37242175474E+03  0.88470534342E+03  0.46999998093E+01 0.  1.
</event>
<event>
 5   0  0.1807498E-04  0.2020683E+04  0.7818609E-02  0.8597011E-01
       -2   -1    0    0    0  501  0.00000000000E+00  0.00000000000E+00  0.94248984455E+03  0.94248984456E+03  0.25500000920E-02 0. -1.
        2   -1    0    0  501    0  0.00000000000E+00  0.00000000000E+00 -0.10830780956E+04  0.10830780956E+04  0.25500000920E-02 0.  1.
    10030    2    1    2    0    0  0.00000000000E+00  0.00000000000E+00 -0.14058825103E+03  0.20255679401E+04  0.20206831577E+04 0.  0.
        5    1    3    3  502    0  0.44699974569E+03 -0.93080669789E+01  0.83791628030E+03  0.94974796422E+03  0.46999998093E+01 0. -1.
       -5    1    3    3    0  502 -0.44699974569E+03  0.93080669789E+01 -0.97850453133E+03  0.10758199759E+04  0.46999998093E+01 0.  1.
</event>
<event>
 5   0  0.8861350E-05  0.2013018E+04  0.7818609E-02  0.8600558E-01
        1   -1    0    0  501    0  0.00000000000E+00  0.00000000000E+00  0.12269883052E+04  0.12269883053E+04  0.50400001928E-02 0. -1.
       -1   -1    0    0    0  501  0.00000000000E+00  0.00000000000E+00 -0.82564785685E+03  0.82564785686E+03  0.50400001928E-02 0.  1.
    10030    2    1    2    0    0  0.00000000000E+00  0.00000000000E+00  0.40134044840E+03  0.20526361621E+04  0.20130178982E+04 0.  0.
        1    1    3    3  502    0  0.26514660762E+03  0.46490374668E+03 -0.66852758911E+03  0.85636870251E+03  0.50400001928E-02 0.  1.
       -1    1    3    3    0  502 -0.26514660762E+03 -0.46490374668E+03  0.10698680375E+04  0.11962674596E+04  0.50400001928E-02 0. -1.
</event>
<event>
 5   0  0.8958919E-05  0.1603157E+04  0.7818609E-02  0.8818611E-01
        1   -1    0    0  501    0  0.00000000000E+00  0.00000000000E+00  0.17940627102E+04  0.17940627102E+04  0.50400001928E-02 0. -1.
       -1   -1    0    0    0  501  0.00000000000E+00  0.00000000000E+00 -0.35814137595E+03  0.35814137598E+03  0.50400001928E-02 0.  1.
    10030    2    1    2    0    0  0.00000000000E+00  0.00000000000E+00  0.14359213343E+04  0.21522040862E+04  0.16031569950E+04 0.  0.
        4    1    3    3  502    0  0.73364037873E+03 -0.14767001334E+03  0.33238210125E+03  0.81884926102E+03  0.12699999809E+01 0. -1.
       -4    1    3    3    0  502 -0.73364037873E+03  0.14767001334E+03  0.11035392330E+04  0.13333548252E+04  0.12699999809E+01 0.  1.
</event>
<event>
 5   0  0.1812865E-04  0.1988084E+04  0.7818609E-02  0.8612212E-01
       -2   -1    0    0    0  501  0.00000000000E+00  0.00000000000E+00  0.59568863912E+03  0.59568863912E+03  0.25500000920E-02 0.  1.
        2   -1    0    0  501    0  0.00000000000E+00  0.00000000000E+00 -0.16587848676E+04  0.16587848676E+04  0.25500000920E-02 0. -1.
    10030    2    1    2    0    0  0.00000000000E+00  0.00000000000E+00 -0.10630962285E+04  0.22544735067E+04  0.19880838014E+04 0.  0.
        3    1    3    3  502    0  0.55675688184E+02  0.83844461978E+03 -0.11337723112E+04  0.14112153721E+04  0.10100000352E+00 0. -1.
       -3    1    3    3    0  502 -0.55675688184E+02 -0.83844461978E+03  0.70676082713E+02  0.84325813460E+03  0.10100000352E+00 0.  1.
</event>
<event>
 5   0  0.8881384E-05  0.1980694E+04  0.7818609E-02  0.8615700E-01
        1   -1    0    0  501    0  0.00000000000E+00  0.00000000000E+00  0.11699623318E+04  0.11699623318E+04  0.50400001928E-02 0.  1.
       -1   -1    0    0    0  501  0.00000000000E+00  0.00000000000E+00 -0.83830694680E+03  0.83830694682E+03  0.50400001928E-02 0. -1.
    10030    2    1    2    0    0  0.00000000000E+00  0.00000000000E+00  0.33165538500E+03  0.20082692786E+04  0.19806943735E+04 0.  0.
        5    1    3    3  502    0  0.58618064986E+03 -0.79168051145E+03  0.26922621560E+03  0.10212103758E+04  0.46999998093E+01 0.  1.
       -5    1    3    3    0  502 -0.58618064986E+03  0.79168051145E+03  0.62429169402E+02  0.98705890283E+03  0.46999998093E+01 0. -1.
</event>
<event>
 5   0  0.1834645E-04  0.2010172E+04  0.7818609E-02  0.8601880E-01
       -2   -1    0    0    0  501  0.00000000000E+00  0.00000000000E+00  0.61913245474E+03  0.61913245475E+03  0.25500000920E-02 0.  1.
        2   -1    0    0  501    0  0.00000000000E+00  0.00000000000E+00 -0.16316341333E+04  0.16316341333E+04  0.25500000920E-02 0. -1.
    10030    2    1    2    0    0  0.00000000000E+00  0.00000000000E+00 -0.10125016786E+04  0.22507665881E+04  0.20101717799E+04 0.  0.
        1    1    3    3  502    0  0.59418534488E+03  0.69988747778E+03 -0.96422806630E+03  0.13314031957E+04  0.50400001928E-02 0. -1.
       -1    1    3    3    0  502 -0.59418534488E+03 -0.69988747778E+03 -0.48273612294E+02  0.91936339240E+03  0.50400001928E-02 0.  1.
</event>
<event>
 5   0  0.8861350E-05  0.2010666E+04  0.7818609E-02  0.8601650E-01
        1   -1    0    0  501    0  0.00000000000E+00  0.00000000000E+00  0.14141968148E+04  0.14141968148E+04  0.50400001928E-02 0. -1.
       -1   -1    0    0    0  501  0.00000000000E+00  0.00000000000E+00 -0.71467765669E+03  0.71467765670E+03  0.50400001928E-02 0.  1.
    10030    2    1    2    0    0  0.00000000000E+00  0.00000000000E+00  0.69951915807E+03  0.21288744715E+04  0.20106664226E+04 0.  0.
        1    1    3    3  502    0  0.71474077533E+03  0.57549006304E+03 -0.85056265094E+02  0.92156267113E+03  0.50400001928E-02 0.  1.
       -1    1    3    3    0  502 -0.71474077533E+03 -0.57549006304E+03  0.78457542317E+03  0.12073118003E+04  0.50400001928E-02 0. -1.
</event>
<event>
 5   0  0.1782172E-04  0.2002507E+04  0.7818609E-02  0.8605450E-01
        2   -1    0    0  501    0  0.00000000000E+00  0.00000000000E+00  0.11749138624E+04  0.11749138624E+04  0.25500000920E-02 0. -1.
       -2   -1    0    0    0  501  0.00000000000E+00  0.00000000000E+00 -0.85326125826E+03  0.85326125827E+03  0.25500000920E-02 0.  1.
    10030    2    1    2    0    0  0.00000000000E+00  0.00000000000E+00  0.32165260410E+03  0.20281751206E+04  0.20025069094E+04 0.  0.
        2    1    3    3  502    0  0.15633699481E+03 -0.91258739678E+03 -0.22517759802E+03  0.95287038119E+03  0.25500000920E-02 0.  1.
       -2    1    3    3    0  502 -0.15633699481E+03  0.91258739678E+03  0.54683020211E+03  0.10753047394E+04  0.25500000920E-02 0. -1.
</event>
<event>
 5   0  0.8765057E-05  0.2064537E+04  0.7818609E-02  0.8577028E-01
       -1   -1    0    0    0  501  0.00000000000E+00  0.00000000000E+00  0.47195258710E+03  0.47195258713E+03  0.50400001928E-02 0.  1.
        1   -1    0    0  501    0  0.00000000000E+00  0.00000000000E+00 -0.22578077468E+04  0.22578077468E+04  0.50400001928E-02 0. -1.
    10030    2    1    2    0    0  0.00000000000E+00  0.00000000000E+00 -0.17858551597E+04  0.27297603340E+04  0.20645369528E+04 0.  0.
        3    1    3    3  502    0 -0.75957846547E+03  0.69228526966E+03 -0.10208469972E+04  0.14485672031E+04  0.10100000352E+00 0.  1.
       -3    1    3    3    0  502  0.75957846547E+03 -0.69228526966E+03 -0.76500816249E+03  0.12811931309E+04  0.10100000352E+00 0. -1.
</event>
<event>
 5   0  0.1893687E-04  0.1963285E+04  0.7818609E-02  0.8623981E-01
       -2   -1    0    0    0  501  0.00000000000E+00  0.00000000000E+00  0.77783808548E+03  0.77783808548E+03  0.25500000920E-02 0. -1.
        2   -1    0    0  501    0  0.00000000000E+00  0.00000000000E+00 -0.12388465647E+04  0.12388465647E+04  0.25500000920E-02 0.  1.
    10030    2    1    2    0    0  0.00000000000E+00  0.00000000000E+00 -0.46100847919E+03  0.20166846502E+04  0.19632850431E+04 0.  0.
        4    1    3    3  502    0  0.71922196221E+03  0.43576567264E+02 -0.91530120805E+03  0.11648849997E+04  0.12699999809E+01 0.  1.
       -4    1    3    3    0  502 -0.71922196221E+03 -0.43576567264E+02  0.45429272886E+03  0.85179965046E+03  0.12699999809E+01 0. -1.
</event>
<event>
 5   0  0.1834645E-04  0.2083188E+04  0.7818609E-02  0.8568686E-01
        2   -1    0    0  501    0  0.00000000000E+00  0.00000000000E+00  0.10978953895E+04  0.10978953895E+04  0.25500000920E-02 0. -1.
       -2   -1    0    0    0  501  0.00000000000E+00  0.00000000000E+00 -0.98817951403E+03  0.98817951403E+03  0.25500000920E-02 0.  1.
    10030    2    1    2    0    0  0.00000000000E+00  0.00000000000E+00  0.10971587547E+03  0.20860749035E+04  0.20831876847E+04 0.  0.
        1    1    3    3  502    0 -0.15380960956E+03  0.60276237179E+03 -0.78172668491E+03  0.99903777844E+03  0.50400001928E-02 0.  1.
       -1    1    3    3    0  502  0.15380960956E+03 -0.60276237179E+03  0.89144256037E+03  0.10870371251E+04  0.50400001928E-02 0. -1.
</event>
<event>
 5   0  0.8765057E-05  0.2030553E+04  0.7818609E-02  0.8592468E-01
        1   -1    0    0  501    0  0.00000000000E+00  0.00000000000E+00  0.10446261643E+04  0.10446261643E+04  0.50400001928E-02 0. -1.
       -1   -1    0    0    0  501  0.00000000000E+00  0.00000000000E+00 -0.98675159643E+03  0.98675159644E+03  0.50400001928E-02 0.  1.
    10030    2    1    2    0    0  0.00000000000E+00  0.00000000000E+00  0.57874567864E+02  0.20313777607E+04  0.20305531614E+04 0.  0.
        3    1    3    3  502    0 -0.28343397799E+03  0.23828471333E+03  0.97466350287E+03  0.10426329069E+04  0.10100000352E+00 0. -1.
       -3    1    3    3    0  502  0.28343397799E+03 -0.23828471333E+03 -0.91678893501E+03  0.98874485386E+03  0.10100000352E+00 0.  1.
</event>
<event>
 5   0  0.8881384E-05  0.1983778E+04  0.7818609E-02  0.8614242E-01
       -1   -1    0    0    0  501  0.00000000000E+00  0.00000000000E+00  0.75369160760E+03  0.75369160762E+03  0.50400001928E-02 0.  1.
        1   -1    0    0  501    0  0.00000000000E+00  0.00000000000E+00 -0.13053671728E+04  0.13053671728E+04  0.50400001928E-02 0. -1.
    10030    2    1    2    0    0  0.00000000000E+00  0.00000000000E+00 -0.55167556523E+03  0.20590587805E+04  0.19837784988E+04 0.  0.
        5    1    3    3  502    0  0.65798314254E+03  0.57119238058E+03 -0.76776339028E+03  0.11613290942E+04  0.46999998093E+01 0. -1.
       -5    1    3    3    0  502 -0.65798314254E+03 -0.57119238058E+03  0.21608782506E+03  0.89772968629E+03  0.46999998093E+01 0.  1.
</event>
<event>
 5   0  0.8765057E-05  0.1999559E+04  0.7818609E-02  0.8606827E-01
       -1   -1    0    0    0  501  0.00000000000E+00  0.00000000000E+00  0.99339872706E+03  0.99339872707E+03  0.50400001928E-02 0. -1.
        1   -1    0    0  501    0  0.00000000000E+00  0.00000000000E+00 -0.10062008879E+04  0.10062008879E+04  0.50400001928E-02 0.  1.
    10030    2    1    2    0    0  0.00000000000E+00  0.00000000000E+00 -0.12802160824E+02  0.19995996150E+04  0.19995586325E+04 0.  0.
        3    1    3    3  502    0 -0.10748815600E+03 -0.82227028341E+03  0.55206944950E+03  0.99622427692E+03  0.10100000352E+00 0. -1.
       -3    1    3    3    0  502  0.10748815600E+03  0.82227028341E+03 -0.56487161032E+03  0.10033753381E+04  0.10100000352E+00 0.  1.
</event>
<event>
 5   0  0.6531625E-05  0.2011957E+04  0.7818609E-02  0.8601051E-01
       -3   -1    0    0    0  501  0.00000000000E+00  0.00000000000E+00  0.72781213996E+03  0.72781214697E+03  0.10100000352E+00 0. -1.
        3   -1    0    0  501    0  0.00000000000E+00  0.00000000000E+00 -0.13904581714E+04  0.13904581751E+04  0.10100000352E+00 0.  1.
    10030    2    1    2    0    0  0.00000000000E+00  0.00000000000E+00 -0.66264603143E+03  0.21182703220E+04  0.20119566084E+04 0.  0.
        2    1    3    3  502    0 -0.24081177664E+03  0.35306486934E+03  0.62748348956E+03  0.75919736789E+03  0.25500000920E-02 0. -1.
       -2    1    3    3    0  502  0.24081177664E+03 -0.35306486934E+03 -0.12901295210E+04  0.13590729541E+04  0.25500000920E-02 0.  1.
</event>
<event>
 5   0  0.1782172E-04  0.2009445E+04  0.7818609E-02  0.8602218E-01
       -2   -1    0    0    0  501  0.00000000000E+00  0.00000000000E+00  0.48242073659E+03  0.48242073660E+03  0.25500000920E-02 0.  1.
        2   -1    0    0  501    0  0.00000000000E+00  0.00000000000E+00 -0.20925033033E+04  0.20925033033E+04  0.25500000920E-02 0. -1.
    10030    2    1    2    0    0  0.00000000000E+00  0.00000000000E+00 -0.16100825667E+04  0.25749240399E+04  0.20094446844E+04 0.  0.
        2    1    3    3  502    0 -0.71686801195E+03 -0.69098246285E+03 -0.97748734463E+03  0.13952913744E+04  0.25500000920E-02 0.  1.
       -2    1    3    3    0  502  0.71686801195E+03  0.69098246285E+03 -0.63259522209E+03  0.11796326655E+04  0.25500000920E-02 0. -1.
</event>
<event>
 5   0  0.8765057E-05  0.2006551E+04  0.7818609E-02  0.8603564E-01
       -1   -1    0    0    0  501  0.00000000000E+00  0.00000000000E+00  0.11197361409E+04  0.11197361409E+04  0.50400001928E-02 0. -1.
        1   -1    0    0  501    0  0.00000000000E+00  0.00000000000E+00 -0.89892760099E+03  0.89892760100E+03  0.50400001928E-02 0.  1.
    10030    2    1    2    0    0  0.00000000000E+00  0.00000000000E+00  0.22080853987E+03  0.20186637419E+04  0.20065509940E+04 0.  0.
        3    1    3    3  502    0  0.85110163306E+03 -0.41738728183E+03 -0.22017571361E+03  0.97317186966E+03  0.10100000352E+00 0.  1.
       -3    1    3    3    0  502 -0.85110163306E+03  0.41738728183E+03  0.44098425347E+03  0.10454918722E+04  0.10100000352E+00 0. -1.
</event>
<event>
 5   0  0.1834645E-04  0.2030650E+04  0.7818609E-02  0.8592423E-01
        2   -1    0    0  501    0  0.00000000000E+00  0.00000000000E+00  0.24543472613E+04  0.24543472613E+04  0.25500000920E-02 0.  1.
       -2   -1    0    0    0  501  0.00000000000E+00  0.00000000000E+00 -0.42002397276E+03  0.42002397277E+03  0.25500000920E-02 0. -1.
    10030    2    1    2    0    0  0.00000000000E+00  0.00000000000E+00  0.20343232885E+04  0.28743712340E+04  0.20306498341E+04 0.  0.
        1    1    3    3  502    0  0.28564540493E+03  0.48583175890E+01 -0.36195877788E+03  0.46111935279E+03  0.50400001928E-02 0. -1.
       -1    1    3    3    0  502 -0.28564540493E+03 -0.48583175890E+01  0.23962820664E+04  0.24132518812E+04  0.50400001928E-02 0.  1.
</event>
<event>
 5   0  0.1893687E-04  0.2007537E+04  0.7818609E-02  0.8603105E-01
       -2   -1    0    0    0  501  0.00000000000E+00  0.00000000000E+00  0.20865089107E+04  0.20865089107E+04  0.25500000920E-02 0. -1.
        2   -1    0    0  501    0  0.00000000000E+00  0.00000000000E+00 -0.48288862970E+03  0.48288862970E+03  0.25500000920E-02 0.  1.
    10030    2    1    2    0    0  0.00000000000E+00  0.00000000000E+00  0.16036202810E+04  0.25693975404E+04  0.20075372263E+04 0.  0.
        4    1    3    3  502    0  0.11573980061E+03 -0.18134656728E+03  0.20566544188E+04  0.20678760336E+04  0.12699999809E+01 0. -1.
       -4    1    3    3    0  502 -0.11573980061E+03  0.18134656728E+03 -0.45303413780E+03  0.50152150684E+03  0.12699999809E+01 0.  1.
</event>
<event>
 5   0  0.8881384E-05  0.1966474E+04  0.7818609E-02  0.8622457E-01
       -1   -1    0    0    0  501  0.00000000000E+00  0.00000000000E+00  0.62157073104E+03  0.62157073106E+03  0.50400001928E-02 0.  1.
        1   -1    0    0  501    0  0.00000000000E+00  0.00000000000E+00 -0.15553426217E+04  0.15553426217E+04  0.50400001928E-02 0. -1.
    10030    2    1    2    0    0  0.00000000000E+00  0.00000000000E+00 -0.93377189068E+03  0.21769133528E+04  0.19664744600E+04 0.  0.
        5    1    3    3  502    0 -0.26778486659E+03 -0.42026211745E+03 -0.14051764432E+04  0.14909298805E+04  0.46999998093E+01 0. -1.
       -5    1    3    3    0  502  0.26778486659E+03  0.42026211745E+03  0.47140455249E+03  0.68598347228E+03  0.46999998093E+01 0.  1.
</event>
<event>
 5   0  0.1812865E-04  0.1997372E+04  0.7818609E-02  0.8607850E-01
        2   -1    0    0  501    0  0.00000000000E+00  0.00000000000E+00  0.12477066974E+04  0.12477066974E+04  0.25500000920E-02 0. -1.
       -2   -1    0    0    0  501  0.00000000000E+00  0.00000000000E+00 -0.79936544255E+03  0.79936544255E+03  0.25500000920E-02 0.  1.
    10030    2    1    2    0    0  0.00000000000E+00  0.00000000000E+00  0.44834125482E+03  0.20470721399E+04  0.19973718896E+04 0.  0.
        3    1    3    3  502    0  0.59277515668E+03  0.60259399193E+03 -0.32092031427E+03  0.90415251136E+03  0.10100000352E+00 0.  1.
       -3    1    3    3    0  502 -0.59277515668E+03 -0.60259399193E+03  0.76926156909E+03  0.11429196286E+04  0.10100000352E+00 0. -1.
</event>
<event>
 5   0  0.1812865E-04  0.1990354E+04  0.7818609E-02  0.8611144E-01
       -2   -1    0    0    0  501  0.00000000000E+00  0.00000000000E+00  0.83609257676E+03  0.83609257676E+03  0.25500000920E-02 0. -1.
        2   -1    0    0  501    0  0.00000000000E+00  0.00000000000E+00 -0.11845309438E+04  0.11845309438E+04  0.25500000920E-02 0.  1.
    10030    2    1    2    0    0  0.00000000000E+00  0.00000000000E+00 -0.34843836704E+03  0.20206235206E+04  0.19903542690E+04 0.  0.
        3    1    3    3  502    0 -0.72271017582E+03  0.15528938179E+03 -0.85064999897E+03  0.11269561754E+04  0.10100000352E+00 0.  1.
       -3    1    3    3    0  502  0.72271017582E+03 -0.15528938179E+03  0.50221163194E+03  0.89366734515E+03  0.10100000352E+00 0. -1.
</event>
<event>
 5   0  0.8577422E-05  0.2062422E+04  0.7818609E-02  0.8577980E-01
        1   -1    0    0  501    0  0.00000000000E+00  0.00000000000E+00  0.92976864794E+03  0.92976864796E+03  0.50400001928E-02 0.  1.
       -1   -1    0    0    0  501  0.00000000000E+00  0.00000000000E+00 -0.11437210594E+04  0.11437210594E+04  0.50400001928E-02 0. -1.
    10030    2    1    2    0    0  0.00000000000E+00  0.00000000000E+00 -0.21395241144E+03  0.20734897073E+04  0.20624218609E+04 0.  0.
        2    1    3    3  502    0  0.60055546619E+03 -0.32877915096E+03 -0.88223914737E+03  0.11167401270E+04  0.25500000920E-02 0. -1.
       -2    1    3    3    0  502 -0.60055546619E+03  0.32877915096E+03  0.66828673593E+03  0.95674958035E+03  0.25500000920E-02 0.  1.
</event>
<event>
 5   0  0.8881384E-05  0.1995859E+04  0.7818609E-02  0.8608559E-01
       -1   -1    0    0    0  501  0.00000000000E+00  0.00000000000E+00  0.93360499437E+03  0.93360499439E+03  0.50400001928E-02 0.  1.
        1   -1    0    0  501    0  0.00000000000E+00  0.00000000000E+00 -0.10666855358E+04  0.10666855358E+04  0.50400001928E-02 0. -1.
    10030    2    1    2    0    0  0.00000000000E+00  0.00000000000E+00 -0.13308054143E+03  0.20002905302E+04  0.19958586560E+04 0.  0.
        5    1    3    3  502    0 -0.17009548960E+03 -0.94300283045E+03 -0.34582380011E+03  0.10187261676E+04  0.46999998093E+01 0.  1.
       -5    1    3    3    0  502  0.17009548960E+03  0.94300283045E+03  0.21274325869E+03  0.98156436261E+03  0.46999998093E+01 0. -1.
</event>
<event>
 5   0  0.8861350E-05  0.2026506E+04  0.7818609E-02  0.8594328E-01
        1   -1    0    0  501    0  0.00000000000E+00  0.00000000000E+00  0.11562384844E+04  0.11562384844E+04  0.50400001928E-02 0. -1.
       -1   -1    0    0    0  501  0.00000000000E+00  0.00000000000E+00 -0.88794983973E+03  0.88794983974E+03  0.50400001928E-02 0.  1.
    10030    2    1    2    0    0  0.00000000000E+00  0.00000000000E+00  0.26828864463E+03  0.20441883241E+04  0.20265061331E+04 0.  0.
        1    1    3    3  502    0  0.24851730298E+03  0.14194659916E+02 -0.85662715540E+03  0.89206077239E+03  0.50400001928E-02 0.  1.
       -1    1    3    3    0  502 -0.24851730298E+03 -0.14194659916E+02  0.11249158000E+04  0.11521275517E+04  0.50400001928E-02 0. -1.
</event>
<event>
 5   0  0.1807498E-04  0.2040930E+04  0.7818609E-02  0.8587720E-01
       -2   -1    0    0    0  501  0.00000000000E+00  0.00000000000E+00  0.83350423637E+03  0.83350423637E+03  0.25500000920E-02 0.  1.
        2   -1    0    0  501    0  0.00000000000E+00  0.00000000000E+00 -0.12493619558E+04  0.12493619558E+04  0.25500000920E-02 0. -1.
    10030    2    1    2    0    0  0.00000000000E+00  0.00000000000E+00 -0.41585771940E+03  0.20828661921E+04  0.20409296734E+04 0.  0.
        5    1    3    3  502    0  0.23496384192E+03 -0.87298473306E+03  0.27509978973E+03  0.94499329916E+03  0.46999998093E+01 0.  1.
       -5    1    3    3    0  502 -0.23496384192E+03  0.87298473306E+03 -0.69095750913E+03  0.11378728930E+04  0.46999998093E+01 0. -1.
</event>
<event>
 5   0  0.1812865E-04  0.1990801E+04  0.7818609E-02  0.8610934E-01
       -2   -1    0    0    0  501  0.00000000000E+00  0.00000000000E+00  0.76564910789E+03  0.76564910790E+03  0.25500000920E-02 0.  1.
        2   -1    0    0  501    0  0.00000000000E+00  0.00000000000E+00 -0.12940944443E+04  0.12940944443E+04  0.25500000920E-02 0. -1.
    10030    2    1    2    0    0  0.00000000000E+00  0.00000000000E+00 -0.52844533643E+03  0.20597435522E+04  0.19908011019E+04 0.  0.
        3    1    3    3  502    0 -0.54351155074E+03  0.74829416965E+03  0.11659062221E+03  0.93217077486E+03  0.10100000352E+00 0.  1.
       -3    1    3    3    0  502  0.54351155074E+03 -0.74829416965E+03 -0.64503595864E+03  0.11275727774E+04  0.10100000352E+00 0. -1.
</event>
<event>
 5   0  0.1893687E-04  0.2012866E+04  0.7818609E-02  0.8600629E-01
       -2   -1    0    0    0  501  0.00000000000E+00  0.00000000000E+00  0.52554513491E+03  0.52554513492E+03  0.25500000920E-02 0. -1.
        2   -1    0    0  501    0  0.00000000000E+00  0.00000000000E+00 -0.19273459464E+04  0.19273459464E+04  0.25500000920E-02 0.  1.
    10030    2    1    2    0    0  0.00000000000E+00  0.00000000000E+00 -0.14018008115E+04  0.24528910813E+04  0.20128659026E+04 0.  0.
        4    1    3    3  502    0 -0.89327119696E+03 -0.21012408425E+03 -0.12045551395E+04  0.15142787918E+04  0.12699999809E+01 0. -1.
       -4    1    3    3    0  502  0.89327119696E+03  0.21012408425E+03 -0.19724567196E+03  0.93861228956E+03  0.12699999809E+01 0.  1.
</event>
<event>
 5   0  0.1812865E-04  0.1955233E+04  0.7818609E-02  0.8627841E-01
        2   -1    0    0  501    0  0.00000000000E+00  0.00000000000E+00  0.16867783102E+04  0.16867783102E+04  0.25500000920E-02 0.  1.
       -2   -1    0    0    0  501  0.00000000000E+00  0.00000000000E+00 -0.56660322621E+03  0.56660322621E+03  0.25500000920E-02 0. -1.
    10030    2    1    2    0    0  0.00000000000E+00  0.00000000000E+00  0.11201750839E+04  0.22533815364E+04  0.19552330116E+04 0.  0.
        3    1    3    3  502    0 -0.24736178998E+03 -0.64586554239E+03 -0.23621697124E+03  0.73084103722E+03  0.10100000352E+00 0. -1.
       -3    1    3    3    0  502  0.24736178998E+03  0.64586554239E+03  0.13563920552E+04  0.15225404992E+04  0.10100000352E+00 0.  1.
</event>
<event>
 5   0  0.8881384E-05  0.1988481E+04  0.7818609E-02  0.8612025E-01
       -1   -1    0    0    0  501  0.00000000000E+00  0.00000000000E+00  0.52895112540E+03  0.52895112542E+03  0.50400001928E-02 0.  1.
        1   -1    0    0  501    0  0.00000000000E+00  0.00000000000E+00 -0.18688194265E+04  0.18688194265E+04  0.50400001928E-02 0. -1.
    10030    2    1    2    0    0  0.00000000000E+00  0.00000000000E+00 -0.13398683011E+04  0.23977705520E+04  0.19884809668E+04 0.  0.
        5    1    3    3  502    0  0.36993627808E+03 -0.67863386723E+03  0.84163290940E+02  0.77749747596E+03  0.46999998093E+01 0. -1.
       -5    1    3    3    0  502 -0.36993627808E+03  0.67863386723E+03 -0.14240315921E+04  0.16202730760E+04  0.46999998093E+01 0.  1.
</event>
<event>
 5   0  0.8958919E-05  0.2080865E+04  0.7818609E-02  0.8569720E-01
       -1   -1    0    0    0  501  0.00000000000E+00  0.00000000000E+00  0.41005878966E+03  0.41005878970E+03  0.50400001928E-02 0.  1.
        1   -1    0    0  501    0  0.00000000000E+00  0.00000000000E+00 -0.26398652634E+04  0.26398652634E+04  0.50400001928E-02 0. -1.
    10030    2    1    2    0    0  0.00000000000E+00  0.00000000000E+00 -0.22298064737E+04  0.30499240531E+04  0.20808651613E+04 0.  0.
        4    1    3    3  502    0 -0.48062452070E+03  0.41637434484E+03  0.92081633854E+02  0.64253261796E+03  0.12699999809E+01 0.  1.
       -4    1    3    3    0  502  0.48062452070E+03 -0.41637434484E+03 -0.23218881076E+04  0.24073914351E+04  0.12699999809E+01 0. -1.
</event>
<event>
 5   0  0.8881384E-05  0.2016001E+04  0.7818609E-02  0.8599176E-01
        1   -1    0    0  501    0  0.00000000000E+00  0.00000000000E+00  0.68961110086E+03  0.68961110088E+03  0.50400001928E-02 0.  1.
       -1   -1    0    0    0  501  0.00000000000E+00  0.00000000000E+00 -0.14733887808E+04  0.14733887808E+04  0.50400001928E-02 0. -1.
    10030    2    1    2    0    0  0.00000000000E+00  0.00000000000E+00 -0.78377767993E+03  0.21629998817E+04  0.20160012491E+04 0.  0.
        5    1    3    3  502    0 -0.42991712395E+03  0.12311467997E+03  0.57733927224E+03  0.73029355958E+03  0.46999998093E+01 0.  1.
       -5    1    3    3    0  502  0.42991712395E+03 -0.12311467997E+03 -0.13611169522E+04  0.14327063221E+04  0.46999998093E+01 0. -1.
</event>
<event>
 5   0  0.8958919E-05  0.2002166E+04  0.7818609E-02  0.8605609E-01
       -1   -1    0    0    0  501  0.00000000000E+00  0.00000000000E+00  0.76950651414E+03  0.76950651416E+03  0.50400001928E-02 0.  1.
        1   -1    0    0  501    0  0.00000000000E+00  0.00000000000E+00 -0.13023500195E+04  0.13023500195E+04  0.50400001928E-02 0. -1.
    10030    2    1    2    0    0  0.00000000000E+00  0.00000000000E+00 -0.53284350533E+03  0.20718565336E+04  0.20021656512E+04 0.  0.
        4    1    3    3  502    0  0.20456852674E+03 -0.44764671389E+03 -0.11685043017E+04  0.12679273554E+04  0.12699999809E+01 0. -1.
       -4    1    3    3    0  502 -0.20456852674E+03  0.44764671389E+03  0.63566079640E+03  0.80392917821E+03  0.12699999809E+01 0.  1.
</event>
<event>
 5   0  0.1812865E-04  0.1996673E+04  0.7818609E-02  0.8608178E-01
       -2   -1    0    0    0  501  0.00000000000E+00  0.00000000000E+00  0.51179088418E+03  0.51179088419E+03  0.25500000920E-02 0. -1.
        2   -1    0    0  501    0  0.00000000000E+00  0.00000000000E+00 -0.19474284215E+04  0.19474284215E+04  0.25500000920E-02 0.  1.
    10030    2    1    2    0    0  0.00000000000E+00  0.00000000000E+00 -0.14356375373E+04  0.24592193057E+04  0.19966733471E+04 0.  0.
        3    1    3    3  502    0  0.43868456488E+03 -0.62005571256E+03 -0.15157992136E+04  0.16954528894E+04  0.10100000352E+00 0.  1.
       -3    1    3    3    0  502 -0.43868456488E+03  0.62005571256E+03  0.80161676218E+02  0.76376641631E+03  0.10100000352E+00 0. -1.
</event>
<event>
 5   0  0.8765057E-05  0.2008339E+04  0.7818609E-02  0.8602732E-01
        1   -1    0    0  501    0  0.00000000000E+00  0.00000000000E+00  0.12805000532E+04  0.12805000532E+04  0.50400001928E-02 0. -1.
       -1   -1    0    0    0  501  0.00000000000E+00  0.00000000000E+00 -0.78747077872E+03  0.78747077874E+03  0.50400001928E-02 0.  1.
    10030    2    1    2    0    0  0.00000000000E+00  0.00000000000E+00  0.49302927448E+03  0.20679708319E+04  0.20083389894E+04 0.  0.
        3    1    3    3  502    0 -0.14721838693E+03 -0.48520694581E+03 -0.64597205787E+03  0.82120578631E+03  0.10100000352E+00 0.  1.
       -3    1    3    3    0  502  0.14721838693E+03  0.48520694581E+03  0.11390013324E+04  0.12467650456E+04  0.10100000352E+00 0. -1.
</event>
<event>
 5   0  0.1807498E-04  0.1979426E+04  0.7818609E-02  0.8616301E-01
       -2   -1    0    0    0  501  0.00000000000E+00  0.00000000000E+00  0.20904059611E+04  0.20904059611E+04  0.25500000920E-02 0. -1.
        2   -1    0    0  501    0  0.00000000000E+00  0.00000000000E+00 -0.46858442120E+03  0.46858442121E+03  0.25500000920E-02 0.  1.
    10030    2    1    2    0    0  0.00000000000E+00  0.00000000000E+00  0.16218215399E+04  0.25589903823E+04  0.19794258434E+04 0.  0.
        5    1    3    3  502    0 -0.10713831982E+03  0.83340286035E+03  0.13485151382E+03  0.85102642026E+03  0.46999998093E+01 0.  1.
       -5    1    3    3    0  502  0.10713831982E+03 -0.83340286035E+03  0.14869700261E+04  0.17079639621E+04  0.46999998093E+01 0. -1.
</event>
<event>
 5   0  0.1812865E-04  0.2030521E+04  0.7818609E-02  0.8592482E-01
       -2   -1    0    0    0  501  0.00000000000E+00  0.00000000000E+00  0.65212659948E+03  0.65212659948E+03  0.25500000920E-02 0. -1.
        2   -1    0    0  501    0  0.00000000000E+00  0.00000000000E+00 -0.15806042756E+04  0.15806042756E+04  0.25500000920E-02 0.  1.
    10030    2    1    2    0    0  0.00000000000E+00  0.00000000000E+00 -0.92847767610E+03  0.22327308751E+04  0.20305212054E+04 0.  0.
        3    1    3    3  502    0  0.13421886476E+03  0.20327163736E+03  0.61951930399E+03  0.66568629281E+03  0.10100000352E+00 0. -1.
       -3    1    3    3    0  502 -0.13421886476E+03 -0.20327163736E+03 -0.15479969801E+04  0.15670445823E+04  0.10100000352E+00 0.  1.
</event>
<event>
 5   0  0.8765057E-05  0.1800498E+04  0.7818609E-02  0.8706035E-01
       -1   -1    0    0    0  501  0.00000000000E+00  0.00000000000E+00  0.57886870214E+03  0.57886870216E+03  0.50400001928E-02 0. -1.
        1   -1    0    0  501    0  0.00000000000E+00  0.00000000000E+00 -0.14000555153E+04  0.14000555153E+04  0.50400001928E-02 0.  1.
    10030    2    1    2    0    0  0.00000000000E+00  0.00000000000E+00 -0.82118681314E+03  0.19789242174E+04  0.18004980634E+04 0.  0.
        3    1    3    3  502    0  0.95138480280E+02 -0.75789966988E+03  0.11304940949E+03  0.77216799935E+03  0.10100000352E+00 0. -1.
       -3    1    3    3    0  502 -0.95138480280E+02  0.75789966988E+03 -0.93423622262E+03  0.12067562181E+04  0.10100000352E+00 0.  1.
</event>
<event>
 5   0  0.1893687E-04  0.1983721E+04  0.7818609E-02  0.8614270E-01
        2   -1    0    0  501    0  0.00000000000E+00  0.00000000000E+00  0.74569845641E+03  0.74569845641E+03  0.25500000920E-02 0. -1.
       -2   -1    0    0    0  501  0.00000000000E+00  0.00000000000E+00 -0.13192827549E+04  0.13192827549E+04  0.25500000920E-02 0.  1.
    10030    2    1    2    0    0  0.00000000000E+00  0.00000000000E+00 -0.57358429848E+03  0.20649812113E+04  0.19837208613E+04 0.  0.
        4    1    3    3  502    0 -0.14157045031E+03 -0.90207185326E+03  0.11638432859E+03  0.92050135561E+03  0.12699999809E+01 0.  1.
       -4    1    3    3    0  502  0.14157045031E+03  0.90207185326E+03 -0.68996862707E+03  0.11444798557E+04  0.12699999809E+01 0. -1.
</event>
<event>
 5   0  0.6531625E-05  0.1993218E+04  0.7818609E-02  0.8609798E-01
       -4   -1    0    0    0  501  0.00000000000E+00  0.00000000000E+00  0.17291597547E+04  0.17291602211E+04  0.12699999809E+01 0.  1.
        4   -1    0    0  501    0  0.00000000000E+00  0.00000000000E+00 -0.57439885039E+03  0.57440025438E+03  0.12699999809E+01 0. -1.
    10030    2    1    2    0    0  0.00000000000E+00  0.00000000000E+00  0.11547609043E+04  0.23035604755E+04  0.19932180307E+04 0.  0.
        2    1    3    3  502    0  0.88209497016E+03  0.11045397834E+03  0.10980071137E+04  0.14127672276E+04  0.25500000920E-02 0.  1.
       -2    1    3    3    0  502 -0.88209497016E+03 -0.11045397834E+03  0.56753790642E+02  0.89079324788E+03  0.25500000920E-02 0. -1.
</event>
<event>
 5   0  0.8577422E-05  0.2017779E+04  0.7818609E-02  0.8598353E-01
       -1   -1    0    0    0  501  0.00000000000E+00  0.00000000000E+00  0.59616027738E+03  0.59616027741E+03  0.50400001928E-02 0. -1.
        1   -1    0    0  501    0  0.00000000000E+00  0.00000000000E+00 -0.17073569838E+04  0.17073569838E+04  0.50400001928E-02 0.  1.
    10030    2    1    2    0    0  0.00000000000E+00  0.00000000000E+00 -0.11111967064E+04  0.23035172612E+04  0.20177793864E+04 0.  0.
        2    1    3    3  502    0 -0.78236089325E+03 -0.57317684532E+03 -0.23832491070E+03  0.99870867943E+03  0.25500000920E-02 0. -1.
       -2    1    3    3    0  502  0.78236089325E+03  0.57317684532E+03 -0.87287179569E+03  0.13048085818E+04  0.25500000920E-02 0.  1.
</event>
<event>
 5   0  0.8958919E-05  0.1997900E+04  0.7818609E-02  0.8607603E-01
       -1   -1    0    0    0  501  0.00000000000E+00  0.00000000000E+00  0.59915272258E+03  0.59915272261E+03  0.50400001928E-02 0.  1.
        1   -1    0    0  501    0  0.00000000000E+00  0.00000000000E+00 -0.16655203696E+04  0.16655203696E+04  0.50400001928E-02 0. -1.
    10030    2    1    2    0    0  0.00000000000E+00  0.00000000000E+00 -0.10663676470E+04  0.22646730922E+04  0.19978999615E+04 0.  0.
        4    1    3    3  502    0  0.99846171320E+03 -0.25691767806E+02 -0.55325689742E+03  0.11417883635E+04  0.12699999809E+01 0.  1.
       -4    1    3    3    0  502 -0.99846171320E+03  0.25691767806E+02 -0.51311074962E+03  0.11228847287E+04  0.12699999809E+01 0. -1.
</event>
<event>
 5   0  0.8765057E-05  0.1976463E+04  0.7818609E-02  0.8617705E-01
        1   -1    0    0  501    0  0.00000000000E+00  0.00000000000E+00  0.75452576961E+03  0.75452576962E+03  0.50400001928E-02 0.  1.
       -1   -1    0    0    0  501  0.00000000000E+00  0.00000000000E+00 -0.12943244899E+04  0.12943244899E+04  0.50400001928E-02 0. -1.
    10030    2    1    2    0    0  0.00000000000E+00  0.00000000000E+00 -0.53979872027E+03  0.20488502595E+04  0.19764626805E+04 0.  0.
        3    1    3    3  502    0  0.29871124536E+02  0.96666978583E+03 -0.48046032345E+03  0.10799004082E+04  0.10100000352E+00 0. -1.
       -3    1    3    3    0  502 -0.29871124536E+02 -0.96666978583E+03 -0.59338396825E+02  0.96894985136E+03  0.10100000352E+00 0.  1.
</event>
<event>
 5   0  0.8881384E-05  0.2012618E+04  0.7818609E-02  0.8600744E-01
        1   -1    0    0  501    0  0.00000000000E+00  0.00000000000E+00  0.10039291337E+04  0.10039291337E+04  0.50400001928E-02 0.  1.
       -1   -1    0    0    0  501  0.00000000000E+00  0.00000000000E+00 -0.10086949994E+04  0.10086949994E+04  0.50400001928E-02 0. -1.
    10030    2    1    2    0    0  0.00000000000E+00  0.00000000000E+00 -0.47658657036E+01  0.20126241332E+04  0.20126184904E+04 0.  0.
        5    1    3    3  502    0  0.17522597854E+03 -0.89383351199E+03  0.42539591467E+03  0.10052990923E+04  0.46999998093E+01 0. -1.
       -5    1    3    3    0  502 -0.17522597854E+03  0.89383351199E+03 -0.43016178037E+03  0.10073250409E+04  0.46999998093E+01 0.  1.
</event>
<event>
 5   0  0.1812865E-04  0.1995501E+04  0.7818609E-02  0.8608727E-01
        2   -1    0    0  501    0  0.00000000000E+00  0.00000000000E+00  0.22191655362E+04  0.22191655362E+04  0.25500000920E-02 0.  1.
       -2   -1    0    0    0  501  0.00000000000E+00  0.00000000000E+00 -0.44859471147E+03  0.44859471148E+03  0.25500000920E-02 0. -1.
    10030    2    1    2    0    0  0.00000000000E+00  0.00000000000E+00  0.17705708247E+04  0.26677602477E+04  0.19955008629E+04 0.  0.
        3    1    3    3  502    0  0.82118779016E+03  0.43096375315E+03  0.13772650600E+04  0.16604030231E+04  0.10100000352E+00 0.  1.
       -3    1    3    3    0  502 -0.82118779016E+03 -0.43096375315E+03  0.39330576472E+03  0.10073572246E+04  0.10100000352E+00 0. -1.
</event>
<event>
 5   0  0.8861350E-05  0.1985567E+04  0.7818609E-02  0.8613398E-01
       -1   -1    0    0    0  501  0.00000000000E+00  0.00000000000E+00  0.53963372057E+03  0.53963372059E+03  0.50400001928E-02 0.  1.
        1   -1    0    0  501    0  0.00000000000E+00  0.00000000000E+00 -0.18264601923E+04  0.18264601923E+04  0.50400001928E-02 0. -1.
    10030    2    1    2    0    0  0.00000000000E+00  0.00000000000E+00 -0.12868264718E+04  0.23660939129E+04  0.19855674344E+04 0.  0.
        1    1    3    3  502    0  0.68030040876E+03  0.55217073037E+03 -0.11996942470E+04  0.14855865670E+04  0.50400001928E-02 0. -1.
       -1    1    3    3    0  502 -0.68030040876E+03 -0.55217073037E+03 -0.87132224723E+02  0.88050734593E+03  0.50400001928E-02 0.  1.
</event>
<event>
 5   0  0.1834645E-04  0.1839791E+04  0.7818609E-02  0.8685421E-01
        2   -1    0    0  501    0  0.00000000000E+00  0.00000000000E+00  0.88630549777E+03  0.88630549778E+03  0.25500000920E-02 0. -1.
       -2   -1    0    0    0  501  0.00000000000E+00  0.00000000000E+00 -0.95475801607E+03  0.95475801608E+03  0.25500000920E-02 0.  1.
    10030    2    1    2    0    0  0.00000000000E+00  0.00000000000E+00 -0.68452518299E+02  0.18410635139E+04  0.18397905084E+04 0.  0.
        1    1    3    3  502    0 -0.46179486219E+03 -0.75551063652E+03  0.21525822448E+03  0.91125568304E+03  0.50400001928E-02 0. -1.
       -1    1    3    3    0  502  0.46179486219E+03  0.75551063652E+03 -0.28371074278E+03  0.92980783081E+03  0.50400001928E-02 0.  1.
</event>
<event>
 5   0  0.8765057E-05  0.1939193E+04  0.7818609E-02  0.8635590E-01
        1   -1    0    0  501    0  0.00000000000E+00  0.00000000000E+00  0.25432915068E+04  0.25432915068E+04  0.50400001928E-02 0. -1.
       -1   -1    0    0    0  501  0.00000000000E+00  0.00000000000E+00 -0.36964575187E+03  0.36964575190E+03  0.50400001928E-02 0.  1.
    10030    2    1    2    0    0  0.00000000000E+00  0.00000000000E+00  0.21736457549E+04  0.29129372587E+04  0.19391925137E+04 0.  0.
        3    1    3    3  502    0 -0.26365153072E+02  0.43192346408E+02 -0.36766081929E+03  0.37112691674E+03  0.10100000352E+00 0.  1.
       -3    1    3    3    0  502  0.26365153072E+02 -0.43192346408E+02  0.25413065742E+04  0.25418103420E+04  0.10100000352E+00 0. -1.
</event>
<event>
 5   0  0.8577422E-05  0.1991755E+04  0.7818609E-02  0.8610485E-01
       -1   -1    0    0    0  501  0.00000000000E+00  0.00000000000E+00  0.11355423566E+04  0.11355423566E+04  0.50400001928E-02 0. -1.
        1   -1    0    0  501    0  0.00000000000E+00  0.00000000000E+00 -0.87339095822E+03  0.87339095823E+03  0.50400001928E-02 0.  1.
    10030    2    1    2    0    0  0.00000000000E+00  0.00000000000E+00  0.26215139837E+03  0.20089333148E+04  0.19917554337E+04 0.  0.
        2    1    3    3  502    0  0.59622801859E+03 -0.50790596689E+02  0.93399711205E+03  0.11092421468E+04  0.25500000920E-02 0. -1.
       -2    1    3    3    0  502 -0.59622801859E+03  0.50790596689E+02 -0.67184571368E+03  0.89969116805E+03  0.25500000920E-02 0.  1.
</event>
<event>
 5   0  0.8881384E-05  0.1880377E+04  0.7818609E-02  0.8664686E-01
       -1   -1    0    0    0  501  0.00000000000E+00  0.00000000000E+00  0.10775430920E+04  0.10775430920E+04  0.50400001928E-02 0. -1.
        1   -1    0    0  501    0  0.00000000000E+00  0.00000000000E+00 -0.82034216200E+03  0.82034216202E+03  0.50400001928E-02 0.  1.
    10030    2    1    2    0    0  0.00000000000E+00  0.00000000000E+00  0.25720093002E+03  0.18978852541E+04  0.18803765897E+04 0.  0.
        5    1    3    3  502    0  0.14050593695E+03  0.35171974779E+03  0.99712628229E+03  0.10666450263E+04  0.46999998093E+01 0. -1.
       -5    1    3    3    0  502 -0.14050593695E+03 -0.35171974779E+03 -0.73992535227E+03  0.83124022775E+03  0.46999998093E+01 0.  1.
</event>
<event>
 5   0  0.1807498E-04  0.2002022E+04  0.7818609E-02  0.8605676E-01
       -2   -1    0    0    0  501  0.00000000000E+00  0.00000000000E+00  0.77132451381E+03  0.77132451381E+03  0.25500000920E-02 0.  1.
        2   -1    0    0  501    0  0.00000000000E+00  0.00000000000E+00 -0.12990941955E+04  0.12990941955E+04  0.25500000920E-02 0. -1.
    10030    2    1    2    0    0  0.00000000000E+00  0.00000000000E+00 -0.52776968169E+03  0.20704187093E+04  0.20020221764E+04 0.  0.
        5    1    3    3  502    0  0.83210350070E+03  0.40226778902E+03  0.13367747385E+03  0.93386688932E+03  0.46999998093E+01 0.  1.
       -5    1    3    3    0  502 -0.83210350070E+03 -0.40226778902E+03 -0.66144715554E+03  0.11365518200E+04  0.46999998093E+01 0. -1.
</event>
<event>
 5   0  0.1807498E-04  0.1830160E+04  0.7818609E-02  0.8690423E-01
        2   -1    0    0  501    0  0.00000000000E+00  0.00000000000E+00  0.89581657936E+03  0.89581657937E+03  0.25500000920E-02 0. -1.
       -2   -1    0    0    0  501  0.00000000000E+00  0.00000000000E+00 -0.93475786288E+03  0.93475786289E+03  0.25500000920E-02 0.  1.
    10030    2    1    2    0    0  0.00000000000E+00  0.00000000000E+00 -0.38941283519E+02  0.18305744423E+04  0.18301602020E+04 0.  0.
        5    1    3    3  502    0 -0.16761144764E+03 -0.28562847937E+03 -0.87270080826E+03  0.93343774101E+03  0.46999998093E+01 0.  1.
       -5    1    3    3    0  502  0.16761144764E+03  0.28562847937E+03  0.83375952474E+03  0.89713670124E+03  0.46999998093E+01 0. -1.
</event>
<event>
 5   0  0.1807498E-04  0.2003445E+04  0.7818609E-02  0.8605011E-01
        2   -1    0    0  501    0  0.00000000000E+00  0.00000000000E+00  0.64387731194E+03  0.64387731195E+03  0.25500000920E-02 0. -1.
       -2   -1    0    0    0  501  0.00000000000E+00  0.00000000000E+00 -0.15584466806E+04  0.15584466806E+04  0.25500000920E-02 0.  1.
    10030    2    1    2    0    0  0.00000000000E+00  0.00000000000E+00 -0.91456936870E+03  0.22023239926E+04  0.20034454917E+04 0.  0.
        5    1    3    3  502    0 -0.96396481676E+03  0.17061396478E+03 -0.69070537512E+03  0.11980956966E+04  0.46999998093E+01 0.  1.
       -5    1    3    3    0  502  0.96396481676E+03 -0.17061396478E+03 -0.22386399358E+03  0.10042282960E+04  0.46999998093E+01 0. -1.
</event>
<event>
 5   0  0.8958919E-05  0.1867169E+04  0.7818609E-02  0.8671373E-01
       -1   -1    0    0    0  501  0.00000000000E+00  0.00000000000E+00  0.40527886445E+03  0.40527886448E+03  0.50400001928E-02 0. -1.
        1   -1    0    0  501    0  0.00000000000E+00  0.00000000000E+00 -0.21505686814E+04  0.21505686814E+04  0.50400001928E-02 0.  1.
    10030    2    1    2    0    0  0.00000000000E+00  0.00000000000E+00 -0.17452898169E+04  0.25558475459E+04  0.18671690156E+04 0.  0.
        4    1    3    3  502    0 -0.63239904106E+03  0.48418260913E+03 -0.20595437956E+03  0.82266649712E+03  0.12699999809E+01 0.  1.
       -4    1    3    3    0  502  0.63239904106E+03 -0.48418260913E+03 -0.15393354374E+04  0.17331810487E+04  0.12699999809E+01 0. -1.
</event>
<event>
 5   0  0.1782172E-04  0.2048126E+04  0.7818609E-02  0.8584445E-01
        2   -1    0    0  501    0  0.00000000000E+00  0.00000000000E+00  0.13845169342E+04  0.13845169342E+04  0.25500000920E-02 0. -1.
       -2   -1    0    0    0  501  0.00000000000E+00  0.00000000000E+00 -0.75745175629E+03  0.75745175630E+03  0.25500000920E-02 0.  1.
    10030    2    1    2    0    0  0.00000000000E+00  0.00000000000E+00  0.62706517787E+03  0.21419686905E+04  0.20481257612E+04 0.  0.
        2    1    3    3  502    0 -0.82160631715E+03  0.10297878176E+03 -0.31662275260E+03  0.88650523819E+03  0.25500000920E-02 0.  1.
       -2    1    3    3    0  502  0.82160631715E+03 -0.10297878176E+03  0.94368793047E+03  0.12554634523E+04  0.25500000920E-02 0. -1.
</event>
<event>
 5   0  0.1812865E-04  0.2035581E+04  0.7818609E-02  0.8590164E-01
       -2   -1    0    0    0  501  0.00000000000E+00  0.00000000000E+00  0.11604277378E+04  0.11604277378E+04  0.25500000920E-02 0. -1.
        2   -1    0    0  501    0  0.00000000000E+00  0.00000000000E+00 -0.89268572027E+03  0.89268572028E+03  0.25500000920E-02 0.  1.
    10030    2    1    2    0    0  0.00000000000E+00  0.00000000000E+00  0.26774201754E+03  0.20531134581E+04  0.20355807731E+04 0.  0.
        3    1    3    3  502    0 -0.39565355268E+03  0.93764719503E+03  0.14714738667E+03  0.10282880723E+04  0.10100000352E+00 0. -1.
       -3    1    3    3    0  502  0.39565355268E+03 -0.93764719503E+03  0.12059463087E+03  0.10248253858E+04  0.10100000352E+00 0.  1.
</event>
<event>
 5   0  0.8765057E-05  0.1999133E+04  0.7818609E-02  0.8607026E-01
        1   -1    0    0  501    0  0.00000000000E+00  0.00000000000E+00  0.20212277066E+04  0.20212277066E+04  0.50400001928E-02 0. -1.
       -1   -1    0    0    0  501  0.00000000000E+00  0.00000000000E+00 -0.49431990146E+03  0.49431990149E+03  0.50400001928E-02 0.  1.
    10030    2    1    2    0    0  0.00000000000E+00  0.00000000000E+00  0.15269078051E+04  0.25155476081E+04  0.19991328928E+04 0.  0.
        3    1    3    3  502    0 -0.79019831111E+02  0.78579600314E+03  0.15344387885E+04  0.17257525599E+04  0.10100000352E+00 0. -1.
       -3    1    3    3    0  502  0.79019831111E+02 -0.78579600314E+03 -0.75309833138E+01  0.78979504820E+03  0.10100000352E+00 0.  1.
</event>
<event>
 5   0  0.1812865E-04  0.1957474E+04  0.7818609E-02  0.8626765E-01
        2   -1    0    0  501    0  0.00000000000E+00  0.00000000000E+00  0.23466405436E+04  0.23466405436E+04  0.25500000920E-02 0. -1.
       -2   -1    0    0    0  501  0.00000000000E+00  0.00000000000E+00 -0.40821162760E+03  0.40821162761E+03  0.25500000920E-02 0.  1.
    10030    2    1    2    0    0  0.00000000000E+00  0.00000000000E+00  0.19384289160E+04  0.27548521712E+04  0.19574738371E+04 0.  0.
        3    1    3    3  502    0  0.23887294746E+03 -0.20899483739E+03  0.22722014344E+04  0.22942620809E+04  0.10100000352E+00 0. -1.
       -3    1    3    3    0  502 -0.23887294746E+03  0.20899483739E+03 -0.33377251839E+03  0.46059009034E+03  0.10100000352E+00 0.  1.
</event>
<event>
 5   0  0.8958919E-05  0.2018511E+04  0.7818609E-02  0.8598015E-01
        1   -1    0    0  501    0  0.00000000000E+00  0.00000000000E+00  0.16886615116E+04  0.16886615116E+04  0.50400001928E-02 0.  1.
       -1   -1    0    0    0  501  0.00000000000E+00  0.00000000000E+00 -0.60319761071E+03  0.60319761073E+03  0.50400001928E-02 0. -1.
    10030    2    1    2    0    0  0.00000000000E+00  0.00000000000E+00  0.10854639009E+04  0.22918591223E+04  0.20185109255E+04 0.  0.
        4    1    3    3  502    0 -0.22451636037E+03 -0.38526984359E+03 -0.48528133246E+03  0.65904478830E+03  0.12699999809E+01 0. -1.
       -4    1    3    3    0  502  0.22451636037E+03  0.38526984359E+03  0.15707452333E+04  0.16328143340E+04  0.12699999809E+01 0.  1.
</event>
<event>
 5   0  0.1807498E-04  0.1998053E+04  0.7818609E-02  0.8607532E-01
        2   -1    0    0  501    0  0.00000000000E+00  0.00000000000E+00  0.14253194090E+04  0.14253194091E+04  0.25500000920E-02 0.  1.
       -2   -1    0    0    0  501  0.00000000000E+00  0.00000000000E+00 -0.70023145480E+03  0.70023145480E+03  0.25500000920E-02 0. -1.
    10030    2    1    2    0    0  0.00000000000E+00  0.00000000000E+00  0.72508795425E+03  0.21255508639E+04  0.19980525352E+04 0.  0.
        5    1    3    3  502    0  0.64859276039E+03 -0.49456822936E+03  0.97620829103E+03  0.12721143894E+04  0.46999998093E+01 0.  1.
       -5    1    3    3    0  502 -0.64859276039E+03  0.49456822936E+03 -0.25112033678E+03  0.85343647442E+03  0.46999998093E+01 0. -1.
</event>
<event>
 5   0  0.8765057E-05  0.1954080E+04  0.7818609E-02  0.8628396E-01
        1   -1    0    0  501    0  0.00000000000E+00  0.00000000000E+00  0.66005175640E+03  0.66005175642E+03  0.50400001928E-02 0. -1.
       -1   -1    0    0    0  501  0.00000000000E+00  0.00000000000E+00 -0.14462616004E+04  0.14462616004E+04  0.50400001928E-02 0.  1.
    10030    2    1    2    0    0  0.00000000000E+00  0.00000000000E+00 -0.78620984397E+03  0.21063133568E+04  0.19540803561E+04 0.  0.
        3    1    3    3  502    0  0.20309925600E+03 -0.41045991581E+03  0.53719710496E+03  0.70590891059E+03  0.10100000352E+00 0. -1.
       -3    1    3    3    0  502 -0.20309925600E+03  0.41045991581E+03 -0.13234069489E+04  0.14004044462E+04  0.10100000352E+00 0.  1.
</event>
<event>
 5   0  0.1782172E-04  0.2004000E+04  0.7818609E-02  0.8604753E-01
        2   -1    0    0  501    0  0.00000000000E+00  0.00000000000E+00  0.15108306775E+04  0.15108306775E+04  0.25500000920E-02 0. -1.
       -2   -1    0    0    0  501  0.00000000000E+00  0.00000000000E+00 -0.66453764042E+03  0.66453764042E+03  0.25500000920E-02 0.  1.
    10030    2    1    2    0    0  0.00000000000E+00  0.00000000000E+00  0.84629303706E+03  0.21753683179E+04  0.20039998538E+04 0.  0.
        2    1    3    3  502    0  0.37306367958E+03 -0.42771088610E+03 -0.47323420968E+03  0.73896124955E+03  0.25500000920E-02 0.  1.
       -2    1    3    3    0  502 -0.37306367958E+03  0.42771088610E+03  0.13195272467E+04  0.14364070684E+04  0.25500000920E-02 0. -1.
</event>
<event>
 5   0  0.8881384E-05  0.1992743E+04  0.7818609E-02  0.8610021E-01
        1   -1    0    0  501    0  0.00000000000E+00  0.00000000000E+00  0.27495321721E+04  0.27495321721E+04  0.50400001928E-02 0.  1.
       -1   -1    0    0    0  501  0.00000000000E+00  0.00000000000E+00 -0.36106357304E+03  0.36106357307E+03  0.50400001928E-02 0. -1.
    10030    2    1    2    0    0  0.00000000000E+00  0.00000000000E+00  0.23884685990E+04  0.31105957452E+04  0.19927427433E+04 0.  0.
        5    1    3    3  502    0 -0.14557883592E+03 -0.83378469629E+03  0.20148071122E+04  0.21853740885E+04  0.46999998093E+01 0.  1.
       -5    1    3    3    0  502  0.14557883592E+03  0.83378469629E+03  0.37366148686E+03  0.92522165668E+03  0.46999998093E+01 0. -1.
</event>
<event>
 5   0  0.8577422E-05  0.2011076E+04  0.7818609E-02  0.8601460E-01
        1   -1    0    0  501    0  0.00000000000E+00  0.00000000000E+00  0.18577946164E+04  0.18577946165E+04  0.50400001928E-02 0.  1.
       -1   -1    0    0    0  501  0.00000000000E+00  0.00000000000E+00 -0.54425092595E+03  0.54425092598E+03  0.50400001928E-02 0. -1.
    10030    2    1    2    0    0  0.00000000000E+00  0.00000000000E+00  0.13135436905E+04  0.24020455424E+04  0.20110757721E+04 0.  0.
        2    1    3    3  502    0 -0.35116525371E+03  0.74179275882E+03  0.13506941763E+04  0.15804898894E+04  0.25500000920E-02 0.  1.
       -2    1    3    3    0  502  0.35116525371E+03 -0.74179275882E+03 -0.37150485841E+02  0.82155565305E+03  0.25500000920E-02 0. -1.
</event>
<event>
 5   0  0.8881384E-05  0.1979459E+04  0.7818609E-02  0.8616285E-01
       -1   -1    0    0    0  501  0.00000000000E+00  0.00000000000E+00  0.60313683373E+03  0.60313683375E+03  0.50400001928E-02 0. -1.
        1   -1    0    0  501    0  0.00000000000E+00  0.00000000000E+00 -0.16241169414E+04  0.16241169414E+04  0.50400001928E-02 0.  1.
    10030    2    1    2    0    0  0.00000000000E+00  0.00000000000E+00 -0.10209801077E+04  0.22272537751E+04  0.19794592693E+04 0.  0.
        5    1    3    3  502    0  0.57028820599E+02  0.32925383460E+02 -0.16216367040E+04  0.16229799928E+04  0.46999998093E+01 0.  1.
       -5    1    3    3    0  502 -0.57028820599E+02 -0.32925383460E+02  0.60065659636E+03  0.60427378233E+03  0.46999998093E+01 0. -1.
</event>
<event>
 5   0  0.1807498E-04  0.1998216E+04  0.7818609E-02  0.8607455E-01
       -2   -1    0    0    0  501  0.00000000000E+00  0.00000000000E+00  0.90474573062E+03  0.90474573063E+03  0.25500000920E-02 0. -1.
        2   -1    0    0  501    0  0.00000000000E+00  0.00000000000E+00 -0.11033118541E+04  0.11033118541E+04  0.25500000920E-02 0.  1.
    10030    2    1    2    0    0  0.00000000000E+00  0.00000000000E+00 -0.19856612348E+03  0.20080575847E+04  0.19982158938E+04 0.  0.
        5    1    3    3  502    0 -0.46255498016E+02  0.62262375311E+03  0.68455520443E+03  0.92651919945E+03  0.46999998093E+01 0. -1.
       -5    1    3    3    0  502  0.46255498016E+02 -0.62262375311E+03 -0.88312132791E+03  0.10815383853E+04  0.46999998093E+01 0.  1.
</event>
<event>
 5   0  0.8881384E-05  0.2025213E+04  0.7818609E-02  0.8594923E-01
        1   -1    0    0  501    0  0.00000000000E+00  0.00000000000E+00  0.17150540776E+04  0.17150540776E+04  0.50400001928E-02 0.  1.
       -1   -1    0    0    0  501  0.00000000000E+00  0.00000000000E+00 -0.59786554284E+03  0.59786554286E+03  0.50400001928E-02 0. -1.
    10030    2    1    2    0    0  0.00000000000E+00  0.00000000000E+00  0.11171885348E+04  0.23129196205E+04  0.20252128156E+04 0.  0.
        5    1    3    3  502    0  0.94831584892E+03  0.25402292970E+03  0.84186041745E+03  0.12932832832E+04  0.46999998093E+01 0.  1.
       -5    1    3    3    0  502 -0.94831584892E+03 -0.25402292970E+03  0.27532811733E+03  0.10196363373E+04  0.46999998093E+01 0. -1.
</event>
<event>
 5   0  0.1834645E-04  0.2006578E+04  0.7818609E-02  0.8603551E-01
       -2   -1    0    0    0  501  0.00000000000E+00  0.00000000000E+00  0.15066212120E+04  0.15066212120E+04  0.25500000920E-02 0. -1.
        2   -1    0    0  501    0  0.00000000000E+00  0.00000000000E+00 -0.66811001765E+03  0.66811001766E+03  0.25500000920E-02 0.  1.
    10030    2    1    2    0    0  0.00000000000E+00  0.00000000000E+00  0.83851119438E+03  0.21747312297E+04  0.20065779074E+04 0.  0.
        1    1    3    3  502    0 -0.37656771321E+03 -0.25925068953E+03  0.13871661209E+04  0.14605629085E+04  0.50400001928E-02 0. -1.
       -1    1    3    3    0  502  0.37656771321E+03  0.25925068953E+03 -0.54865492650E+03  0.71416832123E+03  0.50400001928E-02 0.  1.
</event>
<event>
 5   0  0.1807498E-04  0.2002331E+04  0.7818609E-02  0.8605532E-01
       -2   -1    0    0    0  501  0.00000000000E+00  0.00000000000E+00  0.79169154827E+03  0.79169154827E+03  0.25500000920E-02 0. -1.
        2   -1    0    0  501    0  0.00000000000E+00  0.00000000000E+00 -0.12660644951E+04  0.12660644951E+04  0.25500000920E-02 0.  1.
    10030    2    1    2    0    0  0.00000000000E+00  0.00000000000E+00 -0.47437294686E+03  0.20577560434E+04  0.20023312017E+04 0.  0.
        5    1    3    3  502    0  0.41357344805E+03 -0.42099391827E+03 -0.10682942291E+04  0.12204726650E+04  0.46999998093E+01 0.  1.
       -5    1    3    3    0  502 -0.41357344805E+03  0.42099391827E+03  0.59392128227E+03  0.83728337836E+03  0.46999998093E+01 0. -1.
</event>
<event>
 5   0  0.1807498E-04  0.2045074E+04  0.7818609E-02  0.8585832E-01
       -2   -1    0    0    0  501  0.00000000000E+00  0.00000000000E+00  0.10186073759E+04  0.10186073759E+04  0.25500000920E-02 0. -1.
        2   -1    0    0  501    0  0.00000000000E+00  0.00000000000E+00 -0.10264813578E+04  0.10264813578E+04  0.25500000920E-02 0.  1.
    10030    2    1    2    0    0  0.00000000000E+00  0.00000000000E+00 -0.78739819496E+01  0.20450887337E+04  0.20450735755E+04 0.  0.
        5    1    3    3  502    0  0.78603339118E+03 -0.46141066914E+03  0.45954362247E+03  0.10207598780E+04  0.46999998093E+01 0. -1.
       -5    1    3    3    0  502 -0.78603339118E+03  0.46141066914E+03 -0.46741760442E+03  0.10243288557E+04  0.46999998093E+01 0.  1.
</event>
<event>
 5   0  0.8881384E-05  0.1858543E+04  0.7818609E-02  0.8675772E-01
       -1   -1    0    0    0  501  0.00000000000E+00  0.00000000000E+00  0.68130834075E+03  0.68130834076E+03  0.50400001928E-02 0.  1.
        1   -1    0    0  501    0  0.00000000000E+00  0.00000000000E+00 -0.12674814045E+04  0.12674814045E+04  0.50400001928E-02 0. -1.
    10030    2    1    2    0    0  0.00000000000E+00  0.00000000000E+00 -0.58617306375E+03  0.19487897453E+04  0.18585431420E+04 0.  0.
        5    1    3    3  502    0  0.28983189436E+03  0.66419282052E+03  0.31685412026E+03  0.79093188919E+03  0.46999998093E+01 0.  1.
       -5    1    3    3    0  502 -0.28983189436E+03 -0.66419282052E+03 -0.90302718401E+03  0.11578578561E+04  0.46999998093E+01 0. -1.
</event>
<event>
 5   0  0.8881384E-05  0.2051920E+04  0.7818609E-02  0.8582724E-01
        1   -1    0    0  501    0  0.00000000000E+00  0.00000000000E+00  0.78598260153E+03  0.78598260155E+03  0.50400001928E-02 0.  1.
       -1   -1    0    0    0  501  0.00000000000E+00  0.00000000000E+00 -0.13392082844E+04  0.13392082844E+04  0.50400001928E-02 0. -1.
    10030    2    1    2    0    0  0.00000000000E+00  0.00000000000E+00 -0.55322568289E+03  0.21251908860E+04  0.20519204774E+04 0.  0.
        5    1    3    3  502    0  0.51200333179E+02  0.93643779306E+02  0.78020632290E+03  0.78748627151E+03  0.46999998093E+01 0.  1.
       -5    1    3    3    0  502 -0.51200333179E+02 -0.93643779306E+02 -0.13334320058E+04  0.13377046145E+04  0.46999998093E+01 0. -1.
</event>
<event>
 5   0  0.1807498E-04  0.1954984E+04  0.7818609E-02  0.8627961E-01
        2   -1    0    0  501    0  0.00000000000E+00  0.00000000000E+00  0.13633355650E+04  0.13633355650E+04  0.25500000920E-02 0.  1.
       -2   -1    0    0    0  501  0.00000000000E+00  0.00000000000E+00 -0.70084804058E+03  0.70084804059E+03  0.25500000920E-02 0. -1.
    10030    2    1    2    0    0  0.00000000000E+00  0.00000000000E+00  0.66248752438E+03  0.20641836056E+04  0.19549844597E+04 0.  0.
        5    1    3    3  502    0  0.64392239718E+03  0.70434797968E+03  0.10794355839E+03  0.96042492256E+03  0.46999998093E+01 0.  1.
       -5    1    3    3    0  502 -0.64392239718E+03 -0.70434797968E+03  0.55454396599E+03  0.11037586830E+04  0.46999998093E+01 0. -1.
</event>
<event>
 5   0  0.8958919E-05  0.1975659E+04  0.7818609E-02  0.8618086E-01
        1   -1    0    0  501    0  0.00000000000E+00  0.00000000000E+00  0.16219190489E+04  0.16219190489E+04  0.50400001928E-02 0. -1.
       -1   -1    0    0    0  501  0.00000000000E+00  0.00000000000E+00 -0.60163740220E+03  0.60163740222E+03  0.50400001928E-02 0.  1.
    10030    2    1    2    0    0  0.00000000000E+00  0.00000000000E+00  0.10202816467E+04  0.22235564511E+04  0.19756590426E+04 0.  0.
        4    1    3    3  502    0  0.30299133025E+03  0.86569540149E+03  0.97268686102E+02  0.92233133122E+03  0.12699999809E+01 0.  1.
       -4    1    3    3    0  502 -0.30299133025E+03 -0.86569540149E+03  0.92301296059E+03  0.13012251199E+04  0.12699999809E+01 0. -1.
</event>
<event>
 5   0  0.1834645E-04  0.2138956E+04  0.7818609E-02  0.8544274E-01
       -2   -1    0    0    0  501  0.00000000000E+00  0.00000000000E+00  0.56499343128E+03  0.56499343128E+03  0.25500000920E-02 0.  1.
        2   -1    0    0  501    0  0.00000000000E+00  0.00000000000E+00 -0.20244194103E+04  0.20244194103E+04  0.25500000920E-02 0. -1.
    10030    2    1    2    0    0  0.00000000000E+00  0.00000000000E+00 -0.14594259790E+04  0.25894128416E+04  0.21389564455E+04 0.  0.
        1    1    3    3  502    0 -0.58650632879E+03  0.84584666150E+03 -0.37814484821E+03  0.10965581493E+04  0.50400001928E-02 0. -1.
       -1    1    3    3    0  502  0.58650632879E+03 -0.84584666150E+03 -0.10812811308E+04  0.14928546923E+04  0.50400001928E-02 0.  1.
</event>
<event>
 5   0  0.8881384E-05  0.1841835E+04  0.7818609E-02  0.8684363E-01
        1   -1    0    0  501    0  0.00000000000E+00  0.00000000000E+00  0.16523050222E+04  0.16523050222E+04  0.50400001928E-02 0. -1.
       -1   -1    0    0    0  501  0.00000000000E+00  0.00000000000E+00 -0.51327628737E+03  0.51327628740E+03  0.50400001928E-02 0.  1.
    10030    2    1    2    0    0  0.00000000000E+00  0.00000000000E+00  0.11390287349E+04  0.21655813096E+04  0.18418349410E+04 0.  0.
        5    1    3    3  502    0 -0.40792706828E+02 -0.71675176557E+03  0.12476716795E+04  0.14394804091E+04  0.46999998093E+01 0. -1.
       -5    1    3    3    0  502  0.40792706828E+02  0.71675176557E+03 -0.10864294461E+03  0.72610090056E+03  0.46999998093E+01 0.  1.
</event>
<event>
 5   0  0.8861350E-05  0.2054228E+04  0.7818609E-02  0.8581679E-01
        1   -1    0    0  501    0  0.00000000000E+00  0.00000000000E+00  0.47375019651E+03  0.47375019654E+03  0.50400001928E-02 0. -1.
       -1   -1    0    0    0  501  0.00000000000E+00  0.00000000000E+00 -0.22268343833E+04  0.22268343833E+04  0.50400001928E-02 0.  1.
    10030    2    1    2    0    0  0.00000000000E+00  0.00000000000E+00 -0.17530841868E+04  0.27005845799E+04  0.20542280562E+04 0.  0.
        1    1    3    3  502    0  0.15994757481E+03  0.72438055347E+03  0.57368876309E+02  0.74404408534E+03  0.50400001928E-02 0. -1.
       -1    1    3    3    0  502 -0.15994757481E+03 -0.72438055347E+03 -0.18104530631E+04  0.19565404945E+04  0.50400001928E-02 0.  1.
</event>
<event>
 5   0  0.8861350E-05  0.2008059E+04  0.7818609E-02  0.8602862E-01
       -1   -1    0    0    0  501  0.00000000000E+00  0.00000000000E+00  0.53489017181E+03  0.53489017183E+03  0.50400001928E-02 0.  1.
        1   -1    0    0  501    0  0.00000000000E+00  0.00000000000E+00 -0.18846405955E+04  0.18846405955E+04  0.50400001928E-02 0. -1.
    10030    2    1    2    0    0  0.00000000000E+00  0.00000000000E+00 -0.13497504237E+04  0.24195307673E+04  0.20080594931E+04 0.  0.
        1    1    3    3  502    0 -0.78682967179E+03 -0.20460483034E+02 -0.14259470484E+04  0.16287555215E+04  0.50400001928E-02 0. -1.
       -1    1    3    3    0  502  0.78682967179E+03  0.20460483034E+02  0.76196624770E+02  0.79077524583E+03  0.50400001928E-02 0.  1.
</event>
<event>
 5   0  0.8958919E-05  0.1999288E+04  0.7818609E-02  0.8606954E-01
       -1   -1    0    0    0  501  0.00000000000E+00  0.00000000000E+00  0.92791664055E+03  0.92791664056E+03  0.50400001928E-02 0.  1.
        1   -1    0    0  501    0  0.00000000000E+00  0.00000000000E+00 -0.10769155343E+04  0.10769155343E+04  0.50400001928E-02 0. -1.
    10030    2    1    2    0    0  0.00000000000E+00  0.00000000000E+00 -0.14899889376E+03  0.20048321749E+04  0.19992877179E+04 0.  0.
        4    1    3    3  502    0 -0.96982510254E+03 -0.23458444076E+03 -0.13539061747E+02  0.99788551871E+03  0.12699999809E+01 0.  1.
       -4    1    3    3    0  502  0.96982510254E+03  0.23458444076E+03 -0.13545983201E+03  0.10069466562E+04  0.12699999809E+01 0. -1.
</event>
<event>
 5   0  0.1893687E-04  0.1997174E+04  0.7818609E-02  0.8607943E-01
       -2   -1    0    0    0  501  0.00000000000E+00  0.00000000000E+00  0.60171880490E+03  0.60171880490E+03  0.25500000920E-02 0. -1.
        2   -1    0    0  501    0  0.00000000000E+00  0.00000000000E+00 -0.16572133515E+04  0.16572133515E+04  0.25500000920E-02 0.  1.
    10030    2    1    2    0    0  0.00000000000E+00  0.00000000000E+00 -0.10554945466E+04  0.22589321564E+04  0.19971744414E+04 0.  0.
        4    1    3    3  502    0 -0.40454452315E+03  0.32822333360E+03 -0.14913368174E+04  0.15797069170E+04  0.12699999809E+01 0.  1.
       -4    1    3    3    0  502  0.40454452315E+03 -0.32822333360E+03  0.43584227076E+03  0.67922523939E+03  0.12699999809E+01 0. -1.
</event>
<event>
 5   0  0.1812865E-04  0.2067369E+04  0.7818609E-02  0.8575755E-01
       -2   -1    0    0    0  501  0.00000000000E+00  0.00000000000E+00  0.65916329973E+03  0.65916329974E+03  0.25500000920E-02 0.  1.
        2   -1    0    0  501    0  0.00000000000E+00  0.00000000000E+00 -0.16209999982E+04  0.16209999982E+04  0.25500000920E-02 0. -1.
    10030    2    1    2    0    0  0.00000000000E+00  0.00000000000E+00 -0.96183669843E+03  0.22801632979E+04  0.20673690601E+04 0.  0.
        3    1    3    3  502    0  0.46701478081E+03 -0.54412636236E+03 -0.13020846323E+04  0.14864725707E+04  0.10100000352E+00 0. -1.
       -3    1    3    3    0  502 -0.46701478081E+03  0.54412636236E+03  0.34024793385E+03  0.79369072717E+03  0.10100000352E+00 0.  1.
</event>
<event>
 5   0  0.8958919E-05  0.2342490E+04  0.7818609E-02  0.8461354E-01
        1   -1    0    0  501    0  0.00000000000E+00  0.00000000000E+00  0.15956932274E+04  0.15956932275E+04  0.50400001928E-02 0. -1.
       -1   -1    0    0    0  501  0.00000000000E+00  0.00000000000E+00 -0.85969840684E+03  0.85969840686E+03  0.50400001928E-02 0.  1.
    10030    2    1    2    0    0  0.00000000000E+00  0.00000000000E+00  0.73599482060E+03  0.24553916343E+04  0.23424900644E+04 0.  0.
        4    1    3    3  502    0  0.23982062497E+03  0.23841974131E+03 -0.80741239885E+03  0.87537094990E+03  0.12699999809E+01 0.  1.
       -4    1    3    3    0  502 -0.23982062497E+03 -0.23841974131E+03  0.15434072195E+04  0.15800206844E+04  0.12699999809E+01 0. -1.
</event>
<event>
 5   0  0.1807498E-04  0.1988703E+04  0.7818609E-02  0.8611921E-01
        2   -1    0    0  501    0  0.00000000000E+00  0.00000000000E+00  0.17098689158E+04  0.17098689158E+04  0.25500000920E-02 0.  1.
       -2   -1    0    0    0  501  0.00000000000E+00  0.00000000000E+00 -0.57825186479E+03  0.57825186480E+03  0.25500000920E-02 0. -1.
    10030    2    1    2    0    0  0.00000000000E+00  0.00000000000E+00  0.11316170510E+04  0.22881207806E+04  0.19887029835E+04 0.  0.
        5    1    3    3  502    0 -0.80447330604E+03  0.37110516986E+03  0.46376600328E+02  0.88716922076E+03  0.46999998093E+01 0. -1.
       -5    1    3    3    0  502  0.80447330604E+03 -0.37110516986E+03  0.10852404507E+04  0.14009515599E+04  0.46999998093E+01 0.  1.
</event>
<event>
 5   0  0.1812865E-04  0.1972426E+04  0.7818609E-02  0.8619622E-01
        2   -1    0    0  501    0  0.00000000000E+00  0.00000000000E+00  0.16872141889E+04  0.16872141889E+04  0.25500000920E-02 0.  1.
       -2   -1    0    0    0  501  0.00000000000E+00  0.00000000000E+00 -0.57646245087E+03  0.57646245087E+03  0.25500000920E-02 0. -1.
    10030    2    1    2    0    0  0.00000000000E+00  0.00000000000E+00  0.11107517380E+04  0.22636766398E+04  0.19724255388E+04 0.  0.
        3    1    3    3  502    0  0.81913177414E+03  0.49127794805E+03  0.83716058574E+03  0.12701057996E+04  0.10100000352E+00 0.  1.
       -3    1    3    3    0  502 -0.81913177414E+03 -0.49127794805E+03  0.27359115229E+03  0.99357084018E+03  0.10100000352E+00 0. -1.
</event>
<event>
 5   0  0.1893687E-04  0.2007106E+04  0.7818609E-02  0.8603305E-01
        2   -1    0    0  501    0  0.00000000000E+00  0.00000000000E+00  0.17881870793E+04  0.17881870793E+04  0.25500000920E-02 0.  1.
       -2   -1    0    0    0  501  0.00000000000E+00  0.00000000000E+00 -0.56320675112E+03  0.56320675113E+03  0.25500000920E-02 0. -1.
    10030    2    1    2    0    0  0.00000000000E+00  0.00000000000E+00  0.12249803282E+04  0.23513938305E+04  0.20071064101E+04 0.  0.
        4    1    3    3  502    0 -0.40192239141E+03 -0.31406079292E+03  0.16249978056E+04  0.17031721203E+04  0.12699999809E+01 0.  1.
       -4    1    3    3    0  502  0.40192239141E+03  0.31406079292E+03 -0.40001747739E+03  0.64822171013E+03  0.12699999809E+01 0. -1.
</event>
<event>
 5   0  0.1782172E-04  0.2000723E+04  0.7818609E-02  0.8606283E-01
        2   -1    0    0  501    0  0.00000000000E+00  0.00000000000E+00  0.72911943953E+03  0.72911943953E+03  0.25500000920E-02 0. -1.
       -2   -1    0    0    0  501  0.00000000000E+00  0.00000000000E+00 -0.13725092441E+04  0.13725092441E+04  0.25500000920E-02 0.  1.
    10030    2    1    2    0    0  0.00000000000E+00  0.00000000000E+00 -0.64338980455E+03  0.21016286836E+04  0.20007230401E+04 0.  0.
        2    1    3    3  502    0 -0.67077014059E+03  0.71007357493E+03 -0.94971042788E+02  0.98140540160E+03  0.25500000920E-02 0. -1.
       -2    1    3    3    0  502  0.67077014059E+03 -0.71007357493E+03 -0.54841876176E+03  0.11202232820E+04  0.25500000920E-02 0.  1.
</event>
<event>
 5   0  0.1782172E-04  0.1937225E+04  0.7818609E-02  0.8636546E-01
       -2   -1    0    0    0  501  0.00000000000E+00  0.00000000000E+00  0.72325365253E+03  0.72325365253E+03  0.25500000920E-02 0.  1.
        2   -1    0    0  501    0  0.00000000000E+00  0.00000000000E+00 -0.12972079111E+04  0.12972079111E+04  0.25500000920E-02 0. -1.
    10030    2    1    2    0    0  0.00000000000E+00  0.00000000000E+00 -0.57395425858E+03  0.20204615636E+04  0.19372251906E+04 0.  0.
        2    1    3    3  502    0  0.61859288993E+03 -0.58536578821E+03  0.19425920292E+03  0.87352556197E+03  0.25500000920E-02 0.  1.
       -2    1    3    3    0  502 -0.61859288993E+03  0.58536578821E+03 -0.76821346150E+03  0.11469360017E+04  0.25500000920E-02 0. -1.
</event>
<event>
 5   0  0.1782172E-04  0.2038105E+04  0.7818609E-02  0.8589009E-01
       -2   -1    0    0    0  501  0.00000000000E+00  0.00000000000E+00  0.61110430456E+03  0.61110430456E+03  0.25500000920E-02 0.  1.
        2   -1    0    0  501    0  0.00000000000E+00  0.00000000000E+00 -0.16993310140E+04  0.16993310140E+04  0.25500000920E-02 0. -1.
    10030    2    1    2    0    0  0.00000000000E+00  0.00000000000E+00 -0.10882267094E+04  0.23104353186E+04  0.20381054904E+04 0.  0.
        2    1    3    3  502    0  0.89766168050E+03  0.35058603633E+03 -0.16854235862E+03  0.97832182239E+03  0.25500000920E-02 0.  1.
       -2    1    3    3    0  502 -0.89766168050E+03 -0.35058603633E+03 -0.91968435082E+03  0.13321134962E+04  0.25500000920E-02 0. -1.
</event>
<event>
 5   0  0.1812865E-04  0.1997282E+04  0.7818609E-02  0.8607893E-01
       -2   -1    0    0    0  501  0.00000000000E+00  0.00000000000E+00  0.93018921705E+03  0.93018921706E+03  0.25500000920E-02 0.  1.
        2   -1    0    0  501    0  0.00000000000E+00  0.00000000000E+00 -0.10721299621E+04  0.10721299621E+04  0.25500000920E-02 0. -1.
    10030    2    1    2    0    0  0.00000000000E+00  0.00000000000E+00 -0.14194074500E+03  0.20023191791E+04  0.19972818829E+04 0.  0.
        3    1    3    3  502    0 -0.31134279871E+03 -0.57460387236E+02  0.87854436450E+03  0.93385022621E+03  0.10100000352E+00 0.  1.
       -3    1    3    3    0  502  0.31134279871E+03  0.57460387236E+02 -0.10204851095E+04  0.10684689529E+04  0.10100000352E+00 0. -1.
</event>
<event>
 5   0  0.1893687E-04  0.1998797E+04  0.7818609E-02  0.8607183E-01
       -2   -1    0    0    0  501  0.00000000000E+00  0.00000000000E+00  0.13048806749E+04  0.13048806749E+04  0.25500000920E-02 0.  1.
        2   -1    0    0  501    0  0.00000000000E+00  0.00000000000E+00 -0.76543209780E+03  0.76543209780E+03  0.25500000920E-02 0. -1.
    10030    2    1    2    0    0  0.00000000000E+00  0.00000000000E+00  0.53944857714E+03  0.20703127727E+04  0.19987971907E+04 0.  0.
        4    1    3    3  502    0  0.76454139882E+03  0.26655635339E+03 -0.33708691075E+03  0.87704335032E+03  0.12699999809E+01 0. -1.
       -4    1    3    3    0  502 -0.76454139882E+03 -0.26655635339E+03  0.87653548789E+03  0.11932694224E+04  0.12699999809E+01 0.  1.
</event>
<event>
 5   0  0.1834645E-04  0.2001469E+04  0.7818609E-02  0.8605934E-01
       -2   -1    0    0    0  501  0.00000000000E+00  0.00000000000E+00  0.10998993303E+04  0.10998993303E+04  0.25500000920E-02 0.  1.
        2   -1    0    0  501    0  0.00000000000E+00  0.00000000000E+00 -0.91051051698E+03  0.91051051699E+03  0.25500000920E-02 0. -1.
    10030    2    1    2    0    0  0.00000000000E+00  0.00000000000E+00  0.18938881331E+03  0.20104098473E+04  0.20014693681E+04 0.  0.
        1    1    3    3  502    0  0.65027272039E+03  0.41041548171E+03 -0.54861506595E+03  0.94460254559E+03  0.50400001928E-02 0. -1.
       -1    1    3    3    0  502 -0.65027272039E+03 -0.41041548171E+03  0.73800387926E+03  0.10658073017E+04  0.50400001928E-02 0.  1.
</event>
<event>
 5   0  0.8861350E-05  0.2043711E+04  0.7818609E-02  0.8586453E-01
        1   -1    0    0  501    0  0.00000000000E+00  0.00000000000E+00  0.19954886976E+04  0.19954886976E+04  0.50400001928E-02 0. -1.
       -1   -1    0    0    0  501  0.00000000000E+00  0.00000000000E+00 -0.52327461112E+03  0.52327461115E+03  0.50400001928E-02 0.  1.
    10030    2    1    2    0    0  0.00000000000E+00  0.00000000000E+00  0.14722140864E+04  0.25187633087E+04  0.20437109113E+04 0.  0.
        1    1    3    3  502    0 -0.71390797185E+03  0.51997282756E+03  0.10268227331E+03  0.88914564777E+03  0.50400001928E-02 0.  1.
       -1    1    3    3    0  502  0.71390797185E+03 -0.51997282756E+03  0.13695318131E+04  0.16296176609E+04  0.50400001928E-02 0. -1.
</event>
<event>
 5   0  0.8765057E-05  0.1978884E+04  0.7818609E-02  0.8616557E-01
       -1   -1    0    0    0  501  0.00000000000E+00  0.00000000000E+00  0.75937696620E+03  0.75937696621E+03  0.50400001928E-02 0. -1.
        1   -1    0    0  501    0  0.00000000000E+00  0.00000000000E+00 -0.12892090655E+04  0.12892090655E+04  0.50400001928E-02 0.  1.
    10030    2    1    2    0    0  0.00000000000E+00  0.00000000000E+00 -0.52983209927E+03  0.20485860317E+04  0.19788841997E+04 0.  0.
        3    1    3    3  502    0  0.50220182668E+03  0.15589256617E+03  0.60275042051E+03  0.79988577093E+03  0.10100000352E+00 0. -1.
       -3    1    3    3    0  502 -0.50220182668E+03 -0.15589256617E+03 -0.11325825198E+04  0.12487002608E+04  0.10100000352E+00 0.  1.
</event>
<event>
 5   0  0.8861350E-05  0.2046074E+04  0.7818609E-02  0.8585378E-01
       -1   -1    0    0    0  501  0.00000000000E+00  0.00000000000E+00  0.10026223595E+04  0.10026223595E+04  0.50400001928E-02 0.  1.
        1   -1    0    0  501    0  0.00000000000E+00  0.00000000000E+00 -0.10438672077E+04  0.10438672077E+04  0.50400001928E-02 0. -1.
    10030    2    1    2    0    0  0.00000000000E+00  0.00000000000E+00 -0.41244848253E+02  0.20464895672E+04  0.20460739017E+04 0.  0.
        1    1    3    3  502    0  0.38158812443E+03  0.92665878111E+03  0.18508561493E+03  0.10190989541E+04  0.50400001928E-02 0. -1.
       -1    1    3    3    0  502 -0.38158812443E+03 -0.92665878111E+03 -0.22633046319E+03  0.10273906131E+04  0.50400001928E-02 0.  1.
</event>
<event>
 5   0  0.1893687E-04  0.2000823E+04  0.7818609E-02  0.8606236E-01
        2   -1    0    0  501    0  0.00000000000E+00  0.00000000000E+00  0.60319192474E+03  0.60319192474E+03  0.25500000920E-02 0.  1.
       -2   -1    0    0    0  501  0.00000000000E+00  0.00000000000E+00 -0.16592119076E+04  0.16592119076E+04  0.25500000920E-02 0. -1.
    10030    2    1    2    0    0  0.00000000000E+00  0.00000000000E+00 -0.10560199828E+04  0.22624038323E+04  0.20008230547E+04 0.  0.
        4    1    3    3  502    0 -0.36666792648E+02  0.95331304630E+03 -0.18752608472E+03  0.97227458224E+03  0.12699999809E+01 0.  1.
       -4    1    3    3    0  502  0.36666792648E+02 -0.95331304630E+03 -0.86849389810E+03  0.12901292501E+04  0.12699999809E+01 0. -1.
</event>
<event>
 5   0  0.1782172E-04  0.1973563E+04  0.7818609E-02  0.8619081E-01
       -2   -1    0    0    0  501  0.00000000000E+00  0.00000000000E+00  0.60185266065E+03  0.60185266066E+03  0.25500000920E-02 0.  1.
        2   -1    0    0  501    0  0.00000000000E+00  0.00000000000E+00 -0.16179011453E+04  0.16179011453E+04  0.25500000920E-02 0. -1.
    10030    2    1    2    0    0  0.00000000000E+00  0.00000000000E+00 -0.10160484846E+04  0.22197538059E+04  0.19735633853E+04 0.  0.
        2    1    3    3  502    0  0.76167769907E+03  0.14149424605E+03 -0.11954670458E+04  0.14245402755E+04  0.25500000920E-02 0.  1.
       -2    1    3    3    0  502 -0.76167769907E+03 -0.14149424605E+03  0.17941856114E+03  0.79521353046E+03  0.25500000920E-02 0. -1.
</event>
<event>
 5   0  0.1782172E-04  0.1826435E+04  0.7818609E-02  0.8692367E-01
        2   -1    0    0  501    0  0.00000000000E+00  0.00000000000E+00  0.75517404910E+03  0.75517404910E+03  0.25500000920E-02 0. -1.
       -2   -1    0    0    0  501  0.00000000000E+00  0.00000000000E+00 -0.11043365360E+04  0.11043365360E+04  0.25500000920E-02 0.  1.
    10030    2    1    2    0    0  0.00000000000E+00  0.00000000000E+00 -0.34916248694E+03  0.18595105851E+04  0.18264350998E+04 0.  0.
        2    1    3    3  502    0  0.47089973844E+03 -0.72968952389E+03 -0.46213707414E+03  0.98374998869E+03  0.25500000920E-02 0.  1.
       -2    1    3    3    0  502 -0.47089973844E+03  0.72968952389E+03  0.11297458719E+03  0.87576059645E+03  0.25500000920E-02 0. -1.
</event>
<event>
 5   0  0.1834645E-04  0.2015845E+04  0.7818609E-02  0.8599248E-01
       -2   -1    0    0    0  501  0.00000000000E+00  0.00000000000E+00  0.67092995632E+03  0.67092995632E+03  0.25500000920E-02 0.  1.
        2   -1    0    0  501    0  0.00000000000E+00  0.00000000000E+00 -0.15141787569E+04  0.15141787569E+04  0.25500000920E-02 0. -1.
    10030    2    1    2    0    0  0.00000000000E+00  0.00000000000E+00 -0.84324880057E+03  0.21851087132E+04  0.20158451203E+04 0.  0.
        1    1    3    3  502    0  0.36433874997E+03 -0.15389538229E+03 -0.14265504907E+04  0.14803623935E+04  0.50400001928E-02 0. -1.
       -1    1    3    3    0  502 -0.36433874997E+03  0.15389538229E+03  0.58330169015E+03  0.70474631973E+03  0.50400001928E-02 0.  1.
</event>
<event>
 5   0  0.1807498E-04  0.2009499E+04  0.7818609E-02  0.8602192E-01
        2   -1    0    0  501    0  0.00000000000E+00  0.00000000000E+00  0.11120695987E+04  0.11120695987E+04  0.25500000920E-02 0. -1.
       -2   -1    0    0    0  501  0.00000000000E+00  0.00000000000E+00 -0.90778637319E+03  0.90778637319E+03  0.25500000920E-02 0.  1.
    10030    2    1    2    0    0  0.00000000000E+00  0.00000000000E+00  0.20428322549E+03  0.20198559719E+04  0.20094990696E+04 0.  0.
        5    1    3    3  502    0  0.56897860709E+03  0.68922435513E+03  0.56356385875E+03  0.10565950880E+04  0.46999998093E+01 0. -1.
       -5    1    3    3    0  502 -0.56897860709E+03 -0.68922435513E+03 -0.35928063327E+03  0.96326088390E+03  0.46999998093E+01 0.  1.
</event>
<event>
 5   0  0.8577422E-05  0.1999251E+04  0.7818609E-02  0.8606971E-01
       -1   -1    0    0    0  501  0.00000000000E+00  0.00000000000E+00  0.76694332736E+03  0.76694332738E+03  0.50400001928E-02 0.  1.
        1   -1    0    0  501    0  0.00000000000E+00  0.00000000000E+00 -0.13029010986E+04  0.13029010986E+04  0.50400001928E-02 0. -1.
    10030    2    1    2    0    0  0.00000000000E+00  0.00000000000E+00 -0.53595777127E+03  0.20698444260E+04  0.19992511636E+04 0.  0.
        2    1    3    3  502    0 -0.13413714021E+03 -0.63825024342E+03 -0.10522868535E+04  0.12380079837E+04  0.25500000920E-02 0. -1.
       -2    1    3    3    0  502  0.13413714021E+03  0.63825024342E+03  0.51632908224E+03  0.83183644233E+03  0.25500000920E-02 0.  1.
</event>
<event>
 5   0  0.8765057E-05  0.2009123E+04  0.7818609E-02  0.8602367E-01
       -1   -1    0    0    0  501  0.00000000000E+00  0.00000000000E+00  0.13433358437E+04  0.13433358437E+04  0.50400001928E-02 0. -1.
        1   -1    0    0  501    0  0.00000000000E+00  0.00000000000E+00 -0.75122193833E+03  0.75122193835E+03  0.50400001928E-02 0.  1.
    10030    2    1    2    0    0  0.00000000000E+00  0.00000000000E+00  0.59211390537E+03  0.20945577821E+04  0.20091225511E+04 0.  0.
        3    1    3    3  502    0  0.80116165192E+02  0.23834844220E+03 -0.71788226171E+03  0.76064678511E+03  0.10100000352E+00 0.  1.
       -3    1    3    3    0  502 -0.80116165192E+02 -0.23834844220E+03  0.13099961671E+04  0.13339109969E+04  0.10100000352E+00 0. -1.
</event>
<event>
 5   0  0.8861350E-05  0.1799599E+04  0.7818609E-02  0.8706513E-01
        1   -1    0    0  501    0  0.00000000000E+00  0.00000000000E+00  0.19349027103E+04  0.19349027103E+04  0.50400001928E-02 0. -1.
       -1   -1    0    0    0  501  0.00000000000E+00  0.00000000000E+00 -0.41843928561E+03  0.41843928564E+03  0.50400001928E-02 0.  1.
    10030    2    1    2    0    0  0.00000000000E+00  0.00000000000E+00  0.15164634247E+04  0.23533419960E+04  0.17995991864E+04 0.  0.
        1    1    3    3  502    0  0.41776750860E+03  0.22130910234E+03 -0.24293623059E+03  0.53153120527E+03  0.50400001928E-02 0.  1.
       -1    1    3    3    0  502 -0.41776750860E+03 -0.22130910234E+03  0.17593996553E+04  0.18218107907E+04  0.50400001928E-02 0. -1.
</event>
<event>
 5   0  0.8577422E-05  0.2105511E+04  0.7818609E-02  0.8558820E-01
       -1   -1    0    0    0  501  0.00000000000E+00  0.00000000000E+00  0.12855472181E+04  0.12855472181E+04  0.50400001928E-02 0.  1.
        1   -1    0    0  501    0  0.00000000000E+00  0.00000000000E+00 -0.86211833046E+03  0.86211833047E+03  0.50400001928E-02 0. -1.
    10030    2    1    2    0    0  0.00000000000E+00  0.00000000000E+00  0.42342888760E+03  0.21476655485E+04  0.21055106947E+04 0.  0.
        2    1    3    3  502    0  0.27539095318E+03  0.51501808733E+03 -0.68172748578E+03  0.89768378188E+03  0.25500000920E-02 0. -1.
       -2    1    3    3    0  502 -0.27539095318E+03 -0.51501808733E+03  0.11051563734E+04  0.12499817667E+04  0.25500000920E-02 0.  1.
</event>
<event>
 5   0  0.1812865E-04  0.2021599E+04  0.7818609E-02  0.8596588E-01
        2   -1    0    0  501    0  0.00000000000E+00  0.00000000000E+00  0.91984016334E+03  0.91984016334E+03  0.25500000920E-02 0. -1.
       -2   -1    0    0    0  501  0.00000000000E+00  0.00000000000E+00 -0.11107536795E+04  0.11107536795E+04  0.25500000920E-02 0.  1.
    10030    2    1    2    0    0  0.00000000000E+00  0.00000000000E+00 -0.19091351613E+03  0.20305938428E+04  0.20215992144E+04 0.  0.
        3    1    3    3  502    0  0.54277057558E+03  0.25120218487E+01 -0.95195791209E+03  0.10958239295E+04  0.10100000352E+00 0.  1.
       -3    1    3    3    0  502 -0.54277057558E+03 -0.25120218487E+01  0.76104439595E+03  0.93476991328E+03  0.10100000352E+00 0. -1.
</event>
<event>
 5   0  0.8577422E-05  0.1982222E+04  0.7818609E-02  0.8614978E-01
       -1   -1    0    0    0  501  0.00000000000E+00  0.00000000000E+00  0.12739441002E+04  0.12739441002E+04  0.50400001928E-02 0. -1.
        1   -1    0    0  501    0  0.00000000000E+00  0.00000000000E+00 -0.77107089099E+03  0.77107089100E+03  0.50400001928E-02 0.  1.
    10030    2    1    2    0    0  0.00000000000E+00  0.00000000000E+00  0.50287320922E+03  0.20450149912E+04  0.19822221999E+04 0.  0.
        2    1    3    3  502    0 -0.41141040896E+03 -0.60774451471E+03  0.93863736980E+03  0.11914915156E+04  0.25500000920E-02 0.  1.
       -2    1    3    3    0  502  0.41141040896E+03  0.60774451471E+03 -0.43576416059E+03  0.85352347561E+03  0.25500000920E-02 0. -1.
</event>
<event>
 5   0  0.1807498E-04  0.2008253E+04  0.7818609E-02  0.8602772E-01
       -2   -1    0    0    0  501  0.00000000000E+00  0.00000000000E+00  0.12026982441E+04  0.12026982441E+04  0.25500000920E-02 0.  1.
        2   -1    0    0  501    0  0.00000000000E+00  0.00000000000E+00 -0.83834000646E+03  0.83834000646E+03  0.25500000920E-02 0. -1.
    10030    2    1    2    0    0  0.00000000000E+00  0.00000000000E+00  0.36435823762E+03  0.20410382505E+04  0.20082530256E+04 0.  0.
        5    1    3    3  502    0 -0.98737905514E+03 -0.99804673851E+02  0.26812297112E+02  0.99278364245E+03  0.46999998093E+01 0. -1.
       -5    1    3    3    0  502  0.98737905514E+03  0.99804673851E+02  0.33754594051E+03  0.10482546081E+04  0.46999998093E+01 0.  1.
</event>
<event>
 5   0  0.1834645E-04  0.2009374E+04  0.7818609E-02  0.8602250E-01
        2   -1    0    0  501    0  0.00000000000E+00  0.00000000000E+00  0.13308789659E+04  0.13308789659E+04  0.25500000920E-02 0.  1.
       -2   -1    0    0    0  501  0.00000000000E+00  0.00000000000E+00 -0.75844332452E+03  0.75844332452E+03  0.25500000920E-02 0. -1.
    10030    2    1    2    0    0  0.00000000000E+00  0.00000000000E+00  0.57243564142E+03  0.20893222905E+04  0.20093742981E+04 0.  0.
        1    1    3    3  502    0  0.87316282109E+02 -0.98663684984E+03  0.46119852181E+03  0.10926026190E+04  0.50400001928E-02 0.  1.
       -1    1    3    3    0  502 -0.87316282109E+02  0.98663684984E+03  0.11123711961E+03  0.99671967142E+03  0.50400001928E-02 0. -1.
</event>
<event>
 5   0  0.8881384E-05  0.2034973E+04  0.7818609E-02  0.8590442E-01
       -1   -1    0    0    0  501  0.00000000000E+00  0.00000000000E+00  0.66092098193E+03  0.66092098195E+03  0.50400001928E-02 0.  1.
        1   -1    0    0  501    0  0.00000000000E+00  0.00000000000E+00 -0.15664190396E+04  0.15664190396E+04  0.50400001928E-02 0. -1.
    10030    2    1    2    0    0  0.00000000000E+00  0.00000000000E+00 -0.90549805765E+03  0.22273400215E+04  0.20349734247E+04 0.  0.
        5    1    3    3  502    0 -0.55149763003E+03  0.78585447602E+03 -0.83939055640E+02  0.96373479156E+03  0.46999998093E+01 0.  1.
       -5    1    3    3    0  502  0.55149763003E+03 -0.78585447602E+03 -0.82155900200E+03  0.12636052300E+04  0.46999998093E+01 0. -1.
</event>
<event>
 5   0  0.8765057E-05  0.2036954E+04  0.7818609E-02  0.8589536E-01
       -1   -1    0    0    0  501  0.00000000000E+00  0.00000000000E+00  0.97564528524E+03  0.97564528525E+03  0.50400001928E-02 0.  1.
        1   -1    0    0  501    0  0.00000000000E+00  0.00000000000E+00 -0.10631894307E+04  0.10631894307E+04  0.50400001928E-02 0. -1.
    10030    2    1    2    0    0  0.00000000000E+00  0.00000000000E+00 -0.87544145426E+02  0.20388347159E+04  0.20369543494E+04 0.  0.
        3    1    3    3  502    0  0.77573374848E+02 -0.50695165875E+03  0.83697096899E+03  0.98159972796E+03  0.10100000352E+00 0.  1.
       -3    1    3    3    0  502 -0.77573374848E+02  0.50695165875E+03 -0.92451511441E+03  0.10572349880E+04  0.10100000352E+00 0. -1.
</event>
<event>
 5   0  0.8861350E-05  0.2005190E+04  0.7818609E-02  0.8604198E-01
        1   -1    0    0  501    0  0.00000000000E+00  0.00000000000E+00  0.14346383093E+04  0.14346383093E+04  0.50400001928E-02 0.  1.
       -1   -1    0    0    0  501  0.00000000000E+00  0.00000000000E+00 -0.70066192371E+03  0.70066192373E+03  0.50400001928E-02 0. -1.
    10030    2    1    2    0    0  0.00000000000E+00  0.00000000000E+00  0.73397638561E+03  0.21353002331E+04  0.20051897044E+04 0.  0.
        1    1    3    3  502    0 -0.31559818617E+03  0.10482446904E+03  0.13741967285E+04  0.14138624520E+04  0.50400001928E-02 0.  1.
       -1    1    3    3    0  502  0.31559818617E+03 -0.10482446904E+03 -0.64022034292E+03  0.72143778106E+03  0.50400001928E-02 0. -1.
</event>
<event>
 5   0  0.8881384E-05  0.1989907E+04  0.7818609E-02  0.8611354E-01
        1   -1    0    0  501    0  0.00000000000E+00  0.00000000000E+00  0.11670891801E+04  0.11670891802E+04  0.50400001928E-02 0. -1.
       -1   -1    0    0    0  501  0.00000000000E+00  0.00000000000E+00 -0.84820597950E+03  0.84820597952E+03  0.50400001928E-02 0.  1.
    10030    2    1    2    0    0  0.00000000000E+00  0.00000000000E+00  0.31888320064E+03  0.20152951597E+04  0.19899065518E+04 0.  0.
        5    1    3    3  502    0  0.96371920900E+03  0.88158937468E+02 -0.74554359906E+02  0.97062204520E+03  0.46999998093E+01 0.  1.
       -5    1    3    3    0  502 -0.96371920900E+03 -0.88158937468E+02  0.39343756054E+03  0.10446731145E+04  0.46999998093E+01 0. -1.
</event>
<event>
 5   0  0.1782172E-04  0.1977453E+04  0.7818609E-02  0.8617235E-01
        2   -1    0    0  501    0  0.00000000000E+00  0.00000000000E+00  0.22984431621E+04  0.22984431621E+04  0.25500000920E-02 0. -1.
       -2   -1    0    0    0  501  0.00000000000E+00  0.00000000000E+00 -0.42532281962E+03  0.42532281963E+03  0.25500000920E-02 0.  1.
    10030    2    1    2    0    0  0.00000000000E+00  0.00000000000E+00  0.18731203424E+04  0.27237659817E+04  0.19774532373E+04 0.  0.
        2    1    3    3  502    0 -0.43532776128E+03 -0.19513209595E+02 -0.28591780217E+03  0.52119095800E+03  0.25500000920E-02 0.  1.
       -2    1    3    3    0  502  0.43532776128E+03  0.19513209595E+02  0.21590381446E+04  0.22025750237E+04  0.25500000920E-02 0. -1.
</event>
<event>
 5   0  0.8577422E-05  0.2006346E+04  0.7818609E-02  0.8603660E-01
       -1   -1    0    0    0  501  0.00000000000E+00  0.00000000000E+00  0.43961912209E+03  0.43961912212E+03  0.50400001928E-02 0.  1.
        1   -1    0    0  501    0  0.00000000000E+00  0.00000000000E+00 -0.22891538860E+04  0.22891538860E+04  0.50400001928E-02 0. -1.
    10030    2    1    2    0    0  0.00000000000E+00  0.00000000000E+00 -0.18495347639E+04  0.27287730082E+04  0.20063457546E+04 0.  0.
        2    1    3    3  502    0  0.64220024260E+03  0.39149292573E+03 -0.21913706447E+02  0.75244140837E+03  0.25500000920E-02 0.  1.
       -2    1    3    3    0  502 -0.64220024260E+03 -0.39149292573E+03 -0.18276210575E+04  0.19763315998E+04  0.25500000920E-02 0. -1.
</event>
<event>
 5   0  0.1807498E-04  0.2018285E+04  0.7818609E-02  0.8598119E-01
        2   -1    0    0  501    0  0.00000000000E+00  0.00000000000E+00  0.13070749792E+04  0.13070749792E+04  0.25500000920E-02 0.  1.
       -2   -1    0    0    0  501  0.00000000000E+00  0.00000000000E+00 -0.77912022983E+03  0.77912022984E+03  0.25500000920E-02 0. -1.
    10030    2    1    2    0    0  0.00000000000E+00  0.00000000000E+00  0.52795474934E+03  0.20861952090E+04  0.20182849731E+04 0.  0.
        5    1    3    3  502    0  0.24050953974E+03 -0.97509629294E+03  0.16223343497E+03  0.10173492009E+04  0.46999998093E+01 0. -1.
       -5    1    3    3    0  502 -0.24050953974E+03  0.97509629294E+03  0.36572131437E+03  0.10688460081E+04  0.46999998093E+01 0.  1.
</event>
<event>
 5   0  0.8861350E-05  0.1972231E+04  0.7818609E-02  0.8619715E-01
        1   -1    0    0  501    0  0.00000000000E+00  0.00000000000E+00  0.14851951350E+04  0.14851951350E+04  0.50400001928E-02 0.  1.
       -1   -1    0    0    0  501  0.00000000000E+00  0.00000000000E+00 -0.65474483776E+03  0.65474483778E+03  0.50400001928E-02 0. -1.
    10030    2    1    2    0    0  0.00000000000E+00  0.00000000000E+00  0.83045029726E+03  0.21399399728E+04  0.19722310694E+04 0.  0.
        1    1    3    3  502    0  0.56738494064E+02 -0.94932850489E+03  0.69812603873E+03  0.11797558361E+04  0.50400001928E-02 0. -1.
       -1    1    3    3    0  502 -0.56738494064E+02  0.94932850489E+03  0.13232425853E+03  0.96018413668E+03  0.50400001928E-02 0.  1.
</event>
<event>
 5   0  0.1812865E-04  0.1907134E+04  0.7818609E-02  0.8651313E-01
       -2   -1    0    0    0  501  0.00000000000E+00  0.00000000000E+00  0.20864624544E+04  0.20864624544E+04  0.25500000920E-02 0.  1.
        2   -1    0    0  501    0  0.00000000000E+00  0.00000000000E+00 -0.43580477420E+03  0.43580477421E+03  0.25500000920E-02 0. -1.
    10030    2    1    2    0    0  0.00000000000E+00  0.00000000000E+00  0.16506576802E+04  0.25222672286E+04  0.19071342887E+04 0.  0.
        3    1    3    3  502    0 -0.40339360146E+03  0.45696157272E+03  0.17951687171E+04  0.18958299000E+04  0.10100000352E+00 0.  1.
       -3    1    3    3    0  502  0.40339360146E+03 -0.45696157272E+03 -0.14451103694E+03  0.62643732858E+03  0.10100000352E+00 0. -1.
</event>
<event>
 5   0  0.1807498E-04  0.2028145E+04  0.7818609E-02  0.8593574E-01
        2   -1    0    0  501    0  0.00000000000E+00  0.00000000000E+00  0.13600899983E+04  0.13600899983E+04  0.25500000920E-02 0.  1.
       -2   -1    0    0    0  501  0.00000000000E+00  0.00000000000E+00 -0.75608428925E+03  0.75608428926E+03  0.25500000920E-02 0. -1.
    10030    2    1    2    0    0  0.00000000000E+00  0.00000000000E+00  0.60400570903E+03  0.21161742875E+04  0.20281446494E+04 0.  0.
        5    1    3    3  502    0 -0.24132627603E+03 -0.88084093768E+03  0.76181321562E+03  0.11893277910E+04  0.46999998093E+01 0.  1.
       -5    1    3    3    0  502  0.24132627603E+03  0.88084093768E+03 -0.15780750659E+03  0.92684649653E+03  0.46999998093E+01 0. -1.
</event>
<event>
 5   0  0.1807498E-04  0.2007458E+04  0.7818609E-02  0.8603142E-01
        2   -1    0    0  501    0  0.00000000000E+00  0.00000000000E+00  0.10498627250E+04  0.10498627250E+04  0.25500000920E-02 0. -1.
       -2   -1    0    0    0  501  0.00000000000E+00  0.00000000000E+00 -0.95962219729E+03  0.95962219729E+03  0.25500000920E-02 0.  1.
    10030    2    1    2    0    0  0.00000000000E+00  0.00000000000E+00  0.90240527744E+02  0.20094849223E+04  0.20074576708E+04 0.  0.
        5    1    3    3  502    0 -0.97005767389E+03 -0.16471108057E+03 -0.15334203807E+03  0.99583005647E+03  0.46999998093E+01 0. -1.
       -5    1    3    3    0  502  0.97005767389E+03  0.16471108057E+03  0.24358256581E+03  0.10136548659E+04  0.46999998093E+01 0.  1.
</event>
<event>
 5   0  0.1812865E-04  0.1973768E+04  0.7818609E-02  0.8618984E-01
       -2   -1    0    0    0  501  0.00000000000E+00  0.00000000000E+00  0.78537082354E+03  0.78537082354E+03  0.25500000920E-02 0.  1.
        2   -1    0    0  501    0  0.00000000000E+00  0.00000000000E+00 -0.12401019597E+04  0.12401019597E+04  0.25500000920E-02 0. -1.
    10030    2    1    2    0    0  0.00000000000E+00  0.00000000000E+00 -0.45473113613E+03  0.20254727832E+04  0.19737678661E+04 0.  0.
        3    1    3    3  502    0  0.76611053733E+03  0.56029901927E+03 -0.50477948370E+03  0.10750175272E+04  0.10100000352E+00 0. -1.
       -3    1    3    3    0  502 -0.76611053733E+03 -0.56029901927E+03  0.50048347568E+02  0.95045525602E+03  0.10100000352E+00 0.  1.
</event>
<event>
 5   0  0.8861350E-05  0.1980288E+04  0.7818609E-02  0.8615892E-01
        1   -1    0    0  501    0  0.00000000000E+00  0.00000000000E+00  0.19180460930E+04  0.19180460930E+04  0.50400001928E-02 0.  1.
       -1   -1    0    0    0  501  0.00000000000E+00  0.00000000000E+00 -0.51113758514E+03  0.51113758517E+03  0.50400001928E-02 0. -1.
    10030    2    1    2    0    0  0.00000000000E+00  0.00000000000E+00  0.14069085078E+04  0.24291836781E+04  0.19802883105E+04 0.  0.
        1    1    3    3  502    0  0.49432794073E+03 -0.19653306677E+03  0.17278621792E+04  0.18078974168E+04  0.50400001928E-02 0.  1.
       -1    1    3    3    0  502 -0.49432794073E+03  0.19653306677E+03 -0.32095367139E+03  0.62128626133E+03  0.50400001928E-02 0. -1.
</event>
<event>
 5   0  0.8958919E-05  0.1985249E+04  0.7818609E-02  0.8613548E-01
        1   -1    0    0  501    0  0.00000000000E+00  0.00000000000E+00  0.89365437181E+03  0.89365437183E+03  0.50400001928E-02 0.  1.
       -1   -1    0    0    0  501  0.00000000000E+00  0.00000000000E+00 -0.11025557478E+04  0.11025557478E+04  0.50400001928E-02 0. -1.
    10030    2    1    2    0    0  0.00000000000E+00  0.00000000000E+00 -0.20890137596E+03  0.19962101196E+04  0.19852493689E+04 0.  0.
        4    1    3    3  502    0 -0.79040095859E+03  0.35940498144E+03 -0.58814347622E+03  0.10487230223E+04  0.12699999809E+01 0. -1.
       -4    1    3    3    0  502  0.79040095859E+03 -0.35940498144E+03  0.37924210026E+03  0.94748709729E+03  0.12699999809E+01 0.  1.
</event>
<event>
 5   0  0.8881384E-05  0.1934450E+04  0.7818609E-02  0.8637896E-01
        1   -1    0    0  501    0  0.00000000000E+00  0.00000000000E+00  0.12953039209E+04  0.12953039209E+04  0.50400001928E-02 0.  1.
       -1   -1    0    0    0  501  0.00000000000E+00  0.00000000000E+00 -0.72224283396E+03  0.72224283398E+03  0.50400001928E-02 0. -1.
    10030    2    1    2    0    0  0.00000000000E+00  0.00000000000E+00  0.57306108696E+03  0.20175467549E+04  0.19344497664E+04 0.  0.
        5    1    3    3  502    0 -0.41248079888E+03 -0.33562639236E+03 -0.55608295827E+03  0.76943864679E+03  0.46999998093E+01 0. -1.
       -5    1    3    3    0  502  0.41248079888E+03  0.33562639236E+03  0.11291440452E+04  0.12481081081E+04  0.46999998093E+01 0.  1.
</event>
<event>
 5   0  0.1782172E-04  0.1697520E+04  0.7818609E-02  0.8762780E-01
       -2   -1    0    0    0  501  0.00000000000E+00  0.00000000000E+00  0.32930488747E+03  0.32930488748E+03  0.25500000920E-02 0.  1.
        2   -1    0    0  501    0  0.00000000000E+00  0.00000000000E+00 -0.21876178011E+04  0.21876178011E+04  0.25500000920E-02 0. -1.
    10030    2    1    2    0    0  0.00000000000E+00  0.00000000000E+00 -0.18583129136E+04  0.25169226886E+04  0.16975196421E+04 0.  0.
        2    1    3    3  502    0 -0.49970802568E+03  0.32883093291E+03 -0.18219318688E+04  0.19176218678E+04  0.25500000920E-02 0. -1.
       -2    1    3    3    0  502  0.49970802568E+03 -0.32883093291E+03 -0.36381044856E+02  0.59930082079E+03  0.25500000920E-02 0.  1.
</event>
<event>
 5   0  0.8765057E-05  0.2319050E+04  0.7818609E-02  0.8470448E-01
        1   -1    0    0  501    0  0.00000000000E+00  0.00000000000E+00  0.18221422609E+04  0.18221422609E+04  0.50400001928E-02 0.  1.
       -1   -1    0    0    0  501  0.00000000000E+00  0.00000000000E+00 -0.73786655831E+03  0.73786655832E+03  0.50400001928E-02 0. -1.
    10030    2    1    2    0    0  0.00000000000E+00  0.00000000000E+00  0.10842757026E+04  0.25600088192E+04  0.23190496664E+04 0.  0.
        3    1    3    3  502    0 -0.11710669056E+03 -0.88843017272E+03 -0.27017044570E+03  0.93595631773E+03  0.10100000352E+00 0. -1.
       -3    1    3    3    0  502  0.11710669056E+03  0.88843017272E+03  0.13544461483E+04  0.16240525015E+04  0.10100000352E+00 0.  1.
</event>
<event>
 5   0  0.8958919E-05  0.1901958E+04  0.7818609E-02  0.8653882E-01
       -1   -1    0    0    0  501  0.00000000000E+00  0.00000000000E+00  0.75842722146E+03  0.75842722148E+03  0.50400001928E-02 0.  1.
        1   -1    0    0  501    0  0.00000000000E+00  0.00000000000E+00 -0.11924163002E+04  0.11924163003E+04  0.50400001928E-02 0. -1.
    10030    2    1    2    0    0  0.00000000000E+00  0.00000000000E+00 -0.43398907878E+03  0.19508435217E+04  0.19019579190E+04 0.  0.
        4    1    3    3  502    0  0.54025645895E+03  0.58541044144E+03 -0.74974513726E+03  0.10939386684E+04  0.12699999809E+01 0. -1.
       -4    1    3    3    0  502 -0.54025645895E+03 -0.58541044144E+03  0.31575605848E+03  0.85690485338E+03  0.12699999809E+01 0.  1.
</event>
<event>
 5   0  0.1893687E-04  0.2037241E+04  0.7818609E-02  0.8589404E-01
       -2   -1    0    0    0  501  0.00000000000E+00  0.00000000000E+00  0.71110878191E+03  0.71110878191E+03  0.25500000920E-02 0. -1.
        2   -1    0    0  501    0  0.00000000000E+00  0.00000000000E+00 -0.14591130509E+04  0.14591130509E+04  0.25500000920E-02 0.  1.
    10030    2    1    2    0    0  0.00000000000E+00  0.00000000000E+00 -0.74800426901E+03  0.21702218328E+04  0.20372413743E+04 0.  0.
        4    1    3    3  502    0  0.96165023663E+03 -0.25251608825E+03 -0.13807097434E+03  0.10037931855E+04  0.12699999809E+01 0. -1.
       -4    1    3    3    0  502 -0.96165023663E+03  0.25251608825E+03 -0.60993329467E+03  0.11664286473E+04  0.12699999809E+01 0.  1.
</event>
<event>
 5   0  0.8958919E-05  0.1990918E+04  0.7818609E-02  0.8610879E-01
        1   -1    0    0  501    0  0.00000000000E+00  0.00000000000E+00  0.16537512302E+04  0.16537512302E+04  0.50400001928E-02 0.  1.
       -1   -1    0    0    0  501  0.00000000000E+00  0.00000000000E+00 -0.59920633698E+03  0.59920633700E+03  0.50400001928E-02 0. -1.
    10030    2    1    2    0    0  0.00000000000E+00  0.00000000000E+00  0.10545448932E+04  0.22529575672E+04  0.19909175944E+04 0.  0.
        4    1    3    3  502    0  0.62814277830E+03  0.72498398213E+03  0.22622921610E+03  0.98556907185E+03  0.12699999809E+01 0. -1.
       -4    1    3    3    0  502 -0.62814277830E+03 -0.72498398213E+03  0.82831567710E+03  0.12673884953E+04  0.12699999809E+01 0.  1.
</event>
<event>
 5   0  0.8958919E-05  0.2002556E+04  0.7818609E-02  0.8605427E-01
       -1   -1    0    0    0  501  0.00000000000E+00  0.00000000000E+00  0.67689166531E+03  0.67689166533E+03  0.50400001928E-02 0.  1.
        1   -1    0    0  501    0  0.00000000000E+00  0.00000000000E+00 -0.14811198996E+04  0.14811198996E+04  0.50400001928E-02 0. -1.
    10030    2    1    2    0    0  0.00000000000E+00  0.00000000000E+00 -0.80422823429E+03  0.21580115649E+04  0.20025560820E+04 0.  0.
        4    1    3    3  502    0 -0.70378890313E+03  0.71206867533E+03 -0.38704719204E+03  0.10733907771E+04  0.12699999809E+01 0. -1.
       -4    1    3    3    0  502  0.70378890313E+03 -0.71206867533E+03 -0.41718104226E+03  0.10846207879E+04  0.12699999809E+01 0.  1.
</event>
<event>
 5   0  0.8861350E-05  0.1997773E+04  0.7818609E-02  0.8607663E-01
       -1   -1    0    0    0  501  0.00000000000E+00  0.00000000000E+00  0.74082217636E+03  0.74082217638E+03  0.50400001928E-02 0. -1.
        1   -1    0    0  501    0  0.00000000000E+00  0.00000000000E+00 -0.13468473240E+04  0.13468473240E+04  0.50400001928E-02 0.  1.
    10030    2    1    2    0    0  0.00000000000E+00  0.00000000000E+00 -0.60602514767E+03  0.20876695004E+04  0.19977731261E+04 0.  0.
        1    1    3    3  502    0  0.20775128208E+03  0.95900090921E+03 -0.49832112370E+03  0.11005304546E+04  0.50400001928E-02 0. -1.
       -1    1    3    3    0  502 -0.20775128208E+03 -0.95900090921E+03 -0.10770402397E+03  0.98713904586E+03  0.50400001928E-02 0.  1.
</event>
<event>
 5   0  0.1834645E-04  0.1999063E+04  0.7818609E-02  0.8607059E-01
        2   -1    0    0  501    0  0.00000000000E+00  0.00000000000E+00  0.10646753903E+04  0.10646753903E+04  0.25500000920E-02 0. -1.
       -2   -1    0    0    0  501  0.00000000000E+00  0.00000000000E+00 -0.93837343429E+03  0.93837343429E+03  0.25500000920E-02 0.  1.
    10030    2    1    2    0    0  0.00000000000E+00  0.00000000000E+00  0.12630195597E+03  0.20030488246E+04  0.19990628828E+04 0.  0.
        1    1    3    3  502    0 -0.24370232372E+03  0.17467936381E+03 -0.89224871288E+03  0.94128182198E+03  0.50400001928E-02 0.  1.
       -1    1    3    3    0  502  0.24370232372E+03 -0.17467936381E+03  0.10185506689E+04  0.10617670026E+04  0.50400001928E-02 0. -1.
</event>
<event>
 5   0  0.8765057E-05  0.1986049E+04  0.7818609E-02  0.8613171E-01
        1   -1    0    0  501    0  0.00000000000E+00  0.00000000000E+00  0.67356132357E+03  0.67356132359E+03  0.50400001928E-02 0. -1.
       -1   -1    0    0    0  501  0.00000000000E+00  0.00000000000E+00 -0.14640056165E+04  0.14640056165E+04  0.50400001928E-02 0.  1.
    10030    2    1    2    0    0  0.00000000000E+00  0.00000000000E+00 -0.79044429294E+03  0.21375669401E+04  0.19860489025E+04 0.  0.
        3    1    3    3  502    0  0.21311263443E+03  0.68818101245E+03 -0.11308004065E+04  0.13407906885E+04  0.10100000352E+00 0.  1.
       -3    1    3    3    0  502 -0.21311263443E+03 -0.68818101245E+03  0.34035611357E+03  0.79677625159E+03  0.10100000352E+00 0. -1.
</event>
<event>
 5   0  0.1782172E-04  0.2003703E+04  0.7818609E-02  0.8604891E-01
        2   -1    0    0  501    0  0.00000000000E+00  0.00000000000E+00  0.20310969145E+04  0.20310969145E+04  0.25500000920E-02 0. -1.
       -2   -1    0    0    0  501  0.00000000000E+00  0.00000000000E+00 -0.49416984664E+03  0.49416984664E+03  0.25500000920E-02 0.  1.
    10030    2    1    2    0    0  0.00000000000E+00  0.00000000000E+00  0.15369270679E+04  0.25252667612E+04  0.20037034219E+04 0.  0.
        2    1    3    3  502    0  0.52739072338E+03 -0.35610644771E+03 -0.20674627984E+03  0.66910148815E+03  0.25500000920E-02 0.  1.
       -2    1    3    3    0  502 -0.52739072338E+03  0.35610644771E+03  0.17436733477E+04  0.18561652730E+04  0.25500000920E-02 0. -1.
</event>
<event>
 5   0  0.1812865E-04  0.2003984E+04  0.7818609E-02  0.8604760E-01
        2   -1    0    0  501    0  0.00000000000E+00  0.00000000000E+00  0.71829618710E+03  0.71829618711E+03  0.25500000920E-02 0.  1.
       -2   -1    0    0    0  501  0.00000000000E+00  0.00000000000E+00 -0.13977359896E+04  0.13977359896E+04  0.25500000920E-02 0. -1.
    10030    2    1    2    0    0  0.00000000000E+00  0.00000000000E+00 -0.67943980248E+03  0.21160321767E+04  0.20039844629E+04 0.  0.
        3    1    3    3  502    0 -0.58278840509E+03  0.81381618036E+03 -0.38752045538E+03  0.10733644367E+04  0.10100000352E+00 0.  1.
       -3    1    3    3    0  502  0.58278840509E+03 -0.81381618036E+03 -0.29191934710E+03  0.10426677400E+04  0.10100000352E+00 0. -1.
</event>
<event>
 5   0  0.8881384E-05  0.2023770E+04  0.7818609E-02  0.8595587E-01
       -1   -1    0    0    0  501  0.00000000000E+00  0.00000000000E+00  0.10003872304E+04  0.10003872304E+04  0.50400001928E-02 0.  1.
        1   -1    0    0  501    0  0.00000000000E+00  0.00000000000E+00 -0.10235146670E+04  0.10235146670E+04  0.50400001928E-02 0. -1.
    10030    2    1    2    0    0  0.00000000000E+00  0.00000000000E+00 -0.23127436654E+02  0.20239018974E+04  0.20237697527E+04 0.  0.
        5    1    3    3  502    0  0.17830325002E+01 -0.73824879318E+03  0.68048902004E+03  0.10040427562E+04  0.46999998093E+01 0.  1.
       -5    1    3    3    0  502 -0.17830325002E+01  0.73824879318E+03 -0.70361645670E+03  0.10198591412E+04  0.46999998093E+01 0. -1.
</event>
<event>
 5   0  0.1893687E-04  0.1786339E+04  0.7818609E-02  0.8713598E-01
       -2   -1    0    0    0  501  0.00000000000E+00  0.00000000000E+00  0.73802151464E+03  0.73802151465E+03  0.25500000920E-02 0.  1.
        2   -1    0    0  501    0  0.00000000000E+00  0.00000000000E+00 -0.10809330120E+04  0.10809330120E+04  0.25500000920E-02 0. -1.
    10030    2    1    2    0    0  0.00000000000E+00  0.00000000000E+00 -0.34291149736E+03  0.18189545266E+04  0.17863390706E+04 0.  0.
        4    1    3    3  502    0  0.43191766116E+03  0.23389985314E+03  0.58814594452E+03  0.76627623757E+03  0.12699999809E+01 0.  1.
       -4    1    3    3    0  502 -0.43191766116E+03 -0.23389985314E+03 -0.93105744187E+03  0.10526782891E+04  0.12699999809E+01 0. -1.
</event>
<event>
 5   0  0.1893687E-04  0.2016300E+04  0.7818609E-02  0.8599038E-01
        2   -1    0    0  501    0  0.00000000000E+00  0.00000000000E+00  0.10565318243E+04  0.10565318243E+04  0.25500000920E-02 0. -1.
       -2   -1    0    0    0  501  0.00000000000E+00  0.00000000000E+00 -0.96198325714E+03  0.96198325715E+03  0.25500000920E-02 0.  1.
    10030    2    1    2    0    0  0.00000000000E+00  0.00000000000E+00  0.94548567130E+02  0.20185150814E+04  0.20162995071E+04 0.  0.
        4    1    3    3  502    0 -0.28470580842E+03  0.54565408113E+03 -0.75208200137E+03  0.97181516930E+03  0.12699999809E+01 0.  1.
       -4    1    3    3    0  502  0.28470580842E+03 -0.54565408113E+03  0.84663056850E+03  0.10466999121E+04  0.12699999809E+01 0. -1.
</event>
<event>
 5   0  0.1782172E-04  0.1951546E+04  0.7818609E-02  0.8629616E-01
       -2   -1    0    0    0  501  0.00000000000E+00  0.00000000000E+00  0.74691913942E+03  0.74691913943E+03  0.25500000920E-02 0. -1.
        2   -1    0    0  501    0  0.00000000000E+00  0.00000000000E+00 -0.12747463938E+04  0.12747463938E+04  0.25500000920E-02 0.  1.
    10030    2    1    2    0    0  0.00000000000E+00  0.00000000000E+00 -0.52782725434E+03  0.20216655332E+04  0.19515455203E+04 0.  0.
        2    1    3    3  502    0  0.36810314334E+03 -0.84705661738E+03  0.62244353406E+02  0.92567769592E+03  0.25500000920E-02 0. -1.
       -2    1    3    3    0  502 -0.36810314334E+03  0.84705661738E+03 -0.59007160775E+03  0.10959878373E+04  0.25500000920E-02 0.  1.
</event>
<event>
 5   0  0.8881384E-05  0.1995570E+04  0.7818609E-02  0.8608695E-01
        1   -1    0    0  501    0  0.00000000000E+00  0.00000000000E+00  0.10571623460E+04  0.10571623461E+04  0.50400001928E-02 0. -1.
       -1   -1    0    0    0  501  0.00000000000E+00  0.00000000000E+00 -0.94174256652E+03  0.94174256653E+03  0.50400001928E-02 0.  1.
    10030    2    1    2    0    0  0.00000000000E+00  0.00000000000E+00  0.11541977952E+03  0.19989049126E+04  0.19955698745E+04 0.  0.
        5    1    3    3  502    0 -0.26160240680E+03 -0.50133034863E+03  0.88114501894E+03  0.10469988405E+04  0.46999998093E+01 0. -1.
       -5    1    3    3    0  502  0.26160240680E+03  0.50133034863E+03 -0.76572523942E+03  0.95190607204E+03  0.46999998093E+01 0.  1.
</event>
<event>
 5   0  0.1812865E-04  0.1934129E+04  0.7818609E-02  0.8638052E-01
        2   -1    0    0  501    0  0.00000000000E+00  0.00000000000E+00  0.81000300415E+03  0.81000300415E+03  0.25500000920E-02 0.  1.
       -2   -1    0    0    0  501  0.00000000000E+00  0.00000000000E+00 -0.11545801827E+04  0.11545801827E+04  0.25500000920E-02 0. -1.
    10030    2    1    2    0    0  0.00000000000E+00  0.00000000000E+00 -0.34457717855E+03  0.19645831869E+04  0.19341286581E+04 0.  0.
        3    1    3    3  502    0 -0.42826922247E+03  0.13376694831E+03 -0.10424605199E+04  0.11349150052E+04  0.10100000352E+00 0. -1.
       -3    1    3    3    0  502  0.42826922247E+03 -0.13376694831E+03  0.69788334130E+03  0.82966818165E+03  0.10100000352E+00 0.  1.
</event>
<event>
 5   0  0.6531625E-05  0.1985429E+04  0.7818609E-02  0.8613464E-01
        3   -1    0    0  501    0  0.00000000000E+00  0.00000000000E+00  0.93754663550E+03  0.93754664094E+03  0.10100000352E+00 0.  1.
       -3   -1    0    0    0  501  0.00000000000E+00  0.00000000000E+00 -0.10511282270E+04  0.10511282319E+04  0.10100000352E+00 0. -1.
    10030    2    1    2    0    0  0.00000000000E+00  0.00000000000E+00 -0.11358159155E+03  0.19886748728E+04  0.19854286620E+04 0.  0.
        1    1    3    3  502    0 -0.88716384222E+03  0.44285813110E+03 -0.10481431924E+03  0.99708026195E+03  0.50400001928E-02 0. -1.
       -1    1    3    3    0  502  0.88716384222E+03 -0.44285813110E+03 -0.87672723024E+01  0.99159461088E+03  0.50400001928E-02 0.  1.
</event>
<event>
 5   0  0.8765057E-05  0.1989686E+04  0.7818609E-02  0.8611458E-01
       -1   -1    0    0    0  501  0.00000000000E+00  0.00000000000E+00  0.76369197370E+03  0.76369197372E+03  0.50400001928E-02 0. -1.
        1   -1    0    0  501    0  0.00000000000E+00  0.00000000000E+00 -0.12959583769E+04  0.12959583770E+04  0.50400001928E-02 0.  1.
    10030    2    1    2    0    0  0.00000000000E+00  0.00000000000E+00 -0.53226640324E+03  0.20596503507E+04  0.19896864183E+04 0.  0.
        3    1    3    3  502    0  0.77950023790E+03  0.39559808806E+03 -0.75780256718E+03  0.11568851322E+04  0.10100000352E+00 0.  1.
       -3    1    3    3    0  502 -0.77950023790E+03 -0.39559808806E+03  0.22553616394E+03  0.90276521843E+03  0.10100000352E+00 0. -1.
</event>
<event>
 5   0  0.6531625E-05  0.1807437E+04  0.7818609E-02  0.8702355E-01
       -3   -1    0    0    0  501  0.00000000000E+00  0.00000000000E+00  0.61376901805E+03  0.61376902636E+03  0.10100000352E+00 0. -1.
        3   -1    0    0  501    0  0.00000000000E+00  0.00000000000E+00 -0.13306418238E+04  0.13306418277E+04  0.10100000352E+00 0.  1.
    10030    2    1    2    0    0  0.00000000000E+00  0.00000000000E+00 -0.71687280579E+03  0.19444108540E+04  0.18074365686E+04 0.  0.
        3    1    3    3  502    0 -0.83810385004E+03 -0.12360701092E+03 -0.69694089606E+03  0.10970065539E+04  0.10100000352E+00 0. -1.
       -3    1    3    3    0  502  0.83810385004E+03  0.12360701092E+03 -0.19931909737E+02  0.84740430010E+03  0.10100000352E+00 0.  1.
</event>
<event>
 5   0  0.1893687E-04  0.2029605E+04  0.7818609E-02  0.8592903E-01
       -2   -1    0    0    0  501  0.00000000000E+00  0.00000000000E+00  0.67422947715E+03  0.67422947716E+03  0.25500000920E-02 0.  1.
        2   -1    0    0  501    0  0.00000000000E+00  0.00000000000E+00 -0.15274094738E+04  0.15274094738E+04  0.25500000920E-02 0. -1.
    10030    2    1    2    0    0  0.00000000000E+00  0.00000000000E+00 -0.85317999668E+03  0.22016389510E+04  0.20296053714E+04 0.  0.
        4    1    3    3  502    0 -0.59759129345E+02 -0.18054412893E+03 -0.15079054925E+04  0.15198512833E+04  0.12699999809E+01 0. -1.
       -4    1    3    3    0  502  0.59759129345E+02  0.18054412893E+03  0.65472549584E+03  0.68178766770E+03  0.12699999809E+01 0.  1.
</event>
<event>
 5   0  0.8958919E-05  0.2035723E+04  0.7818609E-02  0.8590099E-01
       -1   -1    0    0    0  501  0.00000000000E+00  0.00000000000E+00  0.12508341479E+04  0.12508341479E+04  0.50400001928E-02 0. -1.
        1   -1    0    0  501    0  0.00000000000E+00  0.00000000000E+00 -0.82828123945E+03  0.82828123947E+03  0.50400001928E-02 0.  1.
    10030    2    1    2    0    0  0.00000000000E+00  0.00000000000E+00  0.42255290844E+03  0.20791153874E+04  0.20357234177E+04 0.  0.
        4    1    3    3  502    0  0.46731285189E+03 -0.21060573559E+03 -0.68684519269E+03  0.85702625924E+03  0.12699999809E+01 0.  1.
       -4    1    3    3    0  502 -0.46731285189E+03  0.21060573559E+03  0.11093981011E+04  0.12220891281E+04  0.12699999809E+01 0. -1.
</event>
<event>
 5   0  0.8765057E-05  0.1984340E+04  0.7818609E-02  0.8613978E-01
        1   -1    0    0  501    0  0.00000000000E+00  0.00000000000E+00  0.82906946819E+03  0.82906946821E+03  0.50400001928E-02 0. -1.
       -1   -1    0    0    0  501  0.00000000000E+00  0.00000000000E+00 -0.11873564770E+04  0.11873564770E+04  0.50400001928E-02 0.  1.
    10030    2    1    2    0    0  0.00000000000E+00  0.00000000000E+00 -0.35828700880E+03  0.20164259452E+04  0.19843396917E+04 0.  0.
        3    1    3    3  502    0  0.71658495663E+03  0.60145941561E+03 -0.51486969127E+03  0.10678662079E+04  0.10100000352E+00 0.  1.
       -3    1    3    3    0  502 -0.71658495663E+03 -0.60145941561E+03  0.15658268247E+03  0.94855973736E+03  0.10100000352E+00 0. -1.
</event>
<event>
 5   0  0.1782172E-04  0.1942541E+04  0.7818609E-02  0.8633966E-01
        2   -1    0    0  501    0  0.00000000000E+00  0.00000000000E+00  0.13563047347E+04  0.13563047347E+04  0.25500000920E-02 0.  1.
       -2   -1    0    0    0  501  0.00000000000E+00  0.00000000000E+00 -0.69554160960E+03  0.69554160960E+03  0.25500000920E-02 0. -1.
    10030    2    1    2    0    0  0.00000000000E+00  0.00000000000E+00  0.66076312510E+03  0.20518463443E+04  0.19425409939E+04 0.  0.
        2    1    3    3  502    0 -0.41880593591E+03  0.81618111360E+03  0.66742309235E+03  0.11344618135E+04  0.25500000920E-02 0.  1.
       -2    1    3    3    0  502  0.41880593591E+03 -0.81618111360E+03 -0.66599672440E+01  0.91738453078E+03  0.25500000920E-02 0. -1.
</event>
<event>
 5   0  0.8765057E-05  0.1989289E+04  0.7818609E-02  0.8611645E-01
       -1   -1    0    0    0  501  0.00000000000E+00  0.00000000000E+00  0.70439737430E+03  0.70439737431E+03  0.50400001928E-02 0. -1.
        1   -1    0    0  501    0  0.00000000000E+00  0.00000000000E+00 -0.14044876934E+04  0.14044876934E+04  0.50400001928E-02 0.  1.
    10030    2    1    2    0    0  0.00000000000E+00  0.00000000000E+00 -0.70009031913E+03  0.21088850677E+04  0.19892887608E+04 0.  0.
        3    1    3    3  502    0  0.94614253752E+03  0.28693258780E+03 -0.23487969762E+03  0.10162108511E+04  0.10100000352E+00 0. -1.
       -3    1    3    3    0  502 -0.94614253752E+03 -0.28693258780E+03 -0.46521062151E+03  0.10926742167E+04  0.10100000352E+00 0.  1.
</event>
<event>
 5   0  0.1893687E-04  0.2035390E+04  0.7818609E-02  0.8590251E-01
       -2   -1    0    0    0  501  0.00000000000E+00  0.00000000000E+00  0.96883492299E+03  0.96883492300E+03  0.25500000920E-02 0. -1.
        2   -1    0    0  501    0  0.00000000000E+00  0.00000000000E+00 -0.10690194956E+04  0.10690194956E+04  0.25500000920E-02 0.  1.
    10030    2    1    2    0    0  0.00000000000E+00  0.00000000000E+00 -0.10018457259E+03  0.20378544186E+04  0.20353903023E+04 0.  0.
        4    1    3    3  502    0  0.62342633714E+03 -0.58788979137E+03  0.49959606317E+03  0.99190354565E+03  0.12699999809E+01 0. -1.
       -4    1    3    3    0  502 -0.62342633714E+03  0.58788979137E+03 -0.59978063576E+03  0.10459508729E+04  0.12699999809E+01 0.  1.
</event>
<event>
 5   0  0.1834645E-04  0.1985894E+04  0.7818609E-02  0.8613244E-01
       -2   -1    0    0    0  501  0.00000000000E+00  0.00000000000E+00  0.89365438975E+03  0.89365438975E+03  0.25500000920E-02 0.  1.
        2   -1    0    0  501    0  0.00000000000E+00  0.00000000000E+00 -0.11032718671E+04  0.11032718671E+04  0.25500000920E-02 0. -1.
    10030    2    1    2    0    0  0.00000000000E+00  0.00000000000E+00 -0.20961747732E+03  0.19969262568E+04  0.19858940023E+04 0.  0.
        1    1    3    3  502    0 -0.63760462254E+03 -0.70202523274E+03 -0.40066195123E+03  0.10295188591E+04  0.50400001928E-02 0. -1.
       -1    1    3    3    0  502  0.63760462254E+03  0.70202523274E+03  0.19104447391E+03  0.96740739770E+03  0.50400001928E-02 0.  1.
</event>
<event>
 5   0  0.1812865E-04  0.2009718E+04  0.7818609E-02  0.8602091E-01
       -2   -1    0    0    0  501  0.00000000000E+00  0.00000000000E+00  0.50968988267E+03  0.50968988268E+03  0.25500000920E-02 0.  1.
        2   -1    0    0  501    0  0.00000000000E+00  0.00000000000E+00 -0.19810902381E+04  0.19810902381E+04  0.25500000920E-02 0. -1.
    10030    2    1    2    0    0  0.00000000000E+00  0.00000000000E+00 -0.14714003554E+04  0.24907801208E+04  0.20097180409E+04 0.  0.
        3    1    3    3  502    0  0.27585488274E+03 -0.75825804157E+03 -0.14779672187E+04  0.16838759704E+04  0.10100000352E+00 0. -1.
       -3    1    3    3    0  502 -0.27585488274E+03  0.75825804157E+03  0.65668633071E+01  0.80690415034E+03  0.10100000352E+00 0.  1.
</event>
<event>
 5   0  0.1812865E-04  0.1994463E+04  0.7818609E-02  0.8609214E-01
        2   -1    0    0  501    0  0.00000000000E+00  0.00000000000E+00  0.27820925507E+04  0.27820925507E+04  0.25500000920E-02 0.  1.
       -2   -1    0    0    0  501  0.00000000000E+00  0.00000000000E+00 -0.35745423913E+03  0.35745423914E+03  0.25500000920E-02 0. -1.
    10030    2    1    2    0    0  0.00000000000E+00  0.00000000000E+00  0.24246383116E+04  0.31395467899E+04  0.19944631116E+04 0.  0.
        3    1    3    3  502    0 -0.35305178173E+03 -0.50042519665E+03 -0.26552998956E+02  0.61300571774E+03  0.10100000352E+00 0. -1.
       -3    1    3    3    0  502  0.35305178173E+03  0.50042519665E+03  0.24511913106E+04  0.25265410721E+04  0.10100000352E+00 0.  1.
</event>
<event>
 5   0  0.1807498E-04  0.2305715E+04  0.7818609E-02  0.8475671E-01
       -2   -1    0    0    0  501  0.00000000000E+00  0.00000000000E+00  0.15260507449E+04  0.15260507449E+04  0.25500000920E-02 0.  1.
        2   -1    0    0  501    0  0.00000000000E+00  0.00000000000E+00 -0.87092836374E+03  0.87092836374E+03  0.25500000920E-02 0. -1.
    10030    2    1    2    0    0  0.00000000000E+00  0.00000000000E+00  0.65512238113E+03  0.23969791086E+04  0.23057154015E+04 0.  0.
        5    1    3    3  502    0  0.54729656643E+03 -0.96644936180E+03  0.64882533117E+03  0.12862947955E+04  0.46999998093E+01 0. -1.
       -5    1    3    3    0  502 -0.54729656643E+03  0.96644936180E+03  0.62970499608E+01  0.11106843131E+04  0.46999998093E+01 0.  1.
</event>
<event>
 5   0  0.8765057E-05  0.1996115E+04  0.7818609E-02  0.8608439E-01
       -1   -1    0    0    0  501  0.00000000000E+00  0.00000000000E+00  0.72129593758E+03  0.72129593759E+03  0.50400001928E-02 0. -1.
        1   -1    0    0  501    0  0.00000000000E+00  0.00000000000E+00 -0.13810126074E+04  0.13810126074E+04  0.50400001928E-02 0.  1.
    10030    2    1    2    0    0  0.00000000000E+00  0.00000000000E+00 -0.65971666986E+03  0.21023085450E+04  0.19961150102E+04 0.  0.
        3    1    3    3  502    0  0.76103364566E+03 -0.51502578211E+03  0.80342498708E+02  0.92243086102E+03  0.10100000352E+00 0. -1.
       -3    1    3    3    0  502 -0.76103364566E+03  0.51502578211E+03 -0.74005916857E+03  0.11798776840E+04  0.10100000352E+00 0.  1.
</event>
<event>
 5   0  0.8958919E-05  0.1993782E+04  0.7818609E-02  0.8609533E-01
       -1   -1    0    0    0  501  0.00000000000E+00  0.00000000000E+00  0.77910789835E+03  0.77910789837E+03  0.50400001928E-02 0.  1.
        1   -1    0    0  501    0  0.00000000000E+00  0.00000000000E+00 -0.12755504967E+04  0.12755504967E+04  0.50400001928E-02 0. -1.
    10030    2    1    2    0    0  0.00000000000E+00  0.00000000000E+00 -0.49644259836E+03  0.20546583951E+04  0.19937818003E+04 0.  0.
        4    1    3    3  502    0 -0.90449291393E+03 -0.15045926003E+03  0.15493251116E+03  0.92991995150E+03  0.12699999809E+01 0.  1.
       -4    1    3    3    0  502  0.90449291393E+03  0.15045926003E+03 -0.65137510952E+03  0.11247384436E+04  0.12699999809E+01 0. -1.
</event>
<event>
 5   0  0.1893687E-04  0.2004121E+04  0.7818609E-02  0.8604696E-01
        2   -1    0    0  501    0  0.00000000000E+00  0.00000000000E+00  0.19618254480E+04  0.19618254480E+04  0.25500000920E-02 0. -1.
       -2   -1    0    0    0  501  0.00000000000E+00  0.00000000000E+00 -0.51183207662E+03  0.51183207663E+03  0.25500000920E-02 0.  1.
    10030    2    1    2    0    0  0.00000000000E+00  0.00000000000E+00  0.14499933714E+04  0.24736575247E+04  0.20041209475E+04 0.  0.
        4    1    3    3  502    0  0.49453912255E+03 -0.30253847075E+03  0.17338128634E+04  0.18281704319E+04  0.12699999809E+01 0. -1.
       -4    1    3    3    0  502 -0.49453912255E+03  0.30253847075E+03 -0.28381949195E+03  0.64548709277E+03  0.12699999809E+01 0.  1.
</event>
<event>
 5   0  0.8765057E-05  0.1990916E+04  0.7818609E-02  0.8610880E-01
        1   -1    0    0  501    0  0.00000000000E+00  0.00000000000E+00  0.15012615220E+04  0.15012615220E+04  0.50400001928E-02 0. -1.
       -1   -1    0    0    0  501  0.00000000000E+00  0.00000000000E+00 -0.66006908079E+03  0.66006908081E+03  0.50400001928E-02 0.  1.
    10030    2    1    2    0    0  0.00000000000E+00  0.00000000000E+00  0.84119244122E+03  0.21613306028E+04  0.19909156817E+04 0.  0.
        3    1    3    3  502    0  0.93715010048E+03  0.17869460075E+03  0.11209919598E+03  0.96059789252E+03  0.10100000352E+00 0. -1.
       -3    1    3    3    0  502 -0.93715010048E+03 -0.17869460075E+03  0.72909324524E+03  0.12007327103E+04  0.10100000352E+00 0.  1.
</event>
<event>
 5   0  0.8577422E-05  0.1993567E+04  0.7818609E-02  0.8609634E-01
       -1   -1    0    0    0  501  0.00000000000E+00  0.00000000000E+00  0.12306989455E+04  0.12306989455E+04  0.50400001928E-02 0. -1.
        1   -1    0    0  501    0  0.00000000000E+00  0.00000000000E+00 -0.80732804292E+03  0.80732804293E+03  0.50400001928E-02 0.  1.
    10030    2    1    2    0    0  0.00000000000E+00  0.00000000000E+00  0.42337090256E+03  0.20380269884E+04  0.19935674266E+04 0.  0.
        2    1    3    3  502    0 -0.66469027348E+03 -0.52729744477E+03 -0.32316684777E+03  0.90790559335E+03  0.25500000920E-02 0.  1.
       -2    1    3    3    0  502  0.66469027348E+03  0.52729744477E+03  0.74653775034E+03  0.11301213951E+04  0.25500000920E-02 0. -1.
</event>
<event>
 5   0  0.8765057E-05  0.1999721E+04  0.7818609E-02  0.8606751E-01
        1   -1    0    0  501    0  0.00000000000E+00  0.00000000000E+00  0.16421456566E+04  0.16421456566E+04  0.50400001928E-02 0. -1.
       -1   -1    0    0    0  501  0.00000000000E+00  0.00000000000E+00 -0.60878963879E+03  0.60878963881E+03  0.50400001928E-02 0.  1.
    10030    2    1    2    0    0  0.00000000000E+00  0.00000000000E+00  0.10333560178E+04  0.22509352954E+04  0.19997212417E+04 0.  0.
        3    1    3    3  502    0  0.49741535796E+03  0.65017184782E+03 -0.12952830361E+03  0.82880821767E+03  0.10100000352E+00 0.  1.
       -3    1    3    3    0  502 -0.49741535796E+03 -0.65017184782E+03  0.11628843214E+04  0.14221270777E+04  0.10100000352E+00 0. -1.
</event>
<event>
 5   0  0.8765057E-05  0.2183113E+04  0.7818609E-02  0.8525490E-01
        1   -1    0    0  501    0  0.00000000000E+00  0.00000000000E+00  0.16336239181E+04  0.16336239181E+04  0.50400001928E-02 0. -1.
       -1   -1    0    0    0  501  0.00000000000E+00  0.00000000000E+00 -0.72935741347E+03  0.72935741349E+03  0.50400001928E-02 0.  1.
    10030    2    1    2    0    0  0.00000000000E+00  0.00000000000E+00  0.90426650463E+03  0.23629813316E+04  0.21831131125E+04 0.  0.
        3    1    3    3  502    0 -0.72748892266E+03 -0.15129742604E+03  0.13176159034E+04  0.15126938629E+04  0.10100000352E+00 0. -1.
       -3    1    3    3    0  502  0.72748892266E+03  0.15129742604E+03 -0.41334939880E+03  0.85028746869E+03  0.10100000352E+00 0.  1.
</event>
<event>
 5   0  0.8881384E-05  0.1990308E+04  0.7818609E-02  0.8611165E-01
        1   -1    0    0  501    0  0.00000000000E+00  0.00000000000E+00  0.14045953298E+04  0.14045953298E+04  0.50400001928E-02 0. -1.
       -1   -1    0    0    0  501  0.00000000000E+00  0.00000000000E+00 -0.70506564843E+03  0.70506564845E+03  0.50400001928E-02 0.  1.
    10030    2    1    2    0    0  0.00000000000E+00  0.00000000000E+00  0.69952968140E+03  0.21096609783E+04  0.19903084354E+04 0.  0.
        5    1    3    3  502    0  0.11103278221E+03  0.98218604887E+03  0.47196993496E+03  0.10953517348E+04  0.46999998093E+01 0.  1.
       -5    1    3    3    0  502 -0.11103278221E+03 -0.98218604887E+03  0.22755974644E+03  0.10143092435E+04  0.46999998093E+01 0. -1.
</event>
<event>
 5   0  0.8577422E-05  0.1987206E+04  0.7818609E-02  0.8612626E-01
        1   -1    0    0  501    0  0.00000000000E+00  0.00000000000E+00  0.15119331214E+04  0.15119331214E+04  0.50400001928E-02 0.  1.
       -1   -1    0    0    0  501  0.00000000000E+00  0.00000000000E+00 -0.65297004099E+03  0.65297004101E+03  0.50400001928E-02 0. -1.
    10030    2    1    2    0    0  0.00000000000E+00  0.00000000000E+00  0.85896308045E+03  0.21649031625E+04  0.19872061114E+04 0.  0.
        2    1    3    3  502    0  0.43139036575E+03 -0.35011129821E+03 -0.46793352665E+03  0.72638650467E+03  0.25500000920E-02 0. -1.
       -2    1    3    3    0  502 -0.43139036575E+03  0.35011129821E+03  0.13268966071E+04  0.14385166578E+04  0.25500000920E-02 0.  1.
</event>
<event>
 5   0  0.8577422E-05  0.1980516E+04  0.7818609E-02  0.8615785E-01
       -1   -1    0    0    0  501  0.00000000000E+00  0.00000000000E+00  0.99290195730E+03  0.99290195731E+03  0.50400001928E-02 0. -1.
        1   -1    0    0  501    0  0.00000000000E+00  0.00000000000E+00 -0.98762091289E+03  0.98762091290E+03  0.50400001928E-02 0.  1.
    10030    2    1    2    0    0  0.00000000000E+00  0.00000000000E+00  0.52810444112E+01  0.19805228702E+04  0.19805158293E+04 0.  0.
        2    1    3    3  502    0 -0.47816076929E+03  0.36630277974E+03  0.78864286471E+03  0.99235730249E+03  0.25500000920E-02 0. -1.
       -2    1    3    3    0  502  0.47816076929E+03 -0.36630277974E+03 -0.78336182030E+03  0.98816556773E+03  0.25500000920E-02 0.  1.
</event>
<event>
 5   0  0.1807498E-04  0.1993627E+04  0.7818609E-02  0.8609606E-01
        2   -1    0    0  501    0  0.00000000000E+00  0.00000000000E+00  0.24393014133E+04  0.24393014133E+04  0.25500000920E-02 0. -1.
       -2   -1    0    0    0  501  0.00000000000E+00  0.00000000000E+00 -0.40734483699E+03  0.40734483700E+03  0.25500000920E-02 0.  1.
    10030    2    1    2    0    0  0.00000000000E+00  0.00000000000E+00  0.20319565763E+04  0.28466462503E+04  0.19936266818E+04 0.  0.
        5    1    3    3  502    0  0.11300668953E+03  0.41436006058E+03 -0.26843318491E+03  0.50650097378E+03  0.46999998093E+01 0.  1.
       -5    1    3    3    0  502 -0.11300668953E+03 -0.41436006058E+03  0.23003897612E+04  0.23401452765E+04  0.46999998093E+01 0. -1.
</event>
<event>
 5   0  0.8765057E-05  0.2171744E+04  0.7818609E-02  0.8530282E-01
       -1   -1    0    0    0  501  0.00000000000E+00  0.00000000000E+00  0.15211902401E+04  0.15211902401E+04  0.50400001928E-02 0. -1.
        1   -1    0    0  501    0  0.00000000000E+00  0.00000000000E+00 -0.77512884437E+03  0.77512884439E+03  0.50400001928E-02 0.  1.
    10030    2    1    2    0    0  0.00000000000E+00  0.00000000000E+00  0.74606139571E+03  0.22963190845E+04  0.21717443983E+04 0.  0.
        3    1    3    3  502    0 -0.77265522635E+03 -0.68304559189E+02 -0.43046448854E+03  0.88710839118E+03  0.10100000352E+00 0.  1.
       -3    1    3    3    0  502  0.77265522635E+03  0.68304559189E+02  0.11765258842E+04  0.14092106933E+04  0.10100000352E+00 0. -1.
</event>
<event>
 5   0  0.1807498E-04  0.1996751E+04  0.7818609E-02  0.8608141E-01
       -2   -1    0    0    0  501  0.00000000000E+00  0.00000000000E+00  0.13842861514E+04  0.13842861514E+04  0.25500000920E-02 0. -1.
        2   -1    0    0  501    0  0.00000000000E+00  0.00000000000E+00 -0.72004910250E+03  0.72004910251E+03  0.25500000920E-02 0.  1.
    10030    2    1    2    0    0  0.00000000000E+00  0.00000000000E+00  0.66423704887E+03  0.21043352539E+04  0.19967513625E+04 0.  0.
        5    1    3    3  502    0  0.22986756315E+02  0.50904101198E+02  0.13826266582E+04  0.13837623295E+04  0.46999998093E+01 0. -1.
       -5    1    3    3    0  502 -0.22986756315E+02 -0.50904101198E+02 -0.71838960937E+03  0.72057292437E+03  0.46999998093E+01 0.  1.
</event>
<event>
 5   0  0.8765057E-05  0.2031617E+04  0.7818609E-02  0.8591980E-01
        1   -1    0    0  501    0  0.00000000000E+00  0.00000000000E+00  0.70722492739E+03  0.70722492741E+03  0.50400001928E-02 0. -1.
       -1   -1    0    0    0  501  0.00000000000E+00  0.00000000000E+00 -0.14590357930E+04  0.14590357930E+04  0.50400001928E-02 0.  1.
    10030    2    1    2    0    0  0.00000000000E+00  0.00000000000E+00 -0.75181086563E+03  0.21662607204E+04  0.20316165808E+04 0.  0.
        3    1    3    3  502    0 -0.99898431001E+02  0.19073822103E+03  0.68261329994E+03  0.71576650727E+03  0.10100000352E+00 0. -1.
       -3    1    3    3    0  502  0.99898431001E+02 -0.19073822103E+03 -0.14344241656E+04  0.14504942132E+04  0.10100000352E+00 0.  1.
</event>
<event>
 5   0  0.1893687E-04  0.2020763E+04  0.7818609E-02  0.8596974E-01
       -2   -1    0    0    0  501  0.00000000000E+00  0.00000000000E+00  0.68164092125E+03  0.68164092126E+03  0.25500000920E-02 0. -1.
        2   -1    0    0  501    0  0.00000000000E+00  0.00000000000E+00 -0.14976663897E+04  0.14976663897E+04  0.25500000920E-02 0.  1.
    10030    2    1    2    0    0  0.00000000000E+00  0.00000000000E+00 -0.81602546846E+03  0.21793073110E+04  0.20207629229E+04 0.  0.
        4    1    3    3  502    0  0.25610259120E+03  0.71947111717E+03  0.30543561608E+03  0.82250820915E+03  0.12699999809E+01 0. -1.
       -4    1    3    3    0  502 -0.25610259120E+03 -0.71947111717E+03 -0.11214610845E+04  0.13567991018E+04  0.12699999809E+01 0.  1.
</event>
<event>
 5   0  0.8958919E-05  0.2064468E+04  0.7818609E-02  0.8577059E-01
       -1   -1    0    0    0  501  0.00000000000E+00  0.00000000000E+00  0.12025938335E+04  0.12025938335E+04  0.50400001928E-02 0. -1.
        1   -1    0    0  501    0  0.00000000000E+00  0.00000000000E+00 -0.88600722775E+03  0.88600722776E+03  0.50400001928E-02 0.  1.
    10030    2    1    2    0    0  0.00000000000E+00  0.00000000000E+00  0.31658660572E+03  0.20886010612E+04  0.20644678041E+04 0.  0.
        4    1    3    3  502    0 -0.57261172314E+03 -0.16700213722E+03 -0.69401037847E+03  0.91510978447E+03  0.12699999809E+01 0.  1.
       -4    1    3    3    0  502  0.57261172314E+03  0.16700213722E+03  0.10105969842E+04  0.11734912768E+04  0.12699999809E+01 0. -1.
</event>
<event>
 5   0  0.1893687E-04  0.1925347E+04  0.7818609E-02  0.8642341E-01
       -2   -1    0    0    0  501  0.00000000000E+00  0.00000000000E+00  0.37327440663E+03  0.37327440664E+03  0.25500000920E-02 0.  1.
        2   -1    0    0  501    0  0.00000000000E+00  0.00000000000E+00 -0.24827331472E+04  0.24827331472E+04  0.25500000920E-02 0. -1.
    10030    2    1    2    0    0  0.00000000000E+00  0.00000000000E+00 -0.21094587406E+04  0.28560075539E+04  0.19253474932E+04 0.  0.
        4    1    3    3  502    0 -0.29847025027E+03  0.16344468869E+03 -0.23905394491E+04  0.24146385086E+04  0.12699999809E+01 0. -1.
       -4    1    3    3    0  502  0.29847025027E+03 -0.16344468869E+03  0.28108070849E+03  0.44136904529E+03  0.12699999809E+01 0.  1.
</event>
<event>
 5   0  0.1782172E-04  0.1993459E+04  0.7818609E-02  0.8609685E-01
       -2   -1    0    0    0  501  0.00000000000E+00  0.00000000000E+00  0.72018797174E+03  0.72018797174E+03  0.25500000920E-02 0.  1.
        2   -1    0    0  501    0  0.00000000000E+00  0.00000000000E+00 -0.13794582997E+04  0.13794582997E+04  0.25500000920E-02 0. -1.
    10030    2    1    2    0    0  0.00000000000E+00  0.00000000000E+00 -0.65927032796E+03  0.20996462714E+04  0.19934585774E+04 0.  0.
        2    1    3    3  502    0  0.49353563795E+03 -0.41288003421E+03  0.47211006115E+03  0.79808223789E+03  0.25500000920E-02 0.  1.
       -2    1    3    3    0  502 -0.49353563795E+03  0.41288003421E+03 -0.11313803891E+04  0.13015640336E+04  0.25500000920E-02 0. -1.
</event>
<event>
 5   0  0.8861350E-05  0.1859371E+04  0.7818609E-02  0.8675348E-01
        1   -1    0    0  501    0  0.00000000000E+00  0.00000000000E+00  0.64927399011E+03  0.64927399012E+03  0.50400001928E-02 0. -1.
       -1   -1    0    0    0  501  0.00000000000E+00  0.00000000000E+00 -0.13312026652E+04  0.13312026652E+04  0.50400001928E-02 0.  1.
    10030    2    1    2    0    0  0.00000000000E+00  0.00000000000E+00 -0.68192867513E+03  0.19804766554E+04  0.18593711476E+04 0.  0.
        1    1    3    3  502    0  0.54214676043E+03  0.75337505808E+03 -0.39750851086E+03  0.10097079302E+04  0.50400001928E-02 0.  1.
       -1    1    3    3    0  502 -0.54214676043E+03 -0.75337505808E+03 -0.28442016427E+03  0.97076872521E+03  0.50400001928E-02 0. -1.
</event>
<event>
 5   0  0.6531625E-05  0.1998134E+04  0.7818609E-02  0.8607494E-01
        3   -1    0    0  501    0  0.00000000000E+00  0.00000000000E+00  0.19026305142E+04  0.19026305169E+04  0.10100000352E+00 0. -1.
       -3   -1    0    0    0  501  0.00000000000E+00  0.00000000000E+00 -0.52460764728E+03  0.52460765701E+03  0.10100000352E+00 0.  1.
    10030    2    1    2    0    0  0.00000000000E+00  0.00000000000E+00  0.13780228669E+04  0.24272381739E+04  0.19981336620E+04 0.  0.
        3    1    3    3  502    0  0.41106698400E+03 -0.90355211522E+03  0.82618725183E+03  0.12914983064E+04  0.10100000352E+00 0. -1.
       -3    1    3    3    0  502 -0.41106698400E+03  0.90355211522E+03  0.55183561512E+03  0.11357398675E+04  0.10100000352E+00 0.  1.
</event>
<event>
 5   0  0.8861350E-05  0.1988372E+04  0.7818609E-02  0.8612077E-01
        1   -1    0    0  501    0  0.00000000000E+00  0.00000000000E+00  0.10443101106E+04  0.10443101106E+04  0.50400001928E-02 0. -1.
       -1   -1    0    0    0  501  0.00000000000E+00  0.00000000000E+00 -0.94646759045E+03  0.94646759046E+03  0.50400001928E-02 0.  1.
    10030    2    1    2    0    0  0.00000000000E+00  0.00000000000E+00  0.97842520138E+02  0.19907777011E+04  0.19883718707E+04 0.  0.
        1    1    3    3  502    0  0.15286250502E+03 -0.61764730969E+03  0.81375033741E+03  0.10329785846E+04  0.50400001928E-02 0. -1.
       -1    1    3    3    0  502 -0.15286250502E+03  0.61764730969E+03 -0.71590781727E+03  0.95779911645E+03  0.50400001928E-02 0.  1.
</event>
<event>
 5   0  0.1807498E-04  0.2021541E+04  0.7818609E-02  0.8596615E-01
        2   -1    0    0  501    0  0.00000000000E+00  0.00000000000E+00  0.24892410635E+04  0.24892410635E+04  0.25500000920E-02 0. -1.
       -2   -1    0    0    0  501  0.00000000000E+00  0.00000000000E+00 -0.41042914741E+03  0.41042914742E+03  0.25500000920E-02 0.  1.
    10030    2    1    2    0    0  0.00000000000E+00  0.00000000000E+00  0.20788119161E+04  0.28996702110E+04  0.20215410829E+04 0.  0.
        5    1    3    3  502    0 -0.46936269245E+03 -0.63938499700E+03  0.14074225865E+03  0.80557121648E+03  0.46999998093E+01 0.  1.
       -5    1    3    3    0  502  0.46936269245E+03  0.63938499700E+03  0.19380696575E+04  0.20940989945E+04  0.46999998093E+01 0. -1.
</event>
<event>
 5   0  0.1812865E-04  0.2004073E+04  0.7818609E-02  0.8604719E-01
       -2   -1    0    0    0  501  0.00000000000E+00  0.00000000000E+00  0.49522609042E+03  0.49522609043E+03  0.25500000920E-02 0. -1.
        2   -1    0    0  501    0  0.00000000000E+00  0.00000000000E+00 -0.20275135650E+04  0.20275135650E+04  0.25500000920E-02 0.  1.
    10030    2    1    2    0    0  0.00000000000E+00  0.00000000000E+00 -0.15322874746E+04  0.25227396554E+04  0.20040734678E+04 0.  0.
        3    1    3    3  502    0  0.56298735912E+03  0.15171344136E+03  0.25969112801E+03  0.63828773056E+03  0.10100000352E+00 0. -1.
       -3    1    3    3    0  502 -0.56298735912E+03 -0.15171344136E+03 -0.17919786026E+04  0.18844519249E+04  0.10100000352E+00 0.  1.
</event>
<event>
 5   0  0.1807498E-04  0.2076735E+04  0.7818609E-02  0.8571562E-01
       -2   -1    0    0    0  501  0.00000000000E+00  0.00000000000E+00  0.88242455181E+03  0.88242455181E+03  0.25500000920E-02 0. -1.
        2   -1    0    0  501    0  0.00000000000E+00  0.00000000000E+00 -0.12218686389E+04  0.12218686389E+04  0.25500000920E-02 0.  1.
    10030    2    1    2    0    0  0.00000000000E+00  0.00000000000E+00 -0.33944408706E+03  0.21042931907E+04  0.20767348276E+04 0.  0.
        5    1    3    3  502    0 -0.91541159587E+03 -0.43651314561E+03  0.56086453041E+02  0.10157213675E+04  0.46999998093E+01 0. -1.
       -5    1    3    3    0  502  0.91541159587E+03  0.43651314561E+03 -0.39553054011E+03  0.10885718232E+04  0.46999998093E+01 0.  1.
</event>
<event>
 5   0  0.8577422E-05  0.1995772E+04  0.7818609E-02  0.8608600E-01
       -1   -1    0    0    0  501  0.00000000000E+00  0.00000000000E+00  0.58261456292E+03  0.58261456294E+03  0.50400001928E-02 0.  1.
        1   -1    0    0  501    0  0.00000000000E+00  0.00000000000E+00 -0.17091507250E+04  0.17091507250E+04  0.50400001928E-02 0. -1.
    10030    2    1    2    0    0  0.00000000000E+00  0.00000000000E+00 -0.11265361621E+04  0.22917652879E+04  0.19957716329E+04 0.  0.
        2    1    3    3  502    0  0.57795499679E+02  0.10241516287E+02  0.58063057017E+03  0.58358981097E+03  0.25500000920E-02 0.  1.
       -2    1    3    3    0  502 -0.57795499679E+02 -0.10241516287E+02 -0.17071667322E+04  0.17081754770E+04  0.25500000920E-02 0. -1.
</event>
<event>
 5   0  0.1893687E-04  0.1999078E+04  0.7818609E-02  0.8607052E-01
       -2   -1    0    0    0  501  0.00000000000E+00  0.00000000000E+00  0.63784817067E+03  0.63784817068E+03  0.25500000920E-02 0.  1.
        2   -1    0    0  501    0  0.00000000000E+00  0.00000000000E+00 -0.15663257768E+04  0.15663257768E+04  0.25500000920E-02 0. -1.
    10030    2    1    2    0    0  0.00000000000E+00  0.00000000000E+00 -0.92847760616E+03  0.22041739475E+04  0.19990778188E+04 0.  0.
        4    1    3    3  502    0  0.16960236231E+03  0.31466313431E+03 -0.14934385362E+04  0.15356230409E+04  0.12699999809E+01 0. -1.
       -4    1    3    3    0  502 -0.16960236231E+03 -0.31466313431E+03  0.56496093004E+03  0.66855090663E+03  0.12699999809E+01 0.  1.
</event>
<event>
 5   0  0.8861350E-05  0.1997082E+04  0.7818609E-02  0.8607986E-01
       -1   -1    0    0    0  501  0.00000000000E+00  0.00000000000E+00  0.31751832491E+03  0.31751832495E+03  0.50400001928E-02 0. -1.
        1   -1    0    0  501    0  0.00000000000E+00  0.00000000000E+00 -0.31402409476E+04  0.31402409476E+04  0.50400001928E-02 0.  1.
    10030    2    1    2    0    0  0.00000000000E+00  0.00000000000E+00 -0.28227226226E+04  0.34577592725E+04  0.19970819168E+04 0.  0.
        1    1    3    3  502    0  0.75764611058E+02 -0.40973226250E+03 -0.29825233750E+04  0.30114890811E+04  0.50400001928E-02 0.  1.
       -1    1    3    3    0  502 -0.75764611058E+02  0.40973226250E+03  0.15980075239E+03  0.44627019137E+03  0.50400001928E-02 0. -1.
</event>
<event>
 5   0  0.1812865E-04  0.2013620E+04  0.7818609E-02  0.8600279E-01
       -2   -1    0    0    0  501  0.00000000000E+00  0.00000000000E+00  0.11880201094E+04  0.11880201094E+04  0.25500000920E-02 0.  1.
        2   -1    0    0  501    0  0.00000000000E+00  0.00000000000E+00 -0.85323970047E+03  0.85323970048E+03  0.25500000920E-02 0. -1.
    10030    2    1    2    0    0  0.00000000000E+00  0.00000000000E+00  0.33478040892E+03  0.20412598099E+04  0.20136195493E+04 0.  0.
        3    1    3    3  502    0 -0.96493047319E+02 -0.97494797124E+03 -0.67810671274E+02  0.98205537122E+03  0.10100000352E+00 0. -1.
       -3    1    3    3    0  502  0.96493047319E+02  0.97494797124E+03  0.40259108020E+03  0.10592044387E+04  0.10100000352E+00 0.  1.
</event>
<event>
 5   0  0.8861350E-05  0.2000977E+04  0.7818609E-02  0.8606164E-01
       -1   -1    0    0    0  501  0.00000000000E+00  0.00000000000E+00  0.77740144670E+03  0.77740144672E+03  0.50400001928E-02 0. -1.
        1   -1    0    0  501    0  0.00000000000E+00  0.00000000000E+00 -0.12875935018E+04  0.12875935018E+04  0.50400001928E-02 0.  1.
    10030    2    1    2    0    0  0.00000000000E+00  0.00000000000E+00 -0.51019205512E+03  0.20649949485E+04  0.20009768126E+04 0.  0.
        1    1    3    3  502    0 -0.47070925412E+03  0.78590925021E+03 -0.67015308967E+03  0.11350443670E+04  0.50400001928E-02 0.  1.
       -1    1    3    3    0  502  0.47070925412E+03 -0.78590925021E+03  0.15996103455E+03  0.92995058153E+03  0.50400001928E-02 0. -1.
</event>
<event>
 5   0  0.1807498E-04  0.1992638E+04  0.7818609E-02  0.8610070E-01
       -2   -1    0    0    0  501  0.00000000000E+00  0.00000000000E+00  0.65669618880E+03  0.65669618880E+03  0.25500000920E-02 0. -1.
        2   -1    0    0  501    0  0.00000000000E+00  0.00000000000E+00 -0.15115838501E+04  0.15115838501E+04  0.25500000920E-02 0.  1.
    10030    2    1    2    0    0  0.00000000000E+00  0.00000000000E+00 -0.85488766127E+03  0.21682800389E+04  0.19926378029E+04 0.  0.
        5    1    3    3  502    0 -0.83400785342E+03 -0.48536666526E+03 -0.15763777689E+03  0.97776360027E+03  0.46999998093E+01 0.  1.
       -5    1    3    3    0  502  0.83400785342E+03  0.48536666526E+03 -0.69724988437E+03  0.11905164386E+04  0.46999998093E+01 0. -1.
</event>
<event>
 5   0  0.8958919E-05  0.1985570E+04  0.7818609E-02  0.8613397E-01
       -1   -1    0    0    0  501  0.00000000000E+00  0.00000000000E+00  0.91376626718E+03  0.91376626719E+03  0.50400001928E-02 0. -1.
        1   -1    0    0  501    0  0.00000000000E+00  0.00000000000E+00 -0.10786365777E+04  0.10786365777E+04  0.50400001928E-02 0.  1.
    10030    2    1    2    0    0  0.00000000000E+00  0.00000000000E+00 -0.16487031050E+03  0.19924028449E+04  0.19855696606E+04 0.  0.
        4    1    3    3  502    0  0.10412127199E+03  0.95511603344E+03 -0.33336018385E+03  0.10169653395E+04  0.12699999809E+01 0.  1.
       -4    1    3    3    0  502 -0.10412127199E+03 -0.95511603344E+03  0.16848987336E+03  0.97543750540E+03  0.12699999809E+01 0. -1.
</event>
<event>
 5   0  0.1782172E-04  0.2025566E+04  0.7818609E-02  0.8594760E-01
       -2   -1    0    0    0  501  0.00000000000E+00  0.00000000000E+00  0.92813444827E+03  0.92813444827E+03  0.25500000920E-02 0. -1.
        2   -1    0    0  501    0  0.00000000000E+00  0.00000000000E+00 -0.11051521007E+04  0.11051521007E+04  0.25500000920E-02 0.  1.
    10030    2    1    2    0    0  0.00000000000E+00  0.00000000000E+00 -0.17701765240E+03  0.20332865489E+04  0.20255663260E+04 0.  0.
        2    1    3    3  502    0 -0.26760692895E+03 -0.83425326944E+03  0.42150021912E+03  0.97224195585E+03  0.25500000920E-02 0. -1.
       -2    1    3    3    0  502  0.26760692895E+03  0.83425326944E+03 -0.59851787153E+03  0.10610445931E+04  0.25500000920E-02 0.  1.
</event>
<event>
 5   0  0.1812865E-04  0.1995034E+04  0.7818609E-02  0.8608946E-01
       -2   -1    0    0    0  501  0.00000000000E+00  0.00000000000E+00  0.94488398072E+03  0.94488398072E+03  0.25500000920E-02 0. -1.
        2   -1    0    0  501    0  0.00000000000E+00  0.00000000000E+00 -0.10530816368E+04  0.10530816368E+04  0.25500000920E-02 0.  1.
    10030    2    1    2    0    0  0.00000000000E+00  0.00000000000E+00 -0.10819765609E+03  0.19979656175E+04  0.19950338032E+04 0.  0.
        3    1    3    3  502    0  0.23894431254E+03  0.16762863323E+03 -0.10093591700E+04  0.10507138941E+04  0.10100000352E+00 0.  1.
       -3    1    3    3    0  502 -0.23894431254E+03 -0.16762863323E+03  0.90116151387E+03  0.94725172338E+03  0.10100000352E+00 0. -1.
</event>
<event>
 5   0  0.8881384E-05  0.1988464E+04  0.7818609E-02  0.8612033E-01
       -1   -1    0    0    0  501  0.00000000000E+00  0.00000000000E+00  0.93206575877E+03  0.93206575878E+03  0.50400001928E-02 0.  1.
        1   -1    0    0  501    0  0.00000000000E+00  0.00000000000E+00 -0.10605448714E+04  0.10605448715E+04  0.50400001928E-02 0. -1.
    10030    2    1    2    0    0  0.00000000000E+00  0.00000000000E+00 -0.12847911268E+03  0.19926106302E+04  0.19884642922E+04 0.  0.
        5    1    3    3  502    0  0.97935950838E+03  0.11999555526E+03  0.58209720901E+02  0.98841005739E+03  0.46999998093E+01 0.  1.
       -5    1    3    3    0  502 -0.97935950838E+03 -0.11999555526E+03 -0.18668883358E+03  0.10042005729E+04  0.46999998093E+01 0. -1.
</event>
<event>
 5   0  0.6531625E-05  0.1996050E+04  0.7818609E-02  0.8608469E-01
       -4   -1    0    0    0  501  0.00000000000E+00  0.00000000000E+00  0.10405104587E+04  0.10405112337E+04  0.12699999809E+01 0.  1.
        4   -1    0    0  501    0  0.00000000000E+00  0.00000000000E+00 -0.95727305008E+03  0.95727389253E+03  0.12699999809E+01 0. -1.
    10030    2    1    2    0    0  0.00000000000E+00  0.00000000000E+00  0.83237408588E+02  0.19977851263E+04  0.19960503362E+04 0.  0.
        1    1    3    3  502    0 -0.44320184496E+03 -0.45975776419E+03  0.80925931774E+03  0.10308761907E+04  0.50400001928E-02 0. -1.
       -1    1    3    3    0  502  0.44320184496E+03  0.45975776419E+03 -0.72602190916E+03  0.96690893558E+03  0.50400001928E-02 0.  1.
</event>
<event>
 5   0  0.1893687E-04  0.2007784E+04  0.7818609E-02  0.8602990E-01
       -2   -1    0    0    0  501  0.00000000000E+00  0.00000000000E+00  0.45275459120E+03  0.45275459121E+03  0.25500000920E-02 0. -1.
        2   -1    0    0  501    0  0.00000000000E+00  0.00000000000E+00 -0.22259277219E+04  0.22259277219E+04  0.25500000920E-02 0.  1.
    10030    2    1    2    0    0  0.00000000000E+00  0.00000000000E+00 -0.17731731307E+04  0.26786823131E+04  0.20077838487E+04 0.  0.
        4    1    3    3  502    0 -0.85070705768E+02  0.41594167472E+03 -0.21002607973E+04  0.21427415923E+04  0.12699999809E+01 0.  1.
       -4    1    3    3    0  502  0.85070705768E+02 -0.41594167472E+03  0.32708766657E+03  0.53594072085E+03  0.12699999809E+01 0. -1.
</event>
<event>
 5   0  0.1782172E-04  0.1981504E+04  0.7818609E-02  0.8615317E-01
       -2   -1    0    0    0  501  0.00000000000E+00  0.00000000000E+00  0.18503031808E+04  0.18503031808E+04  0.25500000920E-02 0. -1.
        2   -1    0    0  501    0  0.00000000000E+00  0.00000000000E+00 -0.53050224108E+03  0.53050224108E+03  0.25500000920E-02 0.  1.
    10030    2    1    2    0    0  0.00000000000E+00  0.00000000000E+00  0.13198009397E+04  0.23808054219E+04  0.19815044629E+04 0.  0.
        2    1    3    3  502    0  0.40984959281E+03  0.89898702611E+03  0.74848410150E+03  0.12395091012E+04  0.25500000920E-02 0. -1.
       -2    1    3    3    0  502 -0.40984959281E+03 -0.89898702611E+03  0.57131683819E+03  0.11412963206E+04  0.25500000920E-02 0.  1.
</event>
<event>
 5   0  0.8577422E-05  0.1999999E+04  0.7818609E-02  0.8606621E-01
        1   -1    0    0  501    0  0.00000000000E+00  0.00000000000E+00  0.17242220385E+04  0.17242220385E+04  0.50400001928E-02 0.  1.
       -1   -1    0    0    0  501  0.00000000000E+00  0.00000000000E+00 -0.57997122928E+03  0.57997122930E+03  0.50400001928E-02 0. -1.
    10030    2    1    2    0    0  0.00000000000E+00  0.00000000000E+00  0.11442508092E+04  0.23041932678E+04  0.19999991752E+04 0.  0.
        2    1    3    3  502    0 -0.95336846953E+03  0.33556165245E+02  0.22656978293E+03  0.98049544694E+03  0.25500000920E-02 0. -1.
       -2    1    3    3    0  502  0.95336846953E+03 -0.33556165245E+02  0.91768102624E+03  0.13236978208E+04  0.25500000920E-02 0.  1.
</event>
<event>
 5   0  0.1782172E-04  0.1957629E+04  0.7818609E-02  0.8626691E-01
        2   -1    0    0  501    0  0.00000000000E+00  0.00000000000E+00  0.17239143297E+04  0.17239143297E+04  0.25500000920E-02 0. -1.
       -2   -1    0    0    0  501  0.00000000000E+00  0.00000000000E+00 -0.55575697968E+03  0.55575697969E+03  0.25500000920E-02 0.  1.
    10030    2    1    2    0    0  0.00000000000E+00  0.00000000000E+00  0.11681573501E+04  0.22796713094E+04  0.19576285870E+04 0.  0.
        2    1    3    3  502    0 -0.24949022402E+03  0.89706505972E+03  0.93557129133E+03  0.13199487620E+04  0.25500000920E-02 0. -1.
       -2    1    3    3    0  502  0.24949022402E+03 -0.89706505972E+03  0.23258605873E+03  0.95972254740E+03  0.25500000920E-02 0.  1.
</event>
<event>
 5   0  0.1807498E-04  0.2041119E+04  0.7818609E-02  0.8587634E-01
        2   -1    0    0  501    0  0.00000000000E+00  0.00000000000E+00  0.13718943346E+04  0.13718943346E+04  0.25500000920E-02 0. -1.
       -2   -1    0    0    0  501  0.00000000000E+00  0.00000000000E+00 -0.75919945103E+03  0.75919945103E+03  0.25500000920E-02 0.  1.
    10030    2    1    2    0    0  0.00000000000E+00  0.00000000000E+00  0.61269488357E+03  0.21310937856E+04  0.20411187380E+04 0.  0.
        5    1    3    3  502    0  0.21446671145E+03  0.48322243131E+03 -0.60506996865E+03  0.80351206923E+03  0.46999998093E+01 0.  1.
       -5    1    3    3    0  502 -0.21446671145E+03 -0.48322243131E+03  0.12177648522E+04  0.13275817164E+04  0.46999998093E+01 0. -1.
</event>
<event>
 5   0  0.1893687E-04  0.1985114E+04  0.7818609E-02  0.8613612E-01
       -2   -1    0    0    0  501  0.00000000000E+00  0.00000000000E+00  0.58935306510E+03  0.58935306511E+03  0.25500000920E-02 0.  1.
        2   -1    0    0  501    0  0.00000000000E+00  0.00000000000E+00 -0.16716111459E+04  0.16716111459E+04  0.25500000920E-02 0. -1.
    10030    2    1    2    0    0  0.00000000000E+00  0.00000000000E+00 -0.10822580808E+04  0.22609642111E+04  0.19851137524E+04 0.  0.
        4    1    3    3  502    0  0.12213745634E+03  0.49684864449E+03  0.42758359008E+03  0.66678742728E+03  0.12699999809E+01 0.  1.
       -4    1    3    3    0  502 -0.12213745634E+03 -0.49684864449E+03 -0.15098416709E+04  0.15941767838E+04  0.12699999809E+01 0. -1.
</event>
<event>
 5   0  0.1782172E-04  0.1996538E+04  0.7818609E-02  0.8608241E-01
        2   -1    0    0  501    0  0.00000000000E+00  0.00000000000E+00  0.18279188497E+04  0.18279188497E+04  0.25500000920E-02 0.  1.
       -2   -1    0    0    0  501  0.00000000000E+00  0.00000000000E+00 -0.54517780255E+03  0.54517780255E+03  0.25500000920E-02 0. -1.
    10030    2    1    2    0    0  0.00000000000E+00  0.00000000000E+00  0.12827410472E+04  0.23730966523E+04  0.19965377850E+04 0.  0.
        2    1    3    3  502    0 -0.37389981580E+02 -0.84091078150E+03  0.34845462367E+01  0.84174883144E+03  0.25500000920E-02 0. -1.
       -2    1    3    3    0  502  0.37389981580E+02  0.84091078150E+03  0.12792565009E+04  0.15313478208E+04  0.25500000920E-02 0.  1.
</event>
<event>
 5   0  0.1807498E-04  0.1994176E+04  0.7818609E-02  0.8609348E-01
       -2   -1    0    0    0  501  0.00000000000E+00  0.00000000000E+00  0.99995918507E+03  0.99995918508E+03  0.25500000920E-02 0. -1.
        2   -1    0    0  501    0  0.00000000000E+00  0.00000000000E+00 -0.99422519871E+03  0.99422519872E+03  0.25500000920E-02 0.  1.
    10030    2    1    2    0    0  0.00000000000E+00  0.00000000000E+00  0.57339863599E+01  0.19941843838E+04  0.19941761402E+04 0.  0.
        5    1    3    3  502    0 -0.72919763208E+03 -0.52422001927E+03 -0.43029379163E+03  0.99584670123E+03  0.46999998093E+01 0.  1.
       -5    1    3    3    0  502  0.72919763208E+03  0.52422001927E+03  0.43602777799E+03  0.99833768256E+03  0.46999998093E+01 0. -1.
</event>
<event>
 5   0  0.8861350E-05  0.1838430E+04  0.7818609E-02  0.8686126E-01
       -1   -1    0    0    0  501  0.00000000000E+00  0.00000000000E+00  0.11443429747E+04  0.11443429747E+04  0.50400001928E-02 0.  1.
        1   -1    0    0  501    0  0.00000000000E+00  0.00000000000E+00 -0.73837683099E+03  0.73837683100E+03  0.50400001928E-02 0. -1.
    10030    2    1    2    0    0  0.00000000000E+00  0.00000000000E+00  0.40596614373E+03  0.18827198057E+04  0.18384301338E+04 0.  0.
        1    1    3    3  502    0  0.66607238904E+02  0.91659071960E+03  0.18298659108E+03  0.93704811193E+03  0.50400001928E-02 0. -1.
       -1    1    3    3    0  502 -0.66607238904E+02 -0.91659071960E+03  0.22297955265E+03  0.94567169380E+03  0.50400001928E-02 0.  1.
</event>
<event>
 5   0  0.1812865E-04  0.2008170E+04  0.7818609E-02  0.8602810E-01
       -2   -1    0    0    0  501  0.00000000000E+00  0.00000000000E+00  0.62588283508E+03  0.62588283509E+03  0.25500000920E-02 0.  1.
        2   -1    0    0  501    0  0.00000000000E+00  0.00000000000E+00 -0.16108239505E+04  0.16108239505E+04  0.25500000920E-02 0. -1.
    10030    2    1    2    0    0  0.00000000000E+00  0.00000000000E+00 -0.98494111543E+03  0.22367067856E+04  0.20081703722E+04 0.  0.
        3    1    3    3  502    0 -0.28015649164E+03  0.95970809610E+03 -0.59611868498E+03  0.11639951831E+04  0.10100000352E+00 0.  1.
       -3    1    3    3    0  502  0.28015649164E+03 -0.95970809610E+03 -0.38882243045E+03  0.10727116025E+04  0.10100000352E+00 0. -1.
</event>
<event>
 5   0  0.8861350E-05  0.2023682E+04  0.7818609E-02  0.8595628E-01
        1   -1    0    0  501    0  0.00000000000E+00  0.00000000000E+00  0.18295095962E+04  0.18295095962E+04  0.50400001928E-02 0.  1.
       -1   -1    0    0    0  501  0.00000000000E+00  0.00000000000E+00 -0.55961576093E+03  0.55961576095E+03  0.50400001928E-02 0. -1.
    10030    2    1    2    0    0  0.00000000000E+00  0.00000000000E+00  0.12698938352E+04  0.23891253571E+04  0.20236821933E+04 0.  0.
        1    1    3    3  502    0 -0.97018727763E+03  0.93378016451E+02  0.31414180066E+03  0.10240448616E+04  0.50400001928E-02 0.  1.
       -1    1    3    3    0  502  0.97018727763E+03 -0.93378016451E+02  0.95575203459E+03  0.13650804955E+04  0.50400001928E-02 0. -1.
</event>
<event>
 5   0  0.1782172E-04  0.2035238E+04  0.7818609E-02  0.8590320E-01
       -2   -1    0    0    0  501  0.00000000000E+00  0.00000000000E+00  0.61908816990E+03  0.61908816991E+03  0.25500000920E-02 0. -1.
        2   -1    0    0  501    0  0.00000000000E+00  0.00000000000E+00 -0.16727002383E+04  0.16727002383E+04  0.25500000920E-02 0.  1.
    10030    2    1    2    0    0  0.00000000000E+00  0.00000000000E+00 -0.10536120684E+04  0.22917884082E+04  0.20352384915E+04 0.  0.
        2    1    3    3  502    0  0.91544167259E+03 -0.39604443640E+03 -0.75387916224E+03  0.12502873441E+04  0.25500000920E-02 0.  1.
       -2    1    3    3    0  502 -0.91544167259E+03  0.39604443640E+03 -0.29973290616E+03  0.10415010641E+04  0.25500000920E-02 0. -1.
</event>
<event>
 5   0  0.1807498E-04  0.1981073E+04  0.7818609E-02  0.8615521E-01
       -2   -1    0    0    0  501  0.00000000000E+00  0.00000000000E+00  0.12092651950E+04  0.12092651950E+04  0.25500000920E-02 0.  1.
        2   -1    0    0  501    0  0.00000000000E+00  0.00000000000E+00 -0.81137114335E+03  0.81137114336E+03  0.25500000920E-02 0. -1.
    10030    2    1    2    0    0  0.00000000000E+00  0.00000000000E+00  0.39789405163E+03  0.20206363383E+04  0.19810733292E+04 0.  0.
        5    1    3    3  502    0  0.99771227165E+02 -0.91336741523E+03 -0.17850608968E+03  0.93599190542E+03  0.46999998093E+01 0. -1.
       -5    1    3    3    0  502 -0.99771227165E+02  0.91336741523E+03  0.57640014131E+03  0.10846444329E+04  0.46999998093E+01 0.  1.
</event>
<event>
 5   0  0.8765057E-05  0.2000703E+04  0.7818609E-02  0.8606292E-01
        1   -1    0    0  501    0  0.00000000000E+00  0.00000000000E+00  0.12618842973E+04  0.12618842973E+04  0.50400001928E-02 0.  1.
       -1   -1    0    0    0  501  0.00000000000E+00  0.00000000000E+00 -0.79302261396E+03  0.79302261398E+03  0.50400001928E-02 0. -1.
    10030    2    1    2    0    0  0.00000000000E+00  0.00000000000E+00  0.46886168337E+03  0.20549069113E+04  0.20007026606E+04 0.  0.
        3    1    3    3  502    0  0.80391115528E+03  0.35094312101E+03 -0.25950199118E+03  0.91475434593E+03  0.10100000352E+00 0. -1.
       -3    1    3    3    0  502 -0.80391115528E+03 -0.35094312101E+03  0.72836367455E+03  0.11401525654E+04  0.10100000352E+00 0.  1.
</event>
<event>
 5   0  0.8861350E-05  0.1864384E+04  0.7818609E-02  0.8672791E-01
        1   -1    0    0  501    0  0.00000000000E+00  0.00000000000E+00  0.21475122593E+04  0.21475122593E+04  0.50400001928E-02 0. -1.
       -1   -1    0    0    0  501  0.00000000000E+00  0.00000000000E+00 -0.40464583103E+03  0.40464583106E+03  0.50400001928E-02 0.  1.
    10030    2    1    2    0    0  0.00000000000E+00  0.00000000000E+00  0.17428664283E+04  0.25521580904E+04  0.18643839549E+04 0.  0.
        1    1    3    3  502    0 -0.20198543961E+03  0.18472281521E+03  0.20912629518E+04  0.21090996586E+04  0.50400001928E-02 0. -1.
       -1    1    3    3    0  502  0.20198543961E+03 -0.18472281521E+03 -0.34839652357E+03  0.44305843173E+03  0.50400001928E-02 0.  1.
</event>
<event>
 5   0  0.8881384E-05  0.2021130E+04  0.7818609E-02  0.8596805E-01
        1   -1    0    0  501    0  0.00000000000E+00  0.00000000000E+00  0.10962623541E+04  0.10962623541E+04  0.50400001928E-02 0. -1.
       -1   -1    0    0    0  501  0.00000000000E+00  0.00000000000E+00 -0.93156657680E+03  0.93156657682E+03  0.50400001928E-02 0.  1.
    10030    2    1    2    0    0  0.00000000000E+00  0.00000000000E+00  0.16469577733E+03  0.20278289310E+04  0.20211297519E+04 0.  0.
        5    1    3    3  502    0  0.97575736263E+03  0.11736126373E+02 -0.18116139270E+03  0.99251282490E+03  0.46999998093E+01 0. -1.
       -5    1    3    3    0  502 -0.97575736263E+03 -0.11736126373E+02  0.34585717003E+03  0.10353161061E+04  0.46999998093E+01 0.  1.
</event>
<event>
 5   0  0.6531625E-05  0.1979869E+04  0.7818609E-02  0.8616091E-01
        3   -1    0    0  501    0  0.00000000000E+00  0.00000000000E+00  0.20021232623E+04  0.20021232648E+04  0.10100000352E+00 0. -1.
       -3   -1    0    0    0  501  0.00000000000E+00  0.00000000000E+00 -0.48946562915E+03  0.48946563957E+03  0.10100000352E+00 0.  1.
    10030    2    1    2    0    0  0.00000000000E+00  0.00000000000E+00  0.15126576331E+04  0.24915889044E+04  0.19798692263E+04 0.  0.
        1    1    3    3  502    0  0.89089669271E+03  0.43114819461E+03  0.73164065486E+03  0.12308061304E+04  0.50400001928E-02 0. -1.
       -1    1    3    3    0  502 -0.89089669271E+03 -0.43114819461E+03  0.78101697827E+03  0.12607827740E+04  0.50400001928E-02 0.  1.
</event>
<event>
 5   0  0.8765057E-05  0.2019406E+04  0.7818609E-02  0.8597601E-01
       -1   -1    0    0    0  501  0.00000000000E+00  0.00000000000E+00  0.86106487618E+03  0.86106487620E+03  0.50400001928E-02 0. -1.
        1   -1    0    0  501    0  0.00000000000E+00  0.00000000000E+00 -0.11839991747E+04  0.11839991747E+04  0.50400001928E-02 0.  1.
    10030    2    1    2    0    0  0.00000000000E+00  0.00000000000E+00 -0.32293429848E+03  0.20450640509E+04  0.20194059550E+04 0.  0.
        3    1    3    3  502    0 -0.68873396808E+02  0.19200623229E+03  0.83998065523E+03  0.86439426732E+03  0.10100000352E+00 0. -1.
       -3    1    3    3    0  502  0.68873396808E+02 -0.19200623229E+03 -0.11629149537E+04  0.11806697835E+04  0.10100000352E+00 0.  1.
</event>
<event>
 5   0  0.1807498E-04  0.2104015E+04  0.7818609E-02  0.8559477E-01
        2   -1    0    0  501    0  0.00000000000E+00  0.00000000000E+00  0.14360017412E+04  0.14360017412E+04  0.25500000920E-02 0.  1.
       -2   -1    0    0    0  501  0.00000000000E+00  0.00000000000E+00 -0.77069536689E+03  0.77069536689E+03  0.25500000920E-02 0. -1.
    10030    2    1    2    0    0  0.00000000000E+00  0.00000000000E+00  0.66530637428E+03  0.22066971081E+04  0.21040151033E+04 0.  0.
        5    1    3    3  502    0  0.23489064319E+03  0.43177579069E+02  0.14071822641E+04  0.14273128360E+04  0.46999998093E+01 0.  1.
       -5    1    3    3    0  502 -0.23489064319E+03 -0.43177579069E+02 -0.74187588981E+03  0.77938427202E+03  0.46999998093E+01 0. -1.
</event>
<event>
 5   0  0.6531625E-05  0.1997056E+04  0.7818609E-02  0.8607998E-01
        3   -1    0    0  501    0  0.00000000000E+00  0.00000000000E+00  0.12954214974E+04  0.12954215014E+04  0.10100000352E+00 0. -1.
       -3   -1    0    0    0  501  0.00000000000E+00  0.00000000000E+00 -0.76967844062E+03  0.76967844725E+03  0.10100000352E+00 0.  1.
    10030    2    1    2    0    0  0.00000000000E+00  0.00000000000E+00  0.52574305679E+03  0.20650999486E+04  0.19970558420E+04 0.  0.
        1    1    3    3  502    0 -0.47871308693E+03  0.81359237750E+03  0.59947630089E+03  0.11182444329E+04  0.50400001928E-02 0. -1.
       -1    1    3    3    0  502  0.47871308693E+03 -0.81359237750E+03 -0.73733244097E+02  0.94685551572E+03  0.50400001928E-02 0.  1.
</event>
<event>
 5   0  0.1807498E-04  0.2015758E+04  0.7818609E-02  0.8599289E-01
        2   -1    0    0  501    0  0.00000000000E+00  0.00000000000E+00  0.96873076888E+03  0.96873076889E+03  0.25500000920E-02 0.  1.
       -2   -1    0    0    0  501  0.00000000000E+00  0.00000000000E+00 -0.10486091125E+04  0.10486091125E+04  0.25500000920E-02 0. -1.
    10030    2    1    2    0    0  0.00000000000E+00  0.00000000000E+00 -0.79878343654E+02  0.20173398814E+04  0.20157578345E+04 0.  0.
        5    1    3    3  502    0  0.48477744445E+03  0.28922038174E+03 -0.87554370637E+03  0.10417564358E+04  0.46999998093E+01 0. -1.
       -5    1    3    3    0  502 -0.48477744445E+03 -0.28922038174E+03  0.79566536272E+03  0.97558344558E+03  0.46999998093E+01 0.  1.
</event>
<event>
 5   0  0.8861350E-05  0.2006670E+04  0.7818609E-02  0.8603508E-01
       -1   -1    0    0    0  501  0.00000000000E+00  0.00000000000E+00  0.65441048962E+03  0.65441048964E+03  0.50400001928E-02 0. -1.
        1   -1    0    0  501    0  0.00000000000E+00  0.00000000000E+00 -0.15383028085E+04  0.15383028085E+04  0.50400001928E-02 0.  1.
    10030    2    1    2    0    0  0.00000000000E+00  0.00000000000E+00 -0.88389231888E+03  0.21927132982E+04  0.20066703707E+04 0.  0.
        1    1    3    3  502    0 -0.36706541462E+03  0.63595026721E+03 -0.11890862999E+04  0.13975321068E+04  0.50400001928E-02 0.  1.
       -1    1    3    3    0  502  0.36706541462E+03 -0.63595026721E+03  0.30519398102E+03  0.79518119133E+03  0.50400001928E-02 0. -1.
</event>
<event>
 5   0  0.8881384E-05  0.2011569E+04  0.7818609E-02  0.8601231E-01
        1   -1    0    0  501    0  0.00000000000E+00  0.00000000000E+00  0.88789482692E+03  0.88789482693E+03  0.50400001928E-02 0.  1.
       -1   -1    0    0    0  501  0.00000000000E+00  0.00000000000E+00 -0.11393266558E+04  0.11393266558E+04  0.50400001928E-02 0. -1.
    10030    2    1    2    0    0  0.00000000000E+00  0.00000000000E+00 -0.25143182885E+03  0.20272214827E+04  0.20115687847E+04 0.  0.
        5    1    3    3  502    0 -0.83126748760E+03 -0.25891066228E+03  0.38172954709E+03  0.95067339508E+03  0.46999998093E+01 0.  1.
       -5    1    3    3    0  502  0.83126748760E+03  0.25891066228E+03 -0.63316137594E+03  0.10765480876E+04  0.46999998093E+01 0. -1.
</event>
<event>
 5   0  0.1812865E-04  0.2003025E+04  0.7818609E-02  0.8605208E-01
       -2   -1    0    0    0  501  0.00000000000E+00  0.00000000000E+00  0.76948489436E+03  0.76948489437E+03  0.25500000920E-02 0. -1.
        2   -1    0    0  501    0  0.00000000000E+00  0.00000000000E+00 -0.13035046847E+04  0.13035046847E+04  0.25500000920E-02 0.  1.
    10030    2    1    2    0    0  0.00000000000E+00  0.00000000000E+00 -0.53401979036E+03  0.20729895791E+04  0.20030248772E+04 0.  0.
        3    1    3    3  502    0  0.85272607503E+02 -0.89970051807E+03  0.17968505469E+03  0.92142236183E+03  0.10100000352E+00 0. -1.
       -3    1    3    3    0  502 -0.85272607503E+02  0.89970051807E+03 -0.71370484505E+03  0.11515672173E+04  0.10100000352E+00 0.  1.
</event>
<event>
 5   0  0.1807498E-04  0.2019071E+04  0.7818609E-02  0.8597756E-01
        2   -1    0    0  501    0  0.00000000000E+00  0.00000000000E+00  0.14311156970E+04  0.14311156970E+04  0.25500000920E-02 0.  1.
       -2   -1    0    0    0  501  0.00000000000E+00  0.00000000000E+00 -0.71214510995E+03  0.71214510995E+03  0.25500000920E-02 0. -1.
    10030    2    1    2    0    0  0.00000000000E+00  0.00000000000E+00  0.71897058701E+03  0.21432608069E+04  0.20190711185E+04 0.  0.
        5    1    3    3  502    0 -0.96331099692E+03 -0.28521159725E+03  0.25426082952E+03  0.10363321820E+04  0.46999998093E+01 0. -1.
       -5    1    3    3    0  502  0.96331099692E+03  0.28521159725E+03  0.46470975749E+03  0.11069286249E+04  0.46999998093E+01 0.  1.
</event>
<event>
 5   0  0.6531625E-05  0.2031372E+04  0.7818609E-02  0.8592092E-01
       -3   -1    0    0    0  501  0.00000000000E+00  0.00000000000E+00  0.10387196758E+04  0.10387196808E+04  0.10100000352E+00 0.  1.
        3   -1    0    0  501    0  0.00000000000E+00  0.00000000000E+00 -0.99316307216E+03  0.99316307730E+03  0.10100000352E+00 0. -1.
    10030    2    1    2    0    0  0.00000000000E+00  0.00000000000E+00  0.45556603681E+02  0.20318827581E+04  0.20313719842E+04 0.  0.
        3    1    3    3  502    0 -0.28686050202E+03  0.78338063262E+03  0.60227176416E+03  0.10289341336E+04  0.10100000352E+00 0.  1.
       -3    1    3    3    0  502  0.28686050202E+03 -0.78338063262E+03 -0.55671516048E+03  0.10029486245E+04  0.10100000352E+00 0. -1.
</event>
<event>
 5   0  0.1893687E-04  0.1996313E+04  0.7818609E-02  0.8608346E-01
       -2   -1    0    0    0  501  0.00000000000E+00  0.00000000000E+00  0.12507479536E+04  0.12507479536E+04  0.25500000920E-02 0. -1.
        2   -1    0    0  501    0  0.00000000000E+00  0.00000000000E+00 -0.79657657562E+03  0.79657657563E+03  0.25500000920E-02 0.  1.
    10030    2    1    2    0    0  0.00000000000E+00  0.00000000000E+00  0.45417137800E+03  0.20473245293E+04  0.19963131236E+04 0.  0.
        4    1    3    3  502    0  0.97213424713E+03 -0.20030470964E+03  0.33536744672E+03  0.10476831145E+04  0.12699999809E+01 0.  1.
       -4    1    3    3    0  502 -0.97213424713E+03  0.20030470964E+03  0.11880393128E+03  0.99964141477E+03  0.12699999809E+01 0. -1.
</event>
<event>
 5   0  0.8765057E-05  0.1899028E+04  0.7818609E-02  0.8655341E-01
       -1   -1    0    0    0  501  0.00000000000E+00  0.00000000000E+00  0.89060024707E+03  0.89060024708E+03  0.50400001928E-02 0.  1.
        1   -1    0    0  501    0  0.00000000000E+00  0.00000000000E+00 -0.10123244544E+04  0.10123244544E+04  0.50400001928E-02 0. -1.
    10030    2    1    2    0    0  0.00000000000E+00  0.00000000000E+00 -0.12172420736E+03  0.19029247015E+04  0.18990275504E+04 0.  0.
        3    1    3    3  502    0  0.72875945782E+03  0.58597900695E+03  0.10414110155E+03  0.94090760608E+03  0.10100000352E+00 0.  1.
       -3    1    3    3    0  502 -0.72875945782E+03 -0.58597900695E+03 -0.22586530890E+03  0.96201709544E+03  0.10100000352E+00 0. -1.
</event>
<event>
 5   0  0.8958919E-05  0.1963704E+04  0.7818609E-02  0.8623781E-01
       -1   -1    0    0    0  501  0.00000000000E+00  0.00000000000E+00  0.79122229689E+03  0.79122229690E+03  0.50400001928E-02 0. -1.
        1   -1    0    0  501    0  0.00000000000E+00  0.00000000000E+00 -0.12184097532E+04  0.12184097532E+04  0.50400001928E-02 0.  1.
    10030    2    1    2    0    0  0.00000000000E+00  0.00000000000E+00 -0.42718745632E+03  0.20096320501E+04  0.19637036065E+04 0.  0.
        4    1    3    3  502    0 -0.42512609027E+03  0.77168314784E+03 -0.65709344844E+03  0.10990907543E+04  0.12699999809E+01 0.  1.
       -4    1    3    3    0  502  0.42512609027E+03 -0.77168314784E+03  0.22990599213E+03  0.91054129582E+03  0.12699999809E+01 0. -1.
</event>
<event>
 5   0  0.8958919E-05  0.1991026E+04  0.7818609E-02  0.8610828E-01
        1   -1    0    0  501    0  0.00000000000E+00  0.00000000000E+00  0.12451169090E+04  0.12451169090E+04  0.50400001928E-02 0. -1.
       -1   -1    0    0    0  501  0.00000000000E+00  0.00000000000E+00 -0.79594616374E+03  0.79594616376E+03  0.50400001928E-02 0.  1.
    10030    2    1    2    0    0  0.00000000000E+00  0.00000000000E+00  0.44917074527E+03  0.20410630728E+04  0.19910258935E+04 0.  0.
        4    1    3    3  502    0 -0.12298920966E+03 -0.86043019535E+03  0.72214694795E+03  0.11300284484E+04  0.12699999809E+01 0. -1.
       -4    1    3    3    0  502  0.12298920966E+03  0.86043019535E+03 -0.27297620268E+03  0.91103462442E+03  0.12699999809E+01 0.  1.
</event>
<event>
 5   0  0.8958919E-05  0.2004601E+04  0.7818609E-02  0.8604473E-01
        1   -1    0    0  501    0  0.00000000000E+00  0.00000000000E+00  0.17858729578E+04  0.17858729578E+04  0.50400001928E-02 0.  1.
       -1   -1    0    0    0  501  0.00000000000E+00  0.00000000000E+00 -0.56252934164E+03  0.56252934167E+03  0.50400001928E-02 0. -1.
    10030    2    1    2    0    0  0.00000000000E+00  0.00000000000E+00  0.12233436161E+04  0.23484022994E+04  0.20046006477E+04 0.  0.
        4    1    3    3  502    0  0.25227589858E+03  0.92653762701E+03  0.27520421832E+03  0.99892646274E+03  0.12699999809E+01 0. -1.
       -4    1    3    3    0  502 -0.25227589858E+03 -0.92653762701E+03  0.94813939781E+03  0.13494758367E+04  0.12699999809E+01 0.  1.
</event>
<event>
 5   0  0.8861350E-05  0.2010263E+04  0.7818609E-02  0.8601837E-01
       -1   -1    0    0    0  501  0.00000000000E+00  0.00000000000E+00  0.69311072011E+03  0.69311072013E+03  0.50400001928E-02 0.  1.
        1   -1    0    0  501    0  0.00000000000E+00  0.00000000000E+00 -0.14576160304E+04  0.14576160305E+04  0.50400001928E-02 0. -1.
    10030    2    1    2    0    0  0.00000000000E+00  0.00000000000E+00 -0.76450531033E+03  0.21507267506E+04  0.20102629644E+04 0.  0.
        1    1    3    3  502    0  0.92918365971E+03  0.28450596301E+02  0.26681971557E+02  0.93000195566E+03  0.50400001928E-02 0.  1.
       -1    1    3    3    0  502 -0.92918365971E+03 -0.28450596301E+02 -0.79118728189E+03  0.12207247949E+04  0.50400001928E-02 0. -1.
</event>
<event>
 5   0  0.8881384E-05  0.1953648E+04  0.7818609E-02  0.8628604E-01
        1   -1    0    0  501    0  0.00000000000E+00  0.00000000000E+00  0.99833216039E+03  0.99833216041E+03  0.50400001928E-02 0. -1.
       -1   -1    0    0    0  501  0.00000000000E+00  0.00000000000E+00 -0.95577915197E+03  0.95577915199E+03  0.50400001928E-02 0.  1.
    10030    2    1    2    0    0  0.00000000000E+00  0.00000000000E+00  0.42553008420E+02  0.19541113124E+04  0.19536479372E+04 0.  0.
        5    1    3    3  502    0  0.19883208201E+03  0.78168717075E+03  0.57240079019E+03  0.98905701775E+03  0.46999998093E+01 0. -1.
       -5    1    3    3    0  502 -0.19883208201E+03 -0.78168717075E+03 -0.52984778177E+03  0.96505429464E+03  0.46999998093E+01 0.  1.
</event>
<event>
 5   0  0.1893687E-04  0.1947704E+04  0.7818609E-02  0.8631469E-01
        2   -1    0    0  501    0  0.00000000000E+00  0.00000000000E+00  0.14087898485E+04  0.14087898485E+04  0.25500000920E-02 0.  1.
       -2   -1    0    0    0  501  0.00000000000E+00  0.00000000000E+00 -0.67319302104E+03  0.67319302104E+03  0.25500000920E-02 0. -1.
    10030    2    1    2    0    0  0.00000000000E+00  0.00000000000E+00  0.73559682743E+03  0.20819828695E+04  0.19477037702E+04 0.  0.
        4    1    3    3  502    0 -0.18269519687E+03 -0.82614353814E+03 -0.14762155830E+03  0.85888556743E+03  0.12699999809E+01 0. -1.
       -4    1    3    3    0  502  0.18269519687E+03  0.82614353814E+03  0.88321838573E+03  0.12230973021E+04  0.12699999809E+01 0.  1.
</event>
<event>
 5   0  0.8881384E-05  0.2019311E+04  0.7818609E-02  0.8597645E-01
        1   -1    0    0  501    0  0.00000000000E+00  0.00000000000E+00  0.86249136856E+03  0.86249136857E+03  0.50400001928E-02 0.  1.
       -1   -1    0    0    0  501  0.00000000000E+00  0.00000000000E+00 -0.11819294683E+04  0.11819294683E+04  0.50400001928E-02 0. -1.
    10030    2    1    2    0    0  0.00000000000E+00  0.00000000000E+00 -0.31943809972E+03  0.20444208369E+04  0.20193107385E+04 0.  0.
        5    1    3    3  502    0 -0.99947121094E+03  0.77216346262E+02 -0.37903265271E+02  0.10031768603E+04  0.46999998093E+01 0.  1.
       -5    1    3    3    0  502  0.99947121094E+03 -0.77216346262E+02 -0.28153483445E+03  0.10412439765E+04  0.46999998093E+01 0. -1.
</event>
<event>
 5   0  0.1893687E-04  0.2022240E+04  0.7818609E-02  0.8596293E-01
       -2   -1    0    0    0  501  0.00000000000E+00  0.00000000000E+00  0.58711300953E+03  0.58711300953E+03  0.25500000920E-02 0. -1.
        2   -1    0    0  501    0  0.00000000000E+00  0.00000000000E+00 -0.17413410371E+04  0.17413410371E+04  0.25500000920E-02 0.  1.
    10030    2    1    2    0    0  0.00000000000E+00  0.00000000000E+00 -0.11542280276E+04  0.23284540467E+04  0.20222403190E+04 0.  0.
        4    1    3    3  502    0  0.11928667915E+03 -0.66829427161E+03 -0.14399254722E+04  0.15919276126E+04  0.12699999809E+01 0.  1.
       -4    1    3    3    0  502 -0.11928667915E+03  0.66829427161E+03  0.28569744463E+03  0.73652643406E+03  0.12699999809E+01 0. -1.
</event>
<event>
 5   0  0.8861350E-05  0.2014060E+04  0.7818609E-02  0.8600075E-01
        1   -1    0    0  501    0  0.00000000000E+00  0.00000000000E+00  0.22741261806E+04  0.22741261806E+04  0.50400001928E-02 0.  1.
       -1   -1    0    0    0  501  0.00000000000E+00  0.00000000000E+00 -0.44593355780E+03  0.44593355783E+03  0.50400001928E-02 0. -1.
    10030    2    1    2    0    0  0.00000000000E+00  0.00000000000E+00  0.18281926228E+04  0.27200597384E+04  0.20140597594E+04 0.  0.
        1    1    3    3  502    0  0.63717380406E+03  0.20229124848E+03  0.19312182971E+04  0.20436526899E+04  0.50400001928E-02 0.  1.
       -1    1    3    3    0  502 -0.63717380406E+03 -0.20229124848E+03 -0.10302567426E+03  0.67640704858E+03  0.50400001928E-02 0. -1.
</event>
<event>
 5   0  0.1834645E-04  0.2018500E+04  0.7818609E-02  0.8598020E-01
        2   -1    0    0  501    0  0.00000000000E+00  0.00000000000E+00  0.13548980437E+04  0.13548980437E+04  0.25500000920E-02 0. -1.
       -2   -1    0    0    0  501  0.00000000000E+00  0.00000000000E+00 -0.75177996680E+03  0.75177996680E+03  0.25500000920E-02 0.  1.
    10030    2    1    2    0    0  0.00000000000E+00  0.00000000000E+00  0.60311807686E+03  0.21066780105E+04  0.20184996471E+04 0.  0.
        1    1    3    3  502    0 -0.30377208819E+03  0.26335677238E+03 -0.66459742331E+03  0.77673934252E+03  0.50400001928E-02 0.  1.
       -1    1    3    3    0  502  0.30377208819E+03 -0.26335677238E+03  0.12677155002E+04  0.13299386680E+04  0.50400001928E-02 0. -1.
</event>
<event>
 5   0  0.8765057E-05  0.2001589E+04  0.7818609E-02  0.8605878E-01
        1   -1    0    0  501    0  0.00000000000E+00  0.00000000000E+00  0.15463800063E+04  0.15463800063E+04  0.50400001928E-02 0. -1.
       -1   -1    0    0    0  501  0.00000000000E+00  0.00000000000E+00 -0.64769983689E+03  0.64769983691E+03  0.50400001928E-02 0.  1.
    10030    2    1    2    0    0  0.00000000000E+00  0.00000000000E+00  0.89868016937E+03  0.21940798432E+04  0.20015894463E+04 0.  0.
        3    1    3    3  502    0  0.28686923252E+02 -0.57019218019E+03 -0.45168664481E+03  0.72798550618E+03  0.10100000352E+00 0.  1.
       -3    1    3    3    0  502 -0.28686923252E+02  0.57019218019E+03  0.13503668142E+04  0.14660943370E+04  0.10100000352E+00 0. -1.
</event>
<event>
 5   0  0.1782172E-04  0.1731321E+04  0.7818609E-02  0.8743700E-01
       -2   -1    0    0    0  501  0.00000000000E+00  0.00000000000E+00  0.25148840036E+03  0.25148840038E+03  0.25500000920E-02 0.  1.
        2   -1    0    0  501    0  0.00000000000E+00  0.00000000000E+00 -0.29797321996E+04  0.29797321996E+04  0.25500000920E-02 0. -1.
    10030    2    1    2    0    0  0.00000000000E+00  0.00000000000E+00 -0.27282437993E+04  0.32312206000E+04  0.17313209805E+04 0.  0.
        2    1    3    3  502    0 -0.49158019653E+03  0.65724062215E+03 -0.18777932914E+04  0.20493228078E+04  0.25500000920E-02 0. -1.
       -2    1    3    3    0  502  0.49158019653E+03 -0.65724062215E+03 -0.85045050781E+03  0.11818977922E+04  0.25500000920E-02 0.  1.
</event>
<event>
 5   0  0.8861350E-05  0.1941234E+04  0.7818609E-02  0.8634599E-01
       -1   -1    0    0    0  501  0.00000000000E+00  0.00000000000E+00  0.51421530491E+03  0.51421530494E+03  0.50400001928E-02 0. -1.
        1   -1    0    0  501    0  0.00000000000E+00  0.00000000000E+00 -0.18321069403E+04  0.18321069403E+04  0.50400001928E-02 0.  1.
    10030    2    1    2    0    0  0.00000000000E+00  0.00000000000E+00 -0.13178916354E+04  0.23463222452E+04  0.19412340704E+04 0.  0.
        1    1    3    3  502    0  0.60391114838E+03  0.59906581271E+03 -0.93951182124E+02  0.85581268263E+03  0.50400001928E-02 0. -1.
       -1    1    3    3    0  502 -0.60391114838E+03 -0.59906581271E+03 -0.12239404533E+04  0.14905095626E+04  0.50400001928E-02 0.  1.
</event>
<event>
 5   0  0.8765057E-05  0.2001403E+04  0.7818609E-02  0.8605965E-01
        1   -1    0    0  501    0  0.00000000000E+00  0.00000000000E+00  0.17123043628E+04  0.17123043628E+04  0.50400001928E-02 0. -1.
       -1   -1    0    0    0  501  0.00000000000E+00  0.00000000000E+00 -0.58482815243E+03  0.58482815245E+03  0.50400001928E-02 0.  1.
    10030    2    1    2    0    0  0.00000000000E+00  0.00000000000E+00  0.11274762104E+04  0.22971325152E+04  0.20014033046E+04 0.  0.
        3    1    3    3  502    0  0.37517302114E+03  0.35856636982E+03 -0.41830478437E+03  0.66656098010E+03  0.10100000352E+00 0.  1.
       -3    1    3    3    0  502 -0.37517302114E+03 -0.35856636982E+03  0.15457809947E+04  0.16305715352E+04  0.10100000352E+00 0. -1.
</event>
<event>
 5   0  0.8861350E-05  0.1981044E+04  0.7818609E-02  0.8615535E-01
        1   -1    0    0  501    0  0.00000000000E+00  0.00000000000E+00  0.76470586928E+03  0.76470586930E+03  0.50400001928E-02 0.  1.
       -1   -1    0    0    0  501  0.00000000000E+00  0.00000000000E+00 -0.12830215996E+04  0.12830215996E+04  0.50400001928E-02 0. -1.
    10030    2    1    2    0    0  0.00000000000E+00  0.00000000000E+00 -0.51831573036E+03  0.20477274689E+04  0.19810443182E+04 0.  0.
        1    1    3    3  502    0  0.18665674694E+03  0.69260017272E+03 -0.96523084282E+03  0.12025831865E+04  0.50400001928E-02 0.  1.
       -1    1    3    3    0  502 -0.18665674694E+03 -0.69260017272E+03  0.44691511246E+03  0.84514428247E+03  0.50400001928E-02 0. -1.
</event>
<event>
 5   0  0.1807498E-04  0.1953986E+04  0.7818609E-02  0.8628441E-01
       -2   -1    0    0    0  501  0.00000000000E+00  0.00000000000E+00  0.53480420981E+03  0.53480420982E+03  0.25500000920E-02 0.  1.
        2   -1    0    0  501    0  0.00000000000E+00  0.00000000000E+00 -0.17847932788E+04  0.17847932788E+04  0.25500000920E-02 0. -1.
    10030    2    1    2    0    0  0.00000000000E+00  0.00000000000E+00 -0.12499890689E+04  0.23195974886E+04  0.19539856285E+04 0.  0.
        5    1    3    3  502    0 -0.20804920625E+03 -0.24890807560E+03 -0.17189757180E+04  0.17493253875E+04  0.46999998093E+01 0. -1.
       -5    1    3    3    0  502  0.20804920625E+03  0.24890807560E+03  0.46898664903E+03  0.57027210109E+03  0.46999998093E+01 0.  1.
</event>
<event>
 5   0  0.1812865E-04  0.1963997E+04  0.7818609E-02  0.8623641E-01
       -2   -1    0    0    0  501  0.00000000000E+00  0.00000000000E+00  0.93979977695E+03  0.93979977695E+03  0.25500000920E-02 0. -1.
        2   -1    0    0  501    0  0.00000000000E+00  0.00000000000E+00 -0.10260920741E+04  0.10260920741E+04  0.25500000920E-02 0.  1.
    10030    2    1    2    0    0  0.00000000000E+00  0.00000000000E+00 -0.86292297182E+02  0.19658918511E+04  0.19639970493E+04 0.  0.
        3    1    3    3  502    0 -0.59999939855E+03 -0.76164106285E+03  0.11264688821E+03  0.97610743185E+03  0.10100000352E+00 0.  1.
       -3    1    3    3    0  502  0.59999939855E+03  0.76164106285E+03 -0.19893918539E+03  0.98978441924E+03  0.10100000352E+00 0. -1.
</event>
<event>
 5   0  0.1834645E-04  0.2000871E+04  0.7818609E-02  0.8606214E-01
       -2   -1    0    0    0  501  0.00000000000E+00  0.00000000000E+00  0.15273140495E+04  0.15273140495E+04  0.25500000920E-02 0.  1.
        2   -1    0    0  501    0  0.00000000000E+00  0.00000000000E+00 -0.65531453457E+03  0.65531453458E+03  0.25500000920E-02 0. -1.
    10030    2    1    2    0    0  0.00000000000E+00  0.00000000000E+00  0.87199951488E+03  0.21826285840E+04  0.20008709059E+04 0.  0.
        1    1    3    3  502    0 -0.26551878194E+03 -0.54009060726E+03 -0.43576648991E+03  0.74302794118E+03  0.50400001928E-02 0. -1.
       -1    1    3    3    0  502  0.26551878194E+03  0.54009060726E+03  0.13077660048E+04  0.14396006429E+04  0.50400001928E-02 0.  1.
</event>
<event>
 5   0  0.8577422E-05  0.1969227E+04  0.7818609E-02  0.8621145E-01
       -1   -1    0    0    0  501  0.00000000000E+00  0.00000000000E+00  0.40759426517E+03  0.40759426520E+03  0.50400001928E-02 0.  1.
        1   -1    0    0  501    0  0.00000000000E+00  0.00000000000E+00 -0.23785026743E+04  0.23785026743E+04  0.50400001928E-02 0. -1.
    10030    2    1    2    0    0  0.00000000000E+00  0.00000000000E+00 -0.19709084092E+04  0.27860969396E+04  0.19692273102E+04 0.  0.
        2    1    3    3  502    0 -0.80649280475E+03 -0.38029448495E+02 -0.18813569642E+03  0.82901865077E+03  0.25500000920E-02 0.  1.
       -2    1    3    3    0  502  0.80649280475E+03  0.38029448495E+02 -0.17827727128E+04  0.19570782888E+04  0.25500000920E-02 0. -1.
</event>
<event>
 5   0  0.8861350E-05  0.2029878E+04  0.7818609E-02  0.8592778E-01
        1   -1    0    0  501    0  0.00000000000E+00  0.00000000000E+00  0.75453808068E+03  0.75453808069E+03  0.50400001928E-02 0. -1.
       -1   -1    0    0    0  501  0.00000000000E+00  0.00000000000E+00 -0.13652071540E+04  0.13652071540E+04  0.50400001928E-02 0.  1.
    10030    2    1    2    0    0  0.00000000000E+00  0.00000000000E+00 -0.61066907329E+03  0.21197452347E+04  0.20298776177E+04 0.  0.
        1    1    3    3  502    0  0.18463974269E+03 -0.95762372159E+03 -0.59878393243E+03  0.11444113004E+04  0.50400001928E-02 0. -1.
       -1    1    3    3    0  502 -0.18463974269E+03  0.95762372159E+03 -0.11885140862E+02  0.97533393427E+03  0.50400001928E-02 0.  1.
</event>
<event>
 5   0  0.1807498E-04  0.1950930E+04  0.7818609E-02  0.8629912E-01
       -2   -1    0    0    0  501  0.00000000000E+00  0.00000000000E+00  0.66662418122E+03  0.66662418123E+03  0.25500000920E-02 0. -1.
        2   -1    0    0  501    0  0.00000000000E+00  0.00000000000E+00 -0.14273894032E+04  0.14273894032E+04  0.25500000920E-02 0.  1.
    10030    2    1    2    0    0  0.00000000000E+00  0.00000000000E+00 -0.76076522198E+03  0.20940135844E+04  0.19509303342E+04 0.  0.
        5    1    3    3  502    0 -0.45714612115E+03  0.84988668352E+03 -0.53300948440E+03  0.11024568705E+04  0.46999998093E+01 0.  1.
       -5    1    3    3    0  502  0.45714612115E+03 -0.84988668352E+03 -0.22775573758E+03  0.99155671391E+03  0.46999998093E+01 0. -1.
</event>
<event>
 5   0  0.8881384E-05  0.1994499E+04  0.7818609E-02  0.8609197E-01
       -1   -1    0    0    0  501  0.00000000000E+00  0.00000000000E+00  0.87194994014E+03  0.87194994016E+03  0.50400001928E-02 0. -1.
        1   -1    0    0  501    0  0.00000000000E+00  0.00000000000E+00 -0.11405540960E+04  0.11405540961E+04  0.50400001928E-02 0.  1.
    10030    2    1    2    0    0  0.00000000000E+00  0.00000000000E+00 -0.26860415590E+03  0.20125040362E+04  0.19944985092E+04 0.  0.
        5    1    3    3  502    0 -0.43022668292E+03  0.61594308191E+03  0.52736395556E+03  0.91794101688E+03  0.46999998093E+01 0. -1.
       -5    1    3    3    0  502  0.43022668292E+03 -0.61594308191E+03 -0.79596811145E+03  0.10945630193E+04  0.46999998093E+01 0.  1.
</event>
<event>
 5   0  0.8958919E-05  0.1965465E+04  0.7818609E-02  0.8622939E-01
       -1   -1    0    0    0  501  0.00000000000E+00  0.00000000000E+00  0.13223899333E+04  0.13223899333E+04  0.50400001928E-02 0. -1.
        1   -1    0    0  501    0  0.00000000000E+00  0.00000000000E+00 -0.73031652327E+03  0.73031652329E+03  0.50400001928E-02 0.  1.
    10030    2    1    2    0    0  0.00000000000E+00  0.00000000000E+00  0.59207340999E+03  0.20527064565E+04  0.19654650528E+04 0.  0.
        4    1    3    3  502    0  0.45644192418E+03 -0.68257583307E+03 -0.26784784216E+03  0.86370890784E+03  0.12699999809E+01 0.  1.
       -4    1    3    3    0  502 -0.45644192418E+03  0.68257583307E+03  0.85992125214E+03  0.11889975487E+04  0.12699999809E+01 0. -1.
</event>
<event>
 5   0  0.1807498E-04  0.1966823E+04  0.7818609E-02  0.8622291E-01
        2   -1    0    0  501    0  0.00000000000E+00  0.00000000000E+00  0.16611923946E+04  0.16611923946E+04  0.25500000920E-02 0.  1.
       -2   -1    0    0    0  501  0.00000000000E+00  0.00000000000E+00 -0.58217128275E+03  0.58217128275E+03  0.25500000920E-02 0. -1.
    10030    2    1    2    0    0  0.00000000000E+00  0.00000000000E+00  0.10790211118E+04  0.22433636773E+04  0.19668233345E+04 0.  0.
        5    1    3    3  502    0 -0.74800080573E+03  0.57014293576E+03  0.86714006092E+03  0.12792662537E+04  0.46999998093E+01 0.  1.
       -5    1    3    3    0  502  0.74800080573E+03 -0.57014293576E+03  0.21188105093E+03  0.96409742366E+03  0.46999998093E+01 0. -1.
</event>
<event>
 5   0  0.6531625E-05  0.1972574E+04  0.7818609E-02  0.8619552E-01
       -3   -1    0    0    0  501  0.00000000000E+00  0.00000000000E+00  0.83482978836E+03  0.83482979447E+03  0.10100000352E+00 0. -1.
        3   -1    0    0  501    0  0.00000000000E+00  0.00000000000E+00 -0.11652216320E+04  0.11652216363E+04  0.10100000352E+00 0.  1.
    10030    2    1    2    0    0  0.00000000000E+00  0.00000000000E+00 -0.33039184360E+03  0.20000514308E+04  0.19725736882E+04 0.  0.
        2    1    3    3  502    0 -0.81695113131E+03  0.51249691641E+03 -0.37471294516E+03  0.10346361832E+04  0.25500000920E-02 0.  1.
       -2    1    3    3    0  502  0.81695113131E+03 -0.51249691641E+03  0.44321101562E+02  0.96541524762E+03  0.25500000920E-02 0. -1.
</event>
<event>
 5   0  0.1807498E-04  0.2009605E+04  0.7818609E-02  0.8602143E-01
        2   -1    0    0  501    0  0.00000000000E+00  0.00000000000E+00  0.18808295957E+04  0.18808295957E+04  0.25500000920E-02 0.  1.
       -2   -1    0    0    0  501  0.00000000000E+00  0.00000000000E+00 -0.53679935065E+03  0.53679935066E+03  0.25500000920E-02 0. -1.
    10030    2    1    2    0    0  0.00000000000E+00  0.00000000000E+00  0.13440302451E+04  0.24176289464E+04  0.20096050415E+04 0.  0.
        5    1    3    3  502    0 -0.17056948791E+03 -0.32980669233E+02 -0.51858077511E+03  0.54692758667E+03  0.46999998093E+01 0. -1.
       -5    1    3    3    0  502  0.17056948791E+03  0.32980669233E+02  0.18626110202E+04  0.18707013597E+04  0.46999998093E+01 0.  1.
</event>
<event>
 5   0  0.1893687E-04  0.2013415E+04  0.7818609E-02  0.8600374E-01
        2   -1    0    0  501    0  0.00000000000E+00  0.00000000000E+00  0.83465832688E+03  0.83465832689E+03  0.25500000920E-02 0.  1.
       -2   -1    0    0    0  501  0.00000000000E+00  0.00000000000E+00 -0.12142213284E+04  0.12142213284E+04  0.25500000920E-02 0. -1.
    10030    2    1    2    0    0  0.00000000000E+00  0.00000000000E+00 -0.37956300152E+03  0.20488796553E+04  0.20134149522E+04 0.  0.
        4    1    3    3  502    0 -0.21603754468E+03 -0.62374419285E+03 -0.96325484942E+03  0.11677288027E+04  0.12699999809E+01 0. -1.
       -4    1    3    3    0  502  0.21603754468E+03  0.62374419285E+03  0.58369184790E+03  0.88115085259E+03  0.12699999809E+01 0.  1.
</event>
<event>
 5   0  0.1834645E-04  0.2087991E+04  0.7818609E-02  0.8566552E-01
       -2   -1    0    0    0  501  0.00000000000E+00  0.00000000000E+00  0.11134540673E+04  0.11134540673E+04  0.25500000920E-02 0.  1.
        2   -1    0    0  501    0  0.00000000000E+00  0.00000000000E+00 -0.97886987125E+03  0.97886987126E+03  0.25500000920E-02 0. -1.
    10030    2    1    2    0    0  0.00000000000E+00  0.00000000000E+00  0.13458419600E+03  0.20923239385E+04  0.20879910339E+04 0.  0.
        1    1    3    3  502    0 -0.45138664266E+03  0.81326339171E+02  0.10070883579E+04  0.11066123239E+04  0.50400001928E-02 0.  1.
       -1    1    3    3    0  502  0.45138664266E+03 -0.81326339171E+02 -0.87250416194E+03  0.98571161464E+03  0.50400001928E-02 0. -1.
</event>
<event>
 5   0  0.1834645E-04  0.1957783E+04  0.7818609E-02  0.8626617E-01
        2   -1    0    0  501    0  0.00000000000E+00  0.00000000000E+00  0.10292045494E+04  0.10292045494E+04  0.25500000920E-02 0.  1.
       -2   -1    0    0    0  501  0.00000000000E+00  0.00000000000E+00 -0.93103824154E+03  0.93103824154E+03  0.25500000920E-02 0. -1.
    10030    2    1    2    0    0  0.00000000000E+00  0.00000000000E+00  0.98166307846E+02  0.19602427909E+04  0.19577832299E+04 0.  0.
        1    1    3    3  502    0  0.71084145242E+02 -0.97281864524E+03  0.13164717322E+03  0.98425608989E+03  0.50400001928E-02 0.  1.
       -1    1    3    3    0  502 -0.71084145242E+02  0.97281864524E+03 -0.33480865375E+02  0.97598670104E+03  0.50400001928E-02 0. -1.
</event>
<event>
 5   0  0.8577422E-05  0.1985651E+04  0.7818609E-02  0.8613359E-01
        1   -1    0    0  501    0  0.00000000000E+00  0.00000000000E+00  0.12075979604E+04  0.12075979604E+04  0.50400001928E-02 0.  1.
       -1   -1    0    0    0  501  0.00000000000E+00  0.00000000000E+00 -0.81625090623E+03  0.81625090625E+03  0.50400001928E-02 0. -1.
    10030    2    1    2    0    0  0.00000000000E+00  0.00000000000E+00  0.39134705413E+03  0.20238488666E+04  0.19856514594E+04 0.  0.
        2    1    3    3  502    0 -0.44779290800E+03 -0.66683052260E+03 -0.39909410328E+03  0.89691556883E+03  0.25500000920E-02 0. -1.
       -2    1    3    3    0  502  0.44779290800E+03  0.66683052260E+03  0.79044115741E+03  0.11269332978E+04  0.25500000920E-02 0.  1.
</event>
<event>
 5   0  0.1834645E-04  0.2053490E+04  0.7818609E-02  0.8582013E-01
       -2   -1    0    0    0  501  0.00000000000E+00  0.00000000000E+00  0.81121330189E+03  0.81121330189E+03  0.25500000920E-02 0. -1.
        2   -1    0    0  501    0  0.00000000000E+00  0.00000000000E+00 -0.12995416570E+04  0.12995416570E+04  0.25500000920E-02 0.  1.
    10030    2    1    2    0    0  0.00000000000E+00  0.00000000000E+00 -0.48832835511E+03  0.21107549589E+04  0.20534901787E+04 0.  0.
        1    1    3    3  502    0  0.18392417386E+02 -0.63540710267E+03  0.58462414887E+03  0.86363526017E+03  0.50400001928E-02 0. -1.
       -1    1    3    3    0  502 -0.18392417386E+02  0.63540710267E+03 -0.10729525040E+04  0.12471196987E+04  0.50400001928E-02 0.  1.
</event>
<event>
 5   0  0.8881384E-05  0.2025104E+04  0.7818609E-02  0.8594973E-01
        1   -1    0    0  501    0  0.00000000000E+00  0.00000000000E+00  0.11638618571E+04  0.11638618571E+04  0.50400001928E-02 0.  1.
       -1   -1    0    0    0  501  0.00000000000E+00  0.00000000000E+00 -0.88091376819E+03  0.88091376820E+03  0.50400001928E-02 0. -1.
    10030    2    1    2    0    0  0.00000000000E+00  0.00000000000E+00  0.28294808895E+03  0.20447756253E+04  0.20251043768E+04 0.  0.
        5    1    3    3  502    0 -0.86158437681E+03 -0.45874478768E+03 -0.13033485431E+03  0.98477595565E+03  0.46999998093E+01 0. -1.
       -5    1    3    3    0  502  0.86158437681E+03  0.45874478768E+03  0.41328294326E+03  0.10599996697E+04  0.46999998093E+01 0.  1.
</event>
<event>
 5   0  0.8765057E-05  0.1982693E+04  0.7818609E-02  0.8614755E-01
       -1   -1    0    0    0  501  0.00000000000E+00  0.00000000000E+00  0.84287683338E+03  0.84287683340E+03  0.50400001928E-02 0.  1.
        1   -1    0    0  501    0  0.00000000000E+00  0.00000000000E+00 -0.11659686699E+04  0.11659686699E+04  0.50400001928E-02 0. -1.
    10030    2    1    2    0    0  0.00000000000E+00  0.00000000000E+00 -0.32309183652E+03  0.20088455033E+04  0.19826930981E+04 0.  0.
        3    1    3    3  502    0  0.94566852530E+02  0.88801045308E+03  0.27455281085E+03  0.93428299274E+03  0.10100000352E+00 0.  1.
       -3    1    3    3    0  502 -0.94566852530E+02 -0.88801045308E+03 -0.59764464736E+03  0.10745625106E+04  0.10100000352E+00 0. -1.
</event>
<event>
 5   0  0.1893687E-04  0.1998329E+04  0.7818609E-02  0.8607402E-01
        2   -1    0    0  501    0  0.00000000000E+00  0.00000000000E+00  0.15575495184E+04  0.15575495184E+04  0.25500000920E-02 0. -1.
       -2   -1    0    0    0  501  0.00000000000E+00  0.00000000000E+00 -0.64096202093E+03  0.64096202094E+03  0.25500000920E-02 0.  1.
    10030    2    1    2    0    0  0.00000000000E+00  0.00000000000E+00  0.91658749746E+03  0.21985115393E+04  0.19983293893E+04 0.  0.
        4    1    3    3  502    0  0.52666284131E+03  0.74579748235E+03  0.11751748639E+02  0.91308671527E+03  0.12699999809E+01 0. -1.
       -4    1    3    3    0  502 -0.52666284131E+03 -0.74579748235E+03  0.90483574882E+03  0.12854248241E+04  0.12699999809E+01 0.  1.
</event>
<event>
 5   0  0.8958919E-05  0.2007272E+04  0.7818609E-02  0.8603228E-01
        1   -1    0    0  501    0  0.00000000000E+00  0.00000000000E+00  0.10095437970E+04  0.10095437970E+04  0.50400001928E-02 0. -1.
       -1   -1    0    0    0  501  0.00000000000E+00  0.00000000000E+00 -0.99776316790E+03  0.99776316791E+03  0.50400001928E-02 0.  1.
    10030    2    1    2    0    0  0.00000000000E+00  0.00000000000E+00  0.11780629054E+02  0.20073069649E+04  0.20072723951E+04 0.  0.
        4    1    3    3  502    0 -0.40611897299E+03  0.79269612860E+03 -0.45670194897E+03  0.10009385873E+04  0.12699999809E+01 0.  1.
       -4    1    3    3    0  502  0.40611897299E+03 -0.79269612860E+03  0.46848257802E+03  0.10063683775E+04  0.12699999809E+01 0. -1.
</event>
<event>
 5   0  0.1812865E-04  0.1927328E+04  0.7818609E-02  0.8641372E-01
       -2   -1    0    0    0  501  0.00000000000E+00  0.00000000000E+00  0.76178171320E+03  0.76178171321E+03  0.25500000920E-02 0.  1.
        2   -1    0    0  501    0  0.00000000000E+00  0.00000000000E+00 -0.12190475258E+04  0.12190475258E+04  0.25500000920E-02 0. -1.
    10030    2    1    2    0    0  0.00000000000E+00  0.00000000000E+00 -0.45726581258E+03  0.19808292390E+04  0.19273278005E+04 0.  0.
        3    1    3    3  502    0  0.58249353071E+03  0.57961065471E+03 -0.74599607735E+03  0.11098456568E+04  0.10100000352E+00 0. -1.
       -3    1    3    3    0  502 -0.58249353071E+03 -0.57961065471E+03  0.28873026477E+03  0.87098358215E+03  0.10100000352E+00 0.  1.
</event>
<event>
 5   0  0.1812865E-04  0.1994571E+04  0.7818609E-02  0.8609163E-01
        2   -1    0    0  501    0  0.00000000000E+00  0.00000000000E+00  0.18221630591E+04  0.18221630591E+04  0.25500000920E-02 0.  1.
       -2   -1    0    0    0  501  0.00000000000E+00  0.00000000000E+00 -0.54582306011E+03  0.54582306011E+03  0.25500000920E-02 0. -1.
    10030    2    1    2    0    0  0.00000000000E+00  0.00000000000E+00  0.12763399989E+04  0.23679861192E+04  0.19945712491E+04 0.  0.
        3    1    3    3  502    0  0.33010986906E+03 -0.92775947883E+03  0.82539066564E+03  0.12849046413E+04  0.10100000352E+00 0. -1.
       -3    1    3    3    0  502 -0.33010986906E+03  0.92775947883E+03  0.45094933331E+03  0.10830814778E+04  0.10100000352E+00 0.  1.
</event>
<event>
 5   0  0.1812865E-04  0.1992205E+04  0.7818609E-02  0.8610274E-01
       -2   -1    0    0    0  501  0.00000000000E+00  0.00000000000E+00  0.80198914139E+03  0.80198914139E+03  0.25500000920E-02 0. -1.
        2   -1    0    0  501    0  0.00000000000E+00  0.00000000000E+00 -0.12371985718E+04  0.12371985718E+04  0.25500000920E-02 0.  1.
    10030    2    1    2    0    0  0.00000000000E+00  0.00000000000E+00 -0.43520943040E+03  0.20391877132E+04  0.19922046284E+04 0.  0.
        3    1    3    3  502    0 -0.86316343664E+03  0.38714311411E+03  0.10166293043E+03  0.95145481804E+03  0.10100000352E+00 0. -1.
       -3    1    3    3    0  502  0.86316343664E+03 -0.38714311411E+03 -0.53687236082E+03  0.10877328951E+04  0.10100000352E+00 0.  1.
</event>
<event>
 5   0  0.8577422E-05  0.1909043E+04  0.7818609E-02  0.8650368E-01
        1   -1    0    0  501    0  0.00000000000E+00  0.00000000000E+00  0.10300025958E+04  0.10300025958E+04  0.50400001928E-02 0. -1.
       -1   -1    0    0    0  501  0.00000000000E+00  0.00000000000E+00 -0.88457163583E+03  0.88457163585E+03  0.50400001928E-02 0.  1.
    10030    2    1    2    0    0  0.00000000000E+00  0.00000000000E+00  0.14543095992E+03  0.19145742316E+04  0.19090427770E+04 0.  0.
        2    1    3    3  502    0  0.95029665256E+03 -0.79807952374E+02  0.31632852423E+02  0.95416648154E+03  0.25500000920E-02 0.  1.
       -2    1    3    3    0  502 -0.95029665256E+03  0.79807952374E+02  0.11379810749E+03  0.96040775007E+03  0.25500000920E-02 0. -1.
</event>
<event>
 5   0  0.1807498E-04  0.1975080E+04  0.7818609E-02  0.8618361E-01
       -2   -1    0    0    0  501  0.00000000000E+00  0.00000000000E+00  0.63631514184E+03  0.63631514184E+03  0.25500000920E-02 0. -1.
        2   -1    0    0  501    0  0.00000000000E+00  0.00000000000E+00 -0.15326285722E+04  0.15326285722E+04  0.25500000920E-02 0.  1.
    10030    2    1    2    0    0  0.00000000000E+00  0.00000000000E+00 -0.89631343036E+03  0.21689437140E+04  0.19750795096E+04 0.  0.
        5    1    3    3  502    0 -0.64142139134E+02 -0.87182063112E+03 -0.95262395530E+03  0.12929423487E+04  0.46999998093E+01 0.  1.
       -5    1    3    3    0  502  0.64142139134E+02  0.87182063112E+03  0.56310524939E+02  0.87600136534E+03  0.46999998093E+01 0. -1.
</event>
<event>
 5   0  0.1807498E-04  0.1993773E+04  0.7818609E-02  0.8609537E-01
       -2   -1    0    0    0  501  0.00000000000E+00  0.00000000000E+00  0.40492110190E+03  0.40492110191E+03  0.25500000920E-02 0.  1.
        2   -1    0    0  501    0  0.00000000000E+00  0.00000000000E+00 -0.24542629712E+04  0.24542629712E+04  0.25500000920E-02 0. -1.
    10030    2    1    2    0    0  0.00000000000E+00  0.00000000000E+00 -0.20493418693E+04  0.28591840731E+04  0.19937731733E+04 0.  0.
        5    1    3    3  502    0  0.28311430129E+03 -0.19607879452E+03  0.31688918974E+03  0.46801864261E+03  0.46999998093E+01 0.  1.
       -5    1    3    3    0  502 -0.28311430129E+03  0.19607879452E+03 -0.23662310590E+04  0.23911654305E+04  0.46999998093E+01 0. -1.
</event>
<event>
 5   0  0.1893687E-04  0.1876096E+04  0.7818609E-02  0.8666847E-01
        2   -1    0    0  501    0  0.00000000000E+00  0.00000000000E+00  0.19248595164E+04  0.19248595164E+04  0.25500000920E-02 0. -1.
       -2   -1    0    0    0  501  0.00000000000E+00  0.00000000000E+00 -0.45714173467E+03  0.45714173468E+03  0.25500000920E-02 0.  1.
    10030    2    1    2    0    0  0.00000000000E+00  0.00000000000E+00  0.14677177818E+04  0.23820012511E+04  0.18760955395E+04 0.  0.
        4    1    3    3  502    0 -0.44568379991E+03  0.53851753536E+03 -0.60359965013E+02  0.70162676949E+03  0.12699999809E+01 0.  1.
       -4    1    3    3    0  502  0.44568379991E+03 -0.53851753536E+03  0.15280777468E+04  0.16803744816E+04  0.12699999809E+01 0. -1.
</event>
<event>
 5   0  0.1893687E-04  0.1966757E+04  0.7818609E-02  0.8622323E-01
       -2   -1    0    0    0  501  0.00000000000E+00  0.00000000000E+00  0.15345963680E+04  0.15345963680E+04  0.25500000920E-02 0. -1.
        2   -1    0    0  501    0  0.00000000000E+00  0.00000000000E+00 -0.63015455473E+03  0.63015455473E+03  0.25500000920E-02 0.  1.
    10030    2    1    2    0    0  0.00000000000E+00  0.00000000000E+00  0.90444181323E+03  0.21647509227E+04  0.19667566102E+04 0.  0.
        4    1    3    3  502    0 -0.43183013594E+03  0.47826609049E+02 -0.51878421111E+03  0.67668554103E+03  0.12699999809E+01 0.  1.
       -4    1    3    3    0  502  0.43183013594E+03 -0.47826609049E+02  0.14232260243E+04  0.14880653817E+04  0.12699999809E+01 0. -1.
</event>
<event>
 5   0  0.8577422E-05  0.1989708E+04  0.7818609E-02  0.8611448E-01
       -1   -1    0    0    0  501  0.00000000000E+00  0.00000000000E+00  0.14346713344E+04  0.14346713344E+04  0.50400001928E-02 0. -1.
        1   -1    0    0  501    0  0.00000000000E+00  0.00000000000E+00 -0.68986837812E+03  0.68986837814E+03  0.50400001928E-02 0.  1.
    10030    2    1    2    0    0  0.00000000000E+00  0.00000000000E+00  0.74480295623E+03  0.21245397125E+04  0.19897079048E+04 0.  0.
        2    1    3    3  502    0  0.46949857796E+03 -0.63359344682E+03 -0.27521763008E+03  0.83523308991E+03  0.25500000920E-02 0.  1.
       -2    1    3    3    0  502 -0.46949857796E+03  0.63359344682E+03  0.10200205863E+04  0.12893066226E+04  0.25500000920E-02 0. -1.
</event>
<event>
 5   0  0.1812865E-04  0.1993723E+04  0.7818609E-02  0.8609561E-01
        2   -1    0    0  501    0  0.00000000000E+00  0.00000000000E+00  0.14539931433E+04  0.14539931433E+04  0.25500000920E-02 0. -1.
       -2   -1    0    0    0  501  0.00000000000E+00  0.00000000000E+00 -0.68345085272E+03  0.68345085272E+03  0.25500000920E-02 0.  1.
    10030    2    1    2    0    0  0.00000000000E+00  0.00000000000E+00  0.77054229056E+03  0.21374439960E+04  0.19937230035E+04 0.  0.
        3    1    3    3  502    0  0.91552973946E+03 -0.20314741683E+03  0.74767653232E+03  0.11993680769E+04  0.10100000352E+00 0. -1.
       -3    1    3    3    0  502 -0.91552973946E+03  0.20314741683E+03  0.22865758237E+02  0.93807591905E+03  0.10100000352E+00 0.  1.
</event>
<event>
 5   0  0.8958919E-05  0.2014414E+04  0.7818609E-02  0.8599911E-01
       -1   -1    0    0    0  501  0.00000000000E+00  0.00000000000E+00  0.11040402668E+04  0.11040402668E+04  0.50400001928E-02 0.  1.
        1   -1    0    0  501    0  0.00000000000E+00  0.00000000000E+00 -0.91886696932E+03  0.91886696934E+03  0.50400001928E-02 0. -1.
    10030    2    1    2    0    0  0.00000000000E+00  0.00000000000E+00  0.18517329748E+03  0.20229072361E+04  0.20144141918E+04 0.  0.
        4    1    3    3  502    0 -0.10032087809E+04  0.46943129715E+02  0.15890529756E+02  0.10044329930E+04  0.12699999809E+01 0. -1.
       -4    1    3    3    0  502  0.10032087809E+04 -0.46943129715E+02  0.16928276772E+03  0.10184742431E+04  0.12699999809E+01 0.  1.
</event>
<event>
 5   0  0.1834645E-04  0.2024147E+04  0.7818609E-02  0.8595414E-01
        2   -1    0    0  501    0  0.00000000000E+00  0.00000000000E+00  0.90786388962E+03  0.90786388963E+03  0.25500000920E-02 0.  1.
       -2   -1    0    0    0  501  0.00000000000E+00  0.00000000000E+00 -0.11282444943E+04  0.11282444944E+04  0.25500000920E-02 0. -1.
    10030    2    1    2    0    0  0.00000000000E+00  0.00000000000E+00 -0.22038060472E+03  0.20361083840E+04  0.20241466697E+04 0.  0.
        1    1    3    3  502    0 -0.97704240515E+03 -0.54903772745E+02 -0.36991401322E+03  0.10461656957E+04  0.50400001928E-02 0. -1.
       -1    1    3    3    0  502  0.97704240515E+03  0.54903772745E+02  0.14953340850E+03  0.98994268825E+03  0.50400001928E-02 0.  1.
</event>
<event>
 5   0  0.1782172E-04  0.2006776E+04  0.7818609E-02  0.8603459E-01
       -2   -1    0    0    0  501  0.00000000000E+00  0.00000000000E+00  0.64178553611E+03  0.64178553611E+03  0.25500000920E-02 0.  1.
        2   -1    0    0  501    0  0.00000000000E+00  0.00000000000E+00 -0.15687293057E+04  0.15687293057E+04  0.25500000920E-02 0. -1.
    10030    2    1    2    0    0  0.00000000000E+00  0.00000000000E+00 -0.92694376962E+03  0.22105148418E+04  0.20067762989E+04 0.  0.
        2    1    3    3  502    0 -0.47935508520E+03 -0.64856859383E+03 -0.11210421284E+04  0.13809989038E+04  0.25500000920E-02 0. -1.
       -2    1    3    3    0  502  0.47935508520E+03  0.64856859383E+03  0.19409835878E+03  0.82951593806E+03  0.25500000920E-02 0.  1.
</event>
<event>
 5   0  0.8958919E-05  0.1850749E+04  0.7818609E-02  0.8679767E-01
        1   -1    0    0  501    0  0.00000000000E+00  0.00000000000E+00  0.18126587669E+04  0.18126587669E+04  0.50400001928E-02 0. -1.
       -1   -1    0    0    0  501  0.00000000000E+00  0.00000000000E+00 -0.47241015457E+03  0.47241015460E+03  0.50400001928E-02 0.  1.
    10030    2    1    2    0    0  0.00000000000E+00  0.00000000000E+00  0.13402486123E+04  0.22850689215E+04  0.18507494788E+04 0.  0.
        4    1    3    3  502    0 -0.29522921370E+03  0.87095129740E+03  0.79724365340E+03  0.12170930560E+04  0.12699999809E+01 0. -1.
       -4    1    3    3    0  502  0.29522921370E+03 -0.87095129740E+03  0.54300495892E+03  0.10679758655E+04  0.12699999809E+01 0.  1.
</event>
<event>
 5   0  0.8577422E-05  0.2005564E+04  0.7818609E-02  0.8604024E-01
       -1   -1    0    0    0  501  0.00000000000E+00  0.00000000000E+00  0.59899279761E+03  0.59899279763E+03  0.50400001928E-02 0. -1.
        1   -1    0    0  501    0  0.00000000000E+00  0.00000000000E+00 -0.16787703674E+04  0.16787703674E+04  0.50400001928E-02 0.  1.
    10030    2    1    2    0    0  0.00000000000E+00  0.00000000000E+00 -0.10797775698E+04  0.22777631651E+04  0.20055636205E+04 0.  0.
        2    1    3    3  502    0  0.14637988340E+03  0.29711851555E+03 -0.16148514408E+04  0.16484694897E+04  0.25500000920E-02 0.  1.
       -2    1    3    3    0  502 -0.14637988340E+03 -0.29711851555E+03  0.53507387095E+03  0.62929367542E+03  0.25500000920E-02 0. -1.
</event>
<event>
 5   0  0.1893687E-04  0.1787514E+04  0.7818609E-02  0.8712968E-01
       -2   -1    0    0    0  501  0.00000000000E+00  0.00000000000E+00  0.10387447956E+04  0.10387447956E+04  0.25500000920E-02 0.  1.
        2   -1    0    0  501    0  0.00000000000E+00  0.00000000000E+00 -0.76900617468E+03  0.76900617468E+03  0.25500000920E-02 0. -1.
    10030    2    1    2    0    0  0.00000000000E+00  0.00000000000E+00  0.26973862095E+03  0.18077509703E+04  0.17875135376E+04 0.  0.
        4    1    3    3  502    0 -0.67212833049E+03  0.47949725404E+03 -0.21124127394E+03  0.85223154013E+03  0.12699999809E+01 0. -1.
       -4    1    3    3    0  502  0.67212833049E+03 -0.47949725404E+03  0.48097989489E+03  0.95551943019E+03  0.12699999809E+01 0.  1.
</event>
<event>
 5   0  0.1893687E-04  0.1993477E+04  0.7818609E-02  0.8609677E-01
       -2   -1    0    0    0  501  0.00000000000E+00  0.00000000000E+00  0.58320861788E+03  0.58320861788E+03  0.25500000920E-02 0. -1.
        2   -1    0    0  501    0  0.00000000000E+00  0.00000000000E+00 -0.17034855968E+04  0.17034855968E+04  0.25500000920E-02 0.  1.
    10030    2    1    2    0    0  0.00000000000E+00  0.00000000000E+00 -0.11202769789E+04  0.22866942147E+04  0.19934768426E+04 0.  0.
        4    1    3    3  502    0  0.48140362392E+03 -0.85417349907E+03 -0.76573325707E+03  0.12440702752E+04  0.12699999809E+01 0. -1.
       -4    1    3    3    0  502 -0.48140362392E+03  0.85417349907E+03 -0.35454372183E+03  0.10426239395E+04  0.12699999809E+01 0.  1.
</event>
<event>
 5   0  0.8958919E-05  0.1966070E+04  0.7818609E-02  0.8622650E-01
       -1   -1    0    0    0  501  0.00000000000E+00  0.00000000000E+00  0.74892946762E+03  0.74892946764E+03  0.50400001928E-02 0.  1.
        1   -1    0    0  501    0  0.00000000000E+00  0.00000000000E+00 -0.12903193039E+04  0.12903193040E+04  0.50400001928E-02 0. -1.
    10030    2    1    2    0    0  0.00000000000E+00  0.00000000000E+00 -0.54138983632E+03  0.20392487716E+04  0.19660703440E+04 0.  0.
        4    1    3    3  502    0 -0.48949043388E+03 -0.59858334398E+03 -0.90029181368E+03  0.11867728794E+04  0.12699999809E+01 0. -1.
       -4    1    3    3    0  502  0.48949043388E+03  0.59858334398E+03  0.35890197736E+03  0.85247589221E+03  0.12699999809E+01 0.  1.
</event>
<event>
 5   0  0.8577422E-05  0.1995192E+04  0.7818609E-02  0.8608872E-01
        1   -1    0    0  501    0  0.00000000000E+00  0.00000000000E+00  0.12229916118E+04  0.12229916118E+04  0.50400001928E-02 0. -1.
       -1   -1    0    0    0  501  0.00000000000E+00  0.00000000000E+00 -0.81374069252E+03  0.81374069254E+03  0.50400001928E-02 0.  1.
    10030    2    1    2    0    0  0.00000000000E+00  0.00000000000E+00  0.40925091929E+03  0.20367323044E+04  0.19951922626E+04 0.  0.
        2    1    3    3  502    0  0.23375531372E+03  0.36869277452E+03 -0.71105761539E+03  0.83437332237E+03  0.25500000920E-02 0.  1.
       -2    1    3    3    0  502 -0.23375531372E+03 -0.36869277452E+03  0.11203085347E+04  0.12023589820E+04  0.25500000920E-02 0. -1.
</event>
<event>
 5   0  0.1807498E-04  0.2060386E+04  0.7818609E-02  0.8578897E-01
       -2   -1    0    0    0  501  0.00000000000E+00  0.00000000000E+00  0.10101082728E+04  0.10101082728E+04  0.25500000920E-02 0.  1.
        2   -1    0    0  501    0  0.00000000000E+00  0.00000000000E+00 -0.10506766251E+04  0.10506766251E+04  0.25500000920E-02 0. -1.
    10030    2    1    2    0    0  0.00000000000E+00  0.00000000000E+00 -0.40568352277E+02  0.20607848979E+04  0.20603855474E+04 0.  0.
        5    1    3    3  502    0 -0.22888393349E+03 -0.76159536455E+03  0.63471656332E+03  0.10174981868E+04  0.46999998093E+01 0.  1.
       -5    1    3    3    0  502  0.22888393349E+03  0.76159536455E+03 -0.67528491560E+03  0.10432867111E+04  0.46999998093E+01 0. -1.
</event>
<event>
 5   0  0.1807498E-04  0.2024846E+04  0.7818609E-02  0.8595092E-01
        2   -1    0    0  501    0  0.00000000000E+00  0.00000000000E+00  0.13995852332E+04  0.13995852332E+04  0.25500000920E-02 0.  1.
       -2   -1    0    0    0  501  0.00000000000E+00  0.00000000000E+00 -0.73236022166E+03  0.73236022167E+03  0.25500000920E-02 0. -1.
    10030    2    1    2    0    0  0.00000000000E+00  0.00000000000E+00  0.66722501152E+03  0.21319454548E+04  0.20248462180E+04 0.  0.
        5    1    3    3  502    0 -0.32215560729E+03  0.81353936223E+03  0.86981081350E+03  0.12337842074E+04  0.46999998093E+01 0.  1.
       -5    1    3    3    0  502  0.32215560729E+03 -0.81353936223E+03 -0.20258580198E+03  0.89816124742E+03  0.46999998093E+01 0. -1.
</event>
<event>
 5   0  0.8881384E-05  0.1998287E+04  0.7818609E-02  0.8607422E-01
        1   -1    0    0  501    0  0.00000000000E+00  0.00000000000E+00  0.12210630492E+04  0.12210630492E+04  0.50400001928E-02 0. -1.
       -1   -1    0    0    0  501  0.00000000000E+00  0.00000000000E+00 -0.81755662568E+03  0.81755662570E+03  0.50400001928E-02 0.  1.
    10030    2    1    2    0    0  0.00000000000E+00  0.00000000000E+00  0.40350642355E+03  0.20386196749E+04  0.19982874531E+04 0.  0.
        5    1    3    3  502    0 -0.83075492231E+03  0.50123494285E+03  0.44505334279E+03  0.10674665226E+04  0.46999998093E+01 0. -1.
       -5    1    3    3    0  502  0.83075492231E+03 -0.50123494285E+03 -0.41546919237E+02  0.97115315238E+03  0.46999998093E+01 0.  1.
</event>
<event>
 5   0  0.1782172E-04  0.2013328E+04  0.7818609E-02  0.8600414E-01
       -2   -1    0    0    0  501  0.00000000000E+00  0.00000000000E+00  0.88504538898E+03  0.88504538898E+03  0.25500000920E-02 0.  1.
        2   -1    0    0  501    0  0.00000000000E+00  0.00000000000E+00 -0.11449953307E+04  0.11449953307E+04  0.25500000920E-02 0. -1.
    10030    2    1    2    0    0  0.00000000000E+00  0.00000000000E+00 -0.25994994169E+03  0.20300407197E+04  0.20133284261E+04 0.  0.
        2    1    3    3  502    0 -0.37820536073E+03  0.12028301815E+03  0.80283438619E+03  0.89557263859E+03  0.25500000920E-02 0.  1.
       -2    1    3    3    0  502  0.37820536073E+03 -0.12028301815E+03 -0.10627843279E+04  0.11344680811E+04  0.25500000920E-02 0. -1.
</event>
<event>
 5   0  0.8958919E-05  0.2009514E+04  0.7818609E-02  0.8602185E-01
       -1   -1    0    0    0  501  0.00000000000E+00  0.00000000000E+00  0.95125857144E+03  0.95125857145E+03  0.50400001928E-02 0. -1.
        1   -1    0    0  501    0  0.00000000000E+00  0.00000000000E+00 -0.10612642348E+04  0.10612642348E+04  0.50400001928E-02 0.  1.
    10030    2    1    2    0    0  0.00000000000E+00  0.00000000000E+00 -0.11000566335E+03  0.20125228063E+04  0.20095140706E+04 0.  0.
        4    1    3    3  502    0 -0.91513996584E+03  0.40543438405E+03  0.32746218345E+02  0.10014649892E+04  0.12699999809E+01 0. -1.
       -4    1    3    3    0  502  0.91513996584E+03 -0.40543438405E+03 -0.14275188170E+03  0.10110578171E+04  0.12699999809E+01 0.  1.
</event>
<event>
 5   0  0.1812865E-04  0.1967744E+04  0.7818609E-02  0.8621852E-01
       -2   -1    0    0    0  501  0.00000000000E+00  0.00000000000E+00  0.48892537756E+03  0.48892537757E+03  0.25500000920E-02 0.  1.
        2   -1    0    0  501    0  0.00000000000E+00  0.00000000000E+00 -0.19798604786E+04  0.19798604786E+04  0.25500000920E-02 0. -1.
    10030    2    1    2    0    0  0.00000000000E+00  0.00000000000E+00 -0.14909351010E+04  0.24687858562E+04  0.19677439183E+04 0.  0.
        3    1    3    3  502    0  0.42109574378E+03 -0.39699803362E+03  0.25278955267E+03  0.63153118076E+03  0.10100000352E+00 0.  1.
       -3    1    3    3    0  502 -0.42109574378E+03  0.39699803362E+03 -0.17437246537E+04  0.18372546754E+04  0.10100000352E+00 0. -1.
</event>
<event>
 5   0  0.6531625E-05  0.2114380E+04  0.7818609E-02  0.8554935E-01
        4   -1    0    0  501    0  0.00000000000E+00  0.00000000000E+00  0.94118380155E+03  0.94118465839E+03  0.12699999809E+01 0. -1.
       -4   -1    0    0    0  501  0.00000000000E+00  0.00000000000E+00 -0.11874933282E+04  0.11874940073E+04  0.12699999809E+01 0.  1.
    10030    2    1    2    0    0  0.00000000000E+00  0.00000000000E+00 -0.24630952662E+03  0.21286786657E+04  0.21143804007E+04 0.  0.
        4    1    3    3  502    0 -0.37049022998E+03  0.20653542831E+03  0.85175809549E+03  0.95153211180E+03  0.12699999809E+01 0. -1.
       -4    1    3    3    0  502  0.37049022998E+03 -0.20653542831E+03 -0.10980676221E+04  0.11771465539E+04  0.12699999809E+01 0.  1.
</event>
<event>
 5   0  0.1782172E-04  0.1996082E+04  0.7818609E-02  0.8608455E-01
       -2   -1    0    0    0  501  0.00000000000E+00  0.00000000000E+00  0.11694502478E+04  0.11694502478E+04  0.25500000920E-02 0. -1.
        2   -1    0    0  501    0  0.00000000000E+00  0.00000000000E+00 -0.85175572607E+03  0.85175572607E+03  0.25500000920E-02 0.  1.
    10030    2    1    2    0    0  0.00000000000E+00  0.00000000000E+00  0.31769452173E+03  0.20212059739E+04  0.19960821074E+04 0.  0.
        2    1    3    3  502    0 -0.27651506907E+03  0.81045318210E+03 -0.36023646846E+03  0.92901305535E+03  0.25500000920E-02 0.  1.
       -2    1    3    3    0  502  0.27651506907E+03 -0.81045318210E+03  0.67793099019E+03  0.10921929185E+04  0.25500000920E-02 0. -1.
</event>
<event>
 5   0  0.8765057E-05  0.1984446E+04  0.7818609E-02  0.8613928E-01
       -1   -1    0    0    0  501  0.00000000000E+00  0.00000000000E+00  0.11934894184E+04  0.11934894184E+04  0.50400001928E-02 0. -1.
        1   -1    0    0  501    0  0.00000000000E+00  0.00000000000E+00 -0.82489727366E+03  0.82489727368E+03  0.50400001928E-02 0.  1.
    10030    2    1    2    0    0  0.00000000000E+00  0.00000000000E+00  0.36859214476E+03  0.20183866921E+04  0.19844456832E+04 0.  0.
        3    1    3    3  502    0  0.67610193597E+03 -0.10280020066E+03 -0.54690476930E+03  0.87566348900E+03  0.10100000352E+00 0.  1.
       -3    1    3    3    0  502 -0.67610193597E+03  0.10280020066E+03  0.91549691406E+03  0.11427232031E+04  0.10100000352E+00 0. -1.
</event>
<event>
 5   0  0.1782172E-04  0.1968710E+04  0.7818609E-02  0.8621391E-01
       -2   -1    0    0    0  501  0.00000000000E+00  0.00000000000E+00  0.10345676776E+04  0.10345676776E+04  0.25500000920E-02 0.  1.
        2   -1    0    0  501    0  0.00000000000E+00  0.00000000000E+00 -0.93657898002E+03  0.93657898002E+03  0.25500000920E-02 0. -1.
    10030    2    1    2    0    0  0.00000000000E+00  0.00000000000E+00  0.97988697589E+02  0.19711466576E+04  0.19687095675E+04 0.  0.
        2    1    3    3  502    0 -0.27078936024E+03  0.20593536456E+03 -0.87584715893E+03  0.93959805120E+03  0.25500000920E-02 0. -1.
       -2    1    3    3    0  502  0.27078936024E+03 -0.20593536456E+03  0.97383585652E+03  0.10315486064E+04  0.25500000920E-02 0.  1.
</event>
<event>
 5   0  0.8881384E-05  0.1986781E+04  0.7818609E-02  0.8612826E-01
        1   -1    0    0  501    0  0.00000000000E+00  0.00000000000E+00  0.71299377192E+03  0.71299377194E+03  0.50400001928E-02 0. -1.
       -1   -1    0    0    0  501  0.00000000000E+00  0.00000000000E+00 -0.13840575833E+04  0.13840575833E+04  0.50400001928E-02 0.  1.
    10030    2    1    2    0    0  0.00000000000E+00  0.00000000000E+00 -0.67106381138E+03  0.20970513553E+04  0.19867807498E+04 0.  0.
        5    1    3    3  502    0  0.75505508625E+03  0.64543606216E+03 -0.32464163471E+03  0.10450407526E+04  0.46999998093E+01 0. -1.
       -5    1    3    3    0  502 -0.75505508625E+03 -0.64543606216E+03 -0.34642217667E+03  0.10520106027E+04  0.46999998093E+01 0.  1.
</event>
<event>
 5   0  0.8958919E-05  0.1984680E+04  0.7818609E-02  0.8613817E-01
        1   -1    0    0  501    0  0.00000000000E+00  0.00000000000E+00  0.16788306263E+04  0.16788306263E+04  0.50400001928E-02 0. -1.
       -1   -1    0    0    0  501  0.00000000000E+00  0.00000000000E+00 -0.58656225278E+03  0.58656225280E+03  0.50400001928E-02 0.  1.
    10030    2    1    2    0    0  0.00000000000E+00  0.00000000000E+00  0.10922683735E+04  0.22653928791E+04  0.19846799986E+04 0.  0.
        4    1    3    3  502    0 -0.60216144893E+03 -0.23169131091E+03 -0.31446741130E+03  0.71775388525E+03  0.12699999809E+01 0.  1.
       -4    1    3    3    0  502  0.60216144893E+03  0.23169131091E+03  0.14067357848E+04  0.15476389939E+04  0.12699999809E+01 0. -1.
</event>
<event>
 5   0  0.1812865E-04  0.1972406E+04  0.7818609E-02  0.8619632E-01
        2   -1    0    0  501    0  0.00000000000E+00  0.00000000000E+00  0.13227447180E+04  0.13227447180E+04  0.25500000920E-02 0.  1.
       -2   -1    0    0    0  501  0.00000000000E+00  0.00000000000E+00 -0.73528639280E+03  0.73528639280E+03  0.25500000920E-02 0. -1.
    10030    2    1    2    0    0  0.00000000000E+00  0.00000000000E+00  0.58745832515E+03  0.20580311108E+04  0.19724058327E+04 0.  0.
        3    1    3    3  502    0  0.28586895897E+03  0.23946113019E+03  0.12463436537E+04  0.13009362812E+04  0.10100000352E+00 0.  1.
       -3    1    3    3    0  502 -0.28586895897E+03 -0.23946113019E+03 -0.65888532851E+03  0.75709482953E+03  0.10100000352E+00 0. -1.
</event>
<event>
 5   0  0.8765057E-05  0.1984017E+04  0.7818609E-02  0.8614130E-01
       -1   -1    0    0    0  501  0.00000000000E+00  0.00000000000E+00  0.91320368374E+03  0.91320368375E+03  0.50400001928E-02 0. -1.
        1   -1    0    0  501    0  0.00000000000E+00  0.00000000000E+00 -0.10776133014E+04  0.10776133014E+04  0.50400001928E-02 0.  1.
    10030    2    1    2    0    0  0.00000000000E+00  0.00000000000E+00 -0.16440961769E+03  0.19908169852E+04  0.19840165690E+04 0.  0.
        3    1    3    3  502    0 -0.74799326878E+03  0.40454948525E+03 -0.59476502704E+03  0.10377377625E+04  0.10100000352E+00 0.  1.
       -3    1    3    3    0  502  0.74799326878E+03 -0.40454948525E+03  0.43035540934E+03  0.95307922269E+03  0.10100000352E+00 0. -1.
</event>
<event>
 5   0  0.8577422E-05  0.1910045E+04  0.7818609E-02  0.8649872E-01
        1   -1    0    0  501    0  0.00000000000E+00  0.00000000000E+00  0.19312349022E+04  0.19312349022E+04  0.50400001928E-02 0.  1.
       -1   -1    0    0    0  501  0.00000000000E+00  0.00000000000E+00 -0.47227192073E+03  0.47227192076E+03  0.50400001928E-02 0. -1.
    10030    2    1    2    0    0  0.00000000000E+00  0.00000000000E+00  0.14589629815E+04  0.24035068230E+04  0.19100450431E+04 0.  0.
        2    1    3    3  502    0  0.78055077635E+03  0.39689503297E+03  0.12091143221E+04  0.14928973928E+04  0.25500000920E-02 0. -1.
       -2    1    3    3    0  502 -0.78055077635E+03 -0.39689503297E+03  0.24984865941E+03  0.91060943015E+03  0.25500000920E-02 0.  1.
</event>
<event>
 5   0  0.8577422E-05  0.2020586E+04  0.7818609E-02  0.8597056E-01
        1   -1    0    0  501    0  0.00000000000E+00  0.00000000000E+00  0.89999722783E+03  0.89999722785E+03  0.50400001928E-02 0. -1.
       -1   -1    0    0    0  501  0.00000000000E+00  0.00000000000E+00 -0.11341060743E+04  0.11341060743E+04  0.50400001928E-02 0.  1.
    10030    2    1    2    0    0  0.00000000000E+00  0.00000000000E+00 -0.23410884648E+03  0.20341033022E+04  0.20205863733E+04 0.  0.
        2    1    3    3  502    0  0.96210555597E+03  0.14807600191E+03  0.15515921150E+03  0.98572206229E+03  0.25500000920E-02 0. -1.
       -2    1    3    3    0  502 -0.96210555597E+03 -0.14807600191E+03 -0.38926805798E+03  0.10483812399E+04  0.25500000920E-02 0.  1.
</event>
<event>
 5   0  0.1893687E-04  0.1994638E+04  0.7818609E-02  0.8609131E-01
        2   -1    0    0  501    0  0.00000000000E+00  0.00000000000E+00  0.14173295550E+04  0.14173295550E+04  0.25500000920E-02 0.  1.
       -2   -1    0    0    0  501  0.00000000000E+00  0.00000000000E+00 -0.70177440315E+03  0.70177440316E+03  0.25500000920E-02 0. -1.
    10030    2    1    2    0    0  0.00000000000E+00  0.00000000000E+00  0.71555515189E+03  0.21191039582E+04  0.19946384159E+04 0.  0.
        4    1    3    3  502    0 -0.19362175069E+03  0.55082322559E+03  0.12167780369E+04  0.13496095777E+04  0.12699999809E+01 0.  1.
       -4    1    3    3    0  502  0.19362175069E+03 -0.55082322559E+03 -0.50122288506E+03  0.76949438048E+03  0.12699999809E+01 0. -1.
</event>
<event>
 5   0  0.8861350E-05  0.1941065E+04  0.7818609E-02  0.8634681E-01
       -1   -1    0    0    0  501  0.00000000000E+00  0.00000000000E+00  0.10637249459E+04  0.10637249459E+04  0.50400001928E-02 0. -1.
        1   -1    0    0  501    0  0.00000000000E+00  0.00000000000E+00 -0.88550492321E+03  0.88550492323E+03  0.50400001928E-02 0.  1.
    10030    2    1    2    0    0  0.00000000000E+00  0.00000000000E+00  0.17822002265E+03  0.19492298691E+04  0.19410653534E+04 0.  0.
        1    1    3    3  502    0  0.95231211395E+03  0.29737361063E+02  0.27468721853E+03  0.99158244290E+03  0.50400001928E-02 0. -1.
       -1    1    3    3    0  502 -0.95231211395E+03 -0.29737361063E+02 -0.96467195883E+02  0.95764742621E+03  0.50400001928E-02 0.  1.
</event>
<event>
 5   0  0.8861350E-05  0.1981515E+04  0.7818609E-02  0.8615312E-01
       -1   -1    0    0    0  501  0.00000000000E+00  0.00000000000E+00  0.11195746964E+04  0.11195746964E+04  0.50400001928E-02 0.  1.
        1   -1    0    0  501    0  0.00000000000E+00  0.00000000000E+00 -0.87676166425E+03  0.87676166426E+03  0.50400001928E-02 0. -1.
    10030    2    1    2    0    0  0.00000000000E+00  0.00000000000E+00  0.24281303210E+03  0.19963363606E+04  0.19815147479E+04 0.  0.
        1    1    3    3  502    0 -0.85533681740E+03 -0.36546180184E+03  0.46518721523E+03  0.10399819926E+04  0.50400001928E-02 0.  1.
       -1    1    3    3    0  502  0.85533681740E+03  0.36546180184E+03 -0.22237418312E+03  0.95635436797E+03  0.50400001928E-02 0. -1.
</event>
<event>
 5   0  0.1807498E-04  0.2430858E+04  0.7818609E-02  0.8428040E-01
       -2   -1    0    0    0  501  0.00000000000E+00  0.00000000000E+00  0.42931195794E+03  0.42931195795E+03  0.25500000920E-02 0. -1.
        2   -1    0    0  501    0  0.00000000000E+00  0.00000000000E+00 -0.34410115043E+04  0.34410115043E+04  0.25500000920E-02 0.  1.
    10030    2    1    2    0    0  0.00000000000E+00  0.00000000000E+00 -0.30116995464E+04  0.38703234623E+04  0.24308577797E+04 0.  0.
        5    1    3    3  502    0 -0.11693876352E+04  0.31609247508E+03 -0.16639749702E+04  0.20582071532E+04  0.46999998093E+01 0. -1.
       -5    1    3    3    0  502  0.11693876352E+04 -0.31609247508E+03 -0.13477245762E+04  0.18121163091E+04  0.46999998093E+01 0.  1.
</event>
<event>
 5   0  0.1834645E-04  0.1986799E+04  0.7818609E-02  0.8612818E-01
       -2   -1    0    0    0  501  0.00000000000E+00  0.00000000000E+00  0.72723855288E+03  0.72723855288E+03  0.25500000920E-02 0. -1.
        2   -1    0    0  501    0  0.00000000000E+00  0.00000000000E+00 -0.13569716583E+04  0.13569716583E+04  0.25500000920E-02 0.  1.
    10030    2    1    2    0    0  0.00000000000E+00  0.00000000000E+00 -0.62973310547E+03  0.20842102112E+04  0.19867985355E+04 0.  0.
        1    1    3    3  502    0 -0.25434204032E+02  0.71025547266E+03  0.41323272954E+03  0.82211375366E+03  0.50400001928E-02 0. -1.
       -1    1    3    3    0  502  0.25434204032E+02 -0.71025547266E+03 -0.10429658350E+04  0.12620964576E+04  0.50400001928E-02 0.  1.
</event>
<event>
 5   0  0.1834645E-04  0.1517159E+04  0.7818609E-02  0.8873122E-01
        2   -1    0    0  501    0  0.00000000000E+00  0.00000000000E+00  0.57482674976E+03  0.57482674977E+03  0.25500000920E-02 0. -1.
       -2   -1    0    0    0  501  0.00000000000E+00  0.00000000000E+00 -0.10010719249E+04  0.10010719249E+04  0.25500000920E-02 0.  1.
    10030    2    1    2    0    0  0.00000000000E+00  0.00000000000E+00 -0.42624517515E+03  0.15758986747E+04  0.15171590831E+04 0.  0.
        1    1    3    3  502    0  0.16456190828E+03 -0.65167169249E+01 -0.98227807998E+03  0.99598861223E+03  0.50400001928E-02 0.  1.
       -1    1    3    3    0  502 -0.16456190828E+03  0.65167169249E+01  0.55603290483E+03  0.57991006245E+03  0.50400001928E-02 0. -1.
</event>
<event>
 5   0  0.8765057E-05  0.1997996E+04  0.7818609E-02  0.8607558E-01
        1   -1    0    0  501    0  0.00000000000E+00  0.00000000000E+00  0.19437070899E+04  0.19437070899E+04  0.50400001928E-02 0. -1.
       -1   -1    0    0    0  501  0.00000000000E+00  0.00000000000E+00 -0.51345035285E+03  0.51345035288E+03  0.50400001928E-02 0.  1.
    10030    2    1    2    0    0  0.00000000000E+00  0.00000000000E+00  0.14302567370E+04  0.24571574428E+04  0.19979960873E+04 0.  0.
        3    1    3    3  502    0 -0.67925871387E+03  0.72243874580E+03  0.86416876573E+03  0.13153318242E+04  0.10100000352E+00 0. -1.
       -3    1    3    3    0  502  0.67925871387E+03 -0.72243874580E+03  0.56608797129E+03  0.11418256186E+04  0.10100000352E+00 0.  1.
</event>
<event>
 5   0  0.1807498E-04  0.2032569E+04  0.7818609E-02  0.8591543E-01
       -2   -1    0    0    0  501  0.00000000000E+00  0.00000000000E+00  0.54018657173E+03  0.54018657174E+03  0.25500000920E-02 0. -1.
        2   -1    0    0  501    0  0.00000000000E+00  0.00000000000E+00 -0.19119953729E+04  0.19119953729E+04  0.25500000920E-02 0.  1.
    10030    2    1    2    0    0  0.00000000000E+00  0.00000000000E+00 -0.13718088011E+04  0.24521819446E+04  0.20325690401E+04 0.  0.
        5    1    3    3  502    0  0.45947785569E+03 -0.68293907077E+02  0.40459618148E+03  0.61603905532E+03  0.46999998093E+01 0. -1.
       -5    1    3    3    0  502 -0.45947785569E+03  0.68293907077E+02 -0.17764049826E+04  0.18361428893E+04  0.46999998093E+01 0.  1.
</event>
<event>
 5   0  0.1782172E-04  0.1988573E+04  0.7818609E-02  0.8611982E-01
       -2   -1    0    0    0  501  0.00000000000E+00  0.00000000000E+00  0.39802692082E+03  0.39802692083E+03  0.25500000920E-02 0. -1.
        2   -1    0    0  501    0  0.00000000000E+00  0.00000000000E+00 -0.24837649174E+04  0.24837649174E+04  0.25500000920E-02 0.  1.
    10030    2    1    2    0    0  0.00000000000E+00  0.00000000000E+00 -0.20857379966E+04  0.28817918382E+04  0.19885726561E+04 0.  0.
        2    1    3    3  502    0  0.92733109624E+03  0.33213886652E+03 -0.12391567409E+04  0.15829619760E+04  0.25500000920E-02 0.  1.
       -2    1    3    3    0  502 -0.92733109624E+03 -0.33213886652E+03 -0.84658125565E+03  0.12988298623E+04  0.25500000920E-02 0. -1.
</event>
<event>
 5   0  0.8881384E-05  0.1955372E+04  0.7818609E-02  0.8627775E-01
       -1   -1    0    0    0  501  0.00000000000E+00  0.00000000000E+00  0.56226290210E+03  0.56226290213E+03  0.50400001928E-02 0.  1.
        1   -1    0    0  501    0  0.00000000000E+00  0.00000000000E+00 -0.17000407895E+04  0.17000407895E+04  0.50400001928E-02 0. -1.
    10030    2    1    2    0    0  0.00000000000E+00  0.00000000000E+00 -0.11377778874E+04  0.22623036916E+04  0.19553719524E+04 0.  0.
        5    1    3    3  502    0  0.63738813897E+03  0.79559728152E+02  0.28386383693E+03  0.70227783531E+03  0.46999998093E+01 0.  1.
       -5    1    3    3    0  502 -0.63738813897E+03 -0.79559728152E+02 -0.14216417243E+04  0.15600258563E+04  0.46999998093E+01 0. -1.
</event>
<event>
 5   0  0.1834645E-04  0.1982244E+04  0.7818609E-02  0.8614967E-01
       -2   -1    0    0    0  501  0.00000000000E+00  0.00000000000E+00  0.12264666891E+04  0.12264666891E+04  0.25500000920E-02 0.  1.
        2   -1    0    0  501    0  0.00000000000E+00  0.00000000000E+00 -0.80093714291E+03  0.80093714291E+03  0.25500000920E-02 0. -1.
    10030    2    1    2    0    0  0.00000000000E+00  0.00000000000E+00  0.42552954624E+03  0.20274038321E+04  0.19822439062E+04 0.  0.
        1    1    3    3  502    0 -0.92072529987E+01 -0.56927015637E+03 -0.61699433592E+03  0.83954469507E+03  0.50400001928E-02 0. -1.
       -1    1    3    3    0  502  0.92072529987E+01  0.56927015637E+03  0.10425238822E+04  0.11878591370E+04  0.50400001928E-02 0.  1.
</event>
<event>
 5   0  0.1893687E-04  0.1966201E+04  0.7818609E-02  0.8622588E-01
        2   -1    0    0  501    0  0.00000000000E+00  0.00000000000E+00  0.92300663208E+03  0.92300663208E+03  0.25500000920E-02 0.  1.
       -2   -1    0    0    0  501  0.00000000000E+00  0.00000000000E+00 -0.10471068125E+04  0.10471068125E+04  0.25500000920E-02 0. -1.
    10030    2    1    2    0    0  0.00000000000E+00  0.00000000000E+00 -0.12410018044E+03  0.19701134446E+04  0.19662009383E+04 0.  0.
        4    1    3    3  502    0  0.49291288304E+02  0.32539570640E+03  0.86616952016E+03  0.92658688065E+03  0.12699999809E+01 0.  1.
       -4    1    3    3    0  502 -0.49291288304E+02 -0.32539570640E+03 -0.99026970059E+03  0.10435265639E+04  0.12699999809E+01 0. -1.
</event>
<event>
 5   0  0.1834645E-04  0.1996887E+04  0.7818609E-02  0.8608077E-01
       -2   -1    0    0    0  501  0.00000000000E+00  0.00000000000E+00  0.79666058730E+03  0.79666058730E+03  0.25500000920E-02 0. -1.
        2   -1    0    0  501    0  0.00000000000E+00  0.00000000000E+00 -0.12513354035E+04  0.12513354035E+04  0.25500000920E-02 0.  1.
    10030    2    1    2    0    0  0.00000000000E+00  0.00000000000E+00 -0.45467481622E+03  0.20479959908E+04  0.19968871751E+04 0.  0.
        1    1    3    3  502    0  0.82115481855E+03  0.79587679587E+02 -0.80410097552E+03  0.11520450571E+04  0.50400001928E-02 0.  1.
       -1    1    3    3    0  502 -0.82115481855E+03 -0.79587679587E+02  0.34942615930E+03  0.89595093370E+03  0.50400001928E-02 0. -1.
</event>
<event>
 5   0  0.1782172E-04  0.1979717E+04  0.7818609E-02  0.8616163E-01
        2   -1    0    0  501    0  0.00000000000E+00  0.00000000000E+00  0.22933787531E+04  0.22933787531E+04  0.25500000920E-02 0.  1.
       -2   -1    0    0    0  501  0.00000000000E+00  0.00000000000E+00 -0.42723849788E+03  0.42723849789E+03  0.25500000920E-02 0. -1.
    10030    2    1    2    0    0  0.00000000000E+00  0.00000000000E+00  0.18661402552E+04  0.27206172510E+04  0.19797168419E+04 0.  0.
        2    1    3    3  502    0 -0.52141679597E+03  0.84003657798E+03  0.86741100503E+03  0.13152713709E+04  0.25500000920E-02 0. -1.
       -2    1    3    3    0  502  0.52141679597E+03 -0.84003657798E+03  0.99872925021E+03  0.14053458801E+04  0.25500000920E-02 0.  1.
</event>
<event>
 5   0  0.8577422E-05  0.1965661E+04  0.7818609E-02  0.8622846E-01
        1   -1    0    0  501    0  0.00000000000E+00  0.00000000000E+00  0.11003218338E+04  0.11003218338E+04  0.50400001928E-02 0.  1.
       -1   -1    0    0    0  501  0.00000000000E+00  0.00000000000E+00 -0.87788501547E+03  0.87788501549E+03  0.50400001928E-02 0. -1.
    10030    2    1    2    0    0  0.00000000000E+00  0.00000000000E+00  0.22243681831E+03  0.19782068493E+04  0.19656612629E+04 0.  0.
        2    1    3    3  502    0  0.94263771960E+03 -0.29030751151E+02  0.38965623273E+03  0.10204119926E+04  0.25500000920E-02 0. -1.
       -2    1    3    3    0  502 -0.94263771960E+03  0.29030751151E+02 -0.16721941442E+03  0.95779485669E+03  0.25500000920E-02 0.  1.
</event>
<event>
 5   0  0.8577422E-05  0.1869815E+04  0.7818609E-02  0.8670029E-01
        1   -1    0    0  501    0  0.00000000000E+00  0.00000000000E+00  0.12713061518E+04  0.12713061518E+04  0.50400001928E-02 0. -1.
       -1   -1    0    0    0  501  0.00000000000E+00  0.00000000000E+00 -0.68752305409E+03  0.68752305410E+03  0.50400001928E-02 0.  1.
    10030    2    1    2    0    0  0.00000000000E+00  0.00000000000E+00  0.58378309771E+03  0.19588292059E+04  0.18698152724E+04 0.  0.
        2    1    3    3  502    0 -0.21516992859E+03  0.19018966039E+03 -0.64017269084E+03  0.70163471920E+03  0.25500000920E-02 0.  1.
       -2    1    3    3    0  502  0.21516992859E+03 -0.19018966039E+03  0.12239557885E+04  0.12571944867E+04  0.25500000920E-02 0. -1.
</event>
<event>
 5   0  0.1834645E-04  0.1992725E+04  0.7818609E-02  0.8610030E-01
       -2   -1    0    0    0  501  0.00000000000E+00  0.00000000000E+00  0.53268951048E+03  0.53268951048E+03  0.25500000920E-02 0.  1.
        2   -1    0    0  501    0  0.00000000000E+00  0.00000000000E+00 -0.18636331154E+04  0.18636331154E+04  0.25500000920E-02 0. -1.
    10030    2    1    2    0    0  0.00000000000E+00  0.00000000000E+00 -0.13309436049E+04  0.23963226258E+04  0.19927245790E+04 0.  0.
        1    1    3    3  502    0 -0.30737765493E+03 -0.18524130137E+03  0.45226723079E+03  0.57735691782E+03  0.50400001928E-02 0.  1.
       -1    1    3    3    0  502  0.30737765493E+03  0.18524130137E+03 -0.17832108357E+04  0.18189657080E+04  0.50400001928E-02 0. -1.
</event>
<event>
 5   0  0.8861350E-05  0.1955252E+04  0.7818609E-02  0.8627832E-01
        1   -1    0    0  501    0  0.00000000000E+00  0.00000000000E+00  0.15948233581E+04  0.15948233582E+04  0.50400001928E-02 0. -1.
       -1   -1    0    0    0  501  0.00000000000E+00  0.00000000000E+00 -0.59928423358E+03  0.59928423360E+03  0.50400001928E-02 0.  1.
    10030    2    1    2    0    0  0.00000000000E+00  0.00000000000E+00  0.99553912457E+03  0.21941075918E+04  0.19552518957E+04 0.  0.
        1    1    3    3  502    0  0.46817257811E+03  0.79121859616E+03  0.12467831509E+03  0.92776996722E+03  0.50400001928E-02 0.  1.
       -1    1    3    3    0  502 -0.46817257811E+03 -0.79121859616E+03  0.87086080948E+03  0.12663376245E+04  0.50400001928E-02 0. -1.
</event>
<event>
 5   0  0.8881384E-05  0.1998447E+04  0.7818609E-02  0.8607347E-01
       -1   -1    0    0    0  501  0.00000000000E+00  0.00000000000E+00  0.76422001824E+03  0.76422001826E+03  0.50400001928E-02 0.  1.
        1   -1    0    0  501    0  0.00000000000E+00  0.00000000000E+00 -0.13064921435E+04  0.13064921435E+04  0.50400001928E-02 0. -1.
    10030    2    1    2    0    0  0.00000000000E+00  0.00000000000E+00 -0.54227212525E+03  0.20707121618E+04  0.19984468467E+04 0.  0.
        5    1    3    3  502    0 -0.71790300814E+03  0.68382726543E+03 -0.14246466530E+03  0.10016599867E+04  0.46999998093E+01 0. -1.
       -5    1    3    3    0  502  0.71790300814E+03 -0.68382726543E+03 -0.39980745994E+03  0.10690521751E+04  0.46999998093E+01 0.  1.
</event>
<event>
 5   0  0.1812865E-04  0.2016620E+04  0.7818609E-02  0.8598889E-01
       -2   -1    0    0    0  501  0.00000000000E+00  0.00000000000E+00  0.12071939806E+04  0.12071939806E+04  0.25500000920E-02 0. -1.
        2   -1    0    0  501    0  0.00000000000E+00  0.00000000000E+00 -0.84219200296E+03  0.84219200297E+03  0.25500000920E-02 0.  1.
    10030    2    1    2    0    0  0.00000000000E+00  0.00000000000E+00  0.36500197764E+03  0.20493859836E+04  0.20166200599E+04 0.  0.
        3    1    3    3  502    0  0.68131209501E+03  0.30474971804E+03 -0.50647505227E+03  0.90198422947E+03  0.10100000352E+00 0.  1.
       -3    1    3    3    0  502 -0.68131209501E+03 -0.30474971804E+03  0.87147702991E+03  0.11474017541E+04  0.10100000352E+00 0. -1.
</event>
<event>
 5   0  0.8958919E-05  0.1976363E+04  0.7818609E-02  0.8617752E-01
        1   -1    0    0  501    0  0.00000000000E+00  0.00000000000E+00  0.66376473443E+03  0.66376473445E+03  0.50400001928E-02 0. -1.
       -1   -1    0    0    0  501  0.00000000000E+00  0.00000000000E+00 -0.14711578931E+04  0.14711578931E+04  0.50400001928E-02 0.  1.
    10030    2    1    2    0    0  0.00000000000E+00  0.00000000000E+00 -0.80739315866E+03  0.21349226275E+04  0.19763630519E+04 0.  0.
        4    1    3    3  502    0  0.34469166972E+03 -0.54153975840E+03  0.40785839070E+03  0.76054436877E+03  0.12699999809E+01 0. -1.
       -4    1    3    3    0  502 -0.34469166972E+03  0.54153975840E+03 -0.12152515494E+04  0.13743782588E+04  0.12699999809E+01 0.  1.
</event>
<event>
 5   0  0.1782172E-04  0.1980733E+04  0.7818609E-02  0.8615682E-01
        2   -1    0    0  501    0  0.00000000000E+00  0.00000000000E+00  0.87565268317E+03  0.87565268317E+03  0.25500000920E-02 0.  1.
       -2   -1    0    0    0  501  0.00000000000E+00  0.00000000000E+00 -0.11201085034E+04  0.11201085034E+04  0.25500000920E-02 0. -1.
    10030    2    1    2    0    0  0.00000000000E+00  0.00000000000E+00 -0.24445582025E+03  0.19957611866E+04  0.19807332142E+04 0.  0.
        2    1    3    3  502    0 -0.23935521181E+03  0.72571459996E+03  0.51253069054E+03  0.92013059223E+03  0.25500000920E-02 0.  1.
       -2    1    3    3    0  502  0.23935521181E+03 -0.72571459996E+03 -0.75698651079E+03  0.10756305944E+04  0.25500000920E-02 0. -1.
</event>
<event>
 5   0  0.8958919E-05  0.1996229E+04  0.7818609E-02  0.8608386E-01
       -1   -1    0    0    0  501  0.00000000000E+00  0.00000000000E+00  0.77796005996E+03  0.77796005997E+03  0.50400001928E-02 0. -1.
        1   -1    0    0  501    0  0.00000000000E+00  0.00000000000E+00 -0.12805707871E+04  0.12805707871E+04  0.50400001928E-02 0.  1.
    10030    2    1    2    0    0  0.00000000000E+00  0.00000000000E+00 -0.50261072713E+03  0.20585308471E+04  0.19962293719E+04 0.  0.
        4    1    3    3  502    0  0.72900904926E+03  0.67220135074E+03 -0.36853018953E+03  0.10578870277E+04  0.12699999809E+01 0.  1.
       -4    1    3    3    0  502 -0.72900904926E+03 -0.67220135074E+03 -0.13408053761E+03  0.10006438194E+04  0.12699999809E+01 0. -1.
</event>
<event>
 5   0  0.8861350E-05  0.2034007E+04  0.7818609E-02  0.8590884E-01
        1   -1    0    0  501    0  0.00000000000E+00  0.00000000000E+00  0.13605637383E+04  0.13605637383E+04  0.50400001928E-02 0. -1.
       -1   -1    0    0    0  501  0.00000000000E+00  0.00000000000E+00 -0.76019703028E+03  0.76019703030E+03  0.50400001928E-02 0.  1.
    10030    2    1    2    0    0  0.00000000000E+00  0.00000000000E+00  0.60036670802E+03  0.21207607686E+04  0.20340073878E+04 0.  0.
        1    1    3    3  502    0 -0.17719329864E+03 -0.75941871265E+03 -0.38048701078E+03  0.86768923677E+03  0.50400001928E-02 0.  1.
       -1    1    3    3    0  502  0.17719329864E+03  0.75941871265E+03  0.98085371880E+03  0.12530715318E+04  0.50400001928E-02 0. -1.
</event>
<event>
 5   0  0.1807498E-04  0.2108189E+04  0.7818609E-02  0.8557645E-01
        2   -1    0    0  501    0  0.00000000000E+00  0.00000000000E+00  0.88101901871E+03  0.88101901872E+03  0.25500000920E-02 0. -1.
       -2   -1    0    0    0  501  0.00000000000E+00  0.00000000000E+00 -0.12611701305E+04  0.12611701305E+04  0.25500000920E-02 0.  1.
    10030    2    1    2    0    0  0.00000000000E+00  0.00000000000E+00 -0.38015111182E+03  0.21421891493E+04  0.21081886736E+04 0.  0.
        5    1    3    3  502    0  0.95778967173E+02 -0.96461452687E+03 -0.61080399203E+03  0.11457566944E+04  0.46999998093E+01 0.  1.
       -5    1    3    3    0  502 -0.95778967173E+02  0.96461452687E+03  0.23065288021E+03  0.99643245489E+03  0.46999998093E+01 0. -1.
</event>
<event>
 5   0  0.8765057E-05  0.2013463E+04  0.7818609E-02  0.8600352E-01
       -1   -1    0    0    0  501  0.00000000000E+00  0.00000000000E+00  0.85121659962E+03  0.85121659964E+03  0.50400001928E-02 0. -1.
        1   -1    0    0  501    0  0.00000000000E+00  0.00000000000E+00 -0.11906585228E+04  0.11906585228E+04  0.50400001928E-02 0.  1.
    10030    2    1    2    0    0  0.00000000000E+00  0.00000000000E+00 -0.33944192316E+03  0.20418751224E+04  0.20134629861E+04 0.  0.
        3    1    3    3  502    0 -0.14204707300E+03  0.25758896222E+02 -0.11801071634E+04  0.11889044617E+04  0.10100000352E+00 0.  1.
       -3    1    3    3    0  502  0.14204707300E+03 -0.25758896222E+02  0.84066524026E+03  0.85297066073E+03  0.10100000352E+00 0. -1.
</event>
<event>
 5   0  0.8765057E-05  0.1983655E+04  0.7818609E-02  0.8614301E-01
       -1   -1    0    0    0  501  0.00000000000E+00  0.00000000000E+00  0.14502659859E+04  0.14502659859E+04  0.50400001928E-02 0. -1.
        1   -1    0    0  501    0  0.00000000000E+00  0.00000000000E+00 -0.67830431885E+03  0.67830431887E+03  0.50400001928E-02 0.  1.
    10030    2    1    2    0    0  0.00000000000E+00  0.00000000000E+00  0.77196166706E+03  0.21285703048E+04  0.19836548911E+04 0.  0.
        3    1    3    3  502    0  0.21815502770E+03  0.95506896937E+03  0.55212533217E+03  0.11245402372E+04  0.10100000352E+00 0. -1.
       -3    1    3    3    0  502 -0.21815502770E+03 -0.95506896937E+03  0.21983633490E+03  0.10040300676E+04  0.10100000352E+00 0.  1.
</event>
<event>
 5   0  0.1782172E-04  0.1989046E+04  0.7818609E-02  0.8611759E-01
       -2   -1    0    0    0  501  0.00000000000E+00  0.00000000000E+00  0.54431380642E+03  0.54431380643E+03  0.25500000920E-02 0. -1.
        2   -1    0    0  501    0  0.00000000000E+00  0.00000000000E+00 -0.18171056810E+04  0.18171056810E+04  0.25500000920E-02 0.  1.
    10030    2    1    2    0    0  0.00000000000E+00  0.00000000000E+00 -0.12727918746E+04  0.23614194874E+04  0.19890457108E+04 0.  0.
        2    1    3    3  502    0  0.22116044893E+03  0.58253670158E+03  0.28383890909E+03  0.68470831686E+03  0.25500000920E-02 0. -1.
       -2    1    3    3    0  502 -0.22116044893E+03 -0.58253670158E+03 -0.15566307837E+04  0.16767111706E+04  0.25500000920E-02 0.  1.
</event>
<event>
 5   0  0.1893687E-04  0.2011061E+04  0.7818609E-02  0.8601467E-01
       -2   -1    0    0    0  501  0.00000000000E+00  0.00000000000E+00  0.67319484620E+03  0.67319484621E+03  0.25500000920E-02 0.  1.
        2   -1    0    0  501    0  0.00000000000E+00  0.00000000000E+00 -0.15019296184E+04  0.15019296184E+04  0.25500000920E-02 0. -1.
    10030    2    1    2    0    0  0.00000000000E+00  0.00000000000E+00 -0.82873477223E+03  0.21751244646E+04  0.20110606938E+04 0.  0.
        4    1    3    3  502    0 -0.29515558907E+03  0.71329674317E+02  0.62241950589E+03  0.69254053919E+03  0.12699999809E+01 0.  1.
       -4    1    3    3    0  502  0.29515558907E+03 -0.71329674317E+02 -0.14511542781E+04  0.14825839255E+04  0.12699999809E+01 0. -1.
</event>
<event>
 5   0  0.8765057E-05  0.2004020E+04  0.7818609E-02  0.8604743E-01
       -1   -1    0    0    0  501  0.00000000000E+00  0.00000000000E+00  0.54269178839E+03  0.54269178842E+03  0.50400001928E-02 0.  1.
        1   -1    0    0  501    0  0.00000000000E+00  0.00000000000E+00 -0.18500824233E+04  0.18500824233E+04  0.50400001928E-02 0. -1.
    10030    2    1    2    0    0  0.00000000000E+00  0.00000000000E+00 -0.13073906349E+04  0.23927742117E+04  0.20040204979E+04 0.  0.
        3    1    3    3  502    0 -0.24272873545E+03  0.92322642316E+03 -0.10173427636E+04  0.13950808494E+04  0.10100000352E+00 0. -1.
       -3    1    3    3    0  502  0.24272873545E+03 -0.92322642316E+03 -0.29004787130E+03  0.99769336235E+03  0.10100000352E+00 0.  1.
</event>
<event>
 5   0  0.1782172E-04  0.1999769E+04  0.7818609E-02  0.8606729E-01
        2   -1    0    0  501    0  0.00000000000E+00  0.00000000000E+00  0.15699290586E+04  0.15699290586E+04  0.25500000920E-02 0.  1.
       -2   -1    0    0    0  501  0.00000000000E+00  0.00000000000E+00 -0.63682442950E+03  0.63682442951E+03  0.25500000920E-02 0. -1.
    10030    2    1    2    0    0  0.00000000000E+00  0.00000000000E+00  0.93310462914E+03  0.22067534881E+04  0.19997691638E+04 0.  0.
        2    1    3    3  502    0  0.19654502794E+03 -0.58355556617E+03 -0.40276951515E+03  0.73579231388E+03  0.25500000920E-02 0. -1.
       -2    1    3    3    0  502 -0.19654502794E+03  0.58355556617E+03  0.13358741443E+04  0.14709611743E+04  0.25500000920E-02 0.  1.
</event>
<event>
 5   0  0.1893687E-04  0.1982586E+04  0.7818609E-02  0.8614806E-01
       -2   -1    0    0    0  501  0.00000000000E+00  0.00000000000E+00  0.79713838892E+03  0.79713838892E+03  0.25500000920E-02 0.  1.
        2   -1    0    0  501    0  0.00000000000E+00  0.00000000000E+00 -0.12327369559E+04  0.12327369559E+04  0.25500000920E-02 0. -1.
    10030    2    1    2    0    0  0.00000000000E+00  0.00000000000E+00 -0.43559856693E+03  0.20298753448E+04  0.19825861403E+04 0.  0.
        4    1    3    3  502    0 -0.46288222199E+03 -0.86364418991E+03 -0.64156270137E+02  0.98196684164E+03  0.12699999809E+01 0. -1.
       -4    1    3    3    0  502  0.46288222199E+03  0.86364418991E+03 -0.37144229680E+03  0.10479085031E+04  0.12699999809E+01 0.  1.
</event>
<event>
 5   0  0.1812865E-04  0.1951552E+04  0.7818609E-02  0.8629613E-01
       -2   -1    0    0    0  501  0.00000000000E+00  0.00000000000E+00  0.57457056340E+03  0.57457056341E+03  0.25500000920E-02 0.  1.
        2   -1    0    0  501    0  0.00000000000E+00  0.00000000000E+00 -0.16571310018E+04  0.16571310018E+04  0.25500000920E-02 0. -1.
    10030    2    1    2    0    0  0.00000000000E+00  0.00000000000E+00 -0.10825604384E+04  0.22317015652E+04  0.19515518885E+04 0.  0.
        3    1    3    3  502    0 -0.42021978664E+03  0.11744338323E+03  0.45679989088E+03  0.63169911180E+03  0.10100000352E+00 0.  1.
       -3    1    3    3    0  502  0.42021978664E+03 -0.11744338323E+03 -0.15393603293E+04  0.16000024534E+04  0.10100000352E+00 0. -1.
</event>
<event>
 5   0  0.8765057E-05  0.2001205E+04  0.7818609E-02  0.8606058E-01
        1   -1    0    0  501    0  0.00000000000E+00  0.00000000000E+00  0.19114182701E+04  0.19114182701E+04  0.50400001928E-02 0. -1.
       -1   -1    0    0    0  501  0.00000000000E+00  0.00000000000E+00 -0.52380223531E+03  0.52380223534E+03  0.50400001928E-02 0.  1.
    10030    2    1    2    0    0  0.00000000000E+00  0.00000000000E+00  0.13876160348E+04  0.24352205055E+04  0.20012047997E+04 0.  0.
        3    1    3    3  502    0  0.31051840661E+03  0.34060757980E+02  0.18505605933E+04  0.18767408814E+04  0.10100000352E+00 0. -1.
       -3    1    3    3    0  502 -0.31051840661E+03 -0.34060757980E+02 -0.46294455851E+03  0.55847962409E+03  0.10100000352E+00 0.  1.
</event>
<event>
 5   0  0.1782172E-04  0.2006397E+04  0.7818609E-02  0.8603636E-01
        2   -1    0    0  501    0  0.00000000000E+00  0.00000000000E+00  0.11291736642E+04  0.11291736642E+04  0.25500000920E-02 0.  1.
       -2   -1    0    0    0  501  0.00000000000E+00  0.00000000000E+00 -0.89127757571E+03  0.89127757571E+03  0.25500000920E-02 0. -1.
    10030    2    1    2    0    0  0.00000000000E+00  0.00000000000E+00  0.23789608852E+03  0.20204512399E+04  0.20063969358E+04 0.  0.
        2    1    3    3  502    0  0.26264646612E+03  0.80331890800E+01 -0.85600702836E+03  0.89543047240E+03  0.25500000920E-02 0. -1.
       -2    1    3    3    0  502 -0.26264646612E+03 -0.80331890800E+01  0.10939031169E+04  0.11250207675E+04  0.25500000920E-02 0.  1.
</event>
<event>
 5   0  0.6531625E-05  0.1927082E+04  0.7818609E-02  0.8641492E-01
       -3   -1    0    0    0  501  0.00000000000E+00  0.00000000000E+00  0.76137273278E+03  0.76137273948E+03  0.10100000352E+00 0. -1.
        3   -1    0    0  501    0  0.00000000000E+00  0.00000000000E+00 -0.12193916514E+04  0.12193916556E+04  0.10100000352E+00 0.  1.
    10030    2    1    2    0    0  0.00000000000E+00  0.00000000000E+00 -0.45801891859E+03  0.19807643950E+04  0.19270823176E+04 0.  0.
        4    1    3    3  502    0  0.25814664404E+03 -0.78034841173E+03  0.28781606304E+03  0.87087486619E+03  0.12699999809E+01 0. -1.
       -4    1    3    3    0  502 -0.25814664404E+03  0.78034841173E+03 -0.74583498163E+03  0.11098895288E+04  0.12699999809E+01 0.  1.
</event>
<event>
 5   0  0.8958919E-05  0.1994497E+04  0.7818609E-02  0.8609198E-01
       -1   -1    0    0    0  501  0.00000000000E+00  0.00000000000E+00  0.10076514517E+04  0.10076514517E+04  0.50400001928E-02 0. -1.
        1   -1    0    0  501    0  0.00000000000E+00  0.00000000000E+00 -0.98695264890E+03  0.98695264891E+03  0.50400001928E-02 0.  1.
    10030    2    1    2    0    0  0.00000000000E+00  0.00000000000E+00  0.20698802789E+02  0.19946041006E+04  0.19944966978E+04 0.  0.
        4    1    3    3  502    0 -0.28808924782E+03  0.95464082008E+03 -0.26184263323E+01  0.99716747798E+03  0.12699999809E+01 0. -1.
       -4    1    3    3    0  502  0.28808924782E+03 -0.95464082008E+03  0.23317229122E+02  0.99743662263E+03  0.12699999809E+01 0.  1.
</event>
<event>
 5   0  0.1782172E-04  0.1489354E+04  0.7818609E-02  0.8891563E-01
        2   -1    0    0  501    0  0.00000000000E+00  0.00000000000E+00  0.90055106203E+03  0.90055106203E+03  0.25500000920E-02 0. -1.
       -2   -1    0    0    0  501  0.00000000000E+00  0.00000000000E+00 -0.61578288542E+03  0.61578288543E+03  0.25500000920E-02 0.  1.
    10030    2    1    2    0    0  0.00000000000E+00  0.00000000000E+00  0.28476817661E+03  0.15163339475E+04  0.14893541304E+04 0.  0.
        2    1    3    3  502    0 -0.50217949869E+02  0.64700185012E+03  0.51425499868E+03  0.82800449287E+03  0.25500000920E-02 0. -1.
       -2    1    3    3    0  502  0.50217949869E+02 -0.64700185012E+03 -0.22948682207E+03  0.68832945459E+03  0.25500000920E-02 0.  1.
</event>
<event>
 5   0  0.8881384E-05  0.1983113E+04  0.7818609E-02  0.8614557E-01
       -1   -1    0    0    0  501  0.00000000000E+00  0.00000000000E+00  0.20213572156E+04  0.20213572156E+04  0.50400001928E-02 0.  1.
        1   -1    0    0  501    0  0.00000000000E+00  0.00000000000E+00 -0.48639811564E+03  0.48639811567E+03  0.50400001928E-02 0. -1.
    10030    2    1    2    0    0  0.00000000000E+00  0.00000000000E+00  0.15349590999E+04  0.25077553313E+04  0.19831130485E+04 0.  0.
        5    1    3    3  502    0 -0.75419939888E+03  0.18546749244E+03 -0.11990417710E+02  0.77677589055E+03  0.46999998093E+01 0. -1.
       -5    1    3    3    0  502  0.75419939888E+03 -0.18546749244E+03  0.15469495177E+04  0.17309794407E+04  0.46999998093E+01 0.  1.
</event>
<event>
 5   0  0.8881384E-05  0.2031056E+04  0.7818609E-02  0.8592237E-01
        1   -1    0    0  501    0  0.00000000000E+00  0.00000000000E+00  0.85564826342E+03  0.85564826344E+03  0.50400001928E-02 0.  1.
       -1   -1    0    0    0  501  0.00000000000E+00  0.00000000000E+00 -0.12052813706E+04  0.12052813706E+04  0.50400001928E-02 0. -1.
    10030    2    1    2    0    0  0.00000000000E+00  0.00000000000E+00 -0.34963310715E+03  0.20609296340E+04  0.20310557961E+04 0.  0.
        5    1    3    3  502    0 -0.15035100492E+03 -0.10029094495E+04 -0.22891139878E+03  0.10396419129E+04  0.46999998093E+01 0. -1.
       -5    1    3    3    0  502  0.15035100492E+03  0.10029094495E+04 -0.12072170837E+03  0.10212877212E+04  0.46999998093E+01 0.  1.
</event>
<event>
 5   0  0.8765057E-05  0.1821381E+04  0.7818609E-02  0.8695011E-01
       -1   -1    0    0    0  501  0.00000000000E+00  0.00000000000E+00  0.12365066846E+04  0.12365066846E+04  0.50400001928E-02 0.  1.
        1   -1    0    0  501    0  0.00000000000E+00  0.00000000000E+00 -0.67072597235E+03  0.67072597237E+03  0.50400001928E-02 0. -1.
    10030    2    1    2    0    0  0.00000000000E+00  0.00000000000E+00  0.56578071225E+03  0.19072326570E+04  0.18213809578E+04 0.  0.
        3    1    3    3  502    0 -0.48892700388E+03  0.35435187401E+03 -0.43096294340E+03  0.74185169308E+03  0.10100000352E+00 0. -1.
       -3    1    3    3    0  502  0.48892700388E+03 -0.35435187401E+03  0.99674365565E+03  0.11653809639E+04  0.10100000352E+00 0.  1.
</event>
<event>
 5   0  0.8577422E-05  0.2018796E+04  0.7818609E-02  0.8597883E-01
       -1   -1    0    0    0  501  0.00000000000E+00  0.00000000000E+00  0.11363818809E+04  0.11363818810E+04  0.50400001928E-02 0.  1.
        1   -1    0    0  501    0  0.00000000000E+00  0.00000000000E+00 -0.89660420016E+03  0.89660420017E+03  0.50400001928E-02 0. -1.
    10030    2    1    2    0    0  0.00000000000E+00  0.00000000000E+00  0.23977768079E+03  0.20329860811E+04  0.20187964409E+04 0.  0.
        2    1    3    3  502    0  0.40150846052E+03  0.11782158844E+03 -0.80515015080E+03  0.90739061925E+03  0.25500000920E-02 0. -1.
       -2    1    3    3    0  502 -0.40150846052E+03 -0.11782158844E+03  0.10449278316E+04  0.11255954619E+04  0.25500000920E-02 0.  1.
</event>
<event>
 5   0  0.1807498E-04  0.1992598E+04  0.7818609E-02  0.8610089E-01
        2   -1    0    0  501    0  0.00000000000E+00  0.00000000000E+00  0.12280796135E+04  0.12280796135E+04  0.25500000920E-02 0. -1.
       -2   -1    0    0    0  501  0.00000000000E+00  0.00000000000E+00 -0.80826349959E+03  0.80826349959E+03  0.25500000920E-02 0.  1.
    10030    2    1    2    0    0  0.00000000000E+00  0.00000000000E+00  0.41981611389E+03  0.20363431131E+04  0.19925982296E+04 0.  0.
        5    1    3    3  502    0  0.47792051149E+03 -0.69161641640E+03 -0.33647750586E+03  0.90552773822E+03  0.46999998093E+01 0.  1.
       -5    1    3    3    0  502 -0.47792051149E+03  0.69161641640E+03  0.75629361974E+03  0.11308153749E+04  0.46999998093E+01 0. -1.
</event>
<event>
 5   0  0.8958919E-05  0.2020733E+04  0.7818609E-02  0.8596988E-01
        1   -1    0    0  501    0  0.00000000000E+00  0.00000000000E+00  0.15183843319E+04  0.15183843319E+04  0.50400001928E-02 0. -1.
       -1   -1    0    0    0  501  0.00000000000E+00  0.00000000000E+00 -0.67231988654E+03  0.67231988656E+03  0.50400001928E-02 0.  1.
    10030    2    1    2    0    0  0.00000000000E+00  0.00000000000E+00  0.84606444536E+03  0.21907042185E+04  0.20207325224E+04 0.  0.
        4    1    3    3  502    0  0.81651767166E+03  0.11498389407E+03  0.10560247499E+04  0.13398180061E+04  0.12699999809E+01 0. -1.
       -4    1    3    3    0  502 -0.81651767166E+03 -0.11498389407E+03 -0.20996030458E+03  0.85088621239E+03  0.12699999809E+01 0.  1.
</event>
<event>
 5   0  0.8881384E-05  0.2090798E+04  0.7818609E-02  0.8565308E-01
        1   -1    0    0  501    0  0.00000000000E+00  0.00000000000E+00  0.96732011313E+03  0.96732011314E+03  0.50400001928E-02 0.  1.
       -1   -1    0    0    0  501  0.00000000000E+00  0.00000000000E+00 -0.11297804275E+04  0.11297804275E+04  0.50400001928E-02 0. -1.
    10030    2    1    2    0    0  0.00000000000E+00  0.00000000000E+00 -0.16246031435E+03  0.20971005406E+04  0.20907982504E+04 0.  0.
        5    1    3    3  502    0 -0.31159428672E+03  0.64066312936E+02 -0.10800439375E+04  0.11259273906E+04  0.46999998093E+01 0. -1.
       -5    1    3    3    0  502  0.31159428672E+03 -0.64066312936E+02  0.91758362313E+03  0.97117315006E+03  0.46999998093E+01 0.  1.
</event>
<event>
 5   0  0.1782172E-04  0.1946503E+04  0.7818609E-02  0.8632049E-01
       -2   -1    0    0    0  501  0.00000000000E+00  0.00000000000E+00  0.71304409366E+03  0.71304409366E+03  0.25500000920E-02 0. -1.
        2   -1    0    0  501    0  0.00000000000E+00  0.00000000000E+00 -0.13284151958E+04  0.13284151958E+04  0.25500000920E-02 0.  1.
    10030    2    1    2    0    0  0.00000000000E+00  0.00000000000E+00 -0.61537110217E+03  0.20414592895E+04  0.19465031306E+04 0.  0.
        2    1    3    3  502    0  0.80324308323E+03  0.50659322554E+03 -0.53110945981E+03  0.10880778489E+04  0.25500000920E-02 0.  1.
       -2    1    3    3    0  502 -0.80324308323E+03 -0.50659322554E+03 -0.84261642357E+02  0.95338144061E+03  0.25500000920E-02 0. -1.
</event>
<event>
 5   0  0.8577422E-05  0.1998504E+04  0.7818609E-02  0.8607320E-01
        1   -1    0    0  501    0  0.00000000000E+00  0.00000000000E+00  0.98281766880E+03  0.98281766882E+03  0.50400001928E-02 0. -1.
       -1   -1    0    0    0  501  0.00000000000E+00  0.00000000000E+00 -0.10159612019E+04  0.10159612019E+04  0.50400001928E-02 0.  1.
    10030    2    1    2    0    0  0.00000000000E+00  0.00000000000E+00 -0.33143533091E+02  0.19987788707E+04  0.19985040606E+04 0.  0.
        2    1    3    3  502    0 -0.57727531506E+03  0.68257811584E+03  0.42997025079E+03  0.99198492437E+03  0.25500000920E-02 0.  1.
       -2    1    3    3    0  502  0.57727531506E+03 -0.68257811584E+03 -0.46311378388E+03  0.10067939464E+04  0.25500000920E-02 0. -1.
</event>
<event>
 5   0  0.1807498E-04  0.1954856E+04  0.7818609E-02  0.8628023E-01
       -2   -1    0    0    0  501  0.00000000000E+00  0.00000000000E+00  0.12420751321E+04  0.12420751321E+04  0.25500000920E-02 0. -1.
        2   -1    0    0  501    0  0.00000000000E+00  0.00000000000E+00 -0.76916880317E+03  0.76916880317E+03  0.25500000920E-02 0.  1.
    10030    2    1    2    0    0  0.00000000000E+00  0.00000000000E+00  0.47290632896E+03  0.20112439353E+04  0.19548559464E+04 0.  0.
        5    1    3    3  502    0  0.70534945354E+03 -0.66193872395E+03  0.38072141253E+03  0.10395439432E+04  0.46999998093E+01 0. -1.
       -5    1    3    3    0  502 -0.70534945354E+03  0.66193872395E+03  0.92184916433E+02  0.97169999212E+03  0.46999998093E+01 0.  1.
</event>
<event>
 5   0  0.8861350E-05  0.1999803E+04  0.7818609E-02  0.8606713E-01
       -1   -1    0    0    0  501  0.00000000000E+00  0.00000000000E+00  0.12912182145E+04  0.12912182145E+04  0.50400001928E-02 0. -1.
        1   -1    0    0  501    0  0.00000000000E+00  0.00000000000E+00 -0.77430982274E+03  0.77430982275E+03  0.50400001928E-02 0.  1.
    10030    2    1    2    0    0  0.00000000000E+00  0.00000000000E+00  0.51690839173E+03  0.20655280372E+04  0.19998029371E+04 0.  0.
        1    1    3    3  502    0 -0.21295067833E+03 -0.18824700496E+03 -0.73170700849E+03  0.78497138328E+03  0.50400001928E-02 0.  1.
       -1    1    3    3    0  502  0.21295067833E+03  0.18824700496E+03  0.12486154002E+04  0.12805566539E+04  0.50400001928E-02 0. -1.
</event>
<event>
 5   0  0.1812865E-04  0.1493119E+04  0.7818609E-02  0.8889041E-01
       -2   -1    0    0    0  501  0.00000000000E+00  0.00000000000E+00  0.49325275278E+03  0.49325275278E+03  0.25500000920E-02 0. -1.
        2   -1    0    0  501    0  0.00000000000E+00  0.00000000000E+00 -0.11299506702E+04  0.11299506702E+04  0.25500000920E-02 0.  1.
    10030    2    1    2    0    0  0.00000000000E+00  0.00000000000E+00 -0.63669791746E+03  0.16232034230E+04  0.14931192566E+04 0.  0.
        3    1    3    3  502    0  0.65642753958E+03 -0.34788783075E+03 -0.23825369979E+03  0.78018452508E+03  0.10100000352E+00 0. -1.
       -3    1    3    3    0  502 -0.65642753958E+03  0.34788783075E+03 -0.39844421767E+03  0.84301889795E+03  0.10100000352E+00 0.  1.
</event>
<event>
 5   0  0.1807498E-04  0.1991683E+04  0.7818609E-02  0.8610519E-01
       -2   -1    0    0    0  501  0.00000000000E+00  0.00000000000E+00  0.91031223105E+03  0.91031223105E+03  0.25500000920E-02 0. -1.
        2   -1    0    0  501    0  0.00000000000E+00  0.00000000000E+00 -0.10894068005E+04  0.10894068005E+04  0.25500000920E-02 0.  1.
    10030    2    1    2    0    0  0.00000000000E+00  0.00000000000E+00 -0.17909456948E+03  0.19997190316E+04  0.19916830422E+04 0.  0.
        5    1    3    3  502    0 -0.49276445828E+03  0.54449504932E+03 -0.76485794962E+03  0.10603402488E+04  0.46999998093E+01 0.  1.
       -5    1    3    3    0  502  0.49276445828E+03 -0.54449504932E+03  0.58576338014E+03  0.93937878281E+03  0.46999998093E+01 0. -1.
</event>
<event>
 5   0  0.8861350E-05  0.1984496E+04  0.7818609E-02  0.8613904E-01
        1   -1    0    0  501    0  0.00000000000E+00  0.00000000000E+00  0.11458790961E+04  0.11458790961E+04  0.50400001928E-02 0.  1.
       -1   -1    0    0    0  501  0.00000000000E+00  0.00000000000E+00 -0.85921425766E+03  0.85921425767E+03  0.50400001928E-02 0. -1.
    10030    2    1    2    0    0  0.00000000000E+00  0.00000000000E+00  0.28666483843E+03  0.20050933538E+04  0.19844955600E+04 0.  0.
        1    1    3    3  502    0 -0.69713740405E+03  0.65458851699E+03 -0.12412049430E+03  0.96430938180E+03  0.50400001928E-02 0. -1.
       -1    1    3    3    0  502  0.69713740405E+03 -0.65458851699E+03  0.41078533273E+03  0.10407839720E+04  0.50400001928E-02 0.  1.
</event>
<event>
 5   0  0.1782172E-04  0.2024931E+04  0.7818609E-02  0.8595052E-01
       -2   -1    0    0    0  501  0.00000000000E+00  0.00000000000E+00  0.59986244160E+03  0.59986244161E+03  0.25500000920E-02 0.  1.
        2   -1    0    0  501    0  0.00000000000E+00  0.00000000000E+00 -0.17088696854E+04  0.17088696854E+04  0.25500000920E-02 0. -1.
    10030    2    1    2    0    0  0.00000000000E+00  0.00000000000E+00 -0.11090072438E+04  0.23087321270E+04  0.20249313488E+04 0.  0.
        2    1    3    3  502    0 -0.77609120238E+03 -0.27202224983E+03  0.11883685563E+03  0.83092470001E+03  0.25500000920E-02 0.  1.
       -2    1    3    3    0  502  0.77609120238E+03  0.27202224983E+03 -0.12278440994E+04  0.14778074270E+04  0.25500000920E-02 0. -1.
</event>
<event>
 5   0  0.1807498E-04  0.1978554E+04  0.7818609E-02  0.8616713E-01
        2   -1    0    0  501    0  0.00000000000E+00  0.00000000000E+00  0.14869868769E+04  0.14869868769E+04  0.25500000920E-02 0. -1.
       -2   -1    0    0    0  501  0.00000000000E+00  0.00000000000E+00 -0.65815590552E+03  0.65815590552E+03  0.25500000920E-02 0.  1.
    10030    2    1    2    0    0  0.00000000000E+00  0.00000000000E+00  0.82883097141E+03  0.21451427825E+04  0.19785542141E+04 0.  0.
        5    1    3    3  502    0  0.45258615798E+03  0.68162290733E+02  0.13652797110E+04  0.14399621896E+04  0.46999998093E+01 0. -1.
       -5    1    3    3    0  502 -0.45258615798E+03 -0.68162290733E+02 -0.53644873960E+03  0.70518059282E+03  0.46999998093E+01 0.  1.
</event>
<event>
 5   0  0.8577422E-05  0.2021686E+04  0.7818609E-02  0.8596549E-01
        1   -1    0    0  501    0  0.00000000000E+00  0.00000000000E+00  0.13255014258E+04  0.13255014258E+04  0.50400001928E-02 0.  1.
       -1   -1    0    0    0  501  0.00000000000E+00  0.00000000000E+00 -0.77088052234E+03  0.77088052236E+03  0.50400001928E-02 0. -1.
    10030    2    1    2    0    0  0.00000000000E+00  0.00000000000E+00  0.55462090345E+03  0.20963819482E+04  0.20216856645E+04 0.  0.
        2    1    3    3  502    0 -0.45302868620E+03 -0.20378796299E+03 -0.63557960370E+03  0.80667586863E+03  0.25500000920E-02 0. -1.
       -2    1    3    3    0  502  0.45302868620E+03  0.20378796299E+03  0.11902005071E+04  0.12897060795E+04  0.25500000920E-02 0.  1.
</event>
<event>
 5   0  0.1807498E-04  0.2013656E+04  0.7818609E-02  0.8600262E-01
       -2   -1    0    0    0  501  0.00000000000E+00  0.00000000000E+00  0.78986790333E+03  0.78986790334E+03  0.25500000920E-02 0. -1.
        2   -1    0    0  501    0  0.00000000000E+00  0.00000000000E+00 -0.12833828323E+04  0.12833828323E+04  0.25500000920E-02 0.  1.
    10030    2    1    2    0    0  0.00000000000E+00  0.00000000000E+00 -0.49351492901E+03  0.20732507357E+04  0.20136562834E+04 0.  0.
        5    1    3    3  502    0 -0.62287769665E+03  0.13870179425E+03  0.55504930240E+03  0.84576393326E+03  0.46999998093E+01 0. -1.
       -5    1    3    3    0  502  0.62287769665E+03 -0.13870179425E+03 -0.10485642314E+04  0.12274868024E+04  0.46999998093E+01 0.  1.
</event>
<event>
 5   0  0.8958919E-05  0.2006503E+04  0.7818609E-02  0.8603586E-01
       -1   -1    0    0    0  501  0.00000000000E+00  0.00000000000E+00  0.40408378003E+03  0.40408378006E+03  0.50400001928E-02 0. -1.
        1   -1    0    0  501    0  0.00000000000E+00  0.00000000000E+00 -0.24908531472E+04  0.24908531472E+04  0.50400001928E-02 0.  1.
    10030    2    1    2    0    0  0.00000000000E+00  0.00000000000E+00 -0.20867693672E+04  0.28949369273E+04  0.20065027837E+04 0.  0.
        4    1    3    3  502    0  0.38461534312E+03  0.84481817507E+03 -0.49424715889E+03  0.10516313889E+04  0.12699999809E+01 0. -1.
       -4    1    3    3    0  502 -0.38461534312E+03 -0.84481817507E+03 -0.15925222083E+04  0.18433055384E+04  0.12699999809E+01 0.  1.
</event>
<event>
 5   0  0.8881384E-05  0.1999106E+04  0.7818609E-02  0.8607039E-01
       -1   -1    0    0    0  501  0.00000000000E+00  0.00000000000E+00  0.10006697583E+04  0.10006697583E+04  0.50400001928E-02 0. -1.
        1   -1    0    0  501    0  0.00000000000E+00  0.00000000000E+00 -0.99843781793E+03  0.99843781794E+03  0.50400001928E-02 0.  1.
    10030    2    1    2    0    0  0.00000000000E+00  0.00000000000E+00  0.22319404026E+01  0.19991075763E+04  0.19991063303E+04 0.  0.
        5    1    3    3  502    0  0.89567561735E+03 -0.36421513437E+03 -0.25225538654E+03  0.99927090704E+03  0.46999998093E+01 0. -1.
       -5    1    3    3    0  502 -0.89567561735E+03  0.36421513437E+03  0.25448732694E+03  0.99983666925E+03  0.46999998093E+01 0.  1.
</event>
<event>
 5   0  0.8881384E-05  0.2013416E+04  0.7818609E-02  0.8600374E-01
        1   -1    0    0  501    0  0.00000000000E+00  0.00000000000E+00  0.10219927749E+04  0.10219927749E+04  0.50400001928E-02 0. -1.
       -1   -1    0    0    0  501  0.00000000000E+00  0.00000000000E+00 -0.99165160747E+03  0.99165160748E+03  0.50400001928E-02 0.  1.
    10030    2    1    2    0    0  0.00000000000E+00  0.00000000000E+00  0.30341167445E+02  0.20136443824E+04  0.20134157823E+04 0.  0.
        5    1    3    3  502    0 -0.12830102300E+03  0.57388839081E+03  0.83234942729E+03  0.10191352691E+04  0.46999998093E+01 0. -1.
       -5    1    3    3    0  502  0.12830102300E+03 -0.57388839081E+03 -0.80200825984E+03  0.99450911331E+03  0.46999998093E+01 0.  1.
</event>
<event>
 5   0  0.6531625E-05  0.2020991E+04  0.7818609E-02  0.8596869E-01
       -3   -1    0    0    0  501  0.00000000000E+00  0.00000000000E+00  0.53285132061E+03  0.53285133018E+03  0.10100000352E+00 0.  1.
        3   -1    0    0  501    0  0.00000000000E+00  0.00000000000E+00 -0.19162967410E+04  0.19162967437E+04  0.10100000352E+00 0. -1.
    10030    2    1    2    0    0  0.00000000000E+00  0.00000000000E+00 -0.13834454204E+04  0.24491480739E+04  0.20209911075E+04 0.  0.
        1    1    3    3  502    0  0.13728930818E+03  0.96318289977E+03 -0.10225649074E+04  0.14114562134E+04  0.50400001928E-02 0. -1.
       -1    1    3    3    0  502 -0.13728930818E+03 -0.96318289977E+03 -0.36088051304E+03  0.10376918605E+04  0.50400001928E-02 0.  1.
</event>
<event>
 5   0  0.1812865E-04  0.1996771E+04  0.7818609E-02  0.8608132E-01
       -2   -1    0    0    0  501  0.00000000000E+00  0.00000000000E+00  0.54487016861E+03  0.54487016862E+03  0.25500000920E-02 0. -1.
        2   -1    0    0  501    0  0.00000000000E+00  0.00000000000E+00 -0.18293775593E+04  0.18293775593E+04  0.25500000920E-02 0.  1.
    10030    2    1    2    0    0  0.00000000000E+00  0.00000000000E+00 -0.12845073906E+04  0.23742477279E+04  0.19967706520E+04 0.  0.
        3    1    3    3  502    0  0.86545992544E+03  0.24540663793E+03 -0.11571631276E+04  0.14656984051E+04  0.10100000352E+00 0.  1.
       -3    1    3    3    0  502 -0.86545992544E+03 -0.24540663793E+03 -0.12734426303E+03  0.90854932282E+03  0.10100000352E+00 0. -1.
</event>
<event>
 5   0  0.8881384E-05  0.2007866E+04  0.7818609E-02  0.8602952E-01
       -1   -1    0    0    0  501  0.00000000000E+00  0.00000000000E+00  0.16566081382E+04  0.16566081382E+04  0.50400001928E-02 0. -1.
        1   -1    0    0  501    0  0.00000000000E+00  0.00000000000E+00 -0.60840055207E+03  0.60840055209E+03  0.50400001928E-02 0.  1.
    10030    2    1    2    0    0  0.00000000000E+00  0.00000000000E+00  0.10482075861E+04  0.22650086903E+04  0.20078658380E+04 0.  0.
        5    1    3    3  502    0 -0.68047305563E+03 -0.72294162891E+03  0.35613515856E+03  0.10547713114E+04  0.46999998093E+01 0.  1.
       -5    1    3    3    0  502  0.68047305563E+03  0.72294162891E+03  0.69207242758E+03  0.12102373789E+04  0.46999998093E+01 0. -1.
</event>
<event>
 5   0  0.8881384E-05  0.1953203E+04  0.7818609E-02  0.8628818E-01
       -1   -1    0    0    0  501  0.00000000000E+00  0.00000000000E+00  0.36806998461E+03  0.36806998464E+03  0.50400001928E-02 0.  1.
        1   -1    0    0  501    0  0.00000000000E+00  0.00000000000E+00 -0.25912194239E+04  0.25912194239E+04  0.50400001928E-02 0. -1.
    10030    2    1    2    0    0  0.00000000000E+00  0.00000000000E+00 -0.22231494392E+04  0.29592894085E+04  0.19532025942E+04 0.  0.
        5    1    3    3  502    0  0.57645801400E+03  0.33896143711E+01 -0.23059208313E+04  0.23768904690E+04  0.46999998093E+01 0. -1.
       -5    1    3    3    0  502 -0.57645801400E+03 -0.33896143711E+01  0.82771392055E+02  0.58239893950E+03  0.46999998093E+01 0.  1.
</event>
<event>
 5   0  0.1812865E-04  0.1994696E+04  0.7818609E-02  0.8609105E-01
        2   -1    0    0  501    0  0.00000000000E+00  0.00000000000E+00  0.16748497934E+04  0.16748497934E+04  0.25500000920E-02 0.  1.
       -2   -1    0    0    0  501  0.00000000000E+00  0.00000000000E+00 -0.59390564518E+03  0.59390564519E+03  0.25500000920E-02 0. -1.
    10030    2    1    2    0    0  0.00000000000E+00  0.00000000000E+00  0.10809441483E+04  0.22687554386E+04  0.19946957133E+04 0.  0.
        3    1    3    3  502    0 -0.15477407002E+03 -0.86174731063E+03 -0.27921153421E+01  0.87554054517E+03  0.10100000352E+00 0. -1.
       -3    1    3    3    0  502  0.15477407002E+03  0.86174731063E+03  0.10837362636E+04  0.13932148935E+04  0.10100000352E+00 0.  1.
</event>
<event>
 5   0  0.1834645E-04  0.2006123E+04  0.7818609E-02  0.8603763E-01
       -2   -1    0    0    0  501  0.00000000000E+00  0.00000000000E+00  0.74237383954E+03  0.74237383954E+03  0.25500000920E-02 0.  1.
        2   -1    0    0  501    0  0.00000000000E+00  0.00000000000E+00 -0.13552906518E+04  0.13552906518E+04  0.25500000920E-02 0. -1.
    10030    2    1    2    0    0  0.00000000000E+00  0.00000000000E+00 -0.61291681227E+03  0.20976644913E+04  0.20061229522E+04 0.  0.
        1    1    3    3  502    0 -0.24104135748E+03 -0.20202788531E+03  0.68948316331E+03  0.75782797189E+03  0.50400001928E-02 0.  1.
       -1    1    3    3    0  502  0.24104135748E+03  0.20202788531E+03 -0.13023999756E+04  0.13398365195E+04  0.50400001928E-02 0. -1.
</event>
<event>
 5   0  0.1893687E-04  0.2006235E+04  0.7818609E-02  0.8603711E-01
        2   -1    0    0  501    0  0.00000000000E+00  0.00000000000E+00  0.18545304846E+04  0.18545304847E+04  0.25500000920E-02 0.  1.
       -2   -1    0    0    0  501  0.00000000000E+00  0.00000000000E+00 -0.54258726100E+03  0.54258726100E+03  0.25500000920E-02 0. -1.
    10030    2    1    2    0    0  0.00000000000E+00  0.00000000000E+00  0.13119432237E+04  0.23971177457E+04  0.20062348976E+04 0.  0.
        4    1    3    3  502    0  0.18566194707E+03  0.12034588077E+03  0.18250112510E+04  0.18383745997E+04  0.12699999809E+01 0.  1.
       -4    1    3    3    0  502 -0.18566194707E+03 -0.12034588077E+03 -0.51306802733E+03  0.55874314598E+03  0.12699999809E+01 0. -1.
</event>
<event>
 5   0  0.8577422E-05  0.2044037E+04  0.7818609E-02  0.8586304E-01
        1   -1    0    0  501    0  0.00000000000E+00  0.00000000000E+00  0.11002191181E+04  0.11002191181E+04  0.50400001928E-02 0. -1.
       -1   -1    0    0    0  501  0.00000000000E+00  0.00000000000E+00 -0.94937582476E+03  0.94937582478E+03  0.50400001928E-02 0.  1.
    10030    2    1    2    0    0  0.00000000000E+00  0.00000000000E+00  0.15084329336E+03  0.20495949429E+04  0.20440366266E+04 0.  0.
        2    1    3    3  502    0 -0.19789715443E+03 -0.73321646777E+03 -0.61036193363E+03  0.97432610679E+03  0.25500000920E-02 0.  1.
       -2    1    3    3    0  502  0.19789715443E+03  0.73321646777E+03  0.76120522699E+03  0.10752688361E+04  0.25500000920E-02 0. -1.
</event>
<event>
 5   0  0.1807498E-04  0.2007159E+04  0.7818609E-02  0.8603281E-01
        2   -1    0    0  501    0  0.00000000000E+00  0.00000000000E+00  0.81017388674E+03  0.81017388675E+03  0.25500000920E-02 0.  1.
       -2   -1    0    0    0  501  0.00000000000E+00  0.00000000000E+00 -0.12431547807E+04  0.12431547807E+04  0.25500000920E-02 0. -1.
    10030    2    1    2    0    0  0.00000000000E+00  0.00000000000E+00 -0.43298089395E+03  0.20533286674E+04  0.20071587287E+04 0.  0.
        5    1    3    3  502    0 -0.77520725259E+03 -0.59225958512E+03 -0.45734565774E+03  0.10774529416E+04  0.46999998093E+01 0. -1.
       -5    1    3    3    0  502  0.77520725259E+03  0.59225958512E+03  0.24364763789E+02  0.97587572587E+03  0.46999998093E+01 0.  1.
</event>
<event>
 5   0  0.8958919E-05  0.1991558E+04  0.7818609E-02  0.8610578E-01
       -1   -1    0    0    0  501  0.00000000000E+00  0.00000000000E+00  0.10706280456E+04  0.10706280456E+04  0.50400001928E-02 0. -1.
        1   -1    0    0  501    0  0.00000000000E+00  0.00000000000E+00 -0.92616282577E+03  0.92616282579E+03  0.50400001928E-02 0.  1.
    10030    2    1    2    0    0  0.00000000000E+00  0.00000000000E+00  0.14446521985E+03  0.19967908714E+04  0.19915580796E+04 0.  0.
        4    1    3    3  502    0  0.64308505589E+03  0.60503035631E+02  0.83208619012E+03  0.10533698530E+04  0.12699999809E+01 0. -1.
       -4    1    3    3    0  502 -0.64308505589E+03 -0.60503035631E+02 -0.68762097027E+03  0.94342101847E+03  0.12699999809E+01 0.  1.
</event>
<event>
 5   0  0.1834645E-04  0.2074723E+04  0.7818609E-02  0.8572460E-01
       -2   -1    0    0    0  501  0.00000000000E+00  0.00000000000E+00  0.59793813804E+03  0.59793813805E+03  0.25500000920E-02 0. -1.
        2   -1    0    0  501    0  0.00000000000E+00  0.00000000000E+00 -0.17997166014E+04  0.17997166014E+04  0.25500000920E-02 0.  1.
    10030    2    1    2    0    0  0.00000000000E+00  0.00000000000E+00 -0.12017784634E+04  0.23976547395E+04  0.20747233008E+04 0.  0.
        1    1    3    3  502    0 -0.22165253088E+03  0.98392130432E+03 -0.88132968471E+03  0.13393927694E+04  0.50400001928E-02 0.  1.
       -1    1    3    3    0  502  0.22165253088E+03 -0.98392130432E+03 -0.32044877869E+03  0.10582619701E+04  0.50400001928E-02 0. -1.
</event>
<event>
 5   0  0.1807498E-04  0.1957380E+04  0.7818609E-02  0.8626810E-01
       -2   -1    0    0    0  501  0.00000000000E+00  0.00000000000E+00  0.15452817646E+04  0.15452817646E+04  0.25500000920E-02 0.  1.
        2   -1    0    0  501    0  0.00000000000E+00  0.00000000000E+00 -0.61984437789E+03  0.61984437790E+03  0.25500000920E-02 0. -1.
    10030    2    1    2    0    0  0.00000000000E+00  0.00000000000E+00  0.92543738667E+03  0.21651261425E+04  0.19573801001E+04 0.  0.
        5    1    3    3  502    0  0.77328459389E+03  0.41428450695E+03 -0.17159491238E+02  0.87744928855E+03  0.46999998093E+01 0.  1.
       -5    1    3    3    0  502 -0.77328459389E+03 -0.41428450695E+03  0.94259687791E+03  0.12876768539E+04  0.46999998093E+01 0. -1.
</event>
<event>
 5   0  0.1782172E-04  0.1948770E+04  0.7818609E-02  0.8630954E-01
       -2   -1    0    0    0  501  0.00000000000E+00  0.00000000000E+00  0.62431675577E+03  0.62431675578E+03  0.25500000920E-02 0. -1.
        2   -1    0    0  501    0  0.00000000000E+00  0.00000000000E+00 -0.15207450423E+04  0.15207450423E+04  0.25500000920E-02 0.  1.
    10030    2    1    2    0    0  0.00000000000E+00  0.00000000000E+00 -0.89642828655E+03  0.21450617981E+04  0.19487704957E+04 0.  0.
        2    1    3    3  502    0 -0.84416127203E+03 -0.48207177569E+03 -0.37499179483E+03  0.10419310420E+04  0.25500000920E-02 0. -1.
       -2    1    3    3    0  502  0.84416127203E+03  0.48207177569E+03 -0.52143649172E+03  0.11031307561E+04  0.25500000920E-02 0.  1.
</event>
<event>
 5   0  0.8861350E-05  0.1728170E+04  0.7818609E-02  0.8745459E-01
        1   -1    0    0  501    0  0.00000000000E+00  0.00000000000E+00  0.17499504122E+04  0.17499504122E+04  0.50400001928E-02 0.  1.
       -1   -1    0    0    0  501  0.00000000000E+00  0.00000000000E+00 -0.42666529300E+03  0.42666529303E+03  0.50400001928E-02 0. -1.
    10030    2    1    2    0    0  0.00000000000E+00  0.00000000000E+00  0.13232851192E+04  0.21766157052E+04  0.17281702525E+04 0.  0.
        1    1    3    3  502    0 -0.74917103142E+03  0.39392458309E+03  0.88055251892E+03  0.12213953292E+04  0.50400001928E-02 0. -1.
       -1    1    3    3    0  502  0.74917103142E+03 -0.39392458309E+03  0.44273260027E+03  0.95522037607E+03  0.50400001928E-02 0.  1.
</event>
<event>
 5   0  0.8958919E-05  0.1945521E+04  0.7818609E-02  0.8632524E-01
        1   -1    0    0  501    0  0.00000000000E+00  0.00000000000E+00  0.82909614463E+03  0.82909614465E+03  0.50400001928E-02 0. -1.
       -1   -1    0    0    0  501  0.00000000000E+00  0.00000000000E+00 -0.11413187442E+04  0.11413187442E+04  0.50400001928E-02 0.  1.
    10030    2    1    2    0    0  0.00000000000E+00  0.00000000000E+00 -0.31222259959E+03  0.19704148889E+04  0.19455209797E+04 0.  0.
        4    1    3    3  502    0  0.64086332837E+03  0.68598410564E+03 -0.41428747147E+03  0.10261168163E+04  0.12699999809E+01 0.  1.
       -4    1    3    3    0  502 -0.64086332837E+03 -0.68598410564E+03  0.10206487188E+03  0.94429807255E+03  0.12699999809E+01 0. -1.
</event>
<event>
 5   0  0.1782172E-04  0.1766492E+04  0.7818609E-02  0.8724324E-01
       -2   -1    0    0    0  501  0.00000000000E+00  0.00000000000E+00  0.14399088745E+04  0.14399088745E+04  0.25500000920E-02 0.  1.
        2   -1    0    0  501    0  0.00000000000E+00  0.00000000000E+00 -0.54178682821E+03  0.54178682822E+03  0.25500000920E-02 0. -1.
    10030    2    1    2    0    0  0.00000000000E+00  0.00000000000E+00  0.89812204633E+03  0.19816957028E+04  0.17664921874E+04 0.  0.
        2    1    3    3  502    0 -0.52332888671E+03 -0.13398719473E+03  0.12329737332E+04  0.13461240355E+04  0.25500000920E-02 0.  1.
       -2    1    3    3    0  502  0.52332888671E+03  0.13398719473E+03 -0.33485168692E+03  0.63557166728E+03  0.25500000920E-02 0. -1.
</event>
<event>
 5   0  0.1807498E-04  0.1934289E+04  0.7818609E-02  0.8637975E-01
       -2   -1    0    0    0  501  0.00000000000E+00  0.00000000000E+00  0.45637435035E+03  0.45637435036E+03  0.25500000920E-02 0.  1.
        2   -1    0    0  501    0  0.00000000000E+00  0.00000000000E+00 -0.20495632296E+04  0.20495632296E+04  0.25500000920E-02 0. -1.
    10030    2    1    2    0    0  0.00000000000E+00  0.00000000000E+00 -0.15931888792E+04  0.25059375799E+04  0.19342885901E+04 0.  0.
        5    1    3    3  502    0  0.78425456120E+02  0.27065236447E+02  0.45174088645E+03  0.45932014726E+03  0.46999998093E+01 0.  1.
       -5    1    3    3    0  502 -0.78425456120E+02 -0.27065236447E+02 -0.20449297657E+04  0.20466174327E+04  0.46999998093E+01 0. -1.
</event>
<event>
 5   0  0.8958919E-05  0.2023445E+04  0.7818609E-02  0.8595737E-01
       -1   -1    0    0    0  501  0.00000000000E+00  0.00000000000E+00  0.89387159154E+03  0.89387159155E+03  0.50400001928E-02 0.  1.
        1   -1    0    0  501    0  0.00000000000E+00  0.00000000000E+00 -0.11451108004E+04  0.11451108004E+04  0.50400001928E-02 0. -1.
    10030    2    1    2    0    0  0.00000000000E+00  0.00000000000E+00 -0.25123920884E+03  0.20389823919E+04  0.20234446013E+04 0.  0.
        4    1    3    3  502    0 -0.26365585191E+03  0.17197687533E+03  0.84326767307E+03  0.90010690211E+03  0.12699999809E+01 0.  1.
       -4    1    3    3    0  502  0.26365585191E+03 -0.17197687533E+03 -0.10945068819E+04  0.11388754898E+04  0.12699999809E+01 0. -1.
</event>
<event>
 5   0  0.8577422E-05  0.2010301E+04  0.7818609E-02  0.8601820E-01
        1   -1    0    0  501    0  0.00000000000E+00  0.00000000000E+00  0.16106886541E+04  0.16106886541E+04  0.50400001928E-02 0.  1.
       -1   -1    0    0    0  501  0.00000000000E+00  0.00000000000E+00 -0.62726445206E+03  0.62726445208E+03  0.50400001928E-02 0. -1.
    10030    2    1    2    0    0  0.00000000000E+00  0.00000000000E+00  0.98342420203E+03  0.22379531062E+04  0.20103012074E+04 0.  0.
        2    1    3    3  502    0 -0.17774349438E+03  0.77666449220E+03 -0.19048611402E+03  0.81919804863E+03  0.25500000920E-02 0. -1.
       -2    1    3    3    0  502  0.17774349438E+03 -0.77666449220E+03  0.11739103160E+04  0.14187550576E+04  0.25500000920E-02 0.  1.
</event>
<event>
 5   0  0.1893687E-04  0.2009626E+04  0.7818609E-02  0.8602133E-01
        2   -1    0    0  501    0  0.00000000000E+00  0.00000000000E+00  0.12129902624E+04  0.12129902624E+04  0.25500000920E-02 0.  1.
       -2   -1    0    0    0  501  0.00000000000E+00  0.00000000000E+00 -0.83236411921E+03  0.83236411921E+03  0.25500000920E-02 0. -1.
    10030    2    1    2    0    0  0.00000000000E+00  0.00000000000E+00  0.38062614323E+03  0.20453543817E+04  0.20096264045E+04 0.  0.
        4    1    3    3  502    0  0.14746547297E+03  0.42718152851E+03  0.11037190677E+04  0.11926556574E+04  0.12699999809E+01 0.  1.
       -4    1    3    3    0  502 -0.14746547297E+03 -0.42718152851E+03 -0.72309292443E+03  0.85269872421E+03  0.12699999809E+01 0. -1.
</event>
<event>
 5   0  0.6531625E-05  0.1979272E+04  0.7818609E-02  0.8616373E-01
        3   -1    0    0  501    0  0.00000000000E+00  0.00000000000E+00  0.84923051210E+03  0.84923051810E+03  0.10100000352E+00 0. -1.
       -3   -1    0    0    0  501  0.00000000000E+00  0.00000000000E+00 -0.11532549522E+04  0.11532549566E+04  0.10100000352E+00 0.  1.
    10030    2    1    2    0    0  0.00000000000E+00  0.00000000000E+00 -0.30402444009E+03  0.20024854747E+04  0.19792718904E+04 0.  0.
        2    1    3    3  502    0 -0.19382241086E+03  0.43596712643E+03  0.72518883650E+03  0.86806296481E+03  0.25500000920E-02 0. -1.
       -2    1    3    3    0  502  0.19382241086E+03 -0.43596712643E+03 -0.10292132766E+04  0.11344225099E+04  0.25500000920E-02 0.  1.
</event>
<event>
 5   0  0.1893687E-04  0.1855370E+04  0.7818609E-02  0.8677396E-01
       -2   -1    0    0    0  501  0.00000000000E+00  0.00000000000E+00  0.10663079567E+04  0.10663079567E+04  0.25500000920E-02 0. -1.
        2   -1    0    0  501    0  0.00000000000E+00  0.00000000000E+00 -0.80708327266E+03  0.80708327267E+03  0.25500000920E-02 0.  1.
    10030    2    1    2    0    0  0.00000000000E+00  0.00000000000E+00  0.25922468406E+03  0.18733912294E+04  0.18553698450E+04 0.  0.
        4    1    3    3  502    0  0.33455995760E+03  0.27049659726E+02  0.10028452762E+04  0.10575265057E+04  0.12699999809E+01 0. -1.
       -4    1    3    3    0  502 -0.33455995760E+03 -0.27049659726E+02 -0.74362059218E+03  0.81586472368E+03  0.12699999809E+01 0.  1.
</event>
<event>
 5   0  0.1893687E-04  0.2028181E+04  0.7818609E-02  0.8593557E-01
        2   -1    0    0  501    0  0.00000000000E+00  0.00000000000E+00  0.22787270913E+04  0.22787270913E+04  0.25500000920E-02 0.  1.
       -2   -1    0    0    0  501  0.00000000000E+00  0.00000000000E+00 -0.45129555667E+03  0.45129555668E+03  0.25500000920E-02 0. -1.
    10030    2    1    2    0    0  0.00000000000E+00  0.00000000000E+00  0.18274315346E+04  0.27300226480E+04  0.20281808708E+04 0.  0.
        4    1    3    3  502    0 -0.98053838111E+03  0.13172409364E+03  0.12134066998E+04  0.15656194256E+04  0.12699999809E+01 0. -1.
       -4    1    3    3    0  502  0.98053838111E+03 -0.13172409364E+03  0.61402483480E+03  0.11644032224E+04  0.12699999809E+01 0.  1.
</event>
<event>
 5   0  0.1812865E-04  0.1927094E+04  0.7818609E-02  0.8641486E-01
        2   -1    0    0  501    0  0.00000000000E+00  0.00000000000E+00  0.16949429955E+04  0.16949429955E+04  0.25500000920E-02 0. -1.
       -2   -1    0    0    0  501  0.00000000000E+00  0.00000000000E+00 -0.54776039739E+03  0.54776039740E+03  0.25500000920E-02 0.  1.
    10030    2    1    2    0    0  0.00000000000E+00  0.00000000000E+00  0.11471825981E+04  0.22427033929E+04  0.19270938210E+04 0.  0.
        3    1    3    3  502    0  0.88842127607E+03 -0.34383274944E+03  0.40530882593E+03  0.10352722241E+04  0.10100000352E+00 0.  1.
       -3    1    3    3    0  502 -0.88842127607E+03  0.34383274944E+03  0.74187377216E+03  0.12074311688E+04  0.10100000352E+00 0. -1.
</event>
<event>
 5   0  0.8577422E-05  0.1963285E+04  0.7818609E-02  0.8623981E-01
        1   -1    0    0  501    0  0.00000000000E+00  0.00000000000E+00  0.23500840602E+04  0.23500840602E+04  0.50400001928E-02 0.  1.
       -1   -1    0    0    0  501  0.00000000000E+00  0.00000000000E+00 -0.41003734123E+03  0.41003734126E+03  0.50400001928E-02 0. -1.
    10030    2    1    2    0    0  0.00000000000E+00  0.00000000000E+00  0.19400467190E+04  0.27601214015E+04  0.19632852261E+04 0.  0.
        2    1    3    3  502    0  0.72524912402E+03 -0.28980065544E+02  0.40876947931E+02  0.72697803335E+03  0.25500000920E-02 0. -1.
       -2    1    3    3    0  502 -0.72524912402E+03  0.28980065544E+02  0.18991697710E+04  0.20331433681E+04  0.25500000920E-02 0.  1.
</event>
<event>
 5   0  0.8861350E-05  0.2155145E+04  0.7818609E-02  0.8537333E-01
        1   -1    0    0  501    0  0.00000000000E+00  0.00000000000E+00  0.11302881204E+04  0.11302881204E+04  0.50400001928E-02 0. -1.
       -1   -1    0    0    0  501  0.00000000000E+00  0.00000000000E+00 -0.10273154364E+04  0.10273154364E+04  0.50400001928E-02 0.  1.
    10030    2    1    2    0    0  0.00000000000E+00  0.00000000000E+00  0.10297268405E+03  0.21576035568E+04  0.21551449452E+04 0.  0.
        1    1    3    3  502    0  0.87737834072E+03 -0.47156654803E+03 -0.36007224841E+03  0.10591599436E+04  0.50400001928E-02 0.  1.
       -1    1    3    3    0  502 -0.87737834072E+03  0.47156654803E+03  0.46304493246E+03  0.10984436133E+04  0.50400001928E-02 0. -1.
</event>
<event>
 5   0  0.8881384E-05  0.1884970E+04  0.7818609E-02  0.8662374E-01
        1   -1    0    0  501    0  0.00000000000E+00  0.00000000000E+00  0.86327536419E+03  0.86327536421E+03  0.50400001928E-02 0.  1.
       -1   -1    0    0    0  501  0.00000000000E+00  0.00000000000E+00 -0.10289621551E+04  0.10289621551E+04  0.50400001928E-02 0. -1.
    10030    2    1    2    0    0  0.00000000000E+00  0.00000000000E+00 -0.16568679092E+03  0.18922375193E+04  0.18849696859E+04 0.  0.
        5    1    3    3  502    0 -0.83823486829E+03  0.33970081022E+03  0.18317126421E+03  0.92282616831E+03  0.46999998093E+01 0.  1.
       -5    1    3    3    0  502  0.83823486829E+03 -0.33970081022E+03 -0.34885805513E+03  0.96941135103E+03  0.46999998093E+01 0. -1.
</event>
<event>
 5   0  0.1834645E-04  0.1990771E+04  0.7818609E-02  0.8610948E-01
        2   -1    0    0  501    0  0.00000000000E+00  0.00000000000E+00  0.24188420140E+04  0.24188420140E+04  0.25500000920E-02 0.  1.
       -2   -1    0    0    0  501  0.00000000000E+00  0.00000000000E+00 -0.40961420593E+03  0.40961420594E+03  0.25500000920E-02 0. -1.
    10030    2    1    2    0    0  0.00000000000E+00  0.00000000000E+00  0.20092278081E+04  0.28284562200E+04  0.19907707561E+04 0.  0.
        1    1    3    3  502    0 -0.44903031302E+03  0.88831389038E+03  0.10158246929E+04  0.14221918283E+04  0.50400001928E-02 0.  1.
       -1    1    3    3    0  502  0.44903031302E+03 -0.88831389038E+03  0.99340311524E+03  0.14062643917E+04  0.50400001928E-02 0. -1.
</event>
<event>
 5   0  0.1807498E-04  0.1993773E+04  0.7818609E-02  0.8609538E-01
       -2   -1    0    0    0  501  0.00000000000E+00  0.00000000000E+00  0.68598375002E+03  0.68598375002E+03  0.25500000920E-02 0.  1.
        2   -1    0    0  501    0  0.00000000000E+00  0.00000000000E+00 -0.14486967187E+04  0.14486967187E+04  0.25500000920E-02 0. -1.
    10030    2    1    2    0    0  0.00000000000E+00  0.00000000000E+00 -0.76271296863E+03  0.21346804687E+04  0.19937727129E+04 0.  0.
        5    1    3    3  502    0 -0.47544748199E+03 -0.83627236928E+03 -0.66128916219E+03  0.11673590835E+04  0.46999998093E+01 0. -1.
       -5    1    3    3    0  502  0.47544748199E+03  0.83627236928E+03 -0.10142380645E+03  0.96732138520E+03  0.46999998093E+01 0.  1.
</event>
<event>
 5   0  0.1893687E-04  0.1980539E+04  0.7818609E-02  0.8615774E-01
        2   -1    0    0  501    0  0.00000000000E+00  0.00000000000E+00  0.10186657090E+04  0.10186657091E+04  0.25500000920E-02 0. -1.
       -2   -1    0    0    0  501  0.00000000000E+00  0.00000000000E+00 -0.96266456666E+03  0.96266456666E+03  0.25500000920E-02 0.  1.
    10030    2    1    2    0    0  0.00000000000E+00  0.00000000000E+00  0.56001142390E+02  0.19813302757E+04  0.19805386978E+04 0.  0.
        4    1    3    3  502    0  0.89539938536E+03  0.26676734375E+03 -0.30034836644E+03  0.98138454701E+03  0.12699999809E+01 0.  1.
       -4    1    3    3    0  502 -0.89539938536E+03 -0.26676734375E+03  0.35634950883E+03  0.99994572870E+03  0.12699999809E+01 0. -1.
</event>
<event>
 5   0  0.8881384E-05  0.2062690E+04  0.7818609E-02  0.8577859E-01
       -1   -1    0    0    0  501  0.00000000000E+00  0.00000000000E+00  0.67085142516E+03  0.67085142518E+03  0.50400001928E-02 0. -1.
        1   -1    0    0  501    0  0.00000000000E+00  0.00000000000E+00 -0.15855566318E+04  0.15855566318E+04  0.50400001928E-02 0.  1.
    10030    2    1    2    0    0  0.00000000000E+00  0.00000000000E+00 -0.91470520667E+03  0.22564080570E+04  0.20626904045E+04 0.  0.
        5    1    3    3  502    0 -0.97040274489E+03 -0.27595956043E+03 -0.69150069039E+03  0.12231232403E+04  0.46999998093E+01 0.  1.
       -5    1    3    3    0  502  0.97040274489E+03  0.27595956043E+03 -0.22320451628E+03  0.10332848167E+04  0.46999998093E+01 0. -1.
</event>
<event>
 5   0  0.8861350E-05  0.2016935E+04  0.7818609E-02  0.8598744E-01
       -1   -1    0    0    0  501  0.00000000000E+00  0.00000000000E+00  0.12880838770E+04  0.12880838771E+04  0.50400001928E-02 0.  1.
        1   -1    0    0  501    0  0.00000000000E+00  0.00000000000E+00 -0.78955025077E+03  0.78955025079E+03  0.50400001928E-02 0. -1.
    10030    2    1    2    0    0  0.00000000000E+00  0.00000000000E+00  0.49853362628E+03  0.20776341278E+04  0.20169352475E+04 0.  0.
        1    1    3    3  502    0 -0.86241301100E+03 -0.33236468257E+03 -0.16634089367E+03  0.93909093100E+03  0.50400001928E-02 0. -1.
       -1    1    3    3    0  502  0.86241301100E+03  0.33236468257E+03  0.66487451995E+03  0.11385431968E+04  0.50400001928E-02 0.  1.
</event>
<event>
 5   0  0.8577422E-05  0.1996454E+04  0.7818609E-02  0.8608280E-01
       -1   -1    0    0    0  501  0.00000000000E+00  0.00000000000E+00  0.77818369645E+03  0.77818369647E+03  0.50400001928E-02 0. -1.
        1   -1    0    0  501    0  0.00000000000E+00  0.00000000000E+00 -0.12804906348E+04  0.12804906348E+04  0.50400001928E-02 0.  1.
    10030    2    1    2    0    0  0.00000000000E+00  0.00000000000E+00 -0.50230693830E+03  0.20586743312E+04  0.19964537916E+04 0.  0.
        2    1    3    3  502    0  0.54354997819E+03 -0.14819720395E+03 -0.11008788811E+04  0.12366662043E+04  0.25500000920E-02 0.  1.
       -2    1    3    3    0  502 -0.54354997819E+03  0.14819720395E+03  0.59857194278E+03  0.82200812693E+03  0.25500000920E-02 0. -1.
</event>
<event>
 5   0  0.8577422E-05  0.1992690E+04  0.7818609E-02  0.8610046E-01
       -1   -1    0    0    0  501  0.00000000000E+00  0.00000000000E+00  0.95270865365E+03  0.95270865366E+03  0.50400001928E-02 0. -1.
        1   -1    0    0  501    0  0.00000000000E+00  0.00000000000E+00 -0.10419798699E+04  0.10419798699E+04  0.50400001928E-02 0.  1.
    10030    2    1    2    0    0  0.00000000000E+00  0.00000000000E+00 -0.89271216206E+02  0.19946885235E+04  0.19926898795E+04 0.  0.
        2    1    3    3  502    0 -0.13980419193E+03  0.93835536672E+03 -0.34932097688E+03  0.10109802922E+04  0.25500000920E-02 0.  1.
       -2    1    3    3    0  502  0.13980419193E+03 -0.93835536672E+03  0.26004976068E+03  0.98370823132E+03  0.25500000920E-02 0. -1.
</event>
<event>
 5   0  0.8881384E-05  0.2024205E+04  0.7818609E-02  0.8595387E-01
        1   -1    0    0  501    0  0.00000000000E+00  0.00000000000E+00  0.16426590649E+04  0.16426590649E+04  0.50400001928E-02 0.  1.
       -1   -1    0    0    0  501  0.00000000000E+00  0.00000000000E+00 -0.62359325245E+03  0.62359325247E+03  0.50400001928E-02 0. -1.
    10030    2    1    2    0    0  0.00000000000E+00  0.00000000000E+00  0.10190658124E+04  0.22662523173E+04  0.20242046428E+04 0.  0.
        5    1    3    3  502    0  0.21170919985E+03 -0.98966730738E+03  0.50037874229E+03  0.11290098052E+04  0.46999998093E+01 0. -1.
       -5    1    3    3    0  502 -0.21170919985E+03  0.98966730738E+03  0.51868707012E+03  0.11372425121E+04  0.46999998093E+01 0.  1.
</event>
<event>
 5   0  0.1834645E-04  0.2021826E+04  0.7818609E-02  0.8596484E-01
       -2   -1    0    0    0  501  0.00000000000E+00  0.00000000000E+00  0.62781149844E+03  0.62781149845E+03  0.25500000920E-02 0. -1.
        2   -1    0    0  501    0  0.00000000000E+00  0.00000000000E+00 -0.16277889995E+04  0.16277889995E+04  0.25500000920E-02 0.  1.
    10030    2    1    2    0    0  0.00000000000E+00  0.00000000000E+00 -0.99997750106E+03  0.22556004980E+04  0.20218255621E+04 0.  0.
        1    1    3    3  502    0  0.77748335356E+03  0.11581780861E+03 -0.12091358556E+04  0.14421871054E+04  0.50400001928E-02 0.  1.
       -1    1    3    3    0  502 -0.77748335356E+03 -0.11581780861E+03  0.20915835450E+03  0.81341339252E+03  0.50400001928E-02 0. -1.
</event>
<event>
 5   0  0.8577422E-05  0.2007853E+04  0.7818609E-02  0.8602958E-01
       -1   -1    0    0    0  501  0.00000000000E+00  0.00000000000E+00  0.37587277490E+03  0.37587277493E+03  0.50400001928E-02 0.  1.
        1   -1    0    0  501    0  0.00000000000E+00  0.00000000000E+00 -0.26814089290E+04  0.26814089291E+04  0.50400001928E-02 0. -1.
    10030    2    1    2    0    0  0.00000000000E+00  0.00000000000E+00 -0.23055361541E+04  0.30572817040E+04  0.20078531967E+04 0.  0.
        2    1    3    3  502    0  0.79667419713E+03 -0.22709091930E+03 -0.28925822715E+03  0.87745677044E+03  0.25500000920E-02 0.  1.
       -2    1    3    3    0  502 -0.79667419713E+03  0.22709091930E+03 -0.20162779270E+04  0.21798249335E+04  0.25500000920E-02 0. -1.
</event>
<event>
 5   0  0.8861350E-05  0.2034602E+04  0.7818609E-02  0.8590612E-01
        1   -1    0    0  501    0  0.00000000000E+00  0.00000000000E+00  0.84280698264E+03  0.84280698266E+03  0.50400001928E-02 0. -1.
       -1   -1    0    0    0  501  0.00000000000E+00  0.00000000000E+00 -0.12279220485E+04  0.12279220485E+04  0.50400001928E-02 0.  1.
    10030    2    1    2    0    0  0.00000000000E+00  0.00000000000E+00 -0.38511506584E+03  0.20707290312E+04  0.20346019528E+04 0.  0.
        1    1    3    3  502    0 -0.65640464389E+03  0.77574123121E+03 -0.14417649363E+03  0.10263665893E+04  0.50400001928E-02 0. -1.
       -1    1    3    3    0  502  0.65640464389E+03 -0.77574123121E+03 -0.24093857221E+03  0.10443624418E+04  0.50400001928E-02 0.  1.
</event>
<event>
 5   0  0.1893687E-04  0.1551526E+04  0.7818609E-02  0.8850893E-01
        2   -1    0    0  501    0  0.00000000000E+00  0.00000000000E+00  0.12460936948E+04  0.12460936948E+04  0.25500000920E-02 0.  1.
       -2   -1    0    0    0  501  0.00000000000E+00  0.00000000000E+00 -0.48295606358E+03  0.48295606358E+03  0.25500000920E-02 0. -1.
    10030    2    1    2    0    0  0.00000000000E+00  0.00000000000E+00  0.76313763123E+03  0.17290497584E+04  0.15515263526E+04 0.  0.
        4    1    3    3  502    0  0.12591218173E+03 -0.19247314993E+03 -0.44408455839E+03  0.50011248620E+03  0.12699999809E+01 0. -1.
       -4    1    3    3    0  502 -0.12591218173E+03  0.19247314993E+03  0.12072221896E+04  0.12289372722E+04  0.12699999809E+01 0.  1.
</event>
<event>
 5   0  0.8881384E-05  0.1983890E+04  0.7818609E-02  0.8614190E-01
        1   -1    0    0  501    0  0.00000000000E+00  0.00000000000E+00  0.18762319904E+04  0.18762319904E+04  0.50400001928E-02 0.  1.
       -1   -1    0    0    0  501  0.00000000000E+00  0.00000000000E+00 -0.52443135375E+03  0.52443135377E+03  0.50400001928E-02 0. -1.
    10030    2    1    2    0    0  0.00000000000E+00  0.00000000000E+00  0.13518006366E+04  0.24006633441E+04  0.19838899997E+04 0.  0.
        5    1    3    3  502    0  0.58982839132E+03 -0.12458093670E+03  0.16291128939E+04  0.17370805543E+04  0.46999998093E+01 0.  1.
       -5    1    3    3    0  502 -0.58982839132E+03  0.12458093670E+03 -0.27731225726E+03  0.66358278988E+03  0.46999998093E+01 0. -1.
</event>
<event>
 5   0  0.8881384E-05  0.2008019E+04  0.7818609E-02  0.8602881E-01
        1   -1    0    0  501    0  0.00000000000E+00  0.00000000000E+00  0.14306976502E+04  0.14306976502E+04  0.50400001928E-02 0.  1.
       -1   -1    0    0    0  501  0.00000000000E+00  0.00000000000E+00 -0.70457571912E+03  0.70457571914E+03  0.50400001928E-02 0. -1.
    10030    2    1    2    0    0  0.00000000000E+00  0.00000000000E+00  0.72612193108E+03  0.21352733694E+04  0.20080187507E+04 0.  0.
        5    1    3    3  502    0  0.38290872833E+03  0.92394291201E+03  0.26961025973E+03  0.10358577996E+04  0.46999998093E+01 0. -1.
       -5    1    3    3    0  502 -0.38290872833E+03 -0.92394291201E+03  0.45651167135E+03  0.10994155697E+04  0.46999998093E+01 0.  1.
</event>
<event>
 5   0  0.8577422E-05  0.1946952E+04  0.7818609E-02  0.8631832E-01
       -1   -1    0    0    0  501  0.00000000000E+00  0.00000000000E+00  0.10976637762E+04  0.10976637762E+04  0.50400001928E-02 0. -1.
        1   -1    0    0  501    0  0.00000000000E+00  0.00000000000E+00 -0.86333888987E+03  0.86333888988E+03  0.50400001928E-02 0.  1.
    10030    2    1    2    0    0  0.00000000000E+00  0.00000000000E+00  0.23432488634E+03  0.19610026661E+04  0.19469523117E+04 0.  0.
        2    1    3    3  502    0  0.65323883263E+03 -0.46517049958E+02  0.84261785124E+03  0.10671877303E+04  0.25500000920E-02 0. -1.
       -2    1    3    3    0  502 -0.65323883263E+03  0.46517049958E+02 -0.60829296489E+03  0.89381493584E+03  0.25500000920E-02 0.  1.
</event>
<event>
 5   0  0.1834645E-04  0.1545233E+04  0.7818609E-02  0.8854918E-01
       -2   -1    0    0    0  501  0.00000000000E+00  0.00000000000E+00  0.66170806962E+03  0.66170806963E+03  0.25500000920E-02 0. -1.
        2   -1    0    0  501    0  0.00000000000E+00  0.00000000000E+00 -0.90211474246E+03  0.90211474246E+03  0.25500000920E-02 0.  1.
    10030    2    1    2    0    0  0.00000000000E+00  0.00000000000E+00 -0.24040667284E+03  0.15638228121E+04  0.15452334514E+04 0.  0.
        1    1    3    3  502    0 -0.40527472713E+03  0.14669759021E+03  0.52873514509E+03  0.68215001364E+03  0.50400001928E-02 0. -1.
       -1    1    3    3    0  502  0.40527472713E+03 -0.14669759021E+03 -0.76914181793E+03  0.88167279846E+03  0.50400001928E-02 0.  1.
</event>
<event>
 5   0  0.8958919E-05  0.1954307E+04  0.7818609E-02  0.8628287E-01
        1   -1    0    0  501    0  0.00000000000E+00  0.00000000000E+00  0.12690223767E+04  0.12690223767E+04  0.50400001928E-02 0.  1.
       -1   -1    0    0    0  501  0.00000000000E+00  0.00000000000E+00 -0.75241316278E+03  0.75241316280E+03  0.50400001928E-02 0. -1.
    10030    2    1    2    0    0  0.00000000000E+00  0.00000000000E+00  0.51660921391E+03  0.20214355395E+04  0.19543071817E+04 0.  0.
        4    1    3    3  502    0 -0.25537336192E+03  0.46602061866E+03  0.11064939102E+04  0.12274857055E+04  0.12699999809E+01 0.  1.
       -4    1    3    3    0  502  0.25537336192E+03 -0.46602061866E+03 -0.58988469633E+03  0.79394983397E+03  0.12699999809E+01 0. -1.
</event>
<event>
 5   0  0.1834645E-04  0.1993835E+04  0.7818609E-02  0.8609508E-01
        2   -1    0    0  501    0  0.00000000000E+00  0.00000000000E+00  0.62104741225E+03  0.62104741226E+03  0.25500000920E-02 0. -1.
       -2   -1    0    0    0  501  0.00000000000E+00  0.00000000000E+00 -0.16002719545E+04  0.16002719545E+04  0.25500000920E-02 0.  1.
    10030    2    1    2    0    0  0.00000000000E+00  0.00000000000E+00 -0.97922454227E+03  0.22213193668E+04  0.19938352552E+04 0.  0.
        1    1    3    3  502    0 -0.82349859192E+03 -0.26039644704E+03 -0.10443017592E+04  0.13551835318E+04  0.50400001928E-02 0.  1.
       -1    1    3    3    0  502  0.82349859192E+03  0.26039644704E+03  0.65077216911E+02  0.86613583502E+03  0.50400001928E-02 0. -1.
</event>
<event>
 5   0  0.1812865E-04  0.1989074E+04  0.7818609E-02  0.8611746E-01
        2   -1    0    0  501    0  0.00000000000E+00  0.00000000000E+00  0.19581785108E+04  0.19581785108E+04  0.25500000920E-02 0. -1.
       -2   -1    0    0    0  501  0.00000000000E+00  0.00000000000E+00 -0.50511431604E+03  0.50511431604E+03  0.25500000920E-02 0.  1.
    10030    2    1    2    0    0  0.00000000000E+00  0.00000000000E+00  0.14530641948E+04  0.24632928269E+04  0.19890741557E+04 0.  0.
        3    1    3    3  502    0 -0.94429995572E+03 -0.17878449087E+03  0.40973656932E+03  0.10447728782E+04  0.10100000352E+00 0.  1.
       -3    1    3    3    0  502  0.94429995572E+03  0.17878449087E+03  0.10433276255E+04  0.14185199487E+04  0.10100000352E+00 0. -1.
</event>
<event>
 5   0  0.1812865E-04  0.2033757E+04  0.7818609E-02  0.8590999E-01
        2   -1    0    0  501    0  0.00000000000E+00  0.00000000000E+00  0.11287949262E+04  0.11287949262E+04  0.25500000920E-02 0.  1.
       -2   -1    0    0    0  501  0.00000000000E+00  0.00000000000E+00 -0.91605847138E+03  0.91605847139E+03  0.25500000920E-02 0. -1.
    10030    2    1    2    0    0  0.00000000000E+00  0.00000000000E+00  0.21273645482E+03  0.20448533976E+04  0.20337572664E+04 0.  0.
        3    1    3    3  502    0  0.16174986314E+03  0.50426732521E+03  0.97920223284E+03  0.11132320407E+04  0.10100000352E+00 0.  1.
       -3    1    3    3    0  502 -0.16174986314E+03 -0.50426732521E+03 -0.76646577802E+03  0.93162135687E+03  0.10100000352E+00 0. -1.
</event>
<event>
 5   0  0.8861350E-05  0.1796231E+04  0.7818609E-02  0.8708306E-01
        1   -1    0    0  501    0  0.00000000000E+00  0.00000000000E+00  0.16269807618E+04  0.16269807618E+04  0.50400001928E-02 0. -1.
       -1   -1    0    0    0  501  0.00000000000E+00  0.00000000000E+00 -0.49577193719E+03  0.49577193722E+03  0.50400001928E-02 0.  1.
    10030    2    1    2    0    0  0.00000000000E+00  0.00000000000E+00  0.11312088246E+04  0.21227526990E+04  0.17962309474E+04 0.  0.
        1    1    3    3  502    0 -0.61693771655E+03 -0.30140130119E+03 -0.11856091236E+03  0.69678661039E+03  0.50400001928E-02 0.  1.
       -1    1    3    3    0  502  0.61693771655E+03  0.30140130119E+03  0.12497697369E+04  0.14259660886E+04  0.50400001928E-02 0. -1.
</event>
<event>
 5   0  0.8881384E-05  0.2004948E+04  0.7818609E-02  0.8604311E-01
       -1   -1    0    0    0  501  0.00000000000E+00  0.00000000000E+00  0.10732939846E+04  0.10732939846E+04  0.50400001928E-02 0.  1.
        1   -1    0    0  501    0  0.00000000000E+00  0.00000000000E+00 -0.93632688287E+03  0.93632688288E+03  0.50400001928E-02 0. -1.
    10030    2    1    2    0    0  0.00000000000E+00  0.00000000000E+00  0.13696710172E+03  0.20096208675E+04  0.20049478906E+04 0.  0.
        5    1    3    3  502    0  0.15282054781E+02 -0.92130261575E+03 -0.32727829110E+03  0.97783701137E+03  0.46999998093E+01 0.  1.
       -5    1    3    3    0  502 -0.15282054781E+02  0.92130261575E+03  0.46424539282E+03  0.10317838561E+04  0.46999998093E+01 0. -1.
</event>
<event>
 5   0  0.1812865E-04  0.2031664E+04  0.7818609E-02  0.8591958E-01
       -2   -1    0    0    0  501  0.00000000000E+00  0.00000000000E+00  0.59353712834E+03  0.59353712834E+03  0.25500000920E-02 0. -1.
        2   -1    0    0  501    0  0.00000000000E+00  0.00000000000E+00 -0.17385846691E+04  0.17385846691E+04  0.25500000920E-02 0.  1.
    10030    2    1    2    0    0  0.00000000000E+00  0.00000000000E+00 -0.11450475408E+04  0.23321217975E+04  0.20316639012E+04 0.  0.
        3    1    3    3  502    0  0.23538949515E+03 -0.23899517071E+03 -0.16731723906E+04  0.17064679209E+04  0.10100000352E+00 0.  1.
       -3    1    3    3    0  502 -0.23538949515E+03  0.23899517071E+03  0.52812484984E+03  0.62565387658E+03  0.10100000352E+00 0. -1.
</event>
<event>
 5   0  0.8881384E-05  0.2024878E+04  0.7818609E-02  0.8595077E-01
        1   -1    0    0  501    0  0.00000000000E+00  0.00000000000E+00  0.22773285542E+04  0.22773285542E+04  0.50400001928E-02 0.  1.
       -1   -1    0    0    0  501  0.00000000000E+00  0.00000000000E+00 -0.45010321458E+03  0.45010321461E+03  0.50400001928E-02 0. -1.
    10030    2    1    2    0    0  0.00000000000E+00  0.00000000000E+00  0.18272253397E+04  0.27274317688E+04  0.20248781721E+04 0.  0.
        5    1    3    3  502    0  0.26032143928E+03  0.83455228538E+03  0.22578361756E+03  0.90290924280E+03  0.46999998093E+01 0. -1.
       -5    1    3    3    0  502 -0.26032143928E+03 -0.83455228538E+03  0.16014417221E+04  0.18245225260E+04  0.46999998093E+01 0.  1.
</event>
<event>
 5   0  0.1782172E-04  0.1973357E+04  0.7818609E-02  0.8619180E-01
       -2   -1    0    0    0  501  0.00000000000E+00  0.00000000000E+00  0.61694882812E+03  0.61694882812E+03  0.25500000920E-02 0.  1.
        2   -1    0    0  501    0  0.00000000000E+00  0.00000000000E+00 -0.15779818003E+04  0.15779818003E+04  0.25500000920E-02 0. -1.
    10030    2    1    2    0    0  0.00000000000E+00  0.00000000000E+00 -0.96103297219E+03  0.21949306284E+04  0.19733565542E+04 0.  0.
        2    1    3    3  502    0 -0.23214078713E+03  0.59448662569E+03 -0.13174901646E+04  0.14639276030E+04  0.25500000920E-02 0. -1.
       -2    1    3    3    0  502  0.23214078713E+03 -0.59448662569E+03  0.35645719236E+03  0.73100302542E+03  0.25500000920E-02 0.  1.
</event>
<event>
 5   0  0.8765057E-05  0.2035288E+04  0.7818609E-02  0.8590298E-01
       -1   -1    0    0    0  501  0.00000000000E+00  0.00000000000E+00  0.52339008417E+03  0.52339008419E+03  0.50400001928E-02 0. -1.
        1   -1    0    0  501    0  0.00000000000E+00  0.00000000000E+00 -0.19786377488E+04  0.19786377488E+04  0.50400001928E-02 0.  1.
    10030    2    1    2    0    0  0.00000000000E+00  0.00000000000E+00 -0.14552476646E+04  0.25020278330E+04  0.20352880660E+04 0.  0.
        3    1    3    3  502    0  0.45446465651E+03  0.31865166626E+03 -0.17761745047E+04  0.18608796011E+04  0.10100000352E+00 0.  1.
       -3    1    3    3    0  502 -0.45446465651E+03 -0.31865166626E+03  0.32092684005E+03  0.64114823192E+03  0.10100000352E+00 0. -1.
</event>
<event>
 5   0  0.8861350E-05  0.1987596E+04  0.7818609E-02  0.8612442E-01
        1   -1    0    0  501    0  0.00000000000E+00  0.00000000000E+00  0.44302062909E+03  0.44302062912E+03  0.50400001928E-02 0. -1.
       -1   -1    0    0    0  501  0.00000000000E+00  0.00000000000E+00 -0.22293198346E+04  0.22293198346E+04  0.50400001928E-02 0.  1.
    10030    2    1    2    0    0  0.00000000000E+00  0.00000000000E+00 -0.17862992055E+04  0.26723404638E+04  0.19875962122E+04 0.  0.
        1    1    3    3  502    0 -0.73616987553E+03 -0.52704536403E+03 -0.14440894732E+04  0.17044404678E+04  0.50400001928E-02 0.  1.
       -1    1    3    3    0  502  0.73616987553E+03  0.52704536403E+03 -0.34220973231E+03  0.96789999602E+03  0.50400001928E-02 0. -1.
</event>
<event>
 5   0  0.8958919E-05  0.2047629E+04  0.7818609E-02  0.8584671E-01
       -1   -1    0    0    0  501  0.00000000000E+00  0.00000000000E+00  0.11055360718E+04  0.11055360718E+04  0.50400001928E-02 0. -1.
        1   -1    0    0  501    0  0.00000000000E+00  0.00000000000E+00 -0.94813335352E+03  0.94813335353E+03  0.50400001928E-02 0.  1.
    10030    2    1    2    0    0  0.00000000000E+00  0.00000000000E+00  0.15740271824E+03  0.20536694253E+04  0.20476285046E+04 0.  0.
        4    1    3    3  502    0 -0.30814291312E+03  0.82380209301E+03  0.60426264177E+03  0.10671161589E+04  0.12699999809E+01 0. -1.
       -4    1    3    3    0  502  0.30814291312E+03 -0.82380209301E+03 -0.44685992353E+03  0.98655326644E+03  0.12699999809E+01 0.  1.
</event>
<event>
 5   0  0.1893687E-04  0.1927346E+04  0.7818609E-02  0.8641363E-01
        2   -1    0    0  501    0  0.00000000000E+00  0.00000000000E+00  0.15173030931E+04  0.15173030931E+04  0.25500000920E-02 0.  1.
       -2   -1    0    0    0  501  0.00000000000E+00  0.00000000000E+00 -0.61204996483E+03  0.61204996484E+03  0.25500000920E-02 0. -1.
    10030    2    1    2    0    0  0.00000000000E+00  0.00000000000E+00  0.90525312823E+03  0.21293530579E+04  0.19273456408E+04 0.  0.
        4    1    3    3  502    0  0.89925388527E+03 -0.41091062233E+02  0.72600951912E+02  0.90311601507E+03  0.12699999809E+01 0. -1.
       -4    1    3    3    0  502 -0.89925388527E+03  0.41091062233E+02  0.83265217631E+03  0.12262370428E+04  0.12699999809E+01 0.  1.
</event>
<event>
 5   0  0.8765057E-05  0.1988714E+04  0.7818609E-02  0.8611915E-01
        1   -1    0    0  501    0  0.00000000000E+00  0.00000000000E+00  0.19447648570E+04  0.19447648570E+04  0.50400001928E-02 0. -1.
       -1   -1    0    0    0  501  0.00000000000E+00  0.00000000000E+00 -0.50841409655E+03  0.50841409657E+03  0.50400001928E-02 0.  1.
    10030    2    1    2    0    0  0.00000000000E+00  0.00000000000E+00  0.14363507604E+04  0.24531789535E+04  0.19887140245E+04 0.  0.
        3    1    3    3  502    0  0.29977448639E+03 -0.87495737374E+03  0.11685998624E+04  0.14903156703E+04  0.10100000352E+00 0. -1.
       -3    1    3    3    0  502 -0.29977448639E+03  0.87495737374E+03  0.26775089797E+03  0.96286328320E+03  0.10100000352E+00 0.  1.
</event>
<event>
 5   0  0.8881384E-05  0.2030846E+04  0.7818609E-02  0.8592333E-01
        1   -1    0    0  501    0  0.00000000000E+00  0.00000000000E+00  0.10680913783E+04  0.10680913783E+04  0.50400001928E-02 0. -1.
       -1   -1    0    0    0  501  0.00000000000E+00  0.00000000000E+00 -0.96535192473E+03  0.96535192474E+03  0.50400001928E-02 0.  1.
    10030    2    1    2    0    0  0.00000000000E+00  0.00000000000E+00  0.10273945352E+03  0.20334433030E+04  0.20308461959E+04 0.  0.
        5    1    3    3  502    0  0.75486066045E+03  0.47601092539E+03  0.53640738176E+03  0.10412281148E+04  0.46999998093E+01 0. -1.
       -5    1    3    3    0  502 -0.75486066045E+03 -0.47601092539E+03 -0.43366792824E+03  0.99221518824E+03  0.46999998093E+01 0.  1.
</event>
<event>
 5   0  0.8958919E-05  0.1999909E+04  0.7818609E-02  0.8606663E-01
       -1   -1    0    0    0  501  0.00000000000E+00  0.00000000000E+00  0.13599763325E+04  0.13599763325E+04  0.50400001928E-02 0.  1.
        1   -1    0    0  501    0  0.00000000000E+00  0.00000000000E+00 -0.73523982099E+03  0.73523982100E+03  0.50400001928E-02 0. -1.
    10030    2    1    2    0    0  0.00000000000E+00  0.00000000000E+00  0.62473651151E+03  0.20952161535E+04  0.19999087532E+04 0.  0.
        4    1    3    3  502    0  0.46160437172E+03  0.88684365046E+03  0.29313910299E+03  0.10418744660E+04  0.12699999809E+01 0.  1.
       -4    1    3    3    0  502 -0.46160437172E+03 -0.88684365046E+03  0.33159740852E+03  0.10533416875E+04  0.12699999809E+01 0. -1.
</event>
<event>
 5   0  0.1782172E-04  0.1955933E+04  0.7818609E-02  0.8627505E-01
        2   -1    0    0  501    0  0.00000000000E+00  0.00000000000E+00  0.42159789270E+03  0.42159789271E+03  0.25500000920E-02 0.  1.
       -2   -1    0    0    0  501  0.00000000000E+00  0.00000000000E+00 -0.22685550756E+04  0.22685550756E+04  0.25500000920E-02 0. -1.
    10030    2    1    2    0    0  0.00000000000E+00  0.00000000000E+00 -0.18469571829E+04  0.26901529683E+04  0.19559325544E+04 0.  0.
        2    1    3    3  502    0 -0.25402351863E+03 -0.82534185117E+03 -0.15548084310E+04  0.17785236508E+04  0.25500000920E-02 0. -1.
       -2    1    3    3    0  502  0.25402351863E+03  0.82534185117E+03 -0.29214875189E+03  0.91162931751E+03  0.25500000920E-02 0.  1.
</event>
<event>
 5   0  0.1893687E-04  0.2034232E+04  0.7818609E-02  0.8590781E-01
        2   -1    0    0  501    0  0.00000000000E+00  0.00000000000E+00  0.10128195596E+04  0.10128195596E+04  0.25500000920E-02 0. -1.
       -2   -1    0    0    0  501  0.00000000000E+00  0.00000000000E+00 -0.10214306191E+04  0.10214306191E+04  0.25500000920E-02 0.  1.
    10030    2    1    2    0    0  0.00000000000E+00  0.00000000000E+00 -0.86110594596E+01  0.20342501787E+04  0.20342319531E+04 0.  0.
        4    1    3    3  502    0  0.11680166591E+03 -0.97037926589E+03 -0.28581248887E+03  0.10183167192E+04  0.12699999809E+01 0.  1.
       -4    1    3    3    0  502 -0.11680166591E+03  0.97037926589E+03  0.27720142941E+03  0.10159334595E+04  0.12699999809E+01 0. -1.
</event>
<event>
 5   0  0.1893687E-04  0.1988205E+04  0.7818609E-02  0.8612155E-01
       -2   -1    0    0    0  501  0.00000000000E+00  0.00000000000E+00  0.58984710707E+03  0.58984710707E+03  0.25500000920E-02 0. -1.
        2   -1    0    0  501    0  0.00000000000E+00  0.00000000000E+00 -0.16754167194E+04  0.16754167194E+04  0.25500000920E-02 0.  1.
    10030    2    1    2    0    0  0.00000000000E+00  0.00000000000E+00 -0.10855696124E+04  0.22652638265E+04  0.19882049241E+04 0.  0.
        4    1    3    3  502    0 -0.23897072434E+03 -0.53232518809E+02  0.55495953781E+03  0.60656608020E+03  0.12699999809E+01 0. -1.
       -4    1    3    3    0  502  0.23897072434E+03  0.53232518809E+02 -0.16405291502E+04  0.16586977463E+04  0.12699999809E+01 0.  1.
</event>
<event>
 5   0  0.8958919E-05  0.1997786E+04  0.7818609E-02  0.8607657E-01
       -1   -1    0    0    0  501  0.00000000000E+00  0.00000000000E+00  0.56214764196E+03  0.56214764198E+03  0.50400001928E-02 0. -1.
        1   -1    0    0  501    0  0.00000000000E+00  0.00000000000E+00 -0.17749555103E+04  0.17749555103E+04  0.50400001928E-02 0.  1.
    10030    2    1    2    0    0  0.00000000000E+00  0.00000000000E+00 -0.12128078683E+04  0.23371031523E+04  0.19977858291E+04 0.  0.
        4    1    3    3  502    0  0.16190427574E+03  0.53933259122E+03 -0.15715755300E+04  0.16694142379E+04  0.12699999809E+01 0.  1.
       -4    1    3    3    0  502 -0.16190427574E+03 -0.53933259122E+03  0.35876766162E+03  0.66768891438E+03  0.12699999809E+01 0. -1.
</event>
<event>
 5   0  0.1782172E-04  0.2069934E+04  0.7818609E-02  0.8574605E-01
        2   -1    0    0  501    0  0.00000000000E+00  0.00000000000E+00  0.15820687155E+04  0.15820687155E+04  0.25500000920E-02 0. -1.
       -2   -1    0    0    0  501  0.00000000000E+00  0.00000000000E+00 -0.67706081440E+03  0.67706081440E+03  0.25500000920E-02 0.  1.
    10030    2    1    2    0    0  0.00000000000E+00  0.00000000000E+00  0.90500790109E+03  0.22591295299E+04  0.20699340404E+04 0.  0.
        2    1    3    3  502    0  0.95537204309E+03  0.39788941143E+03  0.44131995830E+03  0.11250844546E+04  0.25500000920E-02 0.  1.
       -2    1    3    3    0  502 -0.95537204309E+03 -0.39788941143E+03  0.46368794280E+03  0.11340450753E+04  0.25500000920E-02 0. -1.
</event>
<event>
 5   0  0.1893687E-04  0.1989350E+04  0.7818609E-02  0.8611616E-01
       -2   -1    0    0    0  501  0.00000000000E+00  0.00000000000E+00  0.89691689679E+03  0.89691689679E+03  0.25500000920E-02 0.  1.
        2   -1    0    0  501    0  0.00000000000E+00  0.00000000000E+00 -0.11030878748E+04  0.11030878748E+04  0.25500000920E-02 0. -1.
    10030    2    1    2    0    0  0.00000000000E+00  0.00000000000E+00 -0.20617097805E+03  0.20000047716E+04  0.19893497969E+04 0.  0.
        4    1    3    3  502    0 -0.38716922462E+03 -0.24742314799E+03 -0.99000000599E+03  0.10914301844E+04  0.12699999809E+01 0. -1.
       -4    1    3    3    0  502  0.38716922462E+03  0.24742314799E+03  0.78382902793E+03  0.90857458724E+03  0.12699999809E+01 0.  1.
</event>
<event>
 5   0  0.1807498E-04  0.1997001E+04  0.7818609E-02  0.8608024E-01
        2   -1    0    0  501    0  0.00000000000E+00  0.00000000000E+00  0.12604541330E+04  0.12604541330E+04  0.25500000920E-02 0. -1.
       -2   -1    0    0    0  501  0.00000000000E+00  0.00000000000E+00 -0.79098720874E+03  0.79098720874E+03  0.25500000920E-02 0.  1.
    10030    2    1    2    0    0  0.00000000000E+00  0.00000000000E+00  0.46946692423E+03  0.20514413417E+04  0.19970008477E+04 0.  0.
        5    1    3    3  502    0  0.99420557405E+02  0.17692280523E+03  0.12390328641E+04  0.12555519323E+04  0.46999998093E+01 0. -1.
       -5    1    3    3    0  502 -0.99420557405E+02 -0.17692280523E+03 -0.76956593989E+03  0.79588940945E+03  0.46999998093E+01 0.  1.
</event>
<event>
 5   0  0.6531625E-05  0.1982007E+04  0.7818609E-02  0.8615079E-01
        4   -1    0    0  501    0  0.00000000000E+00  0.00000000000E+00  0.57976682621E+03  0.57976821719E+03  0.12699999809E+01 0.  1.
       -4   -1    0    0    0  501  0.00000000000E+00  0.00000000000E+00 -0.16939332052E+04  0.16939336812E+04  0.12699999809E+01 0. -1.
    10030    2    1    2    0    0  0.00000000000E+00  0.00000000000E+00 -0.11141663790E+04  0.22737018984E+04  0.19820074679E+04 0.  0.
        5    1    3    3  502    0  0.70578215085E+03 -0.69220040338E+03 -0.63653229393E+03  0.11757828431E+04  0.46999998093E+01 0. -1.
       -5    1    3    3    0  502 -0.70578215085E+03  0.69220040338E+03 -0.47763408502E+03  0.10979190553E+04  0.46999998093E+01 0.  1.
</event>
<event>
 5   0  0.1807498E-04  0.1899059E+04  0.7818609E-02  0.8655325E-01
       -2   -1    0    0    0  501  0.00000000000E+00  0.00000000000E+00  0.10154117758E+04  0.10154117758E+04  0.25500000920E-02 0.  1.
        2   -1    0    0  501    0  0.00000000000E+00  0.00000000000E+00 -0.88792204926E+03  0.88792204926E+03  0.25500000920E-02 0. -1.
    10030    2    1    2    0    0  0.00000000000E+00  0.00000000000E+00  0.12748972650E+03  0.19033338250E+04  0.18990592458E+04 0.  0.
        5    1    3    3  502    0  0.56573674339E+03  0.15949813099E+02  0.82787290385E+03  0.10028499859E+04  0.46999998093E+01 0.  1.
       -5    1    3    3    0  502 -0.56573674339E+03 -0.15949813099E+02 -0.70038317735E+03  0.90048383910E+03  0.46999998093E+01 0. -1.
</event>
<event>
 5   0  0.8881384E-05  0.1915884E+04  0.7818609E-02  0.8646990E-01
       -1   -1    0    0    0  501  0.00000000000E+00  0.00000000000E+00  0.44318912877E+03  0.44318912880E+03  0.50400001928E-02 0.  1.
        1   -1    0    0  501    0  0.00000000000E+00  0.00000000000E+00 -0.20705669075E+04  0.20705669075E+04  0.50400001928E-02 0. -1.
    10030    2    1    2    0    0  0.00000000000E+00  0.00000000000E+00 -0.16273777787E+04  0.25137560363E+04  0.19158838627E+04 0.  0.
        5    1    3    3  502    0 -0.29027368281E+03 -0.78453924267E+03 -0.14261135685E+04  0.16533549633E+04  0.46999998093E+01 0. -1.
       -5    1    3    3    0  502  0.29027368281E+03  0.78453924267E+03 -0.20126421023E+03  0.86040107307E+03  0.46999998093E+01 0.  1.
</event>
<event>
 5   0  0.8577422E-05  0.1759542E+04  0.7818609E-02  0.8728115E-01
        1   -1    0    0  501    0  0.00000000000E+00  0.00000000000E+00  0.16634668246E+04  0.16634668246E+04  0.50400001928E-02 0.  1.
       -1   -1    0    0    0  501  0.00000000000E+00  0.00000000000E+00 -0.46529160293E+03  0.46529160295E+03  0.50400001928E-02 0. -1.
    10030    2    1    2    0    0  0.00000000000E+00  0.00000000000E+00  0.11981752217E+04  0.21287584276E+04  0.17595421510E+04 0.  0.
        2    1    3    3  502    0 -0.71485734971E+03 -0.30938267337E+03  0.10938774508E+04  0.13428724982E+04  0.25500000920E-02 0.  1.
       -2    1    3    3    0  502  0.71485734971E+03  0.30938267337E+03  0.10429777092E+03  0.78588592941E+03  0.25500000920E-02 0. -1.
</event>
<event>
 5   0  0.1834645E-04  0.2001420E+04  0.7818609E-02  0.8605957E-01
       -2   -1    0    0    0  501  0.00000000000E+00  0.00000000000E+00  0.47803596252E+03  0.47803596252E+03  0.25500000920E-02 0.  1.
        2   -1    0    0  501    0  0.00000000000E+00  0.00000000000E+00 -0.20948633875E+04  0.20948633875E+04  0.25500000920E-02 0. -1.
    10030    2    1    2    0    0  0.00000000000E+00  0.00000000000E+00 -0.16168274250E+04  0.25728993500E+04  0.20014195320E+04 0.  0.
        1    1    3    3  502    0 -0.86875339272E+03  0.45227192327E+03 -0.54452549239E+03  0.11206205253E+04  0.50400001928E-02 0.  1.
       -1    1    3    3    0  502  0.86875339272E+03 -0.45227192327E+03 -0.10723019326E+04  0.14522788247E+04  0.50400001928E-02 0. -1.
</event>
<event>
 5   0  0.8958919E-05  0.1995832E+04  0.7818609E-02  0.8608572E-01
        1   -1    0    0  501    0  0.00000000000E+00  0.00000000000E+00  0.12298006850E+04  0.12298006850E+04  0.50400001928E-02 0.  1.
       -1   -1    0    0    0  501  0.00000000000E+00  0.00000000000E+00 -0.80975403728E+03  0.80975403729E+03  0.50400001928E-02 0. -1.
    10030    2    1    2    0    0  0.00000000000E+00  0.00000000000E+00  0.42004664775E+03  0.20395547223E+04  0.19958317261E+04 0.  0.
        4    1    3    3  502    0  0.41575099694E+03  0.71569507001E+03  0.77969979361E+03  0.11371023286E+04  0.12699999809E+01 0.  1.
       -4    1    3    3    0  502 -0.41575099694E+03 -0.71569507001E+03 -0.35965314586E+03  0.90245239371E+03  0.12699999809E+01 0. -1.
</event>
<event>
 5   0  0.1812865E-04  0.1982599E+04  0.7818609E-02  0.8614800E-01
        2   -1    0    0  501    0  0.00000000000E+00  0.00000000000E+00  0.92328806858E+03  0.92328806858E+03  0.25500000920E-02 0. -1.
       -2   -1    0    0    0  501  0.00000000000E+00  0.00000000000E+00 -0.10643206283E+04  0.10643206283E+04  0.25500000920E-02 0.  1.
    10030    2    1    2    0    0  0.00000000000E+00  0.00000000000E+00 -0.14103255976E+03  0.19876086969E+04  0.19825988372E+04 0.  0.
        3    1    3    3  502    0 -0.41907373679E+03 -0.53399432193E+03  0.65373694265E+03  0.94241431075E+03  0.10100000352E+00 0. -1.
       -3    1    3    3    0  502  0.41907373679E+03  0.53399432193E+03 -0.79476950241E+03  0.10451943862E+04  0.10100000352E+00 0.  1.
</event>
<event>
 5   0  0.8881384E-05  0.1984594E+04  0.7818609E-02  0.8613858E-01
       -1   -1    0    0    0  501  0.00000000000E+00  0.00000000000E+00  0.50194939479E+03  0.50194939481E+03  0.50400001928E-02 0. -1.
        1   -1    0    0  501    0  0.00000000000E+00  0.00000000000E+00 -0.19616576666E+04  0.19616576666E+04  0.50400001928E-02 0.  1.
    10030    2    1    2    0    0  0.00000000000E+00  0.00000000000E+00 -0.14597082719E+04  0.24636070615E+04  0.19845935388E+04 0.  0.
        5    1    3    3  502    0  0.23226791033E+03 -0.52843061840E+03  0.27207784846E+03  0.63815025366E+03  0.46999998093E+01 0. -1.
       -5    1    3    3    0  502 -0.23226791033E+03  0.52843061840E+03 -0.17317861203E+04  0.18254568078E+04  0.46999998093E+01 0.  1.
</event>
<event>
 5   0  0.8765057E-05  0.1995819E+04  0.7818609E-02  0.8608578E-01
       -1   -1    0    0    0  501  0.00000000000E+00  0.00000000000E+00  0.53518261742E+03  0.53518261744E+03  0.50400001928E-02 0.  1.
        1   -1    0    0  501    0  0.00000000000E+00  0.00000000000E+00 -0.18607174241E+04  0.18607174241E+04  0.50400001928E-02 0. -1.
    10030    2    1    2    0    0  0.00000000000E+00  0.00000000000E+00 -0.13255348066E+04  0.23959000415E+04  0.19958192517E+04 0.  0.
        3    1    3    3  502    0 -0.51749415973E+03  0.30027777755E+03 -0.16215254799E+04  0.17283841706E+04  0.10100000352E+00 0. -1.
       -3    1    3    3    0  502  0.51749415973E+03 -0.30027777755E+03  0.29599067326E+03  0.66751587090E+03  0.10100000352E+00 0.  1.
</event>
<event>
 5   0  0.6531625E-05  0.1995726E+04  0.7818609E-02  0.8608621E-01
        3   -1    0    0  501    0  0.00000000000E+00  0.00000000000E+00  0.68058431202E+03  0.68058431952E+03  0.10100000352E+00 0. -1.
       -3   -1    0    0    0  501  0.00000000000E+00  0.00000000000E+00 -0.14630530337E+04  0.14630530372E+04  0.10100000352E+00 0.  1.
    10030    2    1    2    0    0  0.00000000000E+00  0.00000000000E+00 -0.78246872167E+03  0.21436373567E+04  0.19957263882E+04 0.  0.
        1    1    3    3  502    0  0.54767872168E+02  0.32204312638E+02 -0.14608782864E+04  0.14622592127E+04  0.50400001928E-02 0.  1.
       -1    1    3    3    0  502 -0.54767872168E+02 -0.32204312638E+02  0.67840956470E+03  0.68137814397E+03  0.50400001928E-02 0. -1.
</event>
<event>
 5   0  0.1782172E-04  0.1981343E+04  0.7818609E-02  0.8615393E-01
        2   -1    0    0  501    0  0.00000000000E+00  0.00000000000E+00  0.10361930367E+04  0.10361930367E+04  0.25500000920E-02 0.  1.
       -2   -1    0    0    0  501  0.00000000000E+00  0.00000000000E+00 -0.94714961258E+03  0.94714961258E+03  0.25500000920E-02 0. -1.
    10030    2    1    2    0    0  0.00000000000E+00  0.00000000000E+00  0.89043424098E+02  0.19833426493E+04  0.19813428106E+04 0.  0.
        2    1    3    3  502    0 -0.68367321567E+03  0.71387092418E+03  0.11098956886E+03  0.99465544115E+03  0.25500000920E-02 0.  1.
       -2    1    3    3    0  502  0.68367321567E+03 -0.71387092418E+03 -0.21946144759E+02  0.98868720811E+03  0.25500000920E-02 0. -1.
</event>
<event>
 5   0  0.1807498E-04  0.2034325E+04  0.7818609E-02  0.8590739E-01
       -2   -1    0    0    0  501  0.00000000000E+00  0.00000000000E+00  0.41445555807E+03  0.41445555808E+03  0.25500000920E-02 0.  1.
        2   -1    0    0  501    0  0.00000000000E+00  0.00000000000E+00 -0.24963339721E+04  0.24963339721E+04  0.25500000920E-02 0. -1.
    10030    2    1    2    0    0  0.00000000000E+00  0.00000000000E+00 -0.20818784140E+04  0.29107895301E+04  0.20343249392E+04 0.  0.
        5    1    3    3  502    0 -0.92500839009E+03 -0.90479623876E+02 -0.44965446633E+03  0.10324913138E+04  0.46999998093E+01 0. -1.
       -5    1    3    3    0  502  0.92500839009E+03  0.90479623876E+02 -0.16322239476E+04  0.18782982163E+04  0.46999998093E+01 0.  1.
</event>
<event>
 5   0  0.8958919E-05  0.1983232E+04  0.7818609E-02  0.8614501E-01
        1   -1    0    0  501    0  0.00000000000E+00  0.00000000000E+00  0.16776030846E+04  0.16776030846E+04  0.50400001928E-02 0.  1.
       -1   -1    0    0    0  501  0.00000000000E+00  0.00000000000E+00 -0.58613530131E+03  0.58613530133E+03  0.50400001928E-02 0. -1.
    10030    2    1    2    0    0  0.00000000000E+00  0.00000000000E+00  0.10914677832E+04  0.22637383859E+04  0.19832320988E+04 0.  0.
        4    1    3    3  502    0 -0.36230005135E+03 -0.29439554471E+03  0.15443271094E+04  0.16133437010E+04  0.12699999809E+01 0.  1.
       -4    1    3    3    0  502  0.36230005135E+03  0.29439554471E+03 -0.45285932613E+03  0.65039468488E+03  0.12699999809E+01 0. -1.
</event>
<event>
 5   0  0.1893687E-04  0.1951624E+04  0.7818609E-02  0.8629578E-01
        2   -1    0    0  501    0  0.00000000000E+00  0.00000000000E+00  0.19192397923E+04  0.19192397923E+04  0.25500000920E-02 0. -1.
       -2   -1    0    0    0  501  0.00000000000E+00  0.00000000000E+00 -0.49613862017E+03  0.49613862017E+03  0.25500000920E-02 0.  1.
    10030    2    1    2    0    0  0.00000000000E+00  0.00000000000E+00  0.14231011721E+04  0.24153784125E+04  0.19516239211E+04 0.  0.
        4    1    3    3  502    0 -0.87881131074E+03 -0.83593551123E+02  0.19691559207E+03  0.90447474535E+03  0.12699999809E+01 0.  1.
       -4    1    3    3    0  502  0.87881131074E+03  0.83593551123E+02  0.12261855801E+04  0.15109036671E+04  0.12699999809E+01 0. -1.
</event>
<event>
 5   0  0.8881384E-05  0.2071309E+04  0.7818609E-02  0.8573988E-01
       -1   -1    0    0    0  501  0.00000000000E+00  0.00000000000E+00  0.15658330666E+04  0.15658330666E+04  0.50400001928E-02 0.  1.
        1   -1    0    0  501    0  0.00000000000E+00  0.00000000000E+00 -0.68499046998E+03  0.68499047000E+03  0.50400001928E-02 0. -1.
    10030    2    1    2    0    0  0.00000000000E+00  0.00000000000E+00  0.88084259662E+03  0.22508235366E+04  0.20713094682E+04 0.  0.
        5    1    3    3  502    0  0.38623521039E+02 -0.10303980252E+04  0.54547884864E+03  0.11665252381E+04  0.46999998093E+01 0. -1.
       -5    1    3    3    0  502 -0.38623521039E+02  0.10303980252E+04  0.33536374798E+03  0.10842982985E+04  0.46999998093E+01 0.  1.
</event>
<event>
 5   0  0.1782172E-04  0.2013778E+04  0.7818609E-02  0.8600206E-01
        2   -1    0    0  501    0  0.00000000000E+00  0.00000000000E+00  0.76874233042E+03  0.76874233043E+03  0.25500000920E-02 0. -1.
       -2   -1    0    0    0  501  0.00000000000E+00  0.00000000000E+00 -0.13188109458E+04  0.13188109458E+04  0.25500000920E-02 0.  1.
    10030    2    1    2    0    0  0.00000000000E+00  0.00000000000E+00 -0.55006861535E+03  0.20875532762E+04  0.20137783392E+04 0.  0.
        2    1    3    3  502    0 -0.97288949848E+03 -0.16848455503E+03 -0.70512804207E+02  0.98988538584E+03  0.25500000920E-02 0. -1.
       -2    1    3    3    0  502  0.97288949848E+03  0.16848455503E+03 -0.47955581114E+03  0.10976678904E+04  0.25500000920E-02 0.  1.
</event>
<event>
 5   0  0.1812865E-04  0.2015211E+04  0.7818609E-02  0.8599542E-01
        2   -1    0    0  501    0  0.00000000000E+00  0.00000000000E+00  0.72055811390E+03  0.72055811390E+03  0.25500000920E-02 0.  1.
       -2   -1    0    0    0  501  0.00000000000E+00  0.00000000000E+00 -0.14090030241E+04  0.14090030241E+04  0.25500000920E-02 0. -1.
    10030    2    1    2    0    0  0.00000000000E+00  0.00000000000E+00 -0.68844491019E+03  0.21295611380E+04  0.20152107200E+04 0.  0.
        3    1    3    3  502    0 -0.45661456529E+03 -0.81092197268E+02  0.60107342937E+03  0.75918514434E+03  0.10100000352E+00 0.  1.
       -3    1    3    3    0  502  0.45661456529E+03  0.81092197268E+02 -0.12895183396E+04  0.13703759936E+04  0.10100000352E+00 0. -1.
</event>
<event>
 5   0  0.8577422E-05  0.1882192E+04  0.7818609E-02  0.8663772E-01
       -1   -1    0    0    0  501  0.00000000000E+00  0.00000000000E+00  0.76183250063E+03  0.76183250064E+03  0.50400001928E-02 0.  1.
        1   -1    0    0  501    0  0.00000000000E+00  0.00000000000E+00 -0.11625414151E+04  0.11625414151E+04  0.50400001928E-02 0. -1.
    10030    2    1    2    0    0  0.00000000000E+00  0.00000000000E+00 -0.40070891448E+03  0.19243739158E+04  0.18821921617E+04 0.  0.
        2    1    3    3  502    0  0.58925183945E+03 -0.36292201964E+03  0.45169346861E+03  0.82641219269E+03  0.25500000920E-02 0.  1.
       -2    1    3    3    0  502 -0.58925183945E+03  0.36292201964E+03 -0.85240238310E+03  0.10979617231E+04  0.25500000920E-02 0. -1.
</event>
<event>
 5   0  0.8881384E-05  0.1987804E+04  0.7818609E-02  0.8612344E-01
       -1   -1    0    0    0  501  0.00000000000E+00  0.00000000000E+00  0.10341112971E+04  0.10341112971E+04  0.50400001928E-02 0.  1.
        1   -1    0    0  501    0  0.00000000000E+00  0.00000000000E+00 -0.95525571536E+03  0.95525571538E+03  0.50400001928E-02 0. -1.
    10030    2    1    2    0    0  0.00000000000E+00  0.00000000000E+00  0.78855581748E+02  0.19893670125E+04  0.19878035385E+04 0.  0.
        5    1    3    3  502    0 -0.79250835575E+03 -0.59978540230E+03  0.42001618507E+02  0.99478552899E+03  0.46999998093E+01 0. -1.
       -5    1    3    3    0  502  0.79250835575E+03  0.59978540230E+03  0.36853963241E+02  0.99458148351E+03  0.46999998093E+01 0.  1.
</event>
<event>
 5   0  0.1812865E-04  0.2014756E+04  0.7818609E-02  0.8599753E-01
       -2   -1    0    0    0  501  0.00000000000E+00  0.00000000000E+00  0.90157738310E+03  0.90157738311E+03  0.25500000920E-02 0. -1.
        2   -1    0    0  501    0  0.00000000000E+00  0.00000000000E+00 -0.11255945981E+04  0.11255945981E+04  0.25500000920E-02 0.  1.
    10030    2    1    2    0    0  0.00000000000E+00  0.00000000000E+00 -0.22401721501E+03  0.20271719812E+04  0.20147561959E+04 0.  0.
        3    1    3    3  502    0  0.10055816793E+04 -0.59846528992E+02 -0.10609862934E+03  0.10129328951E+04  0.10100000352E+00 0. -1.
       -3    1    3    3    0  502 -0.10055816793E+04  0.59846528992E+02 -0.11791858567E+03  0.10142390861E+04  0.10100000352E+00 0.  1.
</event>
<event>
 5   0  0.1812865E-04  0.2052995E+04  0.7818609E-02  0.8582237E-01
       -2   -1    0    0    0  501  0.00000000000E+00  0.00000000000E+00  0.39883782211E+03  0.39883782212E+03  0.25500000920E-02 0.  1.
        2   -1    0    0  501    0  0.00000000000E+00  0.00000000000E+00 -0.26419195107E+04  0.26419195107E+04  0.25500000920E-02 0. -1.
    10030    2    1    2    0    0  0.00000000000E+00  0.00000000000E+00 -0.22430816886E+04  0.30407573329E+04  0.20529952985E+04 0.  0.
        3    1    3    3  502    0  0.91790139857E+03 -0.28431057491E+03 -0.58685022514E+03  0.11259523424E+04  0.10100000352E+00 0.  1.
       -3    1    3    3    0  502 -0.91790139857E+03  0.28431057491E+03 -0.16562314635E+04  0.19148049904E+04  0.10100000352E+00 0. -1.
</event>
<event>
 5   0  0.1782172E-04  0.1577450E+04  0.7818609E-02  0.8834523E-01
        2   -1    0    0  501    0  0.00000000000E+00  0.00000000000E+00  0.75265738556E+03  0.75265738556E+03  0.25500000920E-02 0.  1.
       -2   -1    0    0    0  501  0.00000000000E+00  0.00000000000E+00 -0.82652063381E+03  0.82652063382E+03  0.25500000920E-02 0. -1.
    10030    2    1    2    0    0  0.00000000000E+00  0.00000000000E+00 -0.73863248254E+02  0.15791780194E+04  0.15774496624E+04 0.  0.
        2    1    3    3  502    0 -0.17646240423E+03 -0.55640084357E+03  0.49408898208E+03  0.76475146358E+03  0.25500000920E-02 0.  1.
       -2    1    3    3    0  502  0.17646240423E+03  0.55640084357E+03 -0.56795223034E+03  0.81442655579E+03  0.25500000920E-02 0. -1.
</event>
<event>
 5   0  0.8861350E-05  0.2011305E+04  0.7818609E-02  0.8601353E-01
        1   -1    0    0  501    0  0.00000000000E+00  0.00000000000E+00  0.21189544623E+04  0.21189544623E+04  0.50400001928E-02 0.  1.
       -1   -1    0    0    0  501  0.00000000000E+00  0.00000000000E+00 -0.47728118957E+03  0.47728118960E+03  0.50400001928E-02 0. -1.
    10030    2    1    2    0    0  0.00000000000E+00  0.00000000000E+00  0.16416732727E+04  0.25962356519E+04  0.20113051548E+04 0.  0.
        1    1    3    3  502    0  0.22853161598E+03 -0.75117608901E+03  0.97272937092E+01  0.78523043527E+03  0.50400001928E-02 0. -1.
       -1    1    3    3    0  502 -0.22853161598E+03  0.75117608901E+03  0.16319459790E+04  0.18110052166E+04  0.50400001928E-02 0.  1.
</event>
<event>
 5   0  0.1893687E-04  0.1941440E+04  0.7818609E-02  0.8634499E-01
        2   -1    0    0  501    0  0.00000000000E+00  0.00000000000E+00  0.15958092456E+04  0.15958092456E+04  0.25500000920E-02 0. -1.
       -2   -1    0    0    0  501  0.00000000000E+00  0.00000000000E+00 -0.59048269420E+03  0.59048269421E+03  0.25500000920E-02 0.  1.
    10030    2    1    2    0    0  0.00000000000E+00  0.00000000000E+00  0.10053265514E+04  0.21862919398E+04  0.19414404372E+04 0.  0.
        4    1    3    3  502    0 -0.24476585961E+02  0.46505970947E+03 -0.45646743143E+03  0.65210717331E+03  0.12699999809E+01 0.  1.
       -4    1    3    3    0  502  0.24476585961E+02 -0.46505970947E+03  0.14617939829E+04  0.15341847665E+04  0.12699999809E+01 0. -1.
</event>
<event>
 5   0  0.1812865E-04  0.1979547E+04  0.7818609E-02  0.8616243E-01
        2   -1    0    0  501    0  0.00000000000E+00  0.00000000000E+00  0.24531566221E+04  0.24531566221E+04  0.25500000920E-02 0. -1.
       -2   -1    0    0    0  501  0.00000000000E+00  0.00000000000E+00 -0.39934310601E+03  0.39934310602E+03  0.25500000920E-02 0.  1.
    10030    2    1    2    0    0  0.00000000000E+00  0.00000000000E+00  0.20538135160E+04  0.28524997281E+04  0.19795465996E+04 0.  0.
        3    1    3    3  502    0 -0.55214893155E+03  0.57297236927E+03  0.18751147287E+04  0.20369636802E+04  0.10100000352E+00 0. -1.
       -3    1    3    3    0  502  0.55214893155E+03 -0.57297236927E+03  0.17869878735E+03  0.81553604786E+03  0.10100000352E+00 0.  1.
</event>
<event>
 5   0  0.8577422E-05  0.2000906E+04  0.7818609E-02  0.8606197E-01
        1   -1    0    0  501    0  0.00000000000E+00  0.00000000000E+00  0.14777687873E+04  0.14777687873E+04  0.50400001928E-02 0. -1.
       -1   -1    0    0    0  501  0.00000000000E+00  0.00000000000E+00 -0.67730911710E+03  0.67730911712E+03  0.50400001928E-02 0.  1.
    10030    2    1    2    0    0  0.00000000000E+00  0.00000000000E+00  0.80045967016E+03  0.21550779044E+04  0.20009060674E+04 0.  0.
        2    1    3    3  502    0 -0.32929163831E+03 -0.54406857727E+03  0.12320470579E+04  0.13865004697E+04  0.25500000920E-02 0. -1.
       -2    1    3    3    0  502  0.32929163831E+03  0.54406857727E+03 -0.43158738769E+03  0.76857743465E+03  0.25500000920E-02 0.  1.
</event>
<event>
 5   0  0.8861350E-05  0.2258981E+04  0.7818609E-02  0.8494272E-01
        1   -1    0    0  501    0  0.00000000000E+00  0.00000000000E+00  0.16237807536E+04  0.16237807536E+04  0.50400001928E-02 0. -1.
       -1   -1    0    0    0  501  0.00000000000E+00  0.00000000000E+00 -0.78566594529E+03  0.78566594531E+03  0.50400001928E-02 0.  1.
    10030    2    1    2    0    0  0.00000000000E+00  0.00000000000E+00  0.83811480828E+03  0.24094466989E+04  0.22589813994E+04 0.  0.
        1    1    3    3  502    0 -0.97129897399E+03  0.55588432664E+03  0.25617640519E+03  0.11480659528E+04  0.50400001928E-02 0.  1.
       -1    1    3    3    0  502  0.97129897399E+03 -0.55588432664E+03  0.58193840309E+03  0.12613807460E+04  0.50400001928E-02 0. -1.
</event>
<event>
 5   0  0.1834645E-04  0.2043223E+04  0.7818609E-02  0.8586675E-01
        2   -1    0    0  501    0  0.00000000000E+00  0.00000000000E+00  0.98960485759E+03  0.98960485759E+03  0.25500000920E-02 0.  1.
       -2   -1    0    0    0  501  0.00000000000E+00  0.00000000000E+00 -0.10546529909E+04  0.10546529909E+04  0.25500000920E-02 0. -1.
    10030    2    1    2    0    0  0.00000000000E+00  0.00000000000E+00 -0.65048133318E+02  0.20442578485E+04  0.20432226730E+04 0.  0.
        1    1    3    3  502    0  0.28734998534E+03 -0.35225178568E+03  0.88283747669E+03  0.99300218775E+03  0.50400001928E-02 0.  1.
       -1    1    3    3    0  502 -0.28734998534E+03  0.35225178568E+03 -0.94788561001E+03  0.10512556608E+04  0.50400001928E-02 0. -1.
</event>
<event>
 5   0  0.8881384E-05  0.1989790E+04  0.7818609E-02  0.8611409E-01
        1   -1    0    0  501    0  0.00000000000E+00  0.00000000000E+00  0.12949369553E+04  0.12949369553E+04  0.50400001928E-02 0. -1.
       -1   -1    0    0    0  501  0.00000000000E+00  0.00000000000E+00 -0.76437417057E+03  0.76437417059E+03  0.50400001928E-02 0.  1.
    10030    2    1    2    0    0  0.00000000000E+00  0.00000000000E+00  0.53056278472E+03  0.20593111259E+04  0.19897903017E+04 0.  0.
        5    1    3    3  502    0  0.96578322752E+03  0.19388195172E+03  0.40967971015E+03  0.10668584764E+04  0.46999998093E+01 0. -1.
       -5    1    3    3    0  502 -0.96578322752E+03 -0.19388195172E+03  0.12088307457E+03  0.99245264949E+03  0.46999998093E+01 0.  1.
</event>
<event>
 5   0  0.8861350E-05  0.2022822E+04  0.7818609E-02  0.8596025E-01
       -1   -1    0    0    0  501  0.00000000000E+00  0.00000000000E+00  0.76199355659E+03  0.76199355661E+03  0.50400001928E-02 0. -1.
        1   -1    0    0  501    0  0.00000000000E+00  0.00000000000E+00 -0.13424677062E+04  0.13424677062E+04  0.50400001928E-02 0.  1.
    10030    2    1    2    0    0  0.00000000000E+00  0.00000000000E+00 -0.58047414961E+03  0.21044612628E+04  0.20228215365E+04 0.  0.
        1    1    3    3  502    0  0.50816046746E+03  0.76760568783E+03  0.14560543384E+03  0.93201206809E+03  0.50400001928E-02 0. -1.
       -1    1    3    3    0  502 -0.50816046746E+03 -0.76760568783E+03 -0.72607958345E+03  0.11724491947E+04  0.50400001928E-02 0.  1.
</event>
<event>
 5   0  0.1812865E-04  0.1959695E+04  0.7818609E-02  0.8625700E-01
       -2   -1    0    0    0  501  0.00000000000E+00  0.00000000000E+00  0.11859148155E+04  0.11859148155E+04  0.25500000920E-02 0. -1.
        2   -1    0    0  501    0  0.00000000000E+00  0.00000000000E+00 -0.80958657073E+03  0.80958657073E+03  0.25500000920E-02 0.  1.
    10030    2    1    2    0    0  0.00000000000E+00  0.00000000000E+00  0.37632824482E+03  0.19955013863E+04  0.19596945769E+04 0.  0.
        3    1    3    3  502    0 -0.90757993741E+03 -0.34264193710E+03  0.32850788236E+03  0.10242178864E+04  0.10100000352E+00 0. -1.
       -3    1    3    3    0  502  0.90757993741E+03  0.34264193710E+03  0.47820362453E+02  0.97128349987E+03  0.10100000352E+00 0.  1.
</event>
<event>
 5   0  0.8861350E-05  0.2054409E+04  0.7818609E-02  0.8581597E-01
        1   -1    0    0  501    0  0.00000000000E+00  0.00000000000E+00  0.13854286765E+04  0.13854286765E+04  0.50400001928E-02 0.  1.
       -1   -1    0    0    0  501  0.00000000000E+00  0.00000000000E+00 -0.76160465713E+03  0.76160465714E+03  0.50400001928E-02 0. -1.
    10030    2    1    2    0    0  0.00000000000E+00  0.00000000000E+00  0.62382401937E+03  0.21470333337E+04  0.20544088514E+04 0.  0.
        1    1    3    3  502    0 -0.76790823617E+03  0.52496877880E+03  0.76730282162E+03  0.12058312063E+04  0.50400001928E-02 0.  1.
       -1    1    3    3    0  502  0.76790823617E+03 -0.52496877880E+03 -0.14347880225E+03  0.94120212740E+03  0.50400001928E-02 0. -1.
</event>
<event>
 5   0  0.8861350E-05  0.2036903E+04  0.7818609E-02  0.8589559E-01
        1   -1    0    0  501    0  0.00000000000E+00  0.00000000000E+00  0.14429689364E+04  0.14429689364E+04  0.50400001928E-02 0.  1.
       -1   -1    0    0    0  501  0.00000000000E+00  0.00000000000E+00 -0.71882584468E+03  0.71882584470E+03  0.50400001928E-02 0. -1.
    10030    2    1    2    0    0  0.00000000000E+00  0.00000000000E+00  0.72414309169E+03  0.21617947811E+04  0.20369029084E+04 0.  0.
        1    1    3    3  502    0 -0.31239379166E+03  0.93128879413E+03  0.64755267478E+03  0.11765258883E+04  0.50400001928E-02 0.  1.
       -1    1    3    3    0  502  0.31239379166E+03 -0.93128879413E+03  0.76590416917E+02  0.98526889281E+03  0.50400001928E-02 0. -1.
</event>
<event>
 5   0  0.8577422E-05  0.1962853E+04  0.7818609E-02  0.8624188E-01
       -1   -1    0    0    0  501  0.00000000000E+00  0.00000000000E+00  0.12934346549E+04  0.12934346549E+04  0.50400001928E-02 0.  1.
        1   -1    0    0  501    0  0.00000000000E+00  0.00000000000E+00 -0.74468253892E+03  0.74468253893E+03  0.50400001928E-02 0. -1.
    10030    2    1    2    0    0  0.00000000000E+00  0.00000000000E+00  0.54875211597E+03  0.20381171938E+04  0.19628532322E+04 0.  0.
        2    1    3    3  502    0  0.62294853154E+03  0.65367105757E+03  0.67362914804E+03  0.11265553486E+04  0.25500000920E-02 0.  1.
       -2    1    3    3    0  502 -0.62294853154E+03 -0.65367105757E+03 -0.12487703207E+03  0.91156184519E+03  0.25500000920E-02 0. -1.
</event>
<event>
 5   0  0.1834645E-04  0.1960915E+04  0.7818609E-02  0.8625115E-01
        2   -1    0    0  501    0  0.00000000000E+00  0.00000000000E+00  0.15362693961E+04  0.15362693961E+04  0.25500000920E-02 0. -1.
       -2   -1    0    0    0  501  0.00000000000E+00  0.00000000000E+00 -0.62573469557E+03  0.62573469558E+03  0.25500000920E-02 0.  1.
    10030    2    1    2    0    0  0.00000000000E+00  0.00000000000E+00  0.91053470050E+03  0.21620040916E+04  0.19609151566E+04 0.  0.
        1    1    3    3  502    0  0.35444705467E+03 -0.80817943769E+03 -0.15754930389E+02  0.88262955759E+03  0.50400001928E-02 0.  1.
       -1    1    3    3    0  502 -0.35444705467E+03  0.80817943769E+03  0.92628963089E+03  0.12793745341E+04  0.50400001928E-02 0. -1.
</event>
<event>
 5   0  0.6531625E-05  0.2042745E+04  0.7818609E-02  0.8586893E-01
       -3   -1    0    0    0  501  0.00000000000E+00  0.00000000000E+00  0.74365982113E+03  0.74365982799E+03  0.10100000352E+00 0.  1.
        3   -1    0    0  501    0  0.00000000000E+00  0.00000000000E+00 -0.14027942682E+04  0.14027942718E+04  0.10100000352E+00 0. -1.
    10030    2    1    2    0    0  0.00000000000E+00  0.00000000000E+00 -0.65913444702E+03  0.21464540998E+04  0.20427449628E+04 0.  0.
        1    1    3    3  502    0  0.12756236402E+03 -0.42376614212E+03  0.63768413317E+03  0.77620290752E+03  0.50400001928E-02 0.  1.
       -1    1    3    3    0  502 -0.12756236402E+03  0.42376614212E+03 -0.12968185802E+04  0.13702511923E+04  0.50400001928E-02 0. -1.
</event>
<event>
 5   0  0.1812865E-04  0.1989375E+04  0.7818609E-02  0.8611604E-01
        2   -1    0    0  501    0  0.00000000000E+00  0.00000000000E+00  0.99752735468E+03  0.99752735468E+03  0.25500000920E-02 0.  1.
       -2   -1    0    0    0  501  0.00000000000E+00  0.00000000000E+00 -0.99185584725E+03  0.99185584725E+03  0.25500000920E-02 0. -1.
    10030    2    1    2    0    0  0.00000000000E+00  0.00000000000E+00  0.56715074246E+01  0.19893832019E+04  0.19893751175E+04 0.  0.
        3    1    3    3  502    0  0.56347214621E+03 -0.24419234520E+03 -0.77964590400E+03  0.99246083390E+03  0.10100000352E+00 0. -1.
       -3    1    3    3    0  502 -0.56347214621E+03  0.24419234520E+03  0.78531741142E+03  0.99692236803E+03  0.10100000352E+00 0.  1.
</event>
<event>
 5   0  0.1782172E-04  0.1943383E+04  0.7818609E-02  0.8633558E-01
        2   -1    0    0  501    0  0.00000000000E+00  0.00000000000E+00  0.21002120404E+04  0.21002120404E+04  0.25500000920E-02 0.  1.
       -2   -1    0    0    0  501  0.00000000000E+00  0.00000000000E+00 -0.44956611121E+03  0.44956611122E+03  0.25500000920E-02 0. -1.
    10030    2    1    2    0    0  0.00000000000E+00  0.00000000000E+00  0.16506459292E+04  0.25497781516E+04  0.19433827824E+04 0.  0.
        2    1    3    3  502    0 -0.41533498329E+03 -0.83824815739E+03  0.11700178091E+04  0.14980336429E+04  0.25500000920E-02 0.  1.
       -2    1    3    3    0  502  0.41533498329E+03  0.83824815739E+03  0.48062812005E+03  0.10517445087E+04  0.25500000920E-02 0. -1.
</event>
<event>
 5   0  0.1893687E-04  0.1979416E+04  0.7818609E-02  0.8616305E-01
        2   -1    0    0  501    0  0.00000000000E+00  0.00000000000E+00  0.12283126217E+04  0.12283126217E+04  0.25500000920E-02 0.  1.
       -2   -1    0    0    0  501  0.00000000000E+00  0.00000000000E+00 -0.79745355956E+03  0.79745355956E+03  0.25500000920E-02 0. -1.
    10030    2    1    2    0    0  0.00000000000E+00  0.00000000000E+00  0.43085906216E+03  0.20257661813E+04  0.19794163508E+04 0.  0.
        4    1    3    3  502    0  0.56552300468E+03 -0.67739010928E+03  0.67408319889E+03  0.11104338796E+04  0.12699999809E+01 0.  1.
       -4    1    3    3    0  502 -0.56552300468E+03  0.67739010928E+03 -0.24322413673E+03  0.91533230171E+03  0.12699999809E+01 0. -1.
</event>
<event>
 5   0  0.1812865E-04  0.2001855E+04  0.7818609E-02  0.8605754E-01
       -2   -1    0    0    0  501  0.00000000000E+00  0.00000000000E+00  0.75863214062E+03  0.75863214062E+03  0.25500000920E-02 0. -1.
        2   -1    0    0  501    0  0.00000000000E+00  0.00000000000E+00 -0.13206085874E+04  0.13206085874E+04  0.25500000920E-02 0.  1.
    10030    2    1    2    0    0  0.00000000000E+00  0.00000000000E+00 -0.56197644674E+03  0.20792407280E+04  0.20018552591E+04 0.  0.
        3    1    3    3  502    0  0.80370249410E+03 -0.52684450388E+03 -0.57172548012E+03  0.11182007267E+04  0.10100000352E+00 0. -1.
       -3    1    3    3    0  502 -0.80370249410E+03  0.52684450388E+03  0.97490333767E+01  0.96104000132E+03  0.10100000352E+00 0.  1.
</event>
<event>
 5   0  0.8861350E-05  0.1997248E+04  0.7818609E-02  0.8607908E-01
        1   -1    0    0  501    0  0.00000000000E+00  0.00000000000E+00  0.10116157325E+04  0.10116157325E+04  0.50400001928E-02 0.  1.
       -1   -1    0    0    0  501  0.00000000000E+00  0.00000000000E+00 -0.98579907746E+03  0.98579907748E+03  0.50400001928E-02 0. -1.
    10030    2    1    2    0    0  0.00000000000E+00  0.00000000000E+00  0.25816655009E+02  0.19974148100E+04  0.19972479624E+04 0.  0.
        1    1    3    3  502    0  0.73260403066E+03 -0.27509747513E+03 -0.60751642522E+03  0.99068839375E+03  0.50400001928E-02 0.  1.
       -1    1    3    3    0  502 -0.73260403066E+03  0.27509747513E+03  0.63333308023E+03  0.10067264162E+04  0.50400001928E-02 0. -1.
</event>
<event>
 5   0  0.6531625E-05  0.1977017E+04  0.7818609E-02  0.8617442E-01
        3   -1    0    0  501    0  0.00000000000E+00  0.00000000000E+00  0.12432614435E+04  0.12432614476E+04  0.10100000352E+00 0. -1.
       -3   -1    0    0    0  501  0.00000000000E+00  0.00000000000E+00 -0.78595610839E+03  0.78595611488E+03  0.10100000352E+00 0.  1.
    10030    2    1    2    0    0  0.00000000000E+00  0.00000000000E+00  0.45730533512E+03  0.20292175625E+04  0.19770168807E+04 0.  0.
        4    1    3    3  502    0  0.57914313184E+03 -0.76441511126E+03 -0.17277816552E+02  0.95918578249E+03  0.12699999809E+01 0.  1.
       -4    1    3    3    0  502 -0.57914313184E+03  0.76441511126E+03  0.47458315167E+03  0.10700317800E+04  0.12699999809E+01 0. -1.
</event>
<event>
 5   0  0.1893687E-04  0.2012261E+04  0.7818609E-02  0.8600910E-01
       -2   -1    0    0    0  501  0.00000000000E+00  0.00000000000E+00  0.54122601891E+03  0.54122601892E+03  0.25500000920E-02 0.  1.
        2   -1    0    0  501    0  0.00000000000E+00  0.00000000000E+00 -0.18703801683E+04  0.18703801683E+04  0.25500000920E-02 0. -1.
    10030    2    1    2    0    0  0.00000000000E+00  0.00000000000E+00 -0.13291541494E+04  0.24116061872E+04  0.20122608304E+04 0.  0.
        4    1    3    3  502    0  0.31685435891E+03  0.51627695898E+03 -0.16273470493E+04  0.17364327268E+04  0.12699999809E+01 0. -1.
       -4    1    3    3    0  502 -0.31685435891E+03 -0.51627695898E+03  0.29819289991E+03  0.67517346037E+03  0.12699999809E+01 0.  1.
</event>
<event>
 5   0  0.1782172E-04  0.2012429E+04  0.7818609E-02  0.8600832E-01
       -2   -1    0    0    0  501  0.00000000000E+00  0.00000000000E+00  0.92022513598E+03  0.92022513598E+03  0.25500000920E-02 0. -1.
        2   -1    0    0  501    0  0.00000000000E+00  0.00000000000E+00 -0.11002387426E+04  0.11002387426E+04  0.25500000920E-02 0.  1.
    10030    2    1    2    0    0  0.00000000000E+00  0.00000000000E+00 -0.18001360664E+03  0.20204638786E+04  0.20124287282E+04 0.  0.
        2    1    3    3  502    0  0.31501680430E+03 -0.81377555097E+03  0.41299368321E+03  0.96541701700E+03  0.25500000920E-02 0. -1.
       -2    1    3    3    0  502 -0.31501680430E+03  0.81377555097E+03 -0.59300728984E+03  0.10550468616E+04  0.25500000920E-02 0.  1.
</event>
<event>
 5   0  0.8577422E-05  0.2002237E+04  0.7818609E-02  0.8605576E-01
        1   -1    0    0  501    0  0.00000000000E+00  0.00000000000E+00  0.16374041033E+04  0.16374041033E+04  0.50400001928E-02 0.  1.
       -1   -1    0    0    0  501  0.00000000000E+00  0.00000000000E+00 -0.61208962212E+03  0.61208962214E+03  0.50400001928E-02 0. -1.
    10030    2    1    2    0    0  0.00000000000E+00  0.00000000000E+00  0.10253144812E+04  0.22494937255E+04  0.20022368081E+04 0.  0.
        2    1    3    3  502    0 -0.95817120476E+03 -0.26368328742E+03  0.64848868798E+03  0.11866585491E+04  0.25500000920E-02 0. -1.
       -2    1    3    3    0  502  0.95817120476E+03  0.26368328742E+03  0.37682579324E+03  0.10628351764E+04  0.25500000920E-02 0.  1.
</event>
<event>
 5   0  0.6531625E-05  0.2065896E+04  0.7818609E-02  0.8576417E-01
       -4   -1    0    0    0  501  0.00000000000E+00  0.00000000000E+00  0.74971858936E+03  0.74971966503E+03  0.12699999809E+01 0. -1.
        4   -1    0    0  501    0  0.00000000000E+00  0.00000000000E+00 -0.14231735464E+04  0.14231741131E+04  0.12699999809E+01 0.  1.
    10030    2    1    2    0    0  0.00000000000E+00  0.00000000000E+00 -0.67345495707E+03  0.21728937781E+04  0.20658958811E+04 0.  0.
        5    1    3    3  502    0 -0.32529862903E+03  0.40647727990E+03  0.60162020909E+03  0.79562047680E+03  0.46999998093E+01 0. -1.
       -5    1    3    3    0  502  0.32529862903E+03 -0.40647727990E+03 -0.12750751662E+04  0.13772733013E+04  0.46999998093E+01 0.  1.
</event>
<event>
 5   0  0.1834645E-04  0.2014478E+04  0.7818609E-02  0.8599881E-01
        2   -1    0    0  501    0  0.00000000000E+00  0.00000000000E+00  0.79643149102E+03  0.79643149103E+03  0.25500000920E-02 0. -1.
       -2   -1    0    0    0  501  0.00000000000E+00  0.00000000000E+00 -0.12738452944E+04  0.12738452944E+04  0.25500000920E-02 0.  1.
    10030    2    1    2    0    0  0.00000000000E+00  0.00000000000E+00 -0.47741380340E+03  0.20702767855E+04  0.20144781033E+04 0.  0.
        1    1    3    3  502    0  0.87521120548E+03 -0.12066054289E+03  0.25840291539E+03  0.92050295356E+03  0.50400001928E-02 0. -1.
       -1    1    3    3    0  502 -0.87521120548E+03  0.12066054289E+03 -0.73581671879E+03  0.11497738319E+04  0.50400001928E-02 0.  1.
</event>
<event>
 5   0  0.8861350E-05  0.2046051E+04  0.7818609E-02  0.8585388E-01
        1   -1    0    0  501    0  0.00000000000E+00  0.00000000000E+00  0.14615595936E+04  0.14615595936E+04  0.50400001928E-02 0. -1.
       -1   -1    0    0    0  501  0.00000000000E+00  0.00000000000E+00 -0.71607165029E+03  0.71607165030E+03  0.50400001928E-02 0.  1.
    10030    2    1    2    0    0  0.00000000000E+00  0.00000000000E+00  0.74548794333E+03  0.21776312439E+04  0.20460512117E+04 0.  0.
        1    1    3    3  502    0  0.43315371887E+03  0.22026117418E+02  0.13588677633E+04  0.14264041826E+04  0.50400001928E-02 0. -1.
       -1    1    3    3    0  502 -0.43315371887E+03 -0.22026117418E+02 -0.61337981999E+03  0.75122706129E+03  0.50400001928E-02 0.  1.
</event>
<event>
 5   0  0.8881384E-05  0.2041009E+04  0.7818609E-02  0.8587684E-01
        1   -1    0    0  501    0  0.00000000000E+00  0.00000000000E+00  0.74379768141E+03  0.74379768143E+03  0.50400001928E-02 0. -1.
       -1   -1    0    0    0  501  0.00000000000E+00  0.00000000000E+00 -0.14001511439E+04  0.14001511440E+04  0.50400001928E-02 0.  1.
    10030    2    1    2    0    0  0.00000000000E+00  0.00000000000E+00 -0.65635346254E+03  0.21439488254E+04  0.20410087452E+04 0.  0.
        5    1    3    3  502    0 -0.17379597854E+03 -0.48861504987E+03  0.59504668526E+03  0.78933665615E+03  0.46999998093E+01 0. -1.
       -5    1    3    3    0  502  0.17379597854E+03  0.48861504987E+03 -0.12514001478E+04  0.13546121692E+04  0.46999998093E+01 0.  1.
</event>
<event>
 5   0  0.8861350E-05  0.2032566E+04  0.7818609E-02  0.8591545E-01
       -1   -1    0    0    0  501  0.00000000000E+00  0.00000000000E+00  0.73007996406E+03  0.73007996407E+03  0.50400001928E-02 0.  1.
        1   -1    0    0  501    0  0.00000000000E+00  0.00000000000E+00 -0.14146815394E+04  0.14146815394E+04  0.50400001928E-02 0. -1.
    10030    2    1    2    0    0  0.00000000000E+00  0.00000000000E+00 -0.68460157532E+03  0.21447615035E+04  0.20325655192E+04 0.  0.
        1    1    3    3  502    0 -0.87959505607E+03 -0.31890902678E+03 -0.76099050235E+03  0.12060252795E+04  0.50400001928E-02 0. -1.
       -1    1    3    3    0  502  0.87959505607E+03  0.31890902678E+03  0.76388927033E+02  0.93873622399E+03  0.50400001928E-02 0.  1.
</event>
<event>
 5   0  0.8765057E-05  0.1994358E+04  0.7818609E-02  0.8609263E-01
        1   -1    0    0  501    0  0.00000000000E+00  0.00000000000E+00  0.42942875931E+03  0.42942875934E+03  0.50400001928E-02 0. -1.
       -1   -1    0    0    0  501  0.00000000000E+00  0.00000000000E+00 -0.23155561502E+04  0.23155561502E+04  0.50400001928E-02 0.  1.
    10030    2    1    2    0    0  0.00000000000E+00  0.00000000000E+00 -0.18861273909E+04  0.27449849095E+04  0.19943584479E+04 0.  0.
        3    1    3    3  502    0 -0.82555257991E+03  0.28738886989E+03 -0.28263752506E+03  0.91870202215E+03  0.10100000352E+00 0.  1.
       -3    1    3    3    0  502  0.82555257991E+03 -0.28738886989E+03 -0.16034898658E+04  0.18262828874E+04  0.10100000352E+00 0. -1.
</event>
<event>
 5   0  0.1812865E-04  0.1962923E+04  0.7818609E-02  0.8624154E-01
       -2   -1    0    0    0  501  0.00000000000E+00  0.00000000000E+00  0.59311521975E+03  0.59311521976E+03  0.25500000920E-02 0. -1.
        2   -1    0    0  501    0  0.00000000000E+00  0.00000000000E+00 -0.16240803967E+04  0.16240803967E+04  0.25500000920E-02 0.  1.
    10030    2    1    2    0    0  0.00000000000E+00  0.00000000000E+00 -0.10309651770E+04  0.22171956165E+04  0.19629231278E+04 0.  0.
        3    1    3    3  502    0 -0.28567849304E+02  0.40968948096E+02  0.59167881274E+03  0.59378312907E+03  0.10100000352E+00 0. -1.
       -3    1    3    3    0  502  0.28567849304E+02 -0.40968948096E+02 -0.16226439897E+04  0.16234124874E+04  0.10100000352E+00 0.  1.
</event>
<event>
 5   0  0.1834645E-04  0.2170228E+04  0.7818609E-02  0.8530923E-01
        2   -1    0    0  501    0  0.00000000000E+00  0.00000000000E+00  0.16677632415E+04  0.16677632415E+04  0.25500000920E-02 0. -1.
       -2   -1    0    0    0  501  0.00000000000E+00  0.00000000000E+00 -0.70601902442E+03  0.70601902443E+03  0.25500000920E-02 0.  1.
    10030    2    1    2    0    0  0.00000000000E+00  0.00000000000E+00  0.96174421707E+03  0.23737822659E+04  0.21702281693E+04 0.  0.
        1    1    3    3  502    0 -0.22014794114E+03  0.22797963437E+02 -0.68106842550E+03  0.71612782614E+03  0.50400001928E-02 0.  1.
       -1    1    3    3    0  502  0.22014794114E+03 -0.22797963437E+02  0.16428126426E+04  0.16576544398E+04  0.50400001928E-02 0. -1.
</event>
<event>
 5   0  0.6531625E-05  0.2084855E+04  0.7818609E-02  0.8567944E-01
        3   -1    0    0  501    0  0.00000000000E+00  0.00000000000E+00  0.10043910712E+04  0.10043910763E+04  0.10100000352E+00 0. -1.
       -3   -1    0    0    0  501  0.00000000000E+00  0.00000000000E+00 -0.10819041967E+04  0.10819042014E+04  0.10100000352E+00 0.  1.
    10030    2    1    2    0    0  0.00000000000E+00  0.00000000000E+00 -0.77513125467E+02  0.20862952776E+04  0.20848548393E+04 0.  0.
        3    1    3    3  502    0 -0.30283848571E+03  0.87652386358E+03  0.43764975391E+03  0.10254474873E+04  0.10100000352E+00 0. -1.
       -3    1    3    3    0  502  0.30283848571E+03 -0.87652386358E+03 -0.51516287938E+03  0.10608477904E+04  0.10100000352E+00 0.  1.
</event>
<event>
 5   0  0.1893687E-04  0.2014315E+04  0.7818609E-02  0.8599957E-01
        2   -1    0    0  501    0  0.00000000000E+00  0.00000000000E+00  0.66827917268E+03  0.66827917268E+03  0.25500000920E-02 0.  1.
       -2   -1    0    0    0  501  0.00000000000E+00  0.00000000000E+00 -0.15178782551E+04  0.15178782551E+04  0.25500000920E-02 0. -1.
    10030    2    1    2    0    0  0.00000000000E+00  0.00000000000E+00 -0.84959908242E+03  0.21861574278E+04  0.20143151934E+04 0.  0.
        4    1    3    3  502    0 -0.67461318058E+03 -0.73661342216E+03 -0.28470392837E+03  0.10386338223E+04  0.12699999809E+01 0.  1.
       -4    1    3    3    0  502  0.67461318058E+03  0.73661342216E+03 -0.56489515406E+03  0.11475236055E+04  0.12699999809E+01 0. -1.
</event>
<event>
 5   0  0.8577422E-05  0.1987501E+04  0.7818609E-02  0.8612487E-01
        1   -1    0    0  501    0  0.00000000000E+00  0.00000000000E+00  0.14398193108E+04  0.14398193109E+04  0.50400001928E-02 0. -1.
       -1   -1    0    0    0  501  0.00000000000E+00  0.00000000000E+00 -0.68587765605E+03  0.68587765607E+03  0.50400001928E-02 0.  1.
    10030    2    1    2    0    0  0.00000000000E+00  0.00000000000E+00  0.75394165480E+03  0.21256969669E+04  0.19875008368E+04 0.  0.
        2    1    3    3  502    0 -0.50760551619E+03  0.28601333158E+03  0.12379764074E+04  0.13682297217E+04  0.25500000920E-02 0. -1.
       -2    1    3    3    0  502  0.50760551619E+03 -0.28601333158E+03 -0.48403475261E+03  0.75746724527E+03  0.25500000920E-02 0.  1.
</event>
<event>
 5   0  0.1807498E-04  0.1988248E+04  0.7818609E-02  0.8612135E-01
        2   -1    0    0  501    0  0.00000000000E+00  0.00000000000E+00  0.11735156562E+04  0.11735156562E+04  0.25500000920E-02 0.  1.
       -2   -1    0    0    0  501  0.00000000000E+00  0.00000000000E+00 -0.84215516696E+03  0.84215516697E+03  0.25500000920E-02 0. -1.
    10030    2    1    2    0    0  0.00000000000E+00  0.00000000000E+00  0.33136048925E+03  0.20156708232E+04  0.19882477445E+04 0.  0.
        5    1    3    3  502    0 -0.98525131900E+03 -0.69264691740E+02  0.28011953130E+03  0.10266483336E+04  0.46999998093E+01 0.  1.
       -5    1    3    3    0  502  0.98525131900E+03  0.69264691740E+02  0.51240957950E+02  0.98902248957E+03  0.46999998093E+01 0. -1.
</event>
<event>
 5   0  0.1807498E-04  0.1942648E+04  0.7818609E-02  0.8633914E-01
        2   -1    0    0  501    0  0.00000000000E+00  0.00000000000E+00  0.16059647169E+04  0.16059647169E+04  0.25500000920E-02 0. -1.
       -2   -1    0    0    0  501  0.00000000000E+00  0.00000000000E+00 -0.58747905089E+03  0.58747905089E+03  0.25500000920E-02 0.  1.
    10030    2    1    2    0    0  0.00000000000E+00  0.00000000000E+00  0.10184856660E+04  0.21934437677E+04  0.19426483239E+04 0.  0.
        5    1    3    3  502    0 -0.65949498929E+03 -0.98403732058E+02 -0.28821788063E+03  0.72643552508E+03  0.46999998093E+01 0.  1.
       -5    1    3    3    0  502  0.65949498929E+03  0.98403732058E+02  0.13067035466E+04  0.14670082427E+04  0.46999998093E+01 0. -1.
</event>
<event>
 5   0  0.1812865E-04  0.1942875E+04  0.7818609E-02  0.8633804E-01
       -2   -1    0    0    0  501  0.00000000000E+00  0.00000000000E+00  0.73639762867E+03  0.73639762868E+03  0.25500000920E-02 0. -1.
        2   -1    0    0  501    0  0.00000000000E+00  0.00000000000E+00 -0.12814967755E+04  0.12814967755E+04  0.25500000920E-02 0.  1.
    10030    2    1    2    0    0  0.00000000000E+00  0.00000000000E+00 -0.54509914680E+03  0.20178944041E+04  0.19428753811E+04 0.  0.
        3    1    3    3  502    0 -0.13287410243E+03  0.48029662192E+03  0.59352536468E+03  0.77499209083E+03  0.10100000352E+00 0. -1.
       -3    1    3    3    0  502  0.13287410243E+03 -0.48029662192E+03 -0.11386245115E+04  0.12429023133E+04  0.10100000352E+00 0.  1.
</event>
<event>
 5   0  0.1807498E-04  0.2007645E+04  0.7818609E-02  0.8603055E-01
       -2   -1    0    0    0  501  0.00000000000E+00  0.00000000000E+00  0.41430749783E+03  0.41430749783E+03  0.25500000920E-02 0.  1.
        2   -1    0    0  501    0  0.00000000000E+00  0.00000000000E+00 -0.24321533002E+04  0.24321533002E+04  0.25500000920E-02 0. -1.
    10030    2    1    2    0    0  0.00000000000E+00  0.00000000000E+00 -0.20178458024E+04  0.28464607981E+04  0.20076447377E+04 0.  0.
        5    1    3    3  502    0 -0.12370386571E+03 -0.37264780886E+03  0.30089831251E+03  0.49470286063E+03  0.46999998093E+01 0.  1.
       -5    1    3    3    0  502  0.12370386571E+03  0.37264780886E+03 -0.23187441149E+04  0.23517579374E+04  0.46999998093E+01 0. -1.
</event>
<event>
 5   0  0.1782172E-04  0.2061438E+04  0.7818609E-02  0.8578423E-01
        2   -1    0    0  501    0  0.00000000000E+00  0.00000000000E+00  0.14400029645E+04  0.14400029645E+04  0.25500000920E-02 0. -1.
       -2   -1    0    0    0  501  0.00000000000E+00  0.00000000000E+00 -0.73776319762E+03  0.73776319762E+03  0.25500000920E-02 0.  1.
    10030    2    1    2    0    0  0.00000000000E+00  0.00000000000E+00  0.70223976690E+03  0.21777661621E+04  0.20614375486E+04 0.  0.
        2    1    3    3  502    0 -0.75332754239E+03 -0.65432838383E+03  0.62402516854E+03  0.11768837797E+04  0.25500000920E-02 0.  1.
       -2    1    3    3    0  502  0.75332754239E+03  0.65432838383E+03  0.78214598357E+02  0.10008823824E+04  0.25500000920E-02 0. -1.
</event>
<event>
 5   0  0.1807498E-04  0.2008253E+04  0.7818609E-02  0.8602772E-01
        2   -1    0    0  501    0  0.00000000000E+00  0.00000000000E+00  0.72056062363E+03  0.72056062363E+03  0.25500000920E-02 0. -1.
       -2   -1    0    0    0  501  0.00000000000E+00  0.00000000000E+00 -0.13992848492E+04  0.13992848492E+04  0.25500000920E-02 0.  1.
    10030    2    1    2    0    0  0.00000000000E+00  0.00000000000E+00 -0.67872422560E+03  0.21198454729E+04  0.20082525375E+04 0.  0.
        5    1    3    3  502    0  0.23136390687E+03  0.93142713002E+03 -0.65099893679E+03  0.11597014537E+04  0.46999998093E+01 0. -1.
       -5    1    3    3    0  502 -0.23136390687E+03 -0.93142713002E+03 -0.27725288810E+02  0.96014401919E+03  0.46999998093E+01 0.  1.
</event>
<event>
 5   0  0.1782172E-04  0.2002723E+04  0.7818609E-02  0.8605349E-01
        2   -1    0    0  501    0  0.00000000000E+00  0.00000000000E+00  0.18206460885E+04  0.18206460885E+04  0.25500000920E-02 0.  1.
       -2   -1    0    0    0  501  0.00000000000E+00  0.00000000000E+00 -0.55075195055E+03  0.55075195056E+03  0.25500000920E-02 0. -1.
    10030    2    1    2    0    0  0.00000000000E+00  0.00000000000E+00  0.12698941379E+04  0.23713980391E+04  0.20027225315E+04 0.  0.
        2    1    3    3  502    0 -0.40482379739E+03 -0.38029642458E+02 -0.44860320909E+03  0.60545305338E+03  0.25500000920E-02 0. -1.
       -2    1    3    3    0  502  0.40482379739E+03  0.38029642458E+02  0.17184973470E+04  0.17659449857E+04  0.25500000920E-02 0.  1.
</event>
<event>
 5   0  0.1893687E-04  0.2003763E+04  0.7818609E-02  0.8604863E-01
       -2   -1    0    0    0  501  0.00000000000E+00  0.00000000000E+00  0.67945665633E+03  0.67945665634E+03  0.25500000920E-02 0. -1.
        2   -1    0    0  501    0  0.00000000000E+00  0.00000000000E+00 -0.14773080290E+04  0.14773080290E+04  0.25500000920E-02 0.  1.
    10030    2    1    2    0    0  0.00000000000E+00  0.00000000000E+00 -0.79785137268E+03  0.21567646854E+04  0.20037632333E+04 0.  0.
        4    1    3    3  502    0 -0.73815807351E+03  0.33254812416E+03  0.23630698402E+03  0.84339089393E+03  0.12699999809E+01 0. -1.
       -4    1    3    3    0  502  0.73815807351E+03 -0.33254812416E+03 -0.10341583567E+04  0.13133737914E+04  0.12699999809E+01 0.  1.
</event>
<event>
 5   0  0.1834645E-04  0.1939621E+04  0.7818609E-02  0.8635382E-01
        2   -1    0    0  501    0  0.00000000000E+00  0.00000000000E+00  0.10712365663E+04  0.10712365663E+04  0.25500000920E-02 0. -1.
       -2   -1    0    0    0  501  0.00000000000E+00  0.00000000000E+00 -0.87798799318E+03  0.87798799319E+03  0.25500000920E-02 0.  1.
    10030    2    1    2    0    0  0.00000000000E+00  0.00000000000E+00  0.19324857308E+03  0.19492245595E+04  0.19396214507E+04 0.  0.
        1    1    3    3  502    0  0.83409994590E+03 -0.44807696547E+03 -0.11426500578E+03  0.95370445019E+03  0.50400001928E-02 0.  1.
       -1    1    3    3    0  502 -0.83409994590E+03  0.44807696547E+03  0.30751357886E+03  0.99552010926E+03  0.50400001928E-02 0. -1.
</event>
<event>
 5   0  0.8861350E-05  0.1998555E+04  0.7818609E-02  0.8607297E-01
       -1   -1    0    0    0  501  0.00000000000E+00  0.00000000000E+00  0.13105889561E+04  0.13105889561E+04  0.50400001928E-02 0.  1.
        1   -1    0    0  501    0  0.00000000000E+00  0.00000000000E+00 -0.76191330152E+03  0.76191330154E+03  0.50400001928E-02 0. -1.
    10030    2    1    2    0    0  0.00000000000E+00  0.00000000000E+00  0.54867565453E+03  0.20725022576E+04  0.19985546362E+04 0.  0.
        1    1    3    3  502    0 -0.50129590271E+03  0.50554772365E+03  0.10014808647E+04  0.12287554701E+04  0.50400001928E-02 0.  1.
       -1    1    3    3    0  502  0.50129590271E+03 -0.50554772365E+03 -0.45280521019E+03  0.84374678747E+03  0.50400001928E-02 0. -1.
</event>
<event>
 5   0  0.8881384E-05  0.2038552E+04  0.7818609E-02  0.8588805E-01
        1   -1    0    0  501    0  0.00000000000E+00  0.00000000000E+00  0.15366844445E+04  0.15366844445E+04  0.50400001928E-02 0.  1.
       -1   -1    0    0    0  501  0.00000000000E+00  0.00000000000E+00 -0.67608150448E+03  0.67608150450E+03  0.50400001928E-02 0. -1.
    10030    2    1    2    0    0  0.00000000000E+00  0.00000000000E+00  0.86060293999E+03  0.22127659490E+04  0.20385523600E+04 0.  0.
        5    1    3    3  502    0 -0.68399092420E+02  0.32187346829E+03 -0.61682708809E+03  0.69912710721E+03  0.46999998093E+01 0. -1.
       -5    1    3    3    0  502  0.68399092420E+02 -0.32187346829E+03  0.14774300281E+04  0.15136388418E+04  0.46999998093E+01 0.  1.
</event>
<event>
 5   0  0.8577422E-05  0.1986578E+04  0.7818609E-02  0.8612922E-01
        1   -1    0    0  501    0  0.00000000000E+00  0.00000000000E+00  0.72602202865E+03  0.72602202867E+03  0.50400001928E-02 0. -1.
       -1   -1    0    0    0  501  0.00000000000E+00  0.00000000000E+00 -0.13589429908E+04  0.13589429909E+04  0.50400001928E-02 0.  1.
    10030    2    1    2    0    0  0.00000000000E+00  0.00000000000E+00 -0.63292096219E+03  0.20849650195E+04  0.19865775062E+04 0.  0.
        2    1    3    3  502    0  0.67385685560E+03  0.51684228259E+03 -0.85715852283E+03  0.12066191363E+04  0.25500000920E-02 0.  1.
       -2    1    3    3    0  502 -0.67385685560E+03 -0.51684228259E+03  0.22423756064E+03  0.87834588319E+03  0.25500000920E-02 0. -1.
</event>
<event>
 5   0  0.8881384E-05  0.2022789E+04  0.7818609E-02  0.8596040E-01
       -1   -1    0    0    0  501  0.00000000000E+00  0.00000000000E+00  0.75989974838E+03  0.75989974839E+03  0.50400001928E-02 0.  1.
        1   -1    0    0  501    0  0.00000000000E+00  0.00000000000E+00 -0.13461233932E+04  0.13461233932E+04  0.50400001928E-02 0. -1.
    10030    2    1    2    0    0  0.00000000000E+00  0.00000000000E+00 -0.58622364486E+03  0.21060231416E+04  0.20227889933E+04 0.  0.
        5    1    3    3  502    0  0.71550185360E+03  0.71480251636E+03 -0.29659584925E+03  0.10539813697E+04  0.46999998093E+01 0. -1.
       -5    1    3    3    0  502 -0.71550185360E+03 -0.71480251636E+03 -0.28962779561E+03  0.10520417719E+04  0.46999998093E+01 0.  1.
</event>
<event>
 5   0  0.1834645E-04  0.2017420E+04  0.7818609E-02  0.8598519E-01
       -2   -1    0    0    0  501  0.00000000000E+00  0.00000000000E+00  0.67782289565E+03  0.67782289565E+03  0.25500000920E-02 0. -1.
        2   -1    0    0  501    0  0.00000000000E+00  0.00000000000E+00 -0.15011237286E+04  0.15011237286E+04  0.25500000920E-02 0.  1.
    10030    2    1    2    0    0  0.00000000000E+00  0.00000000000E+00 -0.82330083294E+03  0.21789466242E+04  0.20174201669E+04 0.  0.
        1    1    3    3  502    0 -0.73625986675E+03  0.44812747590E+03 -0.97762883697E+03  0.13033245831E+04  0.50400001928E-02 0.  1.
       -1    1    3    3    0  502  0.73625986675E+03 -0.44812747590E+03  0.15432800403E+03  0.87562204113E+03  0.50400001928E-02 0. -1.
</event>
<event>
 5   0  0.1893687E-04  0.2000355E+04  0.7818609E-02  0.8606455E-01
       -2   -1    0    0    0  501  0.00000000000E+00  0.00000000000E+00  0.13591480947E+04  0.13591480947E+04  0.25500000920E-02 0. -1.
        2   -1    0    0  501    0  0.00000000000E+00  0.00000000000E+00 -0.73601637770E+03  0.73601637770E+03  0.25500000920E-02 0.  1.
    10030    2    1    2    0    0  0.00000000000E+00  0.00000000000E+00  0.62313171700E+03  0.20951644724E+04  0.20003552259E+04 0.  0.
        4    1    3    3  502    0 -0.72665474333E+03 -0.55785018097E+03  0.73200079869E+03  0.11726255679E+04  0.12699999809E+01 0. -1.
       -4    1    3    3    0  502  0.72665474333E+03  0.55785018097E+03 -0.10886908169E+03  0.92253890447E+03  0.12699999809E+01 0.  1.
</event>
<event>
 5   0  0.8958919E-05  0.2000681E+04  0.7818609E-02  0.8606302E-01
       -1   -1    0    0    0  501  0.00000000000E+00  0.00000000000E+00  0.60829746239E+03  0.60829746241E+03  0.50400001928E-02 0. -1.
        1   -1    0    0  501    0  0.00000000000E+00  0.00000000000E+00 -0.16450518743E+04  0.16450518743E+04  0.50400001928E-02 0.  1.
    10030    2    1    2    0    0  0.00000000000E+00  0.00000000000E+00 -0.10367544119E+04  0.22533493367E+04  0.20006807648E+04 0.  0.
        4    1    3    3  502    0  0.23719363727E+02 -0.29091777886E+03  0.55926847051E+03  0.63085544879E+03  0.12699999809E+01 0. -1.
       -4    1    3    3    0  502 -0.23719363727E+02  0.29091777886E+03 -0.15960228824E+04  0.16224938879E+04  0.12699999809E+01 0.  1.
</event>
<event>
 5   0  0.8577422E-05  0.2000783E+04  0.7818609E-02  0.8606255E-01
        1   -1    0    0  501    0  0.00000000000E+00  0.00000000000E+00  0.95485483272E+03  0.95485483274E+03  0.50400001928E-02 0.  1.
       -1   -1    0    0    0  501  0.00000000000E+00  0.00000000000E+00 -0.10480995748E+04  0.10480995748E+04  0.50400001928E-02 0. -1.
    10030    2    1    2    0    0  0.00000000000E+00  0.00000000000E+00 -0.93244742102E+02  0.20029544076E+04  0.20007827910E+04 0.  0.
        2    1    3    3  502    0 -0.21260786946E+03 -0.56993462555E+03  0.74844072493E+03  0.96446415294E+03  0.25500000920E-02 0.  1.
       -2    1    3    3    0  502  0.21260786946E+03  0.56993462555E+03 -0.84168546703E+03  0.10384902546E+04  0.25500000920E-02 0. -1.
</event>
<event>
 5   0  0.8577422E-05  0.1984239E+04  0.7818609E-02  0.8614025E-01
        1   -1    0    0  501    0  0.00000000000E+00  0.00000000000E+00  0.87674021512E+03  0.87674021514E+03  0.50400001928E-02 0. -1.
       -1   -1    0    0    0  501  0.00000000000E+00  0.00000000000E+00 -0.11226831621E+04  0.11226831622E+04  0.50400001928E-02 0.  1.
    10030    2    1    2    0    0  0.00000000000E+00  0.00000000000E+00 -0.24594294702E+03  0.19994233773E+04  0.19842393778E+04 0.  0.
        2    1    3    3  502    0  0.36601985429E+03 -0.49721805692E+03  0.65956973914E+03  0.90345369037E+03  0.25500000920E-02 0. -1.
       -2    1    3    3    0  502 -0.36601985429E+03  0.49721805692E+03 -0.90551268615E+03  0.10959696869E+04  0.25500000920E-02 0.  1.
</event>
<event>
 5   0  0.1782172E-04  0.1998059E+04  0.7818609E-02  0.8607529E-01
        2   -1    0    0  501    0  0.00000000000E+00  0.00000000000E+00  0.12183287902E+04  0.12183287902E+04  0.25500000920E-02 0. -1.
       -2   -1    0    0    0  501  0.00000000000E+00  0.00000000000E+00 -0.81920390856E+03  0.81920390856E+03  0.25500000920E-02 0.  1.
    10030    2    1    2    0    0  0.00000000000E+00  0.00000000000E+00  0.39912488162E+03  0.20375326988E+04  0.19980587647E+04 0.  0.
        2    1    3    3  502    0 -0.22197636212E+03 -0.84347887676E+03  0.69635178372E+03  0.11160806098E+04  0.25500000920E-02 0. -1.
       -2    1    3    3    0  502  0.22197636212E+03  0.84347887676E+03 -0.29722690210E+03  0.92145208894E+03  0.25500000920E-02 0.  1.
</event>
<event>
 5   0  0.8861350E-05  0.1909181E+04  0.7818609E-02  0.8650300E-01
        1   -1    0    0  501    0  0.00000000000E+00  0.00000000000E+00  0.12897307450E+04  0.12897307450E+04  0.50400001928E-02 0. -1.
       -1   -1    0    0    0  501  0.00000000000E+00  0.00000000000E+00 -0.70653770532E+03  0.70653770533E+03  0.50400001928E-02 0.  1.
    10030    2    1    2    0    0  0.00000000000E+00  0.00000000000E+00  0.58319303965E+03  0.19962684503E+04  0.19091813964E+04 0.  0.
        1    1    3    3  502    0 -0.64676394090E+03  0.67187354982E+03  0.50467050729E+03  0.10603819987E+04  0.50400001928E-02 0. -1.
       -1    1    3    3    0  502  0.64676394090E+03 -0.67187354982E+03  0.78522532358E+02  0.93588645161E+03  0.50400001928E-02 0.  1.
</event>
<event>
 5   0  0.8577422E-05  0.2019760E+04  0.7818609E-02  0.8597438E-01
       -1   -1    0    0    0  501  0.00000000000E+00  0.00000000000E+00  0.77056866976E+03  0.77056866978E+03  0.50400001928E-02 0. -1.
        1   -1    0    0  501    0  0.00000000000E+00  0.00000000000E+00 -0.13235126601E+04  0.13235126601E+04  0.50400001928E-02 0.  1.
    10030    2    1    2    0    0  0.00000000000E+00  0.00000000000E+00 -0.55294399033E+03  0.20940813299E+04  0.20197597777E+04 0.  0.
        2    1    3    3  502    0  0.47006422716E+03  0.57871683882E+03  0.42975652102E+03  0.86056041307E+03  0.25500000920E-02 0. -1.
       -2    1    3    3    0  502 -0.47006422716E+03 -0.57871683882E+03 -0.98270051135E+03  0.12335209168E+04  0.25500000920E-02 0.  1.
</event>
<event>
 5   0  0.8765057E-05  0.1954856E+04  0.7818609E-02  0.8628023E-01
        1   -1    0    0  501    0  0.00000000000E+00  0.00000000000E+00  0.11501514369E+04  0.11501514369E+04  0.50400001928E-02 0.  1.
       -1   -1    0    0    0  501  0.00000000000E+00  0.00000000000E+00 -0.83064281595E+03  0.83064281596E+03  0.50400001928E-02 0. -1.
    10030    2    1    2    0    0  0.00000000000E+00  0.00000000000E+00  0.31950862098E+03  0.19807942529E+04  0.19548555224E+04 0.  0.
        3    1    3    3  502    0 -0.47066021120E+02 -0.64227672399E+03 -0.58527771287E+03  0.87022101325E+03  0.10100000352E+00 0. -1.
       -3    1    3    3    0  502  0.47066021120E+02  0.64227672399E+03  0.90478633384E+03  0.11105732397E+04  0.10100000352E+00 0.  1.
</event>
<event>
 5   0  0.8958919E-05  0.2007915E+04  0.7818609E-02  0.8602929E-01
        1   -1    0    0  501    0  0.00000000000E+00  0.00000000000E+00  0.10616058426E+04  0.10616058426E+04  0.50400001928E-02 0. -1.
       -1   -1    0    0    0  501  0.00000000000E+00  0.00000000000E+00 -0.94943987338E+03  0.94943987340E+03  0.50400001928E-02 0.  1.
    10030    2    1    2    0    0  0.00000000000E+00  0.00000000000E+00  0.11216596924E+03  0.20110457160E+04  0.20079152540E+04 0.  0.
        4    1    3    3  502    0  0.34503139907E+03 -0.87174567191E+03 -0.30356196770E+03  0.98546367968E+03  0.12699999809E+01 0.  1.
       -4    1    3    3    0  502 -0.34503139907E+03  0.87174567191E+03  0.41572793694E+03  0.10255820364E+04  0.12699999809E+01 0. -1.
</event>
<event>
 5   0  0.1893687E-04  0.2004600E+04  0.7818609E-02  0.8604473E-01
        2   -1    0    0  501    0  0.00000000000E+00  0.00000000000E+00  0.20733502897E+04  0.20733502897E+04  0.25500000920E-02 0. -1.
       -2   -1    0    0    0  501  0.00000000000E+00  0.00000000000E+00 -0.48453225232E+03  0.48453225233E+03  0.25500000920E-02 0.  1.
    10030    2    1    2    0    0  0.00000000000E+00  0.00000000000E+00  0.15888180374E+04  0.25578825420E+04  0.20045997962E+04 0.  0.
        4    1    3    3  502    0  0.40572494582E+03  0.71395652440E+03  0.15277041726E+04  0.17344244874E+04  0.12699999809E+01 0. -1.
       -4    1    3    3    0  502 -0.40572494582E+03 -0.71395652440E+03  0.61113864718E+02  0.82345805464E+03  0.12699999809E+01 0.  1.
</event>
<event>
 5   0  0.1782172E-04  0.2034703E+04  0.7818609E-02  0.8590566E-01
       -2   -1    0    0    0  501  0.00000000000E+00  0.00000000000E+00  0.71391594688E+03  0.71391594688E+03  0.25500000920E-02 0. -1.
        2   -1    0    0  501    0  0.00000000000E+00  0.00000000000E+00 -0.14497560719E+04  0.14497560719E+04  0.25500000920E-02 0.  1.
    10030    2    1    2    0    0  0.00000000000E+00  0.00000000000E+00 -0.73584012499E+03  0.21636720188E+04  0.20347029059E+04 0.  0.
        2    1    3    3  502    0  0.90249985523E+03 -0.20816825718E+03  0.79667614789E+02  0.92961655581E+03  0.25500000920E-02 0. -1.
       -2    1    3    3    0  502 -0.90249985523E+03  0.20816825718E+03 -0.81550773978E+03  0.12340554629E+04  0.25500000920E-02 0.  1.
</event>
<event>
 5   0  0.1807498E-04  0.1996886E+04  0.7818609E-02  0.8608078E-01
        2   -1    0    0  501    0  0.00000000000E+00  0.00000000000E+00  0.13070973413E+04  0.13070973413E+04  0.25500000920E-02 0. -1.
       -2   -1    0    0    0  501  0.00000000000E+00  0.00000000000E+00 -0.76267337718E+03  0.76267337718E+03  0.25500000920E-02 0.  1.
    10030    2    1    2    0    0  0.00000000000E+00  0.00000000000E+00  0.54442396411E+03  0.20697707185E+04  0.19968859192E+04 0.  0.
        5    1    3    3  502    0  0.54447487172E+03  0.64198989977E+03  0.82870911989E+03  0.11812640741E+04  0.46999998093E+01 0. -1.
       -5    1    3    3    0  502 -0.54447487172E+03 -0.64198989977E+03 -0.28428515578E+03  0.88850664439E+03  0.46999998093E+01 0.  1.
</event>
<event>
 5   0  0.1812865E-04  0.2034860E+04  0.7818609E-02  0.8590494E-01
       -2   -1    0    0    0  501  0.00000000000E+00  0.00000000000E+00  0.67508424310E+03  0.67508424310E+03  0.25500000920E-02 0.  1.
        2   -1    0    0  501    0  0.00000000000E+00  0.00000000000E+00 -0.15333839979E+04  0.15333839979E+04  0.25500000920E-02 0. -1.
    10030    2    1    2    0    0  0.00000000000E+00  0.00000000000E+00 -0.85829975476E+03  0.22084682410E+04  0.20348595780E+04 0.  0.
        3    1    3    3  502    0  0.23929478875E+03  0.98796898186E+03 -0.38286570407E+03  0.10862462256E+04  0.10100000352E+00 0. -1.
       -3    1    3    3    0  502 -0.23929478875E+03 -0.98796898186E+03 -0.47543405068E+03  0.11222220154E+04  0.10100000352E+00 0.  1.
</event>
<event>
 5   0  0.1834645E-04  0.1976185E+04  0.7818609E-02  0.8617836E-01
        2   -1    0    0  501    0  0.00000000000E+00  0.00000000000E+00  0.15955554486E+04  0.15955554486E+04  0.25500000920E-02 0.  1.
       -2   -1    0    0    0  501  0.00000000000E+00  0.00000000000E+00 -0.61190424034E+03  0.61190424034E+03  0.25500000920E-02 0. -1.
    10030    2    1    2    0    0  0.00000000000E+00  0.00000000000E+00  0.98365120826E+03  0.22074596889E+04  0.19761853604E+04 0.  0.
        1    1    3    3  502    0 -0.49801958901E+03  0.82714319497E+03  0.25714873215E+03  0.99915706798E+03  0.50400001928E-02 0.  1.
       -1    1    3    3    0  502  0.49801958901E+03 -0.82714319497E+03  0.72650247611E+03  0.12083026210E+04  0.50400001928E-02 0. -1.
</event>
<event>
 5   0  0.8765057E-05  0.1966284E+04  0.7818609E-02  0.8622548E-01
        1   -1    0    0  501    0  0.00000000000E+00  0.00000000000E+00  0.11265728689E+04  0.11265728689E+04  0.50400001928E-02 0.  1.
       -1   -1    0    0    0  501  0.00000000000E+00  0.00000000000E+00 -0.85797240299E+03  0.85797240301E+03  0.50400001928E-02 0. -1.
    10030    2    1    2    0    0  0.00000000000E+00  0.00000000000E+00  0.26860046593E+03  0.19845452719E+04  0.19662842435E+04 0.  0.
        3    1    3    3  502    0 -0.30098914961E+03 -0.91120563067E+03 -0.81409354593E+02  0.96307718422E+03  0.10100000352E+00 0.  1.
       -3    1    3    3    0  502  0.30098914961E+03  0.91120563067E+03  0.35000982052E+03  0.10214680877E+04  0.10100000352E+00 0. -1.
</event>
<event>
 5   0  0.8765057E-05  0.1965107E+04  0.7818609E-02  0.8623110E-01
       -1   -1    0    0    0  501  0.00000000000E+00  0.00000000000E+00  0.73153081217E+03  0.73153081219E+03  0.50400001928E-02 0. -1.
        1   -1    0    0  501    0  0.00000000000E+00  0.00000000000E+00 -0.13197142148E+04  0.13197142148E+04  0.50400001928E-02 0.  1.
    10030    2    1    2    0    0  0.00000000000E+00  0.00000000000E+00 -0.58818340264E+03  0.20512450270E+04  0.19651072352E+04 0.  0.
        3    1    3    3  502    0  0.20447374184E+03 -0.52752185289E+03  0.54444057942E+03  0.78517792321E+03  0.10100000352E+00 0. -1.
       -3    1    3    3    0  502 -0.20447374184E+03  0.52752185289E+03 -0.11326239821E+04  0.12660671038E+04  0.10100000352E+00 0.  1.
</event>
<event>
 5   0  0.1807498E-04  0.1992752E+04  0.7818609E-02  0.8610017E-01
        2   -1    0    0  501    0  0.00000000000E+00  0.00000000000E+00  0.11541231644E+04  0.11541231644E+04  0.25500000920E-02 0.  1.
       -2   -1    0    0    0  501  0.00000000000E+00  0.00000000000E+00 -0.86018951317E+03  0.86018951317E+03  0.25500000920E-02 0. -1.
    10030    2    1    2    0    0  0.00000000000E+00  0.00000000000E+00  0.29393365127E+03  0.20143126776E+04  0.19927515078E+04 0.  0.
        5    1    3    3  502    0 -0.54593874503E+03  0.61784310489E+03  0.71245102160E+03  0.10896732372E+04  0.46999998093E+01 0.  1.
       -5    1    3    3    0  502  0.54593874503E+03 -0.61784310489E+03 -0.41851737034E+03  0.92463944046E+03  0.46999998093E+01 0. -1.
</event>
<event>
 5   0  0.8958919E-05  0.2057639E+04  0.7818609E-02  0.8580137E-01
        1   -1    0    0  501    0  0.00000000000E+00  0.00000000000E+00  0.15260478900E+04  0.15260478900E+04  0.50400001928E-02 0. -1.
       -1   -1    0    0    0  501  0.00000000000E+00  0.00000000000E+00 -0.69360199589E+03  0.69360199590E+03  0.50400001928E-02 0.  1.
    10030    2    1    2    0    0  0.00000000000E+00  0.00000000000E+00  0.83244589407E+03  0.22196498859E+04  0.20576392904E+04 0.  0.
        4    1    3    3  502    0  0.52214710821E+03  0.85218673308E+03  0.15285129162E+03  0.10110514136E+04  0.12699999809E+01 0.  1.
       -4    1    3    3    0  502 -0.52214710821E+03 -0.85218673308E+03  0.67959460246E+03  0.12085984723E+04  0.12699999809E+01 0. -1.
</event>
<event>
 5   0  0.1834645E-04  0.2005876E+04  0.7818609E-02  0.8603878E-01
        2   -1    0    0  501    0  0.00000000000E+00  0.00000000000E+00  0.10380638199E+04  0.10380638199E+04  0.25500000920E-02 0. -1.
       -2   -1    0    0    0  501  0.00000000000E+00  0.00000000000E+00 -0.96900114053E+03  0.96900114054E+03  0.25500000920E-02 0.  1.
    10030    2    1    2    0    0  0.00000000000E+00  0.00000000000E+00  0.69062679400E+02  0.20070649605E+04  0.20058763925E+04 0.  0.
        1    1    3    3  502    0 -0.47729284989E+03 -0.35981997983E+03 -0.77130674874E+03  0.97580376261E+03  0.50400001928E-02 0.  1.
       -1    1    3    3    0  502  0.47729284989E+03  0.35981997983E+03  0.84036942814E+03  0.10312611979E+04  0.50400001928E-02 0. -1.
</event>
<event>
 5   0  0.1812865E-04  0.2028335E+04  0.7818609E-02  0.8593487E-01
       -2   -1    0    0    0  501  0.00000000000E+00  0.00000000000E+00  0.25708747868E+04  0.25708747868E+04  0.25500000920E-02 0.  1.
        2   -1    0    0  501    0  0.00000000000E+00  0.00000000000E+00 -0.40007211604E+03  0.40007211604E+03  0.25500000920E-02 0. -1.
    10030    2    1    2    0    0  0.00000000000E+00  0.00000000000E+00  0.21708026708E+04  0.29709469029E+04  0.20283346036E+04 0.  0.
        3    1    3    3  502    0  0.22928340984E+03 -0.97495237558E+03  0.85181468624E+03  0.13147970515E+04  0.10100000352E+00 0. -1.
       -3    1    3    3    0  502 -0.22928340984E+03  0.97495237558E+03  0.13189879846E+04  0.16561498514E+04  0.10100000352E+00 0.  1.
</event>
<event>
 5   0  0.8765057E-05  0.2006466E+04  0.7818609E-02  0.8603604E-01
       -1   -1    0    0    0  501  0.00000000000E+00  0.00000000000E+00  0.85284792231E+03  0.85284792232E+03  0.50400001928E-02 0. -1.
        1   -1    0    0  501    0  0.00000000000E+00  0.00000000000E+00 -0.11801353186E+04  0.11801353186E+04  0.50400001928E-02 0.  1.
    10030    2    1    2    0    0  0.00000000000E+00  0.00000000000E+00 -0.32728739626E+03  0.20329832409E+04  0.20064655038E+04 0.  0.
        3    1    3    3  502    0 -0.46721393606E+03  0.86871529515E+03  0.21862919339E+02  0.98662714513E+03  0.10100000352E+00 0. -1.
       -3    1    3    3    0  502  0.46721393606E+03 -0.86871529515E+03 -0.34915031560E+03  0.10463560958E+04  0.10100000352E+00 0.  1.
</event>
<event>
 5   0  0.1812865E-04  0.2036310E+04  0.7818609E-02  0.8589830E-01
       -2   -1    0    0    0  501  0.00000000000E+00  0.00000000000E+00  0.58780141096E+03  0.58780141096E+03  0.25500000920E-02 0.  1.
        2   -1    0    0  501    0  0.00000000000E+00  0.00000000000E+00 -0.17635882486E+04  0.17635882486E+04  0.25500000920E-02 0. -1.
    10030    2    1    2    0    0  0.00000000000E+00  0.00000000000E+00 -0.11757868377E+04  0.23513896596E+04  0.20363100559E+04 0.  0.
        3    1    3    3  502    0  0.28286268932E+03  0.48442968431E+03 -0.15690450552E+04  0.16663090396E+04  0.10100000352E+00 0. -1.
       -3    1    3    3    0  502 -0.28286268932E+03 -0.48442968431E+03  0.39325821751E+03  0.68508062000E+03  0.10100000352E+00 0.  1.
</event>
<event>
 5   0  0.1834645E-04  0.2040080E+04  0.7818609E-02  0.8588108E-01
       -2   -1    0    0    0  501  0.00000000000E+00  0.00000000000E+00  0.59834545113E+03  0.59834545114E+03  0.25500000920E-02 0.  1.
        2   -1    0    0  501    0  0.00000000000E+00  0.00000000000E+00 -0.17389320938E+04  0.17389320938E+04  0.25500000920E-02 0. -1.
    10030    2    1    2    0    0  0.00000000000E+00  0.00000000000E+00 -0.11405866427E+04  0.23372775449E+04  0.20400804966E+04 0.  0.
        1    1    3    3  502    0 -0.66270333374E+03 -0.76534559095E+03 -0.71317069244E+03  0.12383626362E+04  0.50400001928E-02 0.  1.
       -1    1    3    3    0  502  0.66270333374E+03  0.76534559095E+03 -0.42741595024E+03  0.10989149088E+04  0.50400001928E-02 0. -1.
</event>
<event>
 5   0  0.8577422E-05  0.2172140E+04  0.7818609E-02  0.8530114E-01
        1   -1    0    0  501    0  0.00000000000E+00  0.00000000000E+00  0.14986002362E+04  0.14986002362E+04  0.50400001928E-02 0. -1.
       -1   -1    0    0    0  501  0.00000000000E+00  0.00000000000E+00 -0.78709988303E+03  0.78709988305E+03  0.50400001928E-02 0.  1.
    10030    2    1    2    0    0  0.00000000000E+00  0.00000000000E+00  0.71150035320E+03  0.22857001193E+04  0.21721400237E+04 0.  0.
        2    1    3    3  502    0 -0.66951460627E+03  0.26904787292E+03 -0.49842112955E+03  0.87696076783E+03  0.25500000920E-02 0.  1.
       -2    1    3    3    0  502  0.66951460627E+03 -0.26904787292E+03  0.12099214827E+04  0.14087393515E+04  0.25500000920E-02 0. -1.
</event>
<event>
 5   0  0.1893687E-04  0.2047427E+04  0.7818609E-02  0.8584762E-01
       -2   -1    0    0    0  501  0.00000000000E+00  0.00000000000E+00  0.10523989886E+04  0.10523989886E+04  0.25500000920E-02 0.  1.
        2   -1    0    0  501    0  0.00000000000E+00  0.00000000000E+00 -0.99581019394E+03  0.99581019394E+03  0.25500000920E-02 0. -1.
    10030    2    1    2    0    0  0.00000000000E+00  0.00000000000E+00  0.56588794705E+02  0.20482091826E+04  0.20474273037E+04 0.  0.
        4    1    3    3  502    0 -0.24345692619E+03  0.28754736026E+03 -0.92392690013E+03  0.99779621616E+03  0.12699999809E+01 0. -1.
       -4    1    3    3    0  502  0.24345692619E+03 -0.28754736026E+03  0.98051569484E+03  0.10504129664E+04  0.12699999809E+01 0.  1.
</event>
<event>
 5   0  0.1782172E-04  0.1967317E+04  0.7818609E-02  0.8622055E-01
       -2   -1    0    0    0  501  0.00000000000E+00  0.00000000000E+00  0.23493066303E+04  0.23493066303E+04  0.25500000920E-02 0.  1.
        2   -1    0    0  501    0  0.00000000000E+00  0.00000000000E+00 -0.41185954854E+03  0.41185954854E+03  0.25500000920E-02 0. -1.
    10030    2    1    2    0    0  0.00000000000E+00  0.00000000000E+00  0.19374470818E+04  0.27611661788E+04  0.19673173289E+04 0.  0.
        2    1    3    3  502    0  0.82780611521E+02  0.74770178424E+03  0.18582418047E+04  0.20047376867E+04  0.25500000920E-02 0.  1.
       -2    1    3    3    0  502 -0.82780611521E+02 -0.74770178424E+03  0.79205277072E+02  0.75642849214E+03  0.25500000920E-02 0. -1.
</event>
<event>
 5   0  0.8765057E-05  0.2014316E+04  0.7818609E-02  0.8599956E-01
       -1   -1    0    0    0  501  0.00000000000E+00  0.00000000000E+00  0.17263833540E+04  0.17263833541E+04  0.50400001928E-02 0.  1.
        1   -1    0    0  501    0  0.00000000000E+00  0.00000000000E+00 -0.58756802046E+03  0.58756802048E+03  0.50400001928E-02 0. -1.
    10030    2    1    2    0    0  0.00000000000E+00  0.00000000000E+00  0.11388153336E+04  0.23139513745E+04  0.20143164100E+04 0.  0.
        3    1    3    3  502    0  0.87147208815E+02 -0.23782816626E+03 -0.55038214343E+03  0.60586911679E+03  0.10100000352E+00 0. -1.
       -3    1    3    3    0  502 -0.87147208815E+02  0.23782816626E+03  0.16891974770E+04  0.17080822577E+04  0.10100000352E+00 0.  1.
</event>
<event>
 5   0  0.8958919E-05  0.2001704E+04  0.7818609E-02  0.8605824E-01
       -1   -1    0    0    0  501  0.00000000000E+00  0.00000000000E+00  0.73857432581E+03  0.73857432583E+03  0.50400001928E-02 0.  1.
        1   -1    0    0  501    0  0.00000000000E+00  0.00000000000E+00 -0.13562677727E+04  0.13562677727E+04  0.50400001928E-02 0. -1.
    10030    2    1    2    0    0  0.00000000000E+00  0.00000000000E+00 -0.61769344690E+03  0.20948420985E+04  0.20017038301E+04 0.  0.
        4    1    3    3  502    0  0.28041436517E+03  0.24689903664E+03  0.66285554215E+03  0.76090106659E+03  0.12699999809E+01 0.  1.
       -4    1    3    3    0  502 -0.28041436517E+03 -0.24689903664E+03 -0.12805489890E+04  0.13339410320E+04  0.12699999809E+01 0. -1.
</event>
<event>
 5   0  0.8881384E-05  0.1990804E+04  0.7818609E-02  0.8610932E-01
       -1   -1    0    0    0  501  0.00000000000E+00  0.00000000000E+00  0.51704596218E+03  0.51704596221E+03  0.50400001928E-02 0. -1.
        1   -1    0    0  501    0  0.00000000000E+00  0.00000000000E+00 -0.19163185878E+04  0.19163185878E+04  0.50400001928E-02 0.  1.
    10030    2    1    2    0    0  0.00000000000E+00  0.00000000000E+00 -0.13992726256E+04  0.24333645500E+04  0.19908036449E+04 0.  0.
        5    1    3    3  502    0 -0.31647113047E+03 -0.68988201700E+03 -0.14867759851E+04  0.16693160557E+04  0.46999998093E+01 0.  1.
       -5    1    3    3    0  502  0.31647113047E+03  0.68988201700E+03  0.87503359495E+02  0.76404849435E+03  0.46999998093E+01 0. -1.
</event>
<event>
 5   0  0.8958919E-05  0.2001202E+04  0.7818609E-02  0.8606059E-01
       -1   -1    0    0    0  501  0.00000000000E+00  0.00000000000E+00  0.14401635333E+04  0.14401635333E+04  0.50400001928E-02 0.  1.
        1   -1    0    0  501    0  0.00000000000E+00  0.00000000000E+00 -0.69520023945E+03  0.69520023947E+03  0.50400001928E-02 0. -1.
    10030    2    1    2    0    0  0.00000000000E+00  0.00000000000E+00  0.74496329384E+03  0.21353637728E+04  0.20012016722E+04 0.  0.
        4    1    3    3  502    0 -0.44290771594E+03  0.41477255004E+03  0.12214310502E+04  0.13638544411E+04  0.12699999809E+01 0.  1.
       -4    1    3    3    0  502  0.44290771594E+03 -0.41477255004E+03 -0.47646775638E+03  0.77150933169E+03  0.12699999809E+01 0. -1.
</event>
<event>
 5   0  0.8861350E-05  0.2006351E+04  0.7818609E-02  0.8603657E-01
       -1   -1    0    0    0  501  0.00000000000E+00  0.00000000000E+00  0.61694762503E+03  0.61694762505E+03  0.50400001928E-02 0.  1.
        1   -1    0    0  501    0  0.00000000000E+00  0.00000000000E+00 -0.16311935845E+04  0.16311935845E+04  0.50400001928E-02 0. -1.
    10030    2    1    2    0    0  0.00000000000E+00  0.00000000000E+00 -0.10142459595E+04  0.22481412096E+04  0.20063509244E+04 0.  0.
        1    1    3    3  502    0  0.79494030435E+03 -0.56595139260E+03 -0.76781964136E+03  0.12416835619E+04  0.50400001928E-02 0. -1.
       -1    1    3    3    0  502 -0.79494030435E+03  0.56595139260E+03 -0.24642631815E+03  0.10064576477E+04  0.50400001928E-02 0.  1.
</event>
<event>
 5   0  0.1807498E-04  0.1989514E+04  0.7818609E-02  0.8611539E-01
       -2   -1    0    0    0  501  0.00000000000E+00  0.00000000000E+00  0.78726988281E+03  0.78726988281E+03  0.25500000920E-02 0.  1.
        2   -1    0    0  501    0  0.00000000000E+00  0.00000000000E+00 -0.12569280276E+04  0.12569280276E+04  0.25500000920E-02 0. -1.
    10030    2    1    2    0    0  0.00000000000E+00  0.00000000000E+00 -0.46965814479E+03  0.20441979104E+04  0.19895140924E+04 0.  0.
        5    1    3    3  502    0 -0.24030788273E+03 -0.84196567865E+03 -0.71989107240E+03  0.11335428217E+04  0.46999998093E+01 0. -1.
       -5    1    3    3    0  502  0.24030788273E+03  0.84196567865E+03  0.25023292761E+03  0.91065508870E+03  0.46999998093E+01 0.  1.
</event>
<event>
 5   0  0.8958919E-05  0.1539361E+04  0.7818609E-02  0.8858692E-01
       -1   -1    0    0    0  501  0.00000000000E+00  0.00000000000E+00  0.62712936669E+03  0.62712936671E+03  0.50400001928E-02 0. -1.
        1   -1    0    0  501    0  0.00000000000E+00  0.00000000000E+00 -0.94463449748E+03  0.94463449749E+03  0.50400001928E-02 0.  1.
    10030    2    1    2    0    0  0.00000000000E+00  0.00000000000E+00 -0.31750513079E+03  0.15717638642E+04  0.15393609508E+04 0.  0.
        4    1    3    3  502    0 -0.19261640569E+03 -0.33696470550E+03 -0.83739356279E+03  0.92297122620E+03  0.12699999809E+01 0.  1.
       -4    1    3    3    0  502  0.19261640569E+03  0.33696470550E+03  0.51988843200E+03  0.64879263800E+03  0.12699999809E+01 0. -1.
</event>
<event>
 5   0  0.6531625E-05  0.2009414E+04  0.7818609E-02  0.8602232E-01
       -4   -1    0    0    0  501  0.00000000000E+00  0.00000000000E+00  0.59793470704E+03  0.59793605576E+03  0.12699999809E+01 0.  1.
        4   -1    0    0  501    0  0.00000000000E+00  0.00000000000E+00 -0.16882006016E+04  0.16882010793E+04  0.12699999809E+01 0. -1.
    10030    2    1    2    0    0  0.00000000000E+00  0.00000000000E+00 -0.10902658946E+04  0.22861371351E+04  0.20094136656E+04 0.  0.
        4    1    3    3  502    0 -0.55885081456E+03 -0.54991874467E+03 -0.12599116977E+04  0.14839487719E+04  0.12699999809E+01 0. -1.
       -4    1    3    3    0  502  0.55885081456E+03  0.54991874467E+03  0.16964580310E+03  0.80218836322E+03  0.12699999809E+01 0.  1.
</event>
<event>
 5   0  0.1812865E-04  0.1966995E+04  0.7818609E-02  0.8622209E-01
       -2   -1    0    0    0  501  0.00000000000E+00  0.00000000000E+00  0.13182711731E+04  0.13182711731E+04  0.25500000920E-02 0.  1.
        2   -1    0    0  501    0  0.00000000000E+00  0.00000000000E+00 -0.73373916097E+03  0.73373916098E+03  0.25500000920E-02 0. -1.
    10030    2    1    2    0    0  0.00000000000E+00  0.00000000000E+00  0.58453201213E+03  0.20520103341E+04  0.19669948495E+04 0.  0.
        3    1    3    3  502    0 -0.17532569721E+03  0.28567549964E+03 -0.67231442185E+03  0.75123650286E+03  0.10100000352E+00 0. -1.
       -3    1    3    3    0  502  0.17532569721E+03 -0.28567549964E+03  0.12568464340E+04  0.13007738312E+04  0.10100000352E+00 0.  1.
</event>
<event>
 5   0  0.1812865E-04  0.1984594E+04  0.7818609E-02  0.8613858E-01
       -2   -1    0    0    0  501  0.00000000000E+00  0.00000000000E+00  0.69505730999E+03  0.69505730999E+03  0.25500000920E-02 0.  1.
        2   -1    0    0  501    0  0.00000000000E+00  0.00000000000E+00 -0.14166500518E+04  0.14166500518E+04  0.25500000920E-02 0. -1.
    10030    2    1    2    0    0  0.00000000000E+00  0.00000000000E+00 -0.72159274183E+03  0.21117073618E+04  0.19845936352E+04 0.  0.
        3    1    3    3  502    0 -0.45823309414E+03  0.31159767203E+03  0.51508070880E+03  0.75655721830E+03  0.10100000352E+00 0.  1.
       -3    1    3    3    0  502  0.45823309414E+03 -0.31159767203E+03 -0.12366734506E+04  0.13551501435E+04  0.10100000352E+00 0. -1.
</event>
<event>
 5   0  0.8881384E-05  0.1994896E+04  0.7818609E-02  0.8609011E-01
        1   -1    0    0  501    0  0.00000000000E+00  0.00000000000E+00  0.11843678669E+04  0.11843678669E+04  0.50400001928E-02 0. -1.
       -1   -1    0    0    0  501  0.00000000000E+00  0.00000000000E+00 -0.84002825325E+03  0.84002825326E+03  0.50400001928E-02 0.  1.
    10030    2    1    2    0    0  0.00000000000E+00  0.00000000000E+00  0.34433961361E+03  0.20243961201E+04  0.19948959576E+04 0.  0.
        5    1    3    3  502    0  0.31784636476E+03 -0.64343289688E+03 -0.53078461993E+03  0.89262904228E+03  0.46999998093E+01 0.  1.
       -5    1    3    3    0  502 -0.31784636476E+03  0.64343289688E+03  0.87512423354E+03  0.11317670778E+04  0.46999998093E+01 0. -1.
</event>
<event>
 5   0  0.1807498E-04  0.2002843E+04  0.7818609E-02  0.8605292E-01
        2   -1    0    0  501    0  0.00000000000E+00  0.00000000000E+00  0.11703625977E+04  0.11703625977E+04  0.25500000920E-02 0.  1.
       -2   -1    0    0    0  501  0.00000000000E+00  0.00000000000E+00 -0.85686734154E+03  0.85686734155E+03  0.25500000920E-02 0. -1.
    10030    2    1    2    0    0  0.00000000000E+00  0.00000000000E+00  0.31349525614E+03  0.20272299392E+04  0.20028434664E+04 0.  0.
        5    1    3    3  502    0  0.69448850405E+03  0.66995086537E+03  0.42772917224E+03  0.10555201462E+04  0.46999998093E+01 0.  1.
       -5    1    3    3    0  502 -0.69448850405E+03 -0.66995086537E+03 -0.11423391610E+03  0.97170979302E+03  0.46999998093E+01 0. -1.
</event>
<event>
 5   0  0.1812865E-04  0.1994162E+04  0.7818609E-02  0.8609355E-01
        2   -1    0    0  501    0  0.00000000000E+00  0.00000000000E+00  0.21337660551E+04  0.21337660551E+04  0.25500000920E-02 0.  1.
       -2   -1    0    0    0  501  0.00000000000E+00  0.00000000000E+00 -0.46592271075E+03  0.46592271076E+03  0.25500000920E-02 0. -1.
    10030    2    1    2    0    0  0.00000000000E+00  0.00000000000E+00  0.16678433444E+04  0.25996887659E+04  0.19941615426E+04 0.  0.
        3    1    3    3  502    0  0.14875868262E+03 -0.92217791896E+03  0.37926955074E+03  0.10081600380E+04  0.10100000352E+00 0.  1.
       -3    1    3    3    0  502 -0.14875868262E+03  0.92217791896E+03  0.12885737936E+04  0.15915287279E+04  0.10100000352E+00 0. -1.
</event>
<event>
 5   0  0.8765057E-05  0.2011169E+04  0.7818609E-02  0.8601416E-01
        1   -1    0    0  501    0  0.00000000000E+00  0.00000000000E+00  0.31474111228E+04  0.31474111228E+04  0.50400001928E-02 0.  1.
       -1   -1    0    0    0  501  0.00000000000E+00  0.00000000000E+00 -0.32128004340E+03  0.32128004344E+03  0.50400001928E-02 0. -1.
    10030    2    1    2    0    0  0.00000000000E+00  0.00000000000E+00  0.28261310794E+04  0.34686911662E+04  0.20111691945E+04 0.  0.
        3    1    3    3  502    0  0.89298219032E+03  0.56452539226E+02  0.22045499858E+04  0.23792109472E+04  0.10100000352E+00 0.  1.
       -3    1    3    3    0  502 -0.89298219032E+03 -0.56452539226E+02  0.62158109358E+03  0.10894802190E+04  0.10100000352E+00 0. -1.
</event>
<event>
 5   0  0.8765057E-05  0.2009468E+04  0.7818609E-02  0.8602207E-01
       -1   -1    0    0    0  501  0.00000000000E+00  0.00000000000E+00  0.22093521634E+04  0.22093521634E+04  0.50400001928E-02 0. -1.
        1   -1    0    0  501    0  0.00000000000E+00  0.00000000000E+00 -0.45691695628E+03  0.45691695631E+03  0.50400001928E-02 0.  1.
    10030    2    1    2    0    0  0.00000000000E+00  0.00000000000E+00  0.17524352071E+04  0.26662691197E+04  0.20094680549E+04 0.  0.
        3    1    3    3  502    0  0.52982750654E+03  0.37090094816E+03 -0.14399856739E+03  0.66258606810E+03  0.10100000352E+00 0.  1.
       -3    1    3    3    0  502 -0.52982750654E+03 -0.37090094816E+03  0.18964337745E+04  0.20036830516E+04  0.10100000352E+00 0. -1.
</event>
<event>
 5   0  0.8958919E-05  0.1963954E+04  0.7818609E-02  0.8623661E-01
       -1   -1    0    0    0  501  0.00000000000E+00  0.00000000000E+00  0.37709920939E+03  0.37709920942E+03  0.50400001928E-02 0.  1.
        1   -1    0    0  501    0  0.00000000000E+00  0.00000000000E+00 -0.25570969022E+04  0.25570969022E+04  0.50400001928E-02 0. -1.
    10030    2    1    2    0    0  0.00000000000E+00  0.00000000000E+00 -0.21799976928E+04  0.29341961116E+04  0.19639543989E+04 0.  0.
        4    1    3    3  502    0  0.44159974080E+02 -0.16220037673E+03  0.35544080283E+03  0.39319059340E+03  0.12699999809E+01 0.  1.
       -4    1    3    3    0  502 -0.44159974080E+02  0.16220037673E+03 -0.25354384956E+04  0.25410055182E+04  0.12699999809E+01 0. -1.
</event>
<event>
 5   0  0.1834645E-04  0.1983431E+04  0.7818609E-02  0.8614407E-01
       -2   -1    0    0    0  501  0.00000000000E+00  0.00000000000E+00  0.61480244545E+03  0.61480244545E+03  0.25500000920E-02 0.  1.
        2   -1    0    0  501    0  0.00000000000E+00  0.00000000000E+00 -0.15996994684E+04  0.15996994684E+04  0.25500000920E-02 0. -1.
    10030    2    1    2    0    0  0.00000000000E+00  0.00000000000E+00 -0.98489702295E+03  0.22145019139E+04  0.19834305081E+04 0.  0.
        1    1    3    3  502    0 -0.98602782680E+02 -0.98674799229E+03 -0.48100581540E+03  0.11021618318E+04  0.50400001928E-02 0.  1.
       -1    1    3    3    0  502  0.98602782680E+02  0.98674799229E+03 -0.50389120755E+03  0.11123400820E+04  0.50400001928E-02 0. -1.
</event>
<event>
 5   0  0.1807498E-04  0.1939855E+04  0.7818609E-02  0.8635269E-01
        2   -1    0    0  501    0  0.00000000000E+00  0.00000000000E+00  0.18761071292E+04  0.18761071292E+04  0.25500000920E-02 0. -1.
       -2   -1    0    0    0  501  0.00000000000E+00  0.00000000000E+00 -0.50144203752E+03  0.50144203752E+03  0.25500000920E-02 0.  1.
    10030    2    1    2    0    0  0.00000000000E+00  0.00000000000E+00  0.13746650917E+04  0.23775491667E+04  0.19398546146E+04 0.  0.
        5    1    3    3  502    0 -0.51694190144E+03  0.80002262615E+03  0.91156558166E+03  0.13184229335E+04  0.46999998093E+01 0.  1.
       -5    1    3    3    0  502  0.51694190144E+03 -0.80002262615E+03  0.46309951003E+03  0.10591262333E+04  0.46999998093E+01 0. -1.
</event>
<event>
 5   0  0.1782172E-04  0.1963219E+04  0.7818609E-02  0.8624013E-01
        2   -1    0    0  501    0  0.00000000000E+00  0.00000000000E+00  0.22387925174E+04  0.22387925174E+04  0.25500000920E-02 0. -1.
       -2   -1    0    0    0  501  0.00000000000E+00  0.00000000000E+00 -0.43039153069E+03  0.43039153070E+03  0.25500000920E-02 0.  1.
    10030    2    1    2    0    0  0.00000000000E+00  0.00000000000E+00  0.18084009867E+04  0.26691840481E+04  0.19632191304E+04 0.  0.
        2    1    3    3  502    0 -0.55512920683E+02  0.37880451837E+03 -0.32469852599E+03  0.50199968156E+03  0.25500000920E-02 0.  1.
       -2    1    3    3    0  502  0.55512920683E+02 -0.37880451837E+03  0.21330995127E+04  0.21671843665E+04  0.25500000920E-02 0. -1.
</event>
<event>
 5   0  0.1812865E-04  0.2020746E+04  0.7818609E-02  0.8596982E-01
       -2   -1    0    0    0  501  0.00000000000E+00  0.00000000000E+00  0.11562309028E+04  0.11562309028E+04  0.25500000920E-02 0. -1.
        2   -1    0    0  501    0  0.00000000000E+00  0.00000000000E+00 -0.88291489096E+03  0.88291489097E+03  0.25500000920E-02 0.  1.
    10030    2    1    2    0    0  0.00000000000E+00  0.00000000000E+00  0.27331601180E+03  0.20391457937E+04  0.20207458835E+04 0.  0.
        3    1    3    3  502    0  0.83324405834E+03 -0.56566469326E+03  0.21852168783E+03  0.10305454596E+04  0.10100000352E+00 0. -1.
       -3    1    3    3    0  502 -0.83324405834E+03  0.56566469326E+03  0.54794323967E+02  0.10086003342E+04  0.10100000352E+00 0.  1.
</event>
<event>
 5   0  0.8577422E-05  0.1994068E+04  0.7818609E-02  0.8609399E-01
       -1   -1    0    0    0  501  0.00000000000E+00  0.00000000000E+00  0.92180731991E+03  0.92180731992E+03  0.50400001928E-02 0.  1.
        1   -1    0    0  501    0  0.00000000000E+00  0.00000000000E+00 -0.10783993688E+04  0.10783993688E+04  0.50400001928E-02 0. -1.
    10030    2    1    2    0    0  0.00000000000E+00  0.00000000000E+00 -0.15659204893E+03  0.20002066888E+04  0.19940676338E+04 0.  0.
        2    1    3    3  502    0  0.25392370272E+03  0.50702331607E+03 -0.90089791890E+03  0.10645031471E+04  0.25500000920E-02 0. -1.
       -2    1    3    3    0  502 -0.25392370272E+03 -0.50702331607E+03  0.74430586997E+03  0.93570354169E+03  0.25500000920E-02 0.  1.
</event>
<event>
 5   0  0.8861350E-05  0.1851332E+04  0.7818609E-02  0.8679468E-01
        1   -1    0    0  501    0  0.00000000000E+00  0.00000000000E+00  0.10248978113E+04  0.10248978113E+04  0.50400001928E-02 0.  1.
       -1   -1    0    0    0  501  0.00000000000E+00  0.00000000000E+00 -0.83604223042E+03  0.83604223043E+03  0.50400001928E-02 0. -1.
    10030    2    1    2    0    0  0.00000000000E+00  0.00000000000E+00  0.18885558083E+03  0.18609400417E+04  0.18513323333E+04 0.  0.
        1    1    3    3  502    0 -0.16800050915E+03 -0.88015587867E+03 -0.13906914734E+03  0.90677382494E+03  0.50400001928E-02 0. -1.
       -1    1    3    3    0  502  0.16800050915E+03  0.88015587867E+03  0.32792472818E+03  0.95416621676E+03  0.50400001928E-02 0.  1.
</event>
<event>
 5   0  0.1812865E-04  0.1985763E+04  0.7818609E-02  0.8613306E-01
       -2   -1    0    0    0  501  0.00000000000E+00  0.00000000000E+00  0.68501979305E+03  0.68501979306E+03  0.25500000920E-02 0. -1.
        2   -1    0    0  501    0  0.00000000000E+00  0.00000000000E+00 -0.14391021900E+04  0.14391021900E+04  0.25500000920E-02 0.  1.
    10030    2    1    2    0    0  0.00000000000E+00  0.00000000000E+00 -0.75408239696E+03  0.21241219831E+04  0.19857628100E+04 0.  0.
        3    1    3    3  502    0  0.30876168308E+03  0.81481055462E+03 -0.88619268072E+03  0.12428143443E+04  0.10100000352E+00 0. -1.
       -3    1    3    3    0  502 -0.30876168308E+03 -0.81481055462E+03  0.13211028376E+03  0.88130763876E+03  0.10100000352E+00 0.  1.
</event>
<event>
 5   0  0.1807498E-04  0.1986451E+04  0.7818609E-02  0.8612981E-01
       -2   -1    0    0    0  501  0.00000000000E+00  0.00000000000E+00  0.56906767613E+03  0.56906767614E+03  0.25500000920E-02 0. -1.
        2   -1    0    0  501    0  0.00000000000E+00  0.00000000000E+00 -0.17335324706E+04  0.17335324706E+04  0.25500000920E-02 0.  1.
    10030    2    1    2    0    0  0.00000000000E+00  0.00000000000E+00 -0.11644647945E+04  0.23026001468E+04  0.19864514035E+04 0.  0.
        5    1    3    3  502    0  0.25406411899E+03 -0.20822264906E+03  0.50426516714E+03  0.60183942786E+03  0.46999998093E+01 0. -1.
       -5    1    3    3    0  502 -0.25406411899E+03  0.20822264906E+03 -0.16687299616E+04  0.17007607189E+04  0.46999998093E+01 0.  1.
</event>
<event>
 5   0  0.8765057E-05  0.1797988E+04  0.7818609E-02  0.8707370E-01
       -1   -1    0    0    0  501  0.00000000000E+00  0.00000000000E+00  0.10066233320E+04  0.10066233320E+04  0.50400001928E-02 0. -1.
        1   -1    0    0  501    0  0.00000000000E+00  0.00000000000E+00 -0.80287228474E+03  0.80287228475E+03  0.50400001928E-02 0.  1.
    10030    2    1    2    0    0  0.00000000000E+00  0.00000000000E+00  0.20375104728E+03  0.18094956168E+04  0.17979877357E+04 0.  0.
        3    1    3    3  502    0 -0.50217105768E+03 -0.52735820749E+03  0.63241897112E+03  0.96448754031E+03  0.10100000352E+00 0. -1.
       -3    1    3    3    0  502  0.50217105768E+03  0.52735820749E+03 -0.42866792384E+03  0.84500807648E+03  0.10100000352E+00 0.  1.
</event>
<event>
 5   0  0.8577422E-05  0.1532435E+04  0.7818609E-02  0.8863166E-01
        1   -1    0    0  501    0  0.00000000000E+00  0.00000000000E+00  0.65525393582E+03  0.65525393584E+03  0.50400001928E-02 0. -1.
       -1   -1    0    0    0  501  0.00000000000E+00  0.00000000000E+00 -0.89597229918E+03  0.89597229920E+03  0.50400001928E-02 0.  1.
    10030    2    1    2    0    0  0.00000000000E+00  0.00000000000E+00 -0.24071836336E+03  0.15512262350E+04  0.15324351542E+04 0.  0.
        2    1    3    3  502    0 -0.17783587482E+03  0.32829709860E+03  0.55693790221E+03  0.67051055939E+03  0.25500000920E-02 0. -1.
       -2    1    3    3    0  502  0.17783587482E+03 -0.32829709860E+03 -0.79765626557E+03  0.88071567565E+03  0.25500000920E-02 0.  1.
</event>
<event>
 5   0  0.8577422E-05  0.1983106E+04  0.7818609E-02  0.8614560E-01
        1   -1    0    0  501    0  0.00000000000E+00  0.00000000000E+00  0.11857131014E+04  0.11857131014E+04  0.50400001928E-02 0.  1.
       -1   -1    0    0    0  501  0.00000000000E+00  0.00000000000E+00 -0.82918683737E+03  0.82918683739E+03  0.50400001928E-02 0. -1.
    10030    2    1    2    0    0  0.00000000000E+00  0.00000000000E+00  0.35652626402E+03  0.20148999388E+04  0.19831063477E+04 0.  0.
        2    1    3    3  502    0  0.71515421025E+03  0.20807237278E+03  0.84330883364E+03  0.11251264132E+04  0.25500000920E-02 0.  1.
       -2    1    3    3    0  502 -0.71515421025E+03 -0.20807237278E+03 -0.48678256962E+03  0.88977352560E+03  0.25500000920E-02 0. -1.
</event>
<event>
 5   0  0.1893687E-04  0.2016253E+04  0.7818609E-02  0.8599059E-01
        2   -1    0    0  501    0  0.00000000000E+00  0.00000000000E+00  0.61091823844E+03  0.61091823844E+03  0.25500000920E-02 0.  1.
       -2   -1    0    0    0  501  0.00000000000E+00  0.00000000000E+00 -0.16635924838E+04  0.16635924838E+04  0.25500000920E-02 0. -1.
    10030    2    1    2    0    0  0.00000000000E+00  0.00000000000E+00 -0.10526742453E+04  0.22745107222E+04  0.20162529501E+04 0.  0.
        4    1    3    3  502    0 -0.66171741277E+03  0.84781369275E+02  0.32629111926E+03  0.74264750881E+03  0.12699999809E+01 0.  1.
       -4    1    3    3    0  502  0.66171741277E+03 -0.84781369275E+02 -0.13789653646E+04  0.15318632134E+04  0.12699999809E+01 0. -1.
</event>
<event>
 5   0  0.8881384E-05  0.2004565E+04  0.7818609E-02  0.8604489E-01
       -1   -1    0    0    0  501  0.00000000000E+00  0.00000000000E+00  0.59531061450E+03  0.59531061452E+03  0.50400001928E-02 0. -1.
        1   -1    0    0  501    0  0.00000000000E+00  0.00000000000E+00 -0.16874730957E+04  0.16874730957E+04  0.50400001928E-02 0.  1.
    10030    2    1    2    0    0  0.00000000000E+00  0.00000000000E+00 -0.10921624812E+04  0.22827837103E+04  0.20045654348E+04 0.  0.
        5    1    3    3  502    0 -0.70227390482E+03  0.71460736020E+03 -0.51603267884E+03  0.11270155865E+04  0.46999998093E+01 0.  1.
       -5    1    3    3    0  502  0.70227390482E+03 -0.71460736020E+03 -0.57612980239E+03  0.11557681237E+04  0.46999998093E+01 0. -1.
</event>
<event>
 5   0  0.1807498E-04  0.2027428E+04  0.7818609E-02  0.8593903E-01
       -2   -1    0    0    0  501  0.00000000000E+00  0.00000000000E+00  0.55752883378E+03  0.55752883379E+03  0.25500000920E-02 0. -1.
        2   -1    0    0  501    0  0.00000000000E+00  0.00000000000E+00 -0.18431624368E+04  0.18431624368E+04  0.25500000920E-02 0.  1.
    10030    2    1    2    0    0  0.00000000000E+00  0.00000000000E+00 -0.12856336030E+04  0.24006912705E+04  0.20274281283E+04 0.  0.
        5    1    3    3  502    0  0.90608510069E+03  0.24131987202E+03 -0.10989186995E+04  0.14446002521E+04  0.46999998093E+01 0.  1.
       -5    1    3    3    0  502 -0.90608510069E+03 -0.24131987202E+03 -0.18671490346E+03  0.95609101841E+03  0.46999998093E+01 0. -1.
</event>
<event>
 5   0  0.8577422E-05  0.2024769E+04  0.7818609E-02  0.8595127E-01
        1   -1    0    0  501    0  0.00000000000E+00  0.00000000000E+00  0.79810317396E+03  0.79810317397E+03  0.50400001928E-02 0. -1.
       -1   -1    0    0    0  501  0.00000000000E+00  0.00000000000E+00 -0.12841976770E+04  0.12841976770E+04  0.50400001928E-02 0.  1.
    10030    2    1    2    0    0  0.00000000000E+00  0.00000000000E+00 -0.48609450304E+03  0.20823008510E+04  0.20247688678E+04 0.  0.
        2    1    3    3  502    0  0.56728908054E+03 -0.75647789089E+03  0.12895806471E+03  0.95430911280E+03  0.25500000920E-02 0.  1.
       -2    1    3    3    0  502 -0.56728908054E+03  0.75647789089E+03 -0.61505256775E+03  0.11279917382E+04  0.25500000920E-02 0. -1.
</event>
<event>
 5   0  0.1834645E-04  0.2026771E+04  0.7818609E-02  0.8594206E-01
       -2   -1    0    0    0  501  0.00000000000E+00  0.00000000000E+00  0.15286160411E+04  0.15286160412E+04  0.25500000920E-02 0.  1.
        2   -1    0    0  501    0  0.00000000000E+00  0.00000000000E+00 -0.67181685581E+03  0.67181685582E+03  0.25500000920E-02 0. -1.
    10030    2    1    2    0    0  0.00000000000E+00  0.00000000000E+00  0.85679918533E+03  0.22004328970E+04  0.20267708529E+04 0.  0.
        1    1    3    3  502    0  0.67868834833E+03  0.33744812077E+03 -0.30188815333E+03  0.81585879018E+03  0.50400001928E-02 0. -1.
       -1    1    3    3    0  502 -0.67868834833E+03 -0.33744812077E+03  0.11586873387E+04  0.13845741068E+04  0.50400001928E-02 0.  1.
</event>
<event>
 5   0  0.8881384E-05  0.1956622E+04  0.7818609E-02  0.8627174E-01
        1   -1    0    0  501    0  0.00000000000E+00  0.00000000000E+00  0.59501329133E+03  0.59501329135E+03  0.50400001928E-02 0. -1.
       -1   -1    0    0    0  501  0.00000000000E+00  0.00000000000E+00 -0.16085234048E+04  0.16085234048E+04  0.50400001928E-02 0.  1.
    10030    2    1    2    0    0  0.00000000000E+00  0.00000000000E+00 -0.10135101134E+04  0.22035366961E+04  0.19566224013E+04 0.  0.
        5    1    3    3  502    0  0.20597134152E+02  0.62507924560E+03 -0.13539663025E+04  0.14914406269E+04  0.46999998093E+01 0.  1.
       -5    1    3    3    0  502 -0.20597134152E+02 -0.62507924560E+03  0.34045618904E+03  0.71209606927E+03  0.46999998093E+01 0. -1.
</event>
<event>
 5   0  0.8577422E-05  0.1999878E+04  0.7818609E-02  0.8606677E-01
       -1   -1    0    0    0  501  0.00000000000E+00  0.00000000000E+00  0.59670193436E+03  0.59670193438E+03  0.50400001928E-02 0. -1.
        1   -1    0    0  501    0  0.00000000000E+00  0.00000000000E+00 -0.16756749184E+04  0.16756749184E+04  0.50400001928E-02 0.  1.
    10030    2    1    2    0    0  0.00000000000E+00  0.00000000000E+00 -0.10789729840E+04  0.22723768528E+04  0.19998784615E+04 0.  0.
        2    1    3    3  502    0  0.61042225292E+03  0.72623846228E+03 -0.89851658722E+03  0.13066635713E+04  0.25500000920E-02 0.  1.
       -2    1    3    3    0  502 -0.61042225292E+03 -0.72623846228E+03 -0.18045639683E+03  0.96571328153E+03  0.25500000920E-02 0. -1.
</event>
<event>
 5   0  0.1782172E-04  0.1687449E+04  0.7818609E-02  0.8768555E-01
        2   -1    0    0  501    0  0.00000000000E+00  0.00000000000E+00  0.11918385918E+04  0.11918385918E+04  0.25500000920E-02 0.  1.
       -2   -1    0    0    0  501  0.00000000000E+00  0.00000000000E+00 -0.59728824574E+03  0.59728824575E+03  0.25500000920E-02 0. -1.
    10030    2    1    2    0    0  0.00000000000E+00  0.00000000000E+00  0.59455034611E+03  0.17891268376E+04  0.16874491776E+04 0.  0.
        2    1    3    3  502    0  0.69069233623E+02 -0.25850681295E+03  0.11456614800E+04  0.11764933311E+04  0.25500000920E-02 0.  1.
       -2    1    3    3    0  502 -0.69069233623E+02  0.25850681295E+03 -0.55111113389E+03  0.61263350649E+03  0.25500000920E-02 0. -1.
</event>
<event>
 5   0  0.1782172E-04  0.1985787E+04  0.7818609E-02  0.8613295E-01
        2   -1    0    0  501    0  0.00000000000E+00  0.00000000000E+00  0.93582135637E+03  0.93582135638E+03  0.25500000920E-02 0. -1.
       -2   -1    0    0    0  501  0.00000000000E+00  0.00000000000E+00 -0.10534462173E+04  0.10534462174E+04  0.25500000920E-02 0.  1.
    10030    2    1    2    0    0  0.00000000000E+00  0.00000000000E+00 -0.11762486098E+03  0.19892675737E+04  0.19857869654E+04 0.  0.
        2    1    3    3  502    0 -0.44728125208E+03  0.10714960773E+03 -0.94029561237E+03  0.10467556523E+04  0.25500000920E-02 0.  1.
       -2    1    3    3    0  502  0.44728125208E+03 -0.10714960773E+03  0.82267075139E+03  0.94251192146E+03  0.25500000920E-02 0. -1.
</event>
<event>
 5   0  0.1893687E-04  0.1817442E+04  0.7818609E-02  0.8697079E-01
       -2   -1    0    0    0  501  0.00000000000E+00  0.00000000000E+00  0.52595042895E+03  0.52595042896E+03  0.25500000920E-02 0. -1.
        2   -1    0    0  501    0  0.00000000000E+00  0.00000000000E+00 -0.15700595043E+04  0.15700595043E+04  0.25500000920E-02 0.  1.
    10030    2    1    2    0    0  0.00000000000E+00  0.00000000000E+00 -0.10441090753E+04  0.20960099333E+04  0.18174415752E+04 0.  0.
        4    1    3    3  502    0  0.13975590616E+03 -0.34785582115E+03  0.43261510527E+03  0.57244460676E+03  0.12699999809E+01 0. -1.
       -4    1    3    3    0  502 -0.13975590616E+03  0.34785582115E+03 -0.14767241806E+04  0.15235653265E+04  0.12699999809E+01 0.  1.
</event>
<event>
 5   0  0.1782172E-04  0.1984749E+04  0.7818609E-02  0.8613784E-01
        2   -1    0    0  501    0  0.00000000000E+00  0.00000000000E+00  0.16222496019E+04  0.16222496019E+04  0.25500000920E-02 0.  1.
       -2   -1    0    0    0  501  0.00000000000E+00  0.00000000000E+00 -0.60706258137E+03  0.60706258137E+03  0.25500000920E-02 0. -1.
    10030    2    1    2    0    0  0.00000000000E+00  0.00000000000E+00  0.10151870206E+04  0.22293121833E+04  0.19847488818E+04 0.  0.
        2    1    3    3  502    0  0.94276283758E+02  0.13716304514E+03 -0.59127363039E+03  0.61425257397E+03  0.25500000920E-02 0. -1.
       -2    1    3    3    0  502 -0.94276283758E+02 -0.13716304514E+03  0.16064606509E+04  0.16150596093E+04  0.25500000920E-02 0.  1.
</event>
<event>
 5   0  0.1782172E-04  0.1967448E+04  0.7818609E-02  0.8621993E-01
       -2   -1    0    0    0  501  0.00000000000E+00  0.00000000000E+00  0.98513497851E+03  0.98513497852E+03  0.25500000920E-02 0.  1.
        2   -1    0    0  501    0  0.00000000000E+00  0.00000000000E+00 -0.98231528835E+03  0.98231528835E+03  0.25500000920E-02 0. -1.
    10030    2    1    2    0    0  0.00000000000E+00  0.00000000000E+00  0.28196901651E+01  0.19674502669E+04  0.19674482463E+04 0.  0.
        2    1    3    3  502    0 -0.86277750452E+03  0.45013210301E+03 -0.14249727967E+03  0.98351889010E+03  0.25500000920E-02 0. -1.
       -2    1    3    3    0  502  0.86277750452E+03 -0.45013210301E+03  0.14531696984E+03  0.98393137677E+03  0.25500000920E-02 0.  1.
</event>
<event>
 5   0  0.1812865E-04  0.1995016E+04  0.7818609E-02  0.8608954E-01
       -2   -1    0    0    0  501  0.00000000000E+00  0.00000000000E+00  0.82711874460E+03  0.82711874460E+03  0.25500000920E-02 0. -1.
        2   -1    0    0  501    0  0.00000000000E+00  0.00000000000E+00 -0.12029984479E+04  0.12029984479E+04  0.25500000920E-02 0.  1.
    10030    2    1    2    0    0  0.00000000000E+00  0.00000000000E+00 -0.37587970331E+03  0.20301171925E+04  0.19950163568E+04 0.  0.
        3    1    3    3  502    0  0.51804651124E+03  0.23821369043E+03  0.64493764898E+03  0.86084988900E+03  0.10100000352E+00 0. -1.
       -3    1    3    3    0  502 -0.51804651124E+03 -0.23821369043E+03 -0.10208173523E+04  0.11692673035E+04  0.10100000352E+00 0.  1.
</event>
<event>
 5   0  0.8958919E-05  0.1986395E+04  0.7818609E-02  0.8613008E-01
        1   -1    0    0  501    0  0.00000000000E+00  0.00000000000E+00  0.13886977224E+04  0.13886977225E+04  0.50400001928E-02 0.  1.
       -1   -1    0    0    0  501  0.00000000000E+00  0.00000000000E+00 -0.71033572837E+03  0.71033572838E+03  0.50400001928E-02 0. -1.
    10030    2    1    2    0    0  0.00000000000E+00  0.00000000000E+00  0.67836199408E+03  0.20990334508E+04  0.19863953365E+04 0.  0.
        4    1    3    3  502    0  0.22446197767E+03 -0.55841792458E+03 -0.49570020403E+03  0.77970126529E+03  0.12699999809E+01 0. -1.
       -4    1    3    3    0  502 -0.22446197767E+03  0.55841792458E+03  0.11740621981E+04  0.13193321856E+04  0.12699999809E+01 0.  1.
</event>
<event>
 5   0  0.8861350E-05  0.2014531E+04  0.7818609E-02  0.8599857E-01
        1   -1    0    0  501    0  0.00000000000E+00  0.00000000000E+00  0.15512764003E+04  0.15512764003E+04  0.50400001928E-02 0. -1.
       -1   -1    0    0    0  501  0.00000000000E+00  0.00000000000E+00 -0.65403153870E+03  0.65403153872E+03  0.50400001928E-02 0.  1.
    10030    2    1    2    0    0  0.00000000000E+00  0.00000000000E+00  0.89724486157E+03  0.22053079390E+04  0.20145309042E+04 0.  0.
        1    1    3    3  502    0 -0.48617984605E+03  0.63543063736E+03 -0.22124191398E+03  0.83011500536E+03  0.50400001928E-02 0.  1.
       -1    1    3    3    0  502  0.48617984605E+03 -0.63543063736E+03  0.11184867755E+04  0.13751929336E+04  0.50400001928E-02 0. -1.
</event>
<event>
 5   0  0.8765057E-05  0.1998516E+04  0.7818609E-02  0.8607315E-01
       -1   -1    0    0    0  501  0.00000000000E+00  0.00000000000E+00  0.75474445640E+03  0.75474445642E+03  0.50400001928E-02 0. -1.
        1   -1    0    0  501    0  0.00000000000E+00  0.00000000000E+00 -0.13229856698E+04  0.13229856698E+04  0.50400001928E-02 0.  1.
    10030    2    1    2    0    0  0.00000000000E+00  0.00000000000E+00 -0.56824121339E+03  0.20777301262E+04  0.19985155493E+04 0.  0.
        3    1    3    3  502    0  0.51054294950E+03 -0.78013021461E+03  0.89655661721E+02  0.93664048754E+03  0.10100000352E+00 0. -1.
       -3    1    3    3    0  502 -0.51054294950E+03  0.78013021461E+03 -0.65789687512E+03  0.11410896387E+04  0.10100000352E+00 0.  1.
</event>
<event>
 5   0  0.8577422E-05  0.1978133E+04  0.7818609E-02  0.8616913E-01
        1   -1    0    0  501    0  0.00000000000E+00  0.00000000000E+00  0.12138632989E+04  0.12138632990E+04  0.50400001928E-02 0. -1.
       -1   -1    0    0    0  501  0.00000000000E+00  0.00000000000E+00 -0.80589968752E+03  0.80589968753E+03  0.50400001928E-02 0.  1.
    10030    2    1    2    0    0  0.00000000000E+00  0.00000000000E+00  0.40796361143E+03  0.20197629865E+04  0.19781325065E+04 0.  0.
        2    1    3    3  502    0 -0.11981413002E+03 -0.80347803312E+03  0.78005381359E+03  0.11262399068E+04  0.25500000920E-02 0. -1.
       -2    1    3    3    0  502  0.11981413002E+03  0.80347803312E+03 -0.37209020216E+03  0.89352307973E+03  0.25500000920E-02 0.  1.
</event>
<event>
 5   0  0.8765057E-05  0.1900785E+04  0.7818609E-02  0.8654466E-01
       -1   -1    0    0    0  501  0.00000000000E+00  0.00000000000E+00  0.68071740165E+03  0.68071740167E+03  0.50400001928E-02 0.  1.
        1   -1    0    0  501    0  0.00000000000E+00  0.00000000000E+00 -0.13269034222E+04  0.13269034222E+04  0.50400001928E-02 0. -1.
    10030    2    1    2    0    0  0.00000000000E+00  0.00000000000E+00 -0.64618602058E+03  0.20076208239E+04  0.19007853638E+04 0.  0.
        3    1    3    3  502    0  0.16217588541E+03 -0.64914145716E+02  0.66361557565E+03  0.68622190768E+03  0.10100000352E+00 0.  1.
       -3    1    3    3    0  502 -0.16217588541E+03  0.64914145716E+02 -0.13098015962E+04  0.13213989162E+04  0.10100000352E+00 0. -1.
</event>
<event>
 5   0  0.1893687E-04  0.1947963E+04  0.7818609E-02  0.8631344E-01
        2   -1    0    0  501    0  0.00000000000E+00  0.00000000000E+00  0.92355033462E+03  0.92355033462E+03  0.25500000920E-02 0. -1.
       -2   -1    0    0    0  501  0.00000000000E+00  0.00000000000E+00 -0.10271665212E+04  0.10271665212E+04  0.25500000920E-02 0.  1.
    10030    2    1    2    0    0  0.00000000000E+00  0.00000000000E+00 -0.10361618660E+03  0.19507168558E+04  0.19479630226E+04 0.  0.
        4    1    3    3  502    0 -0.74469343931E+03 -0.14967724106E+03  0.55869855619E+03  0.94293015893E+03  0.12699999809E+01 0. -1.
       -4    1    3    3    0  502  0.74469343931E+03  0.14967724106E+03 -0.66231474279E+03  0.10077866969E+04  0.12699999809E+01 0.  1.
</event>
<event>
 5   0  0.1893687E-04  0.2017856E+04  0.7818609E-02  0.8598317E-01
       -2   -1    0    0    0  501  0.00000000000E+00  0.00000000000E+00  0.91582422440E+03  0.91582422441E+03  0.25500000920E-02 0.  1.
        2   -1    0    0  501    0  0.00000000000E+00  0.00000000000E+00 -0.11114973466E+04  0.11114973466E+04  0.25500000920E-02 0. -1.
    10030    2    1    2    0    0  0.00000000000E+00  0.00000000000E+00 -0.19567312218E+03  0.20273215710E+04  0.20178564819E+04 0.  0.
        4    1    3    3  502    0 -0.21671133990E+03 -0.60414168193E+03  0.68426437308E+03  0.93817392942E+03  0.12699999809E+01 0.  1.
       -4    1    3    3    0  502  0.21671133990E+03  0.60414168193E+03 -0.87993749526E+03  0.10891476416E+04  0.12699999809E+01 0. -1.
</event>
<event>
 5   0  0.1782172E-04  0.2020691E+04  0.7818609E-02  0.8597008E-01
        2   -1    0    0  501    0  0.00000000000E+00  0.00000000000E+00  0.13142201875E+04  0.13142201875E+04  0.25500000920E-02 0.  1.
       -2   -1    0    0    0  501  0.00000000000E+00  0.00000000000E+00 -0.77673303325E+03  0.77673303325E+03  0.25500000920E-02 0. -1.
    10030    2    1    2    0    0  0.00000000000E+00  0.00000000000E+00  0.53748715423E+03  0.20909532207E+04  0.20206912011E+04 0.  0.
        2    1    3    3  502    0 -0.72643748099E+03  0.59497974493E+03  0.65465350663E+03  0.11446761657E+04  0.25500000920E-02 0. -1.
       -2    1    3    3    0  502  0.72643748099E+03 -0.59497974493E+03 -0.11716635240E+03  0.94627705499E+03  0.25500000920E-02 0.  1.
</event>
<event>
 5   0  0.6531625E-05  0.1994857E+04  0.7818609E-02  0.8609029E-01
       -3   -1    0    0    0  501  0.00000000000E+00  0.00000000000E+00  0.95126548967E+03  0.95126549503E+03  0.10100000352E+00 0. -1.
        3   -1    0    0  501    0  0.00000000000E+00  0.00000000000E+00 -0.10458320470E+04  0.10458320518E+04  0.10100000352E+00 0.  1.
    10030    2    1    2    0    0  0.00000000000E+00  0.00000000000E+00 -0.94566557286E+02  0.19970975469E+04  0.19948573327E+04 0.  0.
        4    1    3    3  502    0  0.45334380133E+03 -0.15693526338E+02 -0.93659128923E+03  0.10406592838E+04  0.12699999809E+01 0.  1.
       -4    1    3    3    0  502 -0.45334380133E+03  0.15693526338E+02  0.84202473195E+03  0.95643826308E+03  0.12699999809E+01 0. -1.
</event>
<event>
 5   0  0.8958919E-05  0.1926379E+04  0.7818609E-02  0.8641836E-01
        1   -1    0    0  501    0  0.00000000000E+00  0.00000000000E+00  0.76020129200E+03  0.76020129202E+03  0.50400001928E-02 0.  1.
       -1   -1    0    0    0  501  0.00000000000E+00  0.00000000000E+00 -0.12203797495E+04  0.12203797495E+04  0.50400001928E-02 0. -1.
    10030    2    1    2    0    0  0.00000000000E+00  0.00000000000E+00 -0.46017845748E+03  0.19805810415E+04  0.19263792589E+04 0.  0.
        4    1    3    3  502    0  0.72091690725E+03  0.16172045110E+03  0.40524425860E+03  0.84267384764E+03  0.12699999809E+01 0.  1.
       -4    1    3    3    0  502 -0.72091690725E+03 -0.16172045110E+03 -0.86542271608E+03  0.11379071939E+04  0.12699999809E+01 0. -1.
</event>
<event>
 5   0  0.8765057E-05  0.1984057E+04  0.7818609E-02  0.8614111E-01
        1   -1    0    0  501    0  0.00000000000E+00  0.00000000000E+00  0.71433649822E+03  0.71433649824E+03  0.50400001928E-02 0.  1.
       -1   -1    0    0    0  501  0.00000000000E+00  0.00000000000E+00 -0.13776704018E+04  0.13776704018E+04  0.50400001928E-02 0. -1.
    10030    2    1    2    0    0  0.00000000000E+00  0.00000000000E+00 -0.66333390359E+03  0.20920069001E+04  0.19840567034E+04 0.  0.
        3    1    3    3  502    0  0.36581076145E+03 -0.12402406742E+03  0.63178855205E+03  0.74051081504E+03  0.10100000352E+00 0.  1.
       -3    1    3    3    0  502 -0.36581076145E+03  0.12402406742E+03 -0.12951224556E+04  0.13514960850E+04  0.10100000352E+00 0. -1.
</event>
<event>
 5   0  0.8958919E-05  0.1989196E+04  0.7818609E-02  0.8611689E-01
        1   -1    0    0  501    0  0.00000000000E+00  0.00000000000E+00  0.98773148973E+03  0.98773148974E+03  0.50400001928E-02 0.  1.
       -1   -1    0    0    0  501  0.00000000000E+00  0.00000000000E+00 -0.10015121351E+04  0.10015121351E+04  0.50400001928E-02 0. -1.
    10030    2    1    2    0    0  0.00000000000E+00  0.00000000000E+00 -0.13780645385E+02  0.19892436249E+04  0.19891958910E+04 0.  0.
        4    1    3    3  502    0  0.63638989930E+03 -0.76086833697E+01  0.75744043095E+03  0.98932684959E+03  0.12699999809E+01 0.  1.
       -4    1    3    3    0  502 -0.63638989930E+03  0.76086833697E+01 -0.77122107633E+03  0.99991677527E+03  0.12699999809E+01 0. -1.
</event>
<event>
 5   0  0.8958919E-05  0.2031401E+04  0.7818609E-02  0.8592079E-01
        1   -1    0    0  501    0  0.00000000000E+00  0.00000000000E+00  0.77260062839E+03  0.77260062841E+03  0.50400001928E-02 0.  1.
       -1   -1    0    0    0  501  0.00000000000E+00  0.00000000000E+00 -0.13352919683E+04  0.13352919683E+04  0.50400001928E-02 0. -1.
    10030    2    1    2    0    0  0.00000000000E+00  0.00000000000E+00 -0.56269133987E+03  0.21078925967E+04  0.20314009095E+04 0.  0.
        4    1    3    3  502    0  0.78190835317E+03 -0.58976004229E+03 -0.20483953843E+01  0.97938929393E+03  0.12699999809E+01 0.  1.
       -4    1    3    3    0  502 -0.78190835317E+03  0.58976004229E+03 -0.56064294448E+03  0.11285033028E+04  0.12699999809E+01 0. -1.
</event>
<event>
 5   0  0.1834645E-04  0.2023323E+04  0.7818609E-02  0.8595793E-01
       -2   -1    0    0    0  501  0.00000000000E+00  0.00000000000E+00  0.69144378195E+03  0.69144378196E+03  0.25500000920E-02 0. -1.
        2   -1    0    0  501    0  0.00000000000E+00  0.00000000000E+00 -0.14801766221E+04  0.14801766221E+04  0.25500000920E-02 0.  1.
    10030    2    1    2    0    0  0.00000000000E+00  0.00000000000E+00 -0.78873284017E+03  0.21716204041E+04  0.20233229318E+04 0.  0.
        1    1    3    3  502    0 -0.12373013067E+03 -0.32775680805E+03 -0.14129927054E+04  0.14557754140E+04  0.50400001928E-02 0.  1.
       -1    1    3    3    0  502  0.12373013067E+03  0.32775680805E+03  0.62425986523E+03  0.71584499008E+03  0.50400001928E-02 0. -1.
</event>
<event>
 5   0  0.1782172E-04  0.2005161E+04  0.7818609E-02  0.8604212E-01
        2   -1    0    0  501    0  0.00000000000E+00  0.00000000000E+00  0.11318629750E+04  0.11318629750E+04  0.25500000920E-02 0. -1.
       -2   -1    0    0    0  501  0.00000000000E+00  0.00000000000E+00 -0.88806447633E+03  0.88806447633E+03  0.25500000920E-02 0.  1.
    10030    2    1    2    0    0  0.00000000000E+00  0.00000000000E+00  0.24379849862E+03  0.20199274513E+04  0.20051606421E+04 0.  0.
        2    1    3    3  502    0  0.91753425639E+03 -0.34638174181E+03 -0.87762972554E+02  0.98465819555E+03  0.25500000920E-02 0.  1.
       -2    1    3    3    0  502 -0.91753425639E+03  0.34638174181E+03  0.33156147118E+03  0.10352692557E+04  0.25500000920E-02 0. -1.
</event>
<event>
 5   0  0.1812865E-04  0.1960746E+04  0.7818609E-02  0.8625196E-01
        2   -1    0    0  501    0  0.00000000000E+00  0.00000000000E+00  0.20666530501E+04  0.20666530501E+04  0.25500000920E-02 0.  1.
       -2   -1    0    0    0  501  0.00000000000E+00  0.00000000000E+00 -0.46506635269E+03  0.46506635270E+03  0.25500000920E-02 0. -1.
    10030    2    1    2    0    0  0.00000000000E+00  0.00000000000E+00  0.16015866974E+04  0.25317194028E+04  0.19607455687E+04 0.  0.
        3    1    3    3  502    0  0.89473752090E+03  0.19682232737E+03  0.35009799400E+03  0.98074608104E+03  0.10100000352E+00 0. -1.
       -3    1    3    3    0  502 -0.89473752090E+03 -0.19682232737E+03  0.12514887035E+04  0.15509733218E+04  0.10100000352E+00 0.  1.
</event>
<event>
 5   0  0.1807498E-04  0.2020079E+04  0.7818609E-02  0.8597290E-01
       -2   -1    0    0    0  501  0.00000000000E+00  0.00000000000E+00  0.42079225421E+03  0.42079225422E+03  0.25500000920E-02 0. -1.
        2   -1    0    0  501    0  0.00000000000E+00  0.00000000000E+00 -0.24244250974E+04  0.24244250974E+04  0.25500000920E-02 0.  1.
    10030    2    1    2    0    0  0.00000000000E+00  0.00000000000E+00 -0.20036328431E+04  0.28452173516E+04  0.20200785152E+04 0.  0.
        5    1    3    3  502    0 -0.85990880837E+03 -0.37205703530E+03 -0.47052751253E+03  0.10484692777E+04  0.46999998093E+01 0.  1.
       -5    1    3    3    0  502  0.85990880837E+03  0.37205703530E+03 -0.15331053306E+04  0.17967480739E+04  0.46999998093E+01 0. -1.
</event>
<event>
 5   0  0.8881384E-05  0.2029728E+04  0.7818609E-02  0.8592846E-01
        1   -1    0    0  501    0  0.00000000000E+00  0.00000000000E+00  0.11498155820E+04  0.11498155820E+04  0.50400001928E-02 0. -1.
       -1   -1    0    0    0  501  0.00000000000E+00  0.00000000000E+00 -0.89575171345E+03  0.89575171347E+03  0.50400001928E-02 0.  1.
    10030    2    1    2    0    0  0.00000000000E+00  0.00000000000E+00  0.25406386857E+03  0.20455672955E+04  0.20297283343E+04 0.  0.
        5    1    3    3  502    0  0.75589876649E+03 -0.10131180423E+03  0.80179393426E+03  0.11065905430E+04  0.46999998093E+01 0. -1.
       -5    1    3    3    0  502 -0.75589876649E+03  0.10131180423E+03 -0.54773006570E+03  0.93897675249E+03  0.46999998093E+01 0.  1.
</event>
<event>
 5   0  0.8577422E-05  0.2006737E+04  0.7818609E-02  0.8603477E-01
       -1   -1    0    0    0  501  0.00000000000E+00  0.00000000000E+00  0.42757598797E+03  0.42757598800E+03  0.50400001928E-02 0. -1.
        1   -1    0    0  501    0  0.00000000000E+00  0.00000000000E+00 -0.23545489898E+04  0.23545489898E+04  0.50400001928E-02 0.  1.
    10030    2    1    2    0    0  0.00000000000E+00  0.00000000000E+00 -0.19269730018E+04  0.27821249778E+04  0.20067372629E+04 0.  0.
        2    1    3    3  502    0 -0.95141325656E+03 -0.28120114790E+03 -0.75558617717E+03  0.12470652515E+04  0.25500000920E-02 0. -1.
       -2    1    3    3    0  502  0.95141325656E+03  0.28120114790E+03 -0.11713868247E+04  0.15350597263E+04  0.25500000920E-02 0.  1.
</event>
<event>
 5   0  0.8881384E-05  0.2019415E+04  0.7818609E-02  0.8597597E-01
       -1   -1    0    0    0  501  0.00000000000E+00  0.00000000000E+00  0.87573310629E+03  0.87573310631E+03  0.50400001928E-02 0. -1.
        1   -1    0    0  501    0  0.00000000000E+00  0.00000000000E+00 -0.11641780355E+04  0.11641780355E+04  0.50400001928E-02 0.  1.
    10030    2    1    2    0    0  0.00000000000E+00  0.00000000000E+00 -0.28844492919E+03  0.20399111418E+04  0.20194150116E+04 0.  0.
        5    1    3    3  502    0 -0.70969854792E+03  0.38556227328E+03 -0.75630712304E+03  0.11065047898E+04  0.46999998093E+01 0. -1.
       -5    1    3    3    0  502  0.70969854792E+03 -0.38556227328E+03  0.46786219385E+03  0.93340635199E+03  0.46999998093E+01 0.  1.
</event>
<event>
 5   0  0.1782172E-04  0.2117160E+04  0.7818609E-02  0.8553722E-01
        2   -1    0    0  501    0  0.00000000000E+00  0.00000000000E+00  0.18677462568E+04  0.18677462568E+04  0.25500000920E-02 0.  1.
       -2   -1    0    0    0  501  0.00000000000E+00  0.00000000000E+00 -0.59996976878E+03  0.59996976879E+03  0.25500000920E-02 0. -1.
    10030    2    1    2    0    0  0.00000000000E+00  0.00000000000E+00  0.12677764880E+04  0.24677160256E+04  0.21171596915E+04 0.  0.
        2    1    3    3  502    0  0.94620566181E+03  0.46318502401E+03  0.75471422039E+03  0.12959317402E+04  0.25500000920E-02 0.  1.
       -2    1    3    3    0  502 -0.94620566181E+03 -0.46318502401E+03  0.51306226765E+03  0.11717842854E+04  0.25500000920E-02 0. -1.
</event>
<event>
 5   0  0.1834645E-04  0.1992710E+04  0.7818609E-02  0.8610037E-01
        2   -1    0    0  501    0  0.00000000000E+00  0.00000000000E+00  0.64133335251E+03  0.64133335251E+03  0.25500000920E-02 0. -1.
       -2   -1    0    0    0  501  0.00000000000E+00  0.00000000000E+00 -0.15479047138E+04  0.15479047138E+04  0.25500000920E-02 0.  1.
    10030    2    1    2    0    0  0.00000000000E+00  0.00000000000E+00 -0.90657136128E+03  0.21892380663E+04  0.19927096321E+04 0.  0.
        1    1    3    3  502    0  0.10779621827E+03 -0.66671179992E+03 -0.12580590658E+04  0.14278785879E+04  0.50400001928E-02 0.  1.
       -1    1    3    3    0  502 -0.10779621827E+03  0.66671179992E+03  0.35148770453E+03  0.76135947836E+03  0.50400001928E-02 0. -1.
</event>
<event>
 5   0  0.1834645E-04  0.1996943E+04  0.7818609E-02  0.8608051E-01
       -2   -1    0    0    0  501  0.00000000000E+00  0.00000000000E+00  0.79245936653E+03  0.79245936654E+03  0.25500000920E-02 0. -1.
        2   -1    0    0  501    0  0.00000000000E+00  0.00000000000E+00 -0.12580398167E+04  0.12580398167E+04  0.25500000920E-02 0.  1.
    10030    2    1    2    0    0  0.00000000000E+00  0.00000000000E+00 -0.46558045017E+03  0.20504991832E+04  0.19969431001E+04 0.  0.
        1    1    3    3  502    0  0.46044936908E+03  0.45340908048E+03  0.54877490180E+03  0.84778966060E+03  0.50400001928E-02 0. -1.
       -1    1    3    3    0  502 -0.46044936908E+03 -0.45340908048E+03 -0.10143553520E+04  0.12027095226E+04  0.50400001928E-02 0.  1.
</event>
<event>
 5   0  0.1812865E-04  0.1980687E+04  0.7818609E-02  0.8615704E-01
        2   -1    0    0  501    0  0.00000000000E+00  0.00000000000E+00  0.17891883983E+04  0.17891883983E+04  0.25500000920E-02 0.  1.
       -2   -1    0    0    0  501  0.00000000000E+00  0.00000000000E+00 -0.54817060133E+03  0.54817060134E+03  0.25500000920E-02 0. -1.
    10030    2    1    2    0    0  0.00000000000E+00  0.00000000000E+00  0.12410177970E+04  0.23373589997E+04  0.19806872345E+04 0.  0.
        3    1    3    3  502    0  0.65358425849E+03  0.61994071183E+03  0.13498076715E+03  0.91088895417E+03  0.10100000352E+00 0. -1.
       -3    1    3    3    0  502 -0.65358425849E+03 -0.61994071183E+03  0.11060370298E+04  0.14264700455E+04  0.10100000352E+00 0.  1.
</event>
<event>
 5   0  0.8958919E-05  0.1986356E+04  0.7818609E-02  0.8613026E-01
       -1   -1    0    0    0  501  0.00000000000E+00  0.00000000000E+00  0.13095111533E+04  0.13095111534E+04  0.50400001928E-02 0.  1.
        1   -1    0    0  501    0  0.00000000000E+00  0.00000000000E+00 -0.75326011349E+03  0.75326011351E+03  0.50400001928E-02 0. -1.
    10030    2    1    2    0    0  0.00000000000E+00  0.00000000000E+00  0.55625103985E+03  0.20627712669E+04  0.19863559802E+04 0.  0.
        4    1    3    3  502    0 -0.46771078174E+03 -0.66016167570E+03 -0.32008561624E+03  0.87007081783E+03  0.12699999809E+01 0. -1.
       -4    1    3    3    0  502  0.46771078174E+03  0.66016167570E+03  0.87633665609E+03  0.11927004490E+04  0.12699999809E+01 0.  1.
</event>
<event>
 5   0  0.1812865E-04  0.1996176E+04  0.7818609E-02  0.8608411E-01
        2   -1    0    0  501    0  0.00000000000E+00  0.00000000000E+00  0.16386860803E+04  0.16386860803E+04  0.25500000920E-02 0. -1.
       -2   -1    0    0    0  501  0.00000000000E+00  0.00000000000E+00 -0.60791344752E+03  0.60791344753E+03  0.25500000920E-02 0.  1.
    10030    2    1    2    0    0  0.00000000000E+00  0.00000000000E+00  0.10307726328E+04  0.22465995278E+04  0.19961756481E+04 0.  0.
        3    1    3    3  502    0  0.83984873962E+03  0.48238046109E+03  0.78676372101E+03  0.12478116755E+04  0.10100000352E+00 0.  1.
       -3    1    3    3    0  502 -0.83984873962E+03 -0.48238046109E+03  0.24400891176E+03  0.99878785230E+03  0.10100000352E+00 0. -1.
</event>
<event>
 5   0  0.8577422E-05  0.1992702E+04  0.7818609E-02  0.8610040E-01
        1   -1    0    0  501    0  0.00000000000E+00  0.00000000000E+00  0.71372190554E+03  0.71372190556E+03  0.50400001928E-02 0.  1.
       -1   -1    0    0    0  501  0.00000000000E+00  0.00000000000E+00 -0.13908991303E+04  0.13908991303E+04  0.50400001928E-02 0. -1.
    10030    2    1    2    0    0  0.00000000000E+00  0.00000000000E+00 -0.67717722473E+03  0.21046210358E+04  0.19927018620E+04 0.  0.
        2    1    3    3  502    0  0.73267872568E+03 -0.41161765909E+03 -0.90387641154E+03  0.12341960054E+04  0.25500000920E-02 0. -1.
       -2    1    3    3    0  502 -0.73267872568E+03  0.41161765909E+03  0.22669918681E+03  0.87042503046E+03  0.25500000920E-02 0.  1.
</event>
<event>
 5   0  0.1807498E-04  0.2003368E+04  0.7818609E-02  0.8605047E-01
        2   -1    0    0  501    0  0.00000000000E+00  0.00000000000E+00  0.11403273384E+04  0.11403273384E+04  0.25500000920E-02 0.  1.
       -2   -1    0    0    0  501  0.00000000000E+00  0.00000000000E+00 -0.87989764231E+03  0.87989764231E+03  0.25500000920E-02 0. -1.
    10030    2    1    2    0    0  0.00000000000E+00  0.00000000000E+00  0.26042969611E+03  0.20202249807E+04  0.20033684998E+04 0.  0.
        5    1    3    3  502    0  0.83660785052E+03 -0.20688002105E+03 -0.38460715909E+03  0.94374614991E+03  0.46999998093E+01 0. -1.
       -5    1    3    3    0  502 -0.83660785052E+03  0.20688002105E+03  0.64503685520E+03  0.10764788308E+04  0.46999998093E+01 0.  1.
</event>
<event>
 5   0  0.1812865E-04  0.2018479E+04  0.7818609E-02  0.8598030E-01
        2   -1    0    0  501    0  0.00000000000E+00  0.00000000000E+00  0.13902478005E+04  0.13902478005E+04  0.25500000920E-02 0.  1.
       -2   -1    0    0    0  501  0.00000000000E+00  0.00000000000E+00 -0.73264935684E+03  0.73264935684E+03  0.25500000920E-02 0. -1.
    10030    2    1    2    0    0  0.00000000000E+00  0.00000000000E+00  0.65759844366E+03  0.21228971573E+04  0.20184787905E+04 0.  0.
        3    1    3    3  502    0 -0.77787688760E+03 -0.13982295239E+03 -0.33130036719E+03  0.85697307646E+03  0.10100000352E+00 0. -1.
       -3    1    3    3    0  502  0.77787688760E+03  0.13982295239E+03  0.98889881085E+03  0.12659240809E+04  0.10100000352E+00 0.  1.
</event>
<event>
 5   0  0.8577422E-05  0.2013256E+04  0.7818609E-02  0.8600448E-01
       -1   -1    0    0    0  501  0.00000000000E+00  0.00000000000E+00  0.89179334923E+03  0.89179334924E+03  0.50400001928E-02 0.  1.
        1   -1    0    0  501    0  0.00000000000E+00  0.00000000000E+00 -0.11362495664E+04  0.11362495664E+04  0.50400001928E-02 0. -1.
    10030    2    1    2    0    0  0.00000000000E+00  0.00000000000E+00 -0.24445621713E+03  0.20280429156E+04  0.20132558768E+04 0.  0.
        2    1    3    3  502    0  0.33149275660E+03  0.29444125145E+03 -0.10325896145E+04  0.11237546041E+04  0.25500000920E-02 0. -1.
       -2    1    3    3    0  502 -0.33149275660E+03 -0.29444125145E+03  0.78813339739E+03  0.90428831150E+03  0.25500000920E-02 0.  1.
</event>
<event>
 5   0  0.8577422E-05  0.1971492E+04  0.7818609E-02  0.8620066E-01
        1   -1    0    0  501    0  0.00000000000E+00  0.00000000000E+00  0.13881034381E+04  0.13881034381E+04  0.50400001928E-02 0. -1.
       -1   -1    0    0    0  501  0.00000000000E+00  0.00000000000E+00 -0.70001661400E+03  0.70001661401E+03  0.50400001928E-02 0.  1.
    10030    2    1    2    0    0  0.00000000000E+00  0.00000000000E+00  0.68808682409E+03  0.20881200521E+04  0.19714922963E+04 0.  0.
        2    1    3    3  502    0  0.32930348054E+03  0.49343035255E+03 -0.48979052990E+03  0.76929127013E+03  0.25500000920E-02 0.  1.
       -2    1    3    3    0  502 -0.32930348054E+03 -0.49343035255E+03  0.11778773540E+04  0.13188287820E+04  0.25500000920E-02 0. -1.
</event>
<event>
 5   0  0.8881384E-05  0.2019374E+04  0.7818609E-02  0.8597616E-01
        1   -1    0    0  501    0  0.00000000000E+00  0.00000000000E+00  0.77965751174E+03  0.77965751175E+03  0.50400001928E-02 0. -1.
       -1   -1    0    0    0  501  0.00000000000E+00  0.00000000000E+00 -0.13075841893E+04  0.13075841893E+04  0.50400001928E-02 0.  1.
    10030    2    1    2    0    0  0.00000000000E+00  0.00000000000E+00 -0.52792667757E+03  0.20872417011E+04  0.20193739975E+04 0.  0.
        5    1    3    3  502    0  0.81134989787E+03  0.53024168213E+03 -0.55631345868E+03  0.11175650552E+04  0.46999998093E+01 0.  1.
       -5    1    3    3    0  502 -0.81134989787E+03 -0.53024168213E+03  0.28386781109E+02  0.96967664589E+03  0.46999998093E+01 0. -1.
</event>
<event>
 5   0  0.1782172E-04  0.2008239E+04  0.7818609E-02  0.8602778E-01
        2   -1    0    0  501    0  0.00000000000E+00  0.00000000000E+00  0.75828564076E+03  0.75828564077E+03  0.25500000920E-02 0.  1.
       -2   -1    0    0    0  501  0.00000000000E+00  0.00000000000E+00 -0.13296521141E+04  0.13296521141E+04  0.25500000920E-02 0. -1.
    10030    2    1    2    0    0  0.00000000000E+00  0.00000000000E+00 -0.57136647337E+03  0.20879377549E+04  0.20082391345E+04 0.  0.
        2    1    3    3  502    0 -0.80807364561E+03  0.14809844524E+03 -0.88595207357E+03  0.12082331078E+04  0.25500000920E-02 0. -1.
       -2    1    3    3    0  502  0.80807364561E+03 -0.14809844524E+03  0.31458560020E+03  0.87970464707E+03  0.25500000920E-02 0.  1.
</event>
<event>
 5   0  0.1782172E-04  0.1963873E+04  0.7818609E-02  0.8623700E-01
        2   -1    0    0  501    0  0.00000000000E+00  0.00000000000E+00  0.13001632652E+04  0.13001632652E+04  0.25500000920E-02 0.  1.
       -2   -1    0    0    0  501  0.00000000000E+00  0.00000000000E+00 -0.74159868614E+03  0.74159868615E+03  0.25500000920E-02 0. -1.
    10030    2    1    2    0    0  0.00000000000E+00  0.00000000000E+00  0.55856457907E+03  0.20417619514E+04  0.19638730807E+04 0.  0.
        2    1    3    3  502    0 -0.79789993369E+03 -0.38230502153E+03  0.72208254148E+03  0.11420177890E+04  0.25500000920E-02 0.  1.
       -2    1    3    3    0  502  0.79789993369E+03  0.38230502153E+03 -0.16351796241E+03  0.89974416236E+03  0.25500000920E-02 0. -1.
</event>
<event>
 5   0  0.8765057E-05  0.1996733E+04  0.7818609E-02  0.8608150E-01
       -1   -1    0    0    0  501  0.00000000000E+00  0.00000000000E+00  0.88870581247E+03  0.88870581249E+03  0.50400001928E-02 0. -1.
        1   -1    0    0  501    0  0.00000000000E+00  0.00000000000E+00 -0.11215585690E+04  0.11215585690E+04  0.50400001928E-02 0.  1.
    10030    2    1    2    0    0  0.00000000000E+00  0.00000000000E+00 -0.23285275652E+03  0.20102643815E+04  0.19967329509E+04 0.  0.
        3    1    3    3  502    0 -0.75894558534E+03 -0.21594968651E+03 -0.73221087933E+03  0.10764596837E+04  0.10100000352E+00 0.  1.
       -3    1    3    3    0  502  0.75894558534E+03  0.21594968651E+03  0.49935812281E+03  0.93380469780E+03  0.10100000352E+00 0. -1.
</event>
<event>
 5   0  0.1893687E-04  0.2005386E+04  0.7818609E-02  0.8604107E-01
       -2   -1    0    0    0  501  0.00000000000E+00  0.00000000000E+00  0.58075379513E+03  0.58075379514E+03  0.25500000920E-02 0. -1.
        2   -1    0    0  501    0  0.00000000000E+00  0.00000000000E+00 -0.17311858591E+04  0.17311858591E+04  0.25500000920E-02 0.  1.
    10030    2    1    2    0    0  0.00000000000E+00  0.00000000000E+00 -0.11504320639E+04  0.23119396542E+04  0.20053855068E+04 0.  0.
        4    1    3    3  502    0 -0.89661295063E+03 -0.44759082257E+03 -0.61412105029E+03  0.11753291475E+04  0.12699999809E+01 0. -1.
       -4    1    3    3    0  502  0.89661295063E+03  0.44759082257E+03 -0.53631101365E+03  0.11366105067E+04  0.12699999809E+01 0.  1.
</event>
<event>
 5   0  0.8861350E-05  0.2119685E+04  0.7818609E-02  0.8552621E-01
       -1   -1    0    0    0  501  0.00000000000E+00  0.00000000000E+00  0.73831559949E+03  0.73831559951E+03  0.50400001928E-02 0. -1.
        1   -1    0    0  501    0  0.00000000000E+00  0.00000000000E+00 -0.15213895577E+04  0.15213895577E+04  0.50400001928E-02 0.  1.
    10030    2    1    2    0    0  0.00000000000E+00  0.00000000000E+00 -0.78307395824E+03  0.22597051572E+04  0.21196845458E+04 0.  0.
        1    1    3    3  502    0  0.46172178786E+03 -0.85435241751E+03 -0.84402848367E+03  0.12866581302E+04  0.50400001928E-02 0.  1.
       -1    1    3    3    0  502 -0.46172178786E+03  0.85435241751E+03  0.60954525424E+02  0.97304702707E+03  0.50400001928E-02 0. -1.
</event>
<event>
 5   0  0.1782172E-04  0.2005159E+04  0.7818609E-02  0.8604212E-01
        2   -1    0    0  501    0  0.00000000000E+00  0.00000000000E+00  0.70942620791E+03  0.70942620791E+03  0.25500000920E-02 0. -1.
       -2   -1    0    0    0  501  0.00000000000E+00  0.00000000000E+00 -0.14168717483E+04  0.14168717483E+04  0.25500000920E-02 0.  1.
    10030    2    1    2    0    0  0.00000000000E+00  0.00000000000E+00 -0.70744554038E+03  0.21262979562E+04  0.20051592969E+04 0.  0.
        2    1    3    3  502    0 -0.72871987310E+03  0.18708294700E+03  0.34898282556E+03  0.82935016432E+03  0.25500000920E-02 0. -1.
       -2    1    3    3    0  502  0.72871987310E+03 -0.18708294700E+03 -0.10564283659E+04  0.12969477919E+04  0.25500000920E-02 0.  1.
</event>
<event>
 5   0  0.8881384E-05  0.1948155E+04  0.7818609E-02  0.8631251E-01
       -1   -1    0    0    0  501  0.00000000000E+00  0.00000000000E+00  0.63851953862E+03  0.63851953864E+03  0.50400001928E-02 0. -1.
        1   -1    0    0  501    0  0.00000000000E+00  0.00000000000E+00 -0.14859792924E+04  0.14859792924E+04  0.50400001928E-02 0.  1.
    10030    2    1    2    0    0  0.00000000000E+00  0.00000000000E+00 -0.84745975374E+03  0.21244988310E+04  0.19481548318E+04 0.  0.
        5    1    3    3  502    0  0.18446853255E+03  0.76744465188E+03 -0.10461903211E+04  0.13105480576E+04  0.46999998093E+01 0.  1.
       -5    1    3    3    0  502 -0.18446853255E+03 -0.76744465188E+03  0.19873056737E+03  0.81395077345E+03  0.46999998093E+01 0. -1.
</event>
<event>
 5   0  0.1834645E-04  0.1900519E+04  0.7818609E-02  0.8654598E-01
        2   -1    0    0  501    0  0.00000000000E+00  0.00000000000E+00  0.10990231607E+04  0.10990231607E+04  0.25500000920E-02 0.  1.
       -2   -1    0    0    0  501  0.00000000000E+00  0.00000000000E+00 -0.82163216573E+03  0.82163216573E+03  0.25500000920E-02 0. -1.
    10030    2    1    2    0    0  0.00000000000E+00  0.00000000000E+00  0.27739099496E+03  0.19206553264E+04  0.19005186447E+04 0.  0.
        1    1    3    3  502    0 -0.10733682166E+03  0.86998113742E+03 -0.23207651129E+03  0.90677884838E+03  0.50400001928E-02 0. -1.
       -1    1    3    3    0  502  0.10733682166E+03 -0.86998113742E+03  0.50946750625E+03  0.10138764780E+04  0.50400001928E-02 0.  1.
</event>
<event>
 5   0  0.1807498E-04  0.1979211E+04  0.7818609E-02  0.8616402E-01
        2   -1    0    0  501    0  0.00000000000E+00  0.00000000000E+00  0.13216092837E+04  0.13216092837E+04  0.25500000920E-02 0.  1.
       -2   -1    0    0    0  501  0.00000000000E+00  0.00000000000E+00 -0.74100497648E+03  0.74100497648E+03  0.25500000920E-02 0. -1.
    10030    2    1    2    0    0  0.00000000000E+00  0.00000000000E+00  0.58060430726E+03  0.20626142602E+04  0.19792110107E+04 0.  0.
        5    1    3    3  502    0 -0.57062187334E+03  0.46679832136E+03 -0.39765760989E+03  0.83765366343E+03  0.46999998093E+01 0. -1.
       -5    1    3    3    0  502  0.57062187334E+03 -0.46679832136E+03  0.97826191715E+03  0.12249605968E+04  0.46999998093E+01 0.  1.
</event>
<event>
 5   0  0.8861350E-05  0.2008995E+04  0.7818609E-02  0.8602427E-01
        1   -1    0    0  501    0  0.00000000000E+00  0.00000000000E+00  0.22743264653E+04  0.22743264653E+04  0.50400001928E-02 0. -1.
       -1   -1    0    0    0  501  0.00000000000E+00  0.00000000000E+00 -0.44365455999E+03  0.44365456002E+03  0.50400001928E-02 0.  1.
    10030    2    1    2    0    0  0.00000000000E+00  0.00000000000E+00  0.18306719053E+04  0.27179810253E+04  0.20089950794E+04 0.  0.
        1    1    3    3  502    0 -0.55294087519E+02  0.60387436265E+03 -0.16808195306E+03  0.62926403436E+03  0.50400001928E-02 0.  1.
       -1    1    3    3    0  502  0.55294087519E+02 -0.60387436265E+03  0.19987538583E+04  0.20887169909E+04  0.50400001928E-02 0. -1.
</event>
<event>
 5   0  0.8958919E-05  0.2003443E+04  0.7818609E-02  0.8605013E-01
       -1   -1    0    0    0  501  0.00000000000E+00  0.00000000000E+00  0.14111776697E+04  0.14111776697E+04  0.50400001928E-02 0.  1.
        1   -1    0    0  501    0  0.00000000000E+00  0.00000000000E+00 -0.71106977767E+03  0.71106977769E+03  0.50400001928E-02 0. -1.
    10030    2    1    2    0    0  0.00000000000E+00  0.00000000000E+00  0.70010789201E+03  0.21222474474E+04  0.20034428286E+04 0.  0.
        4    1    3    3  502    0 -0.97347193675E+03  0.22589387591E+03  0.42320339507E+03  0.10852549845E+04  0.12699999809E+01 0.  1.
       -4    1    3    3    0  502  0.97347193675E+03 -0.22589387591E+03  0.27690449694E+03  0.10369924629E+04  0.12699999809E+01 0. -1.
</event>
<event>
 5   0  0.8958919E-05  0.2020937E+04  0.7818609E-02  0.8596894E-01
       -1   -1    0    0    0  501  0.00000000000E+00  0.00000000000E+00  0.56379366104E+03  0.56379366106E+03  0.50400001928E-02 0. -1.
        1   -1    0    0  501    0  0.00000000000E+00  0.00000000000E+00 -0.18110291583E+04  0.18110291583E+04  0.50400001928E-02 0.  1.
    10030    2    1    2    0    0  0.00000000000E+00  0.00000000000E+00 -0.12472354972E+04  0.23748228193E+04  0.20209371682E+04 0.  0.
        4    1    3    3  502    0 -0.58950840538E+02 -0.59551035753E+03 -0.15804033895E+04  0.16899065873E+04  0.12699999809E+01 0.  1.
       -4    1    3    3    0  502  0.58950840538E+02  0.59551035753E+03  0.33316789225E+03  0.68491623200E+03  0.12699999809E+01 0. -1.
</event>
<event>
 5   0  0.1782172E-04  0.1888752E+04  0.7818609E-02  0.8660475E-01
        2   -1    0    0  501    0  0.00000000000E+00  0.00000000000E+00  0.28957252433E+04  0.28957252433E+04  0.25500000920E-02 0.  1.
       -2   -1    0    0    0  501  0.00000000000E+00  0.00000000000E+00 -0.30798716158E+03  0.30798716159E+03  0.25500000920E-02 0. -1.
    10030    2    1    2    0    0  0.00000000000E+00  0.00000000000E+00  0.25877380817E+04  0.32037124048E+04  0.18887521790E+04 0.  0.
        2    1    3    3  502    0  0.14325748885E+03  0.70151607829E+03  0.24936059949E+03  0.75817427073E+03  0.25500000920E-02 0. -1.
       -2    1    3    3    0  502 -0.14325748885E+03 -0.70151607829E+03  0.23383774822E+04  0.24455381341E+04  0.25500000920E-02 0.  1.
</event>
<event>
 5   0  0.1782172E-04  0.2002410E+04  0.7818609E-02  0.8605495E-01
        2   -1    0    0  501    0  0.00000000000E+00  0.00000000000E+00  0.78900867061E+03  0.78900867061E+03  0.25500000920E-02 0.  1.
       -2   -1    0    0    0  501  0.00000000000E+00  0.00000000000E+00 -0.12704700760E+04  0.12704700760E+04  0.25500000920E-02 0. -1.
    10030    2    1    2    0    0  0.00000000000E+00  0.00000000000E+00 -0.48146140538E+03  0.20594787466E+04  0.20024104531E+04 0.  0.
        2    1    3    3  502    0  0.15066800636E+03  0.96279014651E+03 -0.47694150989E+03  0.10849603302E+04  0.25500000920E-02 0.  1.
       -2    1    3    3    0  502 -0.15066800636E+03 -0.96279014651E+03 -0.45198954947E+01  0.97451841635E+03  0.25500000920E-02 0. -1.
</event>
<event>
 5   0  0.1893687E-04  0.2004865E+04  0.7818609E-02  0.8604349E-01
       -2   -1    0    0    0  501  0.00000000000E+00  0.00000000000E+00  0.48992352799E+03  0.48992352799E+03  0.25500000920E-02 0.  1.
        2   -1    0    0  501    0  0.00000000000E+00  0.00000000000E+00 -0.20510778335E+04  0.20510778335E+04  0.25500000920E-02 0. -1.
    10030    2    1    2    0    0  0.00000000000E+00  0.00000000000E+00 -0.15611543055E+04  0.25410013615E+04  0.20048653704E+04 0.  0.
        4    1    3    3  502    0 -0.69208270696E+02  0.52933475900E+03 -0.18559303383E+04  0.19311820488E+04  0.12699999809E+01 0. -1.
       -4    1    3    3    0  502  0.69208270696E+02 -0.52933475900E+03  0.29477603278E+03  0.60981931277E+03  0.12699999809E+01 0.  1.
</event>
<event>
 5   0  0.1807498E-04  0.1974581E+04  0.7818609E-02  0.8618598E-01
        2   -1    0    0  501    0  0.00000000000E+00  0.00000000000E+00  0.10616545485E+04  0.10616545485E+04  0.25500000920E-02 0.  1.
       -2   -1    0    0    0  501  0.00000000000E+00  0.00000000000E+00 -0.91813521039E+03  0.91813521039E+03  0.25500000920E-02 0. -1.
    10030    2    1    2    0    0  0.00000000000E+00  0.00000000000E+00  0.14351933814E+03  0.19797897589E+04  0.19745808895E+04 0.  0.
        5    1    3    3  502    0  0.82819163670E+02 -0.83627887965E+03  0.59129542568E+03  0.10275571755E+04  0.46999998093E+01 0.  1.
       -5    1    3    3    0  502 -0.82819163670E+02  0.83627887965E+03 -0.44777608755E+03  0.95223258346E+03  0.46999998093E+01 0. -1.
</event>
<event>
 5   0  0.1782172E-04  0.1952562E+04  0.7818609E-02  0.8629126E-01
       -2   -1    0    0    0  501  0.00000000000E+00  0.00000000000E+00  0.94870588042E+03  0.94870588042E+03  0.25500000920E-02 0. -1.
        2   -1    0    0  501    0  0.00000000000E+00  0.00000000000E+00 -0.10046576426E+04  0.10046576426E+04  0.25500000920E-02 0.  1.
    10030    2    1    2    0    0  0.00000000000E+00  0.00000000000E+00 -0.55951762208E+02  0.19533635231E+04  0.19525620230E+04 0.  0.
        2    1    3    3  502    0  0.74474677480E+03 -0.27431199267E+02 -0.65888868965E+03  0.99475350446E+03  0.25500000920E-02 0.  1.
       -2    1    3    3    0  502 -0.74474677480E+03  0.27431199267E+02  0.60293692744E+03  0.95861001860E+03  0.25500000920E-02 0. -1.
</event>
<event>
 5   0  0.1834645E-04  0.2020706E+04  0.7818609E-02  0.8597001E-01
        2   -1    0    0  501    0  0.00000000000E+00  0.00000000000E+00  0.85546593765E+03  0.85546593766E+03  0.25500000920E-02 0. -1.
       -2   -1    0    0    0  501  0.00000000000E+00  0.00000000000E+00 -0.11932832335E+04  0.11932832335E+04  0.25500000920E-02 0.  1.
    10030    2    1    2    0    0  0.00000000000E+00  0.00000000000E+00 -0.33781729587E+03  0.20487491712E+04  0.20207059759E+04 0.  0.
        1    1    3    3  502    0  0.57748943441E+03 -0.20274701520E+03 -0.98393833895E+03  0.11587644514E+04  0.50400001928E-02 0.  1.
       -1    1    3    3    0  502 -0.57748943441E+03  0.20274701520E+03  0.64612104309E+03  0.88998471974E+03  0.50400001928E-02 0. -1.
</event>
<event>
 5   0  0.1893687E-04  0.1995776E+04  0.7818609E-02  0.8608598E-01
        2   -1    0    0  501    0  0.00000000000E+00  0.00000000000E+00  0.99080518625E+03  0.99080518625E+03  0.25500000920E-02 0. -1.
       -2   -1    0    0    0  501  0.00000000000E+00  0.00000000000E+00 -0.10050216139E+04  0.10050216139E+04  0.25500000920E-02 0.  1.
    10030    2    1    2    0    0  0.00000000000E+00  0.00000000000E+00 -0.14216427639E+02  0.19958268001E+04  0.19957761671E+04 0.  0.
        4    1    3    3  502    0 -0.90408283719E+02  0.67495468136E+03  0.72232206455E+03  0.99271761215E+03  0.12699999809E+01 0. -1.
       -4    1    3    3    0  502  0.90408283719E+02 -0.67495468136E+03 -0.73653849218E+03  0.10031091880E+04  0.12699999809E+01 0.  1.
</event>
<event>
 5   0  0.1893687E-04  0.1816525E+04  0.7818609E-02  0.8697561E-01
        2   -1    0    0  501    0  0.00000000000E+00  0.00000000000E+00  0.78361151228E+03  0.78361151228E+03  0.25500000920E-02 0.  1.
       -2   -1    0    0    0  501  0.00000000000E+00  0.00000000000E+00 -0.10527419186E+04  0.10527419186E+04  0.25500000920E-02 0. -1.
    10030    2    1    2    0    0  0.00000000000E+00  0.00000000000E+00 -0.26913040627E+03  0.18363534308E+04  0.18165249096E+04 0.  0.
        4    1    3    3  502    0  0.31779863505E+03  0.83702340326E+03  0.19859973772E+02  0.89554462842E+03  0.12699999809E+01 0. -1.
       -4    1    3    3    0  502 -0.31779863505E+03 -0.83702340326E+03 -0.28899038004E+03  0.94080880241E+03  0.12699999809E+01 0.  1.
</event>
<event>
 5   0  0.1807498E-04  0.1954007E+04  0.7818609E-02  0.8628431E-01
        2   -1    0    0  501    0  0.00000000000E+00  0.00000000000E+00  0.67211204160E+03  0.67211204160E+03  0.25500000920E-02 0. -1.
       -2   -1    0    0    0  501  0.00000000000E+00  0.00000000000E+00 -0.14202033388E+04  0.14202033388E+04  0.25500000920E-02 0.  1.
    10030    2    1    2    0    0  0.00000000000E+00  0.00000000000E+00 -0.74809129722E+03  0.20923153804E+04  0.19540069248E+04 0.  0.
        5    1    3    3  502    0  0.12002085056E+03 -0.70475098540E+03 -0.10870889364E+04  0.13011008423E+04  0.46999998093E+01 0.  1.
       -5    1    3    3    0  502 -0.12002085056E+03  0.70475098540E+03  0.33899763923E+03  0.79121453816E+03  0.46999998093E+01 0. -1.
</event>
<event>
 5   0  0.8958919E-05  0.2014724E+04  0.7818609E-02  0.8599768E-01
       -1   -1    0    0    0  501  0.00000000000E+00  0.00000000000E+00  0.83642975996E+03  0.83642975998E+03  0.50400001928E-02 0.  1.
        1   -1    0    0  501    0  0.00000000000E+00  0.00000000000E+00 -0.12132252479E+04  0.12132252479E+04  0.50400001928E-02 0. -1.
    10030    2    1    2    0    0  0.00000000000E+00  0.00000000000E+00 -0.37679548789E+03  0.20496550078E+04  0.20147235075E+04 0.  0.
        4    1    3    3  502    0 -0.67508196921E+03 -0.47091993468E+03 -0.77922059860E+03  0.11334406046E+04  0.12699999809E+01 0. -1.
       -4    1    3    3    0  502  0.67508196921E+03  0.47091993468E+03  0.40242511071E+03  0.91621440322E+03  0.12699999809E+01 0.  1.
</event>
<event>
 5   0  0.1807498E-04  0.1946365E+04  0.7818609E-02  0.8632116E-01
        2   -1    0    0  501    0  0.00000000000E+00  0.00000000000E+00  0.14941943394E+04  0.14941943394E+04  0.25500000920E-02 0. -1.
       -2   -1    0    0    0  501  0.00000000000E+00  0.00000000000E+00 -0.63384268733E+03  0.63384268733E+03  0.25500000920E-02 0.  1.
    10030    2    1    2    0    0  0.00000000000E+00  0.00000000000E+00  0.86035165211E+03  0.21280370268E+04  0.19463649766E+04 0.  0.
        5    1    3    3  502    0 -0.42572526386E+03  0.63500269882E+03  0.10885363633E+04  0.13301894347E+04  0.46999998093E+01 0. -1.
       -5    1    3    3    0  502  0.42572526386E+03 -0.63500269882E+03 -0.22818471122E+03  0.79784759211E+03  0.46999998093E+01 0.  1.
</event>
<event>
 5   0  0.1812865E-04  0.2006317E+04  0.7818609E-02  0.8603673E-01
       -2   -1    0    0    0  501  0.00000000000E+00  0.00000000000E+00  0.19714325204E+04  0.19714325204E+04  0.25500000920E-02 0.  1.
        2   -1    0    0  501    0  0.00000000000E+00  0.00000000000E+00 -0.51045477613E+03  0.51045477614E+03  0.25500000920E-02 0. -1.
    10030    2    1    2    0    0  0.00000000000E+00  0.00000000000E+00  0.14609777443E+04  0.24818872966E+04  0.20063171692E+04 0.  0.
        3    1    3    3  502    0 -0.54430215492E+03  0.40536182167E+03  0.16443432327E+04  0.17788894624E+04  0.10100000352E+00 0.  1.
       -3    1    3    3    0  502  0.54430215492E+03 -0.40536182167E+03 -0.18336548839E+03  0.70299783417E+03  0.10100000352E+00 0. -1.
</event>
<event>
 5   0  0.6531625E-05  0.1911089E+04  0.7818609E-02  0.8649356E-01
        4   -1    0    0  501    0  0.00000000000E+00  0.00000000000E+00  0.97259291692E+03  0.97259374610E+03  0.12699999809E+01 0.  1.
       -4   -1    0    0    0  501  0.00000000000E+00  0.00000000000E+00 -0.93879306306E+03  0.93879392209E+03  0.12699999809E+01 0. -1.
    10030    2    1    2    0    0  0.00000000000E+00  0.00000000000E+00  0.33799853862E+02  0.19113876682E+04  0.19110887965E+04 0.  0.
        4    1    3    3  502    0 -0.79519020024E+03 -0.52848628481E+03  0.54830471271E+02  0.95636457550E+03  0.12699999809E+01 0. -1.
       -4    1    3    3    0  502  0.79519020024E+03  0.52848628481E+03 -0.21030617409E+02  0.95502309269E+03  0.12699999809E+01 0.  1.
</event>
<event>
 5   0  0.8861350E-05  0.1897801E+04  0.7818609E-02  0.8655952E-01
       -1   -1    0    0    0  501  0.00000000000E+00  0.00000000000E+00  0.69384996527E+03  0.69384996528E+03  0.50400001928E-02 0.  1.
        1   -1    0    0  501    0  0.00000000000E+00  0.00000000000E+00 -0.12977042520E+04  0.12977042520E+04  0.50400001928E-02 0. -1.
    10030    2    1    2    0    0  0.00000000000E+00  0.00000000000E+00 -0.60385428675E+03  0.19915542173E+04  0.18978008855E+04 0.  0.
        1    1    3    3  502    0  0.64632563184E+03 -0.33237984238E+03 -0.94214681326E+03  0.11898965500E+04  0.50400001928E-02 0. -1.
       -1    1    3    3    0  502 -0.64632563184E+03  0.33237984238E+03  0.33829252651E+03  0.80165766728E+03  0.50400001928E-02 0.  1.
</event>
<event>
 5   0  0.8881384E-05  0.1960794E+04  0.7818609E-02  0.8625173E-01
       -1   -1    0    0    0  501  0.00000000000E+00  0.00000000000E+00  0.61447649073E+03  0.61447649075E+03  0.50400001928E-02 0.  1.
        1   -1    0    0  501    0  0.00000000000E+00  0.00000000000E+00 -0.15642224917E+04  0.15642224917E+04  0.50400001928E-02 0. -1.
    10030    2    1    2    0    0  0.00000000000E+00  0.00000000000E+00 -0.94974600099E+03  0.21786989825E+04  0.19607936633E+04 0.  0.
        5    1    3    3  502    0  0.19829663801E+03 -0.48286744905E+03 -0.13969601452E+04  0.14913089107E+04  0.46999998093E+01 0. -1.
       -5    1    3    3    0  502 -0.19829663801E+03  0.48286744905E+03  0.44721414419E+03  0.68739007176E+03  0.46999998093E+01 0.  1.
</event>
<event>
 5   0  0.8881384E-05  0.1952394E+04  0.7818609E-02  0.8629207E-01
        1   -1    0    0  501    0  0.00000000000E+00  0.00000000000E+00  0.99271211591E+03  0.99271211592E+03  0.50400001928E-02 0.  1.
       -1   -1    0    0    0  501  0.00000000000E+00  0.00000000000E+00 -0.95995709816E+03  0.95995709817E+03  0.50400001928E-02 0. -1.
    10030    2    1    2    0    0  0.00000000000E+00  0.00000000000E+00  0.32755017750E+02  0.19526692141E+04  0.19523944705E+04 0.  0.
        5    1    3    3  502    0 -0.90081889116E+03 -0.34529600275E+03 -0.13275735033E+03  0.97383294679E+03  0.46999998093E+01 0. -1.
       -5    1    3    3    0  502  0.90081889116E+03  0.34529600275E+03  0.16551236808E+03  0.97883626730E+03  0.46999998093E+01 0.  1.
</event>
<event>
 5   0  0.1834645E-04  0.1811465E+04  0.7818609E-02  0.8700226E-01
        2   -1    0    0  501    0  0.00000000000E+00  0.00000000000E+00  0.23961018257E+04  0.23961018257E+04  0.25500000920E-02 0.  1.
       -2   -1    0    0    0  501  0.00000000000E+00  0.00000000000E+00 -0.34236921458E+03  0.34236921459E+03  0.25500000920E-02 0. -1.
    10030    2    1    2    0    0  0.00000000000E+00  0.00000000000E+00  0.20537326111E+04  0.27384710403E+04  0.18114651530E+04 0.  0.
        1    1    3    3  502    0  0.25533465835E+03 -0.83035444031E+03  0.63947268002E+03  0.10787073713E+04  0.50400001928E-02 0. -1.
       -1    1    3    3    0  502 -0.25533465835E+03  0.83035444031E+03  0.14142599311E+04  0.16597636691E+04  0.50400001928E-02 0.  1.
</event>
<event>
 5   0  0.1834645E-04  0.1972835E+04  0.7818609E-02  0.8619428E-01
       -2   -1    0    0    0  501  0.00000000000E+00  0.00000000000E+00  0.33994995612E+03  0.33994995613E+03  0.25500000920E-02 0. -1.
        2   -1    0    0  501    0  0.00000000000E+00  0.00000000000E+00 -0.28622425749E+04  0.28622425749E+04  0.25500000920E-02 0.  1.
    10030    2    1    2    0    0  0.00000000000E+00  0.00000000000E+00 -0.25222926187E+04  0.32021925310E+04  0.19728347500E+04 0.  0.
        1    1    3    3  502    0 -0.60570249548E+03 -0.61770288226E+03 -0.20303633845E+04  0.22069906744E+04  0.50400001928E-02 0. -1.
       -1    1    3    3    0  502  0.60570249548E+03  0.61770288226E+03 -0.49192923421E+03  0.99520185655E+03  0.50400001928E-02 0.  1.
</event>
<event>
 5   0  0.8958919E-05  0.1968858E+04  0.7818609E-02  0.8621320E-01
        1   -1    0    0  501    0  0.00000000000E+00  0.00000000000E+00  0.87800762088E+03  0.87800762089E+03  0.50400001928E-02 0.  1.
       -1   -1    0    0    0  501  0.00000000000E+00  0.00000000000E+00 -0.11037500261E+04  0.11037500262E+04  0.50400001928E-02 0. -1.
    10030    2    1    2    0    0  0.00000000000E+00  0.00000000000E+00 -0.22574240526E+03  0.19817576470E+04  0.19688584861E+04 0.  0.
        4    1    3    3  502    0  0.83053742643E+03 -0.25335513132E+03  0.35397571932E+03  0.93770019837E+03  0.12699999809E+01 0.  1.
       -4    1    3    3    0  502 -0.83053742643E+03  0.25335513132E+03 -0.57971812458E+03  0.10440574487E+04  0.12699999809E+01 0. -1.
</event>
<event>
 5   0  0.1782172E-04  0.1993091E+04  0.7818609E-02  0.8609858E-01
       -2   -1    0    0    0  501  0.00000000000E+00  0.00000000000E+00  0.66618165374E+03  0.66618165375E+03  0.25500000920E-02 0. -1.
        2   -1    0    0  501    0  0.00000000000E+00  0.00000000000E+00 -0.14907392507E+04  0.14907392507E+04  0.25500000920E-02 0.  1.
    10030    2    1    2    0    0  0.00000000000E+00  0.00000000000E+00 -0.82455759692E+03  0.21569209044E+04  0.19930912065E+04 0.  0.
        2    1    3    3  502    0 -0.77852974435E+03  0.35905691344E+03 -0.96204506372E+03  0.12886276167E+04  0.25500000920E-02 0.  1.
       -2    1    3    3    0  502  0.77852974435E+03 -0.35905691344E+03  0.13748746680E+03  0.86829328770E+03  0.25500000920E-02 0. -1.
</event>
<event>
 5   0  0.6531625E-05  0.2014294E+04  0.7818609E-02  0.8599967E-01
       -3   -1    0    0    0  501  0.00000000000E+00  0.00000000000E+00  0.11387503368E+04  0.11387503413E+04  0.10100000352E+00 0.  1.
        3   -1    0    0  501    0  0.00000000000E+00  0.00000000000E+00 -0.89075281649E+03  0.89075282222E+03  0.10100000352E+00 0. -1.
    10030    2    1    2    0    0  0.00000000000E+00  0.00000000000E+00  0.24799752032E+03  0.20295031635E+04  0.20142940005E+04 0.  0.
        5    1    3    3  502    0  0.70479749918E+02  0.70642569891E+03 -0.59576082317E+03  0.92679971496E+03  0.46999998093E+01 0. -1.
       -5    1    3    3    0  502 -0.70479749918E+02 -0.70642569891E+03  0.84375834349E+03  0.11027034486E+04  0.46999998093E+01 0.  1.
</event>
<event>
 5   0  0.1807498E-04  0.2098813E+04  0.7818609E-02  0.8561767E-01
       -2   -1    0    0    0  501  0.00000000000E+00  0.00000000000E+00  0.49560714150E+03  0.49560714151E+03  0.25500000920E-02 0. -1.
        2   -1    0    0  501    0  0.00000000000E+00  0.00000000000E+00 -0.22220290751E+04  0.22220290751E+04  0.25500000920E-02 0.  1.
    10030    2    1    2    0    0  0.00000000000E+00  0.00000000000E+00 -0.17264219336E+04  0.27176362166E+04  0.20988125007E+04 0.  0.
        5    1    3    3  502    0  0.17411797907E+03 -0.71289449959E+03  0.10809151144E+03  0.74178265214E+03  0.46999998093E+01 0. -1.
       -5    1    3    3    0  502 -0.17411797907E+03  0.71289449959E+03 -0.18345134451E+04  0.19758535645E+04  0.46999998093E+01 0.  1.
</event>
<event>
 5   0  0.1807498E-04  0.2104284E+04  0.7818609E-02  0.8559359E-01
       -2   -1    0    0    0  501  0.00000000000E+00  0.00000000000E+00  0.61025427032E+03  0.61025427032E+03  0.25500000920E-02 0. -1.
        2   -1    0    0  501    0  0.00000000000E+00  0.00000000000E+00 -0.18140028491E+04  0.18140028491E+04  0.25500000920E-02 0.  1.
    10030    2    1    2    0    0  0.00000000000E+00  0.00000000000E+00 -0.12037485788E+04  0.24242571194E+04  0.21042841871E+04 0.  0.
        5    1    3    3  502    0  0.55948984159E+03  0.78508088347E+03 -0.10873816199E+04  0.14532039615E+04  0.46999998093E+01 0. -1.
       -5    1    3    3    0  502 -0.55948984159E+03 -0.78508088347E+03 -0.11636695889E+03  0.97105315794E+03  0.46999998093E+01 0.  1.
</event>
<event>
 5   0  0.8861350E-05  0.1991208E+04  0.7818609E-02  0.8610742E-01
       -1   -1    0    0    0  501  0.00000000000E+00  0.00000000000E+00  0.11062295494E+04  0.11062295494E+04  0.50400001928E-02 0. -1.
        1   -1    0    0  501    0  0.00000000000E+00  0.00000000000E+00 -0.89604170958E+03  0.89604170959E+03  0.50400001928E-02 0.  1.
    10030    2    1    2    0    0  0.00000000000E+00  0.00000000000E+00  0.21018783983E+03  0.20022712590E+04  0.19912084940E+04 0.  0.
        1    1    3    3  502    0 -0.66826605722E+03 -0.62223463885E+02  0.84455461760E+03  0.10787603000E+04  0.50400001928E-02 0. -1.
       -1    1    3    3    0  502  0.66826605722E+03  0.62223463885E+02 -0.63436677777E+03  0.92351095903E+03  0.50400001928E-02 0.  1.
</event>
<event>
 5   0  0.8958919E-05  0.1981059E+04  0.7818609E-02  0.8615528E-01
       -1   -1    0    0    0  501  0.00000000000E+00  0.00000000000E+00  0.62590388865E+03  0.62590388867E+03  0.50400001928E-02 0.  1.
        1   -1    0    0  501    0  0.00000000000E+00  0.00000000000E+00 -0.15675710006E+04  0.15675710006E+04  0.50400001928E-02 0. -1.
    10030    2    1    2    0    0  0.00000000000E+00  0.00000000000E+00 -0.94166711195E+03  0.21934748893E+04  0.19810590956E+04 0.  0.
        4    1    3    3  502    0  0.56330232635E+03 -0.28326006118E+03  0.37501653099E+03  0.73361078547E+03  0.12699999809E+01 0.  1.
       -4    1    3    3    0  502 -0.56330232635E+03  0.28326006118E+03 -0.13166836429E+04  0.14598641038E+04  0.12699999809E+01 0. -1.
</event>
<event>
 5   0  0.1812865E-04  0.2164105E+04  0.7818609E-02  0.8533519E-01
       -2   -1    0    0    0  501  0.00000000000E+00  0.00000000000E+00  0.88873294539E+03  0.88873294540E+03  0.25500000920E-02 0. -1.
        2   -1    0    0  501    0  0.00000000000E+00  0.00000000000E+00 -0.13174233512E+04  0.13174233512E+04  0.25500000920E-02 0.  1.
    10030    2    1    2    0    0  0.00000000000E+00  0.00000000000E+00 -0.42869040584E+03  0.22061562966E+04  0.21641049284E+04 0.  0.
        3    1    3    3  502    0  0.13317384529E+03 -0.99962077328E+03  0.18552737242E+03  0.10253767013E+04  0.10100000352E+00 0. -1.
       -3    1    3    3    0  502 -0.13317384529E+03  0.99962077328E+03 -0.61421777826E+03  0.11807795953E+04  0.10100000352E+00 0.  1.
</event>
<event>
 5   0  0.1834645E-04  0.2007326E+04  0.7818609E-02  0.8603203E-01
        2   -1    0    0  501    0  0.00000000000E+00  0.00000000000E+00  0.17682772472E+04  0.17682772472E+04  0.25500000920E-02 0. -1.
       -2   -1    0    0    0  501  0.00000000000E+00  0.00000000000E+00 -0.56967255169E+03  0.56967255170E+03  0.25500000920E-02 0.  1.
    10030    2    1    2    0    0  0.00000000000E+00  0.00000000000E+00  0.11986046955E+04  0.23379497989E+04  0.20073255954E+04 0.  0.
        1    1    3    3  502    0  0.84099044788E+03 -0.46341319837E+03  0.93951354219E+03  0.13433921326E+04  0.50400001928E-02 0.  1.
       -1    1    3    3    0  502 -0.84099044788E+03  0.46341319837E+03  0.25909115327E+03  0.99455766629E+03  0.50400001928E-02 0. -1.
</event>
<event>
 5   0  0.1807498E-04  0.1981070E+04  0.7818609E-02  0.8615523E-01
        2   -1    0    0  501    0  0.00000000000E+00  0.00000000000E+00  0.97867251770E+03  0.97867251770E+03  0.25500000920E-02 0.  1.
       -2   -1    0    0    0  501  0.00000000000E+00  0.00000000000E+00 -0.10025411064E+04  0.10025411064E+04  0.25500000920E-02 0. -1.
    10030    2    1    2    0    0  0.00000000000E+00  0.00000000000E+00 -0.23868588654E+02  0.19812136241E+04  0.19810698409E+04 0.  0.
        5    1    3    3  502    0 -0.43067123095E+03  0.88895120738E+03 -0.85596821684E+02  0.99149425826E+03  0.46999998093E+01 0.  1.
       -5    1    3    3    0  502  0.43067123095E+03 -0.88895120738E+03  0.61728233030E+02  0.98971936580E+03  0.46999998093E+01 0. -1.
</event>
<event>
 5   0  0.6531625E-05  0.1729691E+04  0.7818609E-02  0.8744609E-01
        4   -1    0    0  501    0  0.00000000000E+00  0.00000000000E+00  0.10271956237E+04  0.10271964088E+04  0.12699999809E+01 0. -1.
       -4   -1    0    0    0  501  0.00000000000E+00  0.00000000000E+00 -0.72815342902E+03  0.72815453655E+03  0.12699999809E+01 0.  1.
    10030    2    1    2    0    0  0.00000000000E+00  0.00000000000E+00  0.29904219469E+03  0.17553509454E+04  0.17296909282E+04 0.  0.
        3    1    3    3  502    0  0.29358264003E+03  0.55523148280E+03  0.75288716633E+03  0.98046512505E+03  0.10100000352E+00 0. -1.
       -3    1    3    3    0  502 -0.29358264003E+03 -0.55523148280E+03 -0.45384497164E+03  0.77488582030E+03  0.10100000352E+00 0.  1.
</event>
<event>
 5   0  0.1812865E-04  0.2101370E+04  0.7818609E-02  0.8560640E-01
       -2   -1    0    0    0  501  0.00000000000E+00  0.00000000000E+00  0.13083507119E+04  0.13083507119E+04  0.25500000920E-02 0.  1.
        2   -1    0    0  501    0  0.00000000000E+00  0.00000000000E+00 -0.84376378911E+03  0.84376378912E+03  0.25500000920E-02 0. -1.
    10030    2    1    2    0    0  0.00000000000E+00  0.00000000000E+00  0.46458692279E+03  0.21521145010E+04  0.21013699857E+04 0.  0.
        3    1    3    3  502    0 -0.37616748397E+03  0.39463286246E+03 -0.68756155538E+03  0.87748388861E+03  0.10100000352E+00 0. -1.
       -3    1    3    3    0  502  0.37616748397E+03 -0.39463286246E+03  0.11521484782E+04  0.12746306124E+04  0.10100000352E+00 0.  1.
</event>
<event>
 5   0  0.1893687E-04  0.2030324E+04  0.7818609E-02  0.8592573E-01
        2   -1    0    0  501    0  0.00000000000E+00  0.00000000000E+00  0.20967863453E+04  0.20967863453E+04  0.25500000920E-02 0.  1.
       -2   -1    0    0    0  501  0.00000000000E+00  0.00000000000E+00 -0.49149193652E+03  0.49149193653E+03  0.25500000920E-02 0. -1.
    10030    2    1    2    0    0  0.00000000000E+00  0.00000000000E+00  0.16052944087E+04  0.25882782818E+04  0.20303236996E+04 0.  0.
        4    1    3    3  502    0  0.93794347013E+02 -0.44235710675E+03  0.19613054737E+04  0.20127587941E+04  0.12699999809E+01 0.  1.
       -4    1    3    3    0  502 -0.93794347013E+02  0.44235710675E+03 -0.35601106493E+03  0.57551948766E+03  0.12699999809E+01 0. -1.
</event>
<event>
 5   0  0.6531625E-05  0.1646970E+04  0.7818609E-02  0.8792201E-01
       -3   -1    0    0    0  501  0.00000000000E+00  0.00000000000E+00  0.47742517262E+03  0.47742518330E+03  0.10100000352E+00 0. -1.
        3   -1    0    0  501    0  0.00000000000E+00  0.00000000000E+00 -0.14203841953E+04  0.14203841989E+04  0.10100000352E+00 0.  1.
    10030    2    1    2    0    0  0.00000000000E+00  0.00000000000E+00 -0.94295902270E+03  0.18978093822E+04  0.16469695604E+04 0.  0.
        4    1    3    3  502    0 -0.14236727645E+03  0.19530267241E+03 -0.13785951804E+04  0.13996206127E+04  0.12699999809E+01 0.  1.
       -4    1    3    3    0  502  0.14236727645E+03 -0.19530267241E+03  0.43563615770E+03  0.49818876949E+03  0.12699999809E+01 0. -1.
</event>
<event>
 5   0  0.1812865E-04  0.1980564E+04  0.7818609E-02  0.8615762E-01
        2   -1    0    0  501    0  0.00000000000E+00  0.00000000000E+00  0.11624285299E+04  0.11624285299E+04  0.25500000920E-02 0.  1.
       -2   -1    0    0    0  501  0.00000000000E+00  0.00000000000E+00 -0.84362893310E+03  0.84362893310E+03  0.25500000920E-02 0. -1.
    10030    2    1    2    0    0  0.00000000000E+00  0.00000000000E+00  0.31879959680E+03  0.20060574630E+04  0.19805639000E+04 0.  0.
        3    1    3    3  502    0  0.12013512781E+03  0.11982092830E+03 -0.82879613481E+03  0.84598613882E+03  0.10100000352E+00 0. -1.
       -3    1    3    3    0  502 -0.12013512781E+03 -0.11982092830E+03  0.11475957316E+04  0.11600713242E+04  0.10100000352E+00 0.  1.
</event>
<event>
 5   0  0.1893687E-04  0.1979382E+04  0.7818609E-02  0.8616321E-01
       -2   -1    0    0    0  501  0.00000000000E+00  0.00000000000E+00  0.76652390411E+03  0.76652390411E+03  0.25500000920E-02 0.  1.
        2   -1    0    0  501    0  0.00000000000E+00  0.00000000000E+00 -0.12778310054E+04  0.12778310054E+04  0.25500000920E-02 0. -1.
    10030    2    1    2    0    0  0.00000000000E+00  0.00000000000E+00 -0.51130710130E+03  0.20443549095E+04  0.19793817328E+04 0.  0.
        4    1    3    3  502    0  0.38490181463E+03  0.75298926827E+03  0.27536731954E+03  0.88936551462E+03  0.12699999809E+01 0.  1.
       -4    1    3    3    0  502 -0.38490181463E+03 -0.75298926827E+03 -0.78667442084E+03  0.11549893949E+04  0.12699999809E+01 0. -1.
</event>
<event>
 5   0  0.1834645E-04  0.1988481E+04  0.7818609E-02  0.8612025E-01
        2   -1    0    0  501    0  0.00000000000E+00  0.00000000000E+00  0.63223914219E+03  0.63223914219E+03  0.25500000920E-02 0. -1.
       -2   -1    0    0    0  501  0.00000000000E+00  0.00000000000E+00 -0.15635127666E+04  0.15635127666E+04  0.25500000920E-02 0.  1.
    10030    2    1    2    0    0  0.00000000000E+00  0.00000000000E+00 -0.93127362444E+03  0.21957519088E+04  0.19884807974E+04 0.  0.
        1    1    3    3  502    0  0.77390943781E+03 -0.11591141191E+03 -0.11428699254E+04  0.13851075553E+04  0.50400001928E-02 0.  1.
       -1    1    3    3    0  502 -0.77390943781E+03  0.11591141191E+03  0.21159630093E+03  0.81064435355E+03  0.50400001928E-02 0. -1.
</event>
<event>
 5   0  0.8958919E-05  0.1923590E+04  0.7818609E-02  0.8643203E-01
       -1   -1    0    0    0  501  0.00000000000E+00  0.00000000000E+00  0.13340051529E+04  0.13340051530E+04  0.50400001928E-02 0. -1.
        1   -1    0    0  501    0  0.00000000000E+00  0.00000000000E+00 -0.69343752701E+03  0.69343752703E+03  0.50400001928E-02 0.  1.
    10030    2    1    2    0    0  0.00000000000E+00  0.00000000000E+00  0.64056762594E+03  0.20274426800E+04  0.19235895969E+04 0.  0.
        4    1    3    3  502    0 -0.24776117934E+03 -0.29139729255E+02  0.12993103837E+04  0.13230433901E+04  0.12699999809E+01 0. -1.
       -4    1    3    3    0  502  0.24776117934E+03  0.29139729255E+02 -0.65874275779E+03  0.70439928993E+03  0.12699999809E+01 0.  1.
</event>
<event>
 5   0  0.1812865E-04  0.1972210E+04  0.7818609E-02  0.8619725E-01
        2   -1    0    0  501    0  0.00000000000E+00  0.00000000000E+00  0.14620566427E+04  0.14620566427E+04  0.25500000920E-02 0.  1.
       -2   -1    0    0    0  501  0.00000000000E+00  0.00000000000E+00 -0.66509245823E+03  0.66509245823E+03  0.25500000920E-02 0. -1.
    10030    2    1    2    0    0  0.00000000000E+00  0.00000000000E+00  0.79696418446E+03  0.21271491009E+04  0.19722097724E+04 0.  0.
        3    1    3    3  502    0  0.69709666054E+03  0.34653100103E+03 -0.25435969915E+03  0.81897884928E+03  0.10100000352E+00 0. -1.
       -3    1    3    3    0  502 -0.69709666054E+03 -0.34653100103E+03  0.10513238836E+04  0.13081702516E+04  0.10100000352E+00 0.  1.
</event>
<event>
 5   0  0.1807498E-04  0.1991973E+04  0.7818609E-02  0.8610383E-01
        2   -1    0    0  501    0  0.00000000000E+00  0.00000000000E+00  0.86446038129E+03  0.86446038129E+03  0.25500000920E-02 0.  1.
       -2   -1    0    0    0  501  0.00000000000E+00  0.00000000000E+00 -0.11475238357E+04  0.11475238357E+04  0.25500000920E-02 0. -1.
    10030    2    1    2    0    0  0.00000000000E+00  0.00000000000E+00 -0.28306345444E+03  0.20119842170E+04  0.19919727835E+04 0.  0.
        5    1    3    3  502    0  0.68883755481E+03 -0.12307920240E+02  0.58494218490E+03  0.90378543443E+03  0.46999998093E+01 0.  1.
       -5    1    3    3    0  502 -0.68883755481E+03  0.12307920240E+02 -0.86800563934E+03  0.11081987826E+04  0.46999998093E+01 0. -1.
</event>
<event>
 5   0  0.8765057E-05  0.1986465E+04  0.7818609E-02  0.8612975E-01
       -1   -1    0    0    0  501  0.00000000000E+00  0.00000000000E+00  0.73799817139E+03  0.73799817141E+03  0.50400001928E-02 0. -1.
        1   -1    0    0  501    0  0.00000000000E+00  0.00000000000E+00 -0.13367391651E+04  0.13367391651E+04  0.50400001928E-02 0.  1.
    10030    2    1    2    0    0  0.00000000000E+00  0.00000000000E+00 -0.59874099369E+03  0.20747373365E+04  0.19864652622E+04 0.  0.
        3    1    3    3  502    0  0.86007007358E+03  0.65959300654E+02 -0.81363220190E+03  0.11857776060E+04  0.10100000352E+00 0.  1.
       -3    1    3    3    0  502 -0.86007007358E+03 -0.65959300654E+02  0.21489120821E+03  0.88895973046E+03  0.10100000352E+00 0. -1.
</event>
<event>
 5   0  0.8958919E-05  0.1989856E+04  0.7818609E-02  0.8611378E-01
        1   -1    0    0  501    0  0.00000000000E+00  0.00000000000E+00  0.14234159203E+04  0.14234159203E+04  0.50400001928E-02 0. -1.
       -1   -1    0    0    0  501  0.00000000000E+00  0.00000000000E+00 -0.69542722388E+03  0.69542722390E+03  0.50400001928E-02 0.  1.
    10030    2    1    2    0    0  0.00000000000E+00  0.00000000000E+00  0.72798869644E+03  0.21188431442E+04  0.19898564591E+04 0.  0.
        4    1    3    3  502    0 -0.75178439717E+03 -0.55777140119E+03  0.72287550070E+03  0.11827253773E+04  0.12699999809E+01 0.  1.
       -4    1    3    3    0  502  0.75178439717E+03  0.55777140119E+03  0.51131957411E+01  0.93611776689E+03  0.12699999809E+01 0. -1.
</event>
<event>
 5   0  0.1893687E-04  0.2002531E+04  0.7818609E-02  0.8605438E-01
       -2   -1    0    0    0  501  0.00000000000E+00  0.00000000000E+00  0.84597611047E+03  0.84597611047E+03  0.25500000920E-02 0. -1.
        2   -1    0    0  501    0  0.00000000000E+00  0.00000000000E+00 -0.11850607625E+04  0.11850607625E+04  0.25500000920E-02 0.  1.
    10030    2    1    2    0    0  0.00000000000E+00  0.00000000000E+00 -0.33908465199E+03  0.20310368729E+04  0.20025314924E+04 0.  0.
        4    1    3    3  502    0 -0.42020352854E+02  0.28680355698E+02  0.84466354656E+03  0.84619524499E+03  0.12699999809E+01 0. -1.
       -4    1    3    3    0  502  0.42020352854E+02 -0.28680355698E+02 -0.11837481985E+04  0.11848416280E+04  0.12699999809E+01 0.  1.
</event>
<event>
 5   0  0.8765057E-05  0.1928965E+04  0.7818609E-02  0.8640571E-01
       -1   -1    0    0    0  501  0.00000000000E+00  0.00000000000E+00  0.93154355530E+03  0.93154355531E+03  0.50400001928E-02 0. -1.
        1   -1    0    0  501    0  0.00000000000E+00  0.00000000000E+00 -0.99858617808E+03  0.99858617810E+03  0.50400001928E-02 0.  1.
    10030    2    1    2    0    0  0.00000000000E+00  0.00000000000E+00 -0.67042622784E+02  0.19301297334E+04  0.19289650268E+04 0.  0.
        3    1    3    3  502    0 -0.27661184422E+03 -0.43487420155E+03  0.78219900381E+03  0.93673100477E+03  0.10100000352E+00 0. -1.
       -3    1    3    3    0  502  0.27661184422E+03  0.43487420155E+03 -0.84924162659E+03  0.99339872864E+03  0.10100000352E+00 0.  1.
</event>
<event>
 5   0  0.1807498E-04  0.1632297E+04  0.7818609E-02  0.8800949E-01
       -2   -1    0    0    0  501  0.00000000000E+00  0.00000000000E+00  0.63300466019E+03  0.63300466019E+03  0.25500000920E-02 0. -1.
        2   -1    0    0  501    0  0.00000000000E+00  0.00000000000E+00 -0.10522802578E+04  0.10522802578E+04  0.25500000920E-02 0.  1.
    10030    2    1    2    0    0  0.00000000000E+00  0.00000000000E+00 -0.41927559764E+03  0.16852849180E+04  0.16322969179E+04 0.  0.
        5    1    3    3  502    0 -0.26828827121E+03  0.57829031889E+03 -0.73576613415E+03  0.97353591796E+03  0.46999998093E+01 0.  1.
       -5    1    3    3    0  502  0.26828827121E+03 -0.57829031889E+03  0.31649053651E+03  0.71174900006E+03  0.46999998093E+01 0. -1.
</event>
<event>
 5   0  0.1782172E-04  0.1988569E+04  0.7818609E-02  0.8611984E-01
        2   -1    0    0  501    0  0.00000000000E+00  0.00000000000E+00  0.16710321176E+04  0.16710321176E+04  0.25500000920E-02 0.  1.
       -2   -1    0    0    0  501  0.00000000000E+00  0.00000000000E+00 -0.59161128594E+03  0.59161128594E+03  0.25500000920E-02 0. -1.
    10030    2    1    2    0    0  0.00000000000E+00  0.00000000000E+00  0.10794208317E+04  0.22626434035E+04  0.19885687918E+04 0.  0.
        2    1    3    3  502    0 -0.93935523614E+03  0.31054777339E+03  0.42722513911E+03  0.10776592684E+04  0.25500000920E-02 0.  1.
       -2    1    3    3    0  502  0.93935523614E+03 -0.31054777339E+03  0.65219569254E+03  0.11849841352E+04  0.25500000920E-02 0. -1.
</event>
<event>
 5   0  0.1807498E-04  0.2034527E+04  0.7818609E-02  0.8590646E-01
       -2   -1    0    0    0  501  0.00000000000E+00  0.00000000000E+00  0.46157397959E+03  0.46157397959E+03  0.25500000920E-02 0. -1.
        2   -1    0    0  501    0  0.00000000000E+00  0.00000000000E+00 -0.22419492388E+04  0.22419492388E+04  0.25500000920E-02 0.  1.
    10030    2    1    2    0    0  0.00000000000E+00  0.00000000000E+00 -0.17803752592E+04  0.27035232184E+04  0.20345273969E+04 0.  0.
        5    1    3    3  502    0 -0.57783825441E+03  0.26999615166E+02 -0.20021000442E+04  0.20839992093E+04  0.46999998093E+01 0.  1.
       -5    1    3    3    0  502  0.57783825441E+03 -0.26999615166E+02  0.22172478502E+03  0.61952400904E+03  0.46999998093E+01 0. -1.
</event>
<event>
 5   0  0.8881384E-05  0.1919093E+04  0.7818609E-02  0.8645410E-01
        1   -1    0    0  501    0  0.00000000000E+00  0.00000000000E+00  0.86696563964E+03  0.86696563966E+03  0.50400001928E-02 0. -1.
       -1   -1    0    0    0  501  0.00000000000E+00  0.00000000000E+00 -0.10620140605E+04  0.10620140605E+04  0.50400001928E-02 0.  1.
    10030    2    1    2    0    0  0.00000000000E+00  0.00000000000E+00 -0.19504842082E+03  0.19289797001E+04  0.19190932226E+04 0.  0.
        5    1    3    3  502    0 -0.32437863341E+03 -0.70854831919E+03  0.46522193587E+03  0.90758787897E+03  0.46999998093E+01 0. -1.
       -5    1    3    3    0  502  0.32437863341E+03  0.70854831919E+03 -0.66027035669E+03  0.10213918212E+04  0.46999998093E+01 0.  1.
</event>
<event>
 5   0  0.8958919E-05  0.2012178E+04  0.7818609E-02  0.8600948E-01
        1   -1    0    0  501    0  0.00000000000E+00  0.00000000000E+00  0.13704433740E+04  0.13704433740E+04  0.50400001928E-02 0. -1.
       -1   -1    0    0    0  501  0.00000000000E+00  0.00000000000E+00 -0.73860374257E+03  0.73860374259E+03  0.50400001928E-02 0.  1.
    10030    2    1    2    0    0  0.00000000000E+00  0.00000000000E+00  0.63183963142E+03  0.21090471166E+04  0.20121775320E+04 0.  0.
        4    1    3    3  502    0  0.29288425687E+03  0.83664106925E+03 -0.18287177010E+03  0.90509290345E+03  0.12699999809E+01 0.  1.
       -4    1    3    3    0  502 -0.29288425687E+03 -0.83664106925E+03  0.81471140152E+03  0.12039542131E+04  0.12699999809E+01 0. -1.
</event>
<event>
 5   0  0.1812865E-04  0.1999672E+04  0.7818609E-02  0.8606774E-01
        2   -1    0    0  501    0  0.00000000000E+00  0.00000000000E+00  0.11116759812E+04  0.11116759812E+04  0.25500000920E-02 0. -1.
       -2   -1    0    0    0  501  0.00000000000E+00  0.00000000000E+00 -0.89924758344E+03  0.89924758345E+03  0.25500000920E-02 0.  1.
    10030    2    1    2    0    0  0.00000000000E+00  0.00000000000E+00  0.21242839777E+03  0.20109235647E+04  0.19996719128E+04 0.  0.
        3    1    3    3  502    0  0.75885448245E+02  0.84697351376E+03 -0.42262424210E+03  0.94959675361E+03  0.10100000352E+00 0.  1.
       -3    1    3    3    0  502 -0.75885448245E+02 -0.84697351376E+03  0.63505263987E+03  0.10613268111E+04  0.10100000352E+00 0. -1.
</event>
<event>
 5   0  0.8577422E-05  0.2001366E+04  0.7818609E-02  0.8605982E-01
        1   -1    0    0  501    0  0.00000000000E+00  0.00000000000E+00  0.10791905994E+04  0.10791905994E+04  0.50400001928E-02 0.  1.
       -1   -1    0    0    0  501  0.00000000000E+00  0.00000000000E+00 -0.92788659005E+03  0.92788659006E+03  0.50400001928E-02 0. -1.
    10030    2    1    2    0    0  0.00000000000E+00  0.00000000000E+00  0.15130400937E+03  0.20070771895E+04  0.20013660188E+04 0.  0.
        2    1    3    3  502    0  0.74950352805E+03  0.55873819632E+03  0.43363363514E+03  0.10305251283E+04  0.25500000920E-02 0.  1.
       -2    1    3    3    0  502 -0.74950352805E+03 -0.55873819632E+03 -0.28232962577E+03  0.97655206117E+03  0.25500000920E-02 0. -1.
</event>
<event>
 5   0  0.1893687E-04  0.1914941E+04  0.7818609E-02  0.8647455E-01
        2   -1    0    0  501    0  0.00000000000E+00  0.00000000000E+00  0.12892721195E+04  0.12892721195E+04  0.25500000920E-02 0.  1.
       -2   -1    0    0    0  501  0.00000000000E+00  0.00000000000E+00 -0.71105970222E+03  0.71105970222E+03  0.25500000920E-02 0. -1.
    10030    2    1    2    0    0  0.00000000000E+00  0.00000000000E+00  0.57821241726E+03  0.20003318217E+04  0.19149406773E+04 0.  0.
        4    1    3    3  502    0 -0.66052881677E+03  0.23505006765E+03 -0.39204549935E+03  0.80327338966E+03  0.12699999809E+01 0. -1.
       -4    1    3    3    0  502  0.66052881677E+03 -0.23505006765E+03  0.97025791661E+03  0.11970584320E+04  0.12699999809E+01 0.  1.
</event>
<event>
 5   0  0.8958919E-05  0.1994084E+04  0.7818609E-02  0.8609392E-01
       -1   -1    0    0    0  501  0.00000000000E+00  0.00000000000E+00  0.77730231728E+03  0.77730231729E+03  0.50400001928E-02 0. -1.
        1   -1    0    0  501    0  0.00000000000E+00  0.00000000000E+00 -0.12789008874E+04  0.12789008874E+04  0.50400001928E-02 0.  1.
    10030    2    1    2    0    0  0.00000000000E+00  0.00000000000E+00 -0.50159857011E+03  0.20562032047E+04  0.19940838732E+04 0.  0.
        4    1    3    3  502    0 -0.80760008099E+02 -0.19852972871E+03  0.75326664185E+03  0.78316567769E+03  0.12699999809E+01 0. -1.
       -4    1    3    3    0  502  0.80760008099E+02  0.19852972871E+03 -0.12548652120E+04  0.12730375270E+04  0.12699999809E+01 0.  1.
</event>
<event>
 5   0  0.8861350E-05  0.1999981E+04  0.7818609E-02  0.8606630E-01
        1   -1    0    0  501    0  0.00000000000E+00  0.00000000000E+00  0.35666547901E+03  0.35666547904E+03  0.50400001928E-02 0.  1.
       -1   -1    0    0    0  501  0.00000000000E+00  0.00000000000E+00 -0.28036934376E+04  0.28036934376E+04  0.50400001928E-02 0. -1.
    10030    2    1    2    0    0  0.00000000000E+00  0.00000000000E+00 -0.24470279586E+04  0.31603589166E+04  0.19999806629E+04 0.  0.
        1    1    3    3  502    0 -0.89954117714E+03 -0.34578846269E+03 -0.16452711002E+04  0.19067409324E+04  0.50400001928E-02 0. -1.
       -1    1    3    3    0  502  0.89954117714E+03  0.34578846269E+03 -0.80175685839E+03  0.12536179842E+04  0.50400001928E-02 0.  1.
</event>
<event>
 5   0  0.8881384E-05  0.2033707E+04  0.7818609E-02  0.8591022E-01
        1   -1    0    0  501    0  0.00000000000E+00  0.00000000000E+00  0.15838645584E+04  0.15838645584E+04  0.50400001928E-02 0. -1.
       -1   -1    0    0    0  501  0.00000000000E+00  0.00000000000E+00 -0.65282813641E+03  0.65282813643E+03  0.50400001928E-02 0.  1.
    10030    2    1    2    0    0  0.00000000000E+00  0.00000000000E+00  0.93103642195E+03  0.22366926948E+04  0.20337073024E+04 0.  0.
        5    1    3    3  502    0  0.67553393176E+03  0.46823770071E+03  0.11239150031E+04  0.13924078647E+04  0.46999998093E+01 0. -1.
       -5    1    3    3    0  502 -0.67553393176E+03 -0.46823770071E+03 -0.19287858117E+03  0.84428483014E+03  0.46999998093E+01 0.  1.
</event>
<event>
 5   0  0.8765057E-05  0.2013348E+04  0.7818609E-02  0.8600405E-01
        1   -1    0    0  501    0  0.00000000000E+00  0.00000000000E+00  0.12643127666E+04  0.12643127666E+04  0.50400001928E-02 0.  1.
       -1   -1    0    0    0  501  0.00000000000E+00  0.00000000000E+00 -0.80153610184E+03  0.80153610186E+03  0.50400001928E-02 0. -1.
    10030    2    1    2    0    0  0.00000000000E+00  0.00000000000E+00  0.46277666479E+03  0.20658488685E+04  0.20133477857E+04 0.  0.
        3    1    3    3  502    0 -0.41959453967E+03  0.53582462151E+03  0.99250247483E+03  0.12034237722E+04  0.10100000352E+00 0.  1.
       -3    1    3    3    0  502  0.41959453967E+03 -0.53582462151E+03 -0.52972581004E+03  0.86242509631E+03  0.10100000352E+00 0. -1.
</event>
<event>
 5   0  0.1782172E-04  0.2017844E+04  0.7818609E-02  0.8598323E-01
        2   -1    0    0  501    0  0.00000000000E+00  0.00000000000E+00  0.10274620752E+04  0.10274620752E+04  0.25500000920E-02 0. -1.
       -2   -1    0    0    0  501  0.00000000000E+00  0.00000000000E+00 -0.99071647091E+03  0.99071647091E+03  0.25500000920E-02 0.  1.
    10030    2    1    2    0    0  0.00000000000E+00  0.00000000000E+00  0.36745604272E+02  0.20181785461E+04  0.20178439990E+04 0.  0.
        2    1    3    3  502    0  0.64515535372E+03 -0.92846598689E+02 -0.75187024645E+03  0.99506521838E+03  0.25500000920E-02 0.  1.
       -2    1    3    3    0  502 -0.64515535372E+03  0.92846598689E+02  0.78861585073E+03  0.10231133277E+04  0.25500000920E-02 0. -1.
</event>
<event>
 5   0  0.8958919E-05  0.1886403E+04  0.7818609E-02  0.8661654E-01
        1   -1    0    0  501    0  0.00000000000E+00  0.00000000000E+00  0.14506817222E+04  0.14506817222E+04  0.50400001928E-02 0. -1.
       -1   -1    0    0    0  501  0.00000000000E+00  0.00000000000E+00 -0.61324921754E+03  0.61324921756E+03  0.50400001928E-02 0.  1.
    10030    2    1    2    0    0  0.00000000000E+00  0.00000000000E+00  0.83743250465E+03  0.20639309398E+04  0.18864033832E+04 0.  0.
        4    1    3    3  502    0 -0.23435083376E+03  0.85088251151E+03  0.78275454580E+03  0.11796726892E+04  0.12699999809E+01 0. -1.
       -4    1    3    3    0  502  0.23435083376E+03 -0.85088251151E+03  0.54677958851E+02  0.88425825060E+03  0.12699999809E+01 0.  1.
</event>
<event>
 5   0  0.1807498E-04  0.2069346E+04  0.7818609E-02  0.8574868E-01
        2   -1    0    0  501    0  0.00000000000E+00  0.00000000000E+00  0.13254054053E+04  0.13254054053E+04  0.25500000920E-02 0. -1.
       -2   -1    0    0    0  501  0.00000000000E+00  0.00000000000E+00 -0.80771403060E+03  0.80771403060E+03  0.25500000920E-02 0.  1.
    10030    2    1    2    0    0  0.00000000000E+00  0.00000000000E+00  0.51769137471E+03  0.21331194359E+04  0.20693463143E+04 0.  0.
        5    1    3    3  502    0 -0.42857018445E+03  0.41372179251E+03 -0.61320948439E+03  0.85491876008E+03  0.46999998093E+01 0.  1.
       -5    1    3    3    0  502  0.42857018445E+03 -0.41372179251E+03  0.11309008591E+04  0.12782006758E+04  0.46999998093E+01 0. -1.
</event>
<event>
 5   0  0.1893687E-04  0.2033236E+04  0.7818609E-02  0.8591237E-01
       -2   -1    0    0    0  501  0.00000000000E+00  0.00000000000E+00  0.56705871707E+03  0.56705871707E+03  0.25500000920E-02 0.  1.
        2   -1    0    0  501    0  0.00000000000E+00  0.00000000000E+00 -0.18225846054E+04  0.18225846054E+04  0.25500000920E-02 0. -1.
    10030    2    1    2    0    0  0.00000000000E+00  0.00000000000E+00 -0.12555258884E+04  0.23896433225E+04  0.20332363248E+04 0.  0.
        4    1    3    3  502    0  0.45260072254E+03  0.80940450565E+03 -0.13817607348E+03  0.93759122649E+03  0.12699999809E+01 0.  1.
       -4    1    3    3    0  502 -0.45260072254E+03 -0.80940450565E+03 -0.11173498149E+04  0.14520520960E+04  0.12699999809E+01 0. -1.
</event>
<event>
 5   0  0.8861350E-05  0.1995490E+04  0.7818609E-02  0.8608732E-01
       -1   -1    0    0    0  501  0.00000000000E+00  0.00000000000E+00  0.73255864066E+03  0.73255864067E+03  0.50400001928E-02 0.  1.
        1   -1    0    0  501    0  0.00000000000E+00  0.00000000000E+00 -0.13589289432E+04  0.13589289433E+04  0.50400001928E-02 0. -1.
    10030    2    1    2    0    0  0.00000000000E+00  0.00000000000E+00 -0.62637030258E+03  0.20914875839E+04  0.19954900545E+04 0.  0.
        1    1    3    3  502    0 -0.69047544874E+03  0.16009513246E+03  0.42281329619E+03  0.82532289451E+03  0.50400001928E-02 0.  1.
       -1    1    3    3    0  502  0.69047544874E+03 -0.16009513246E+03 -0.10491835988E+04  0.12661646894E+04  0.50400001928E-02 0. -1.
</event>
<event>
 5   0  0.1807498E-04  0.1981270E+04  0.7818609E-02  0.8615428E-01
        2   -1    0    0  501    0  0.00000000000E+00  0.00000000000E+00  0.16927944953E+04  0.16927944953E+04  0.25500000920E-02 0.  1.
       -2   -1    0    0    0  501  0.00000000000E+00  0.00000000000E+00 -0.57972667999E+03  0.57972668000E+03  0.25500000920E-02 0. -1.
    10030    2    1    2    0    0  0.00000000000E+00  0.00000000000E+00  0.11130678153E+04  0.22725211753E+04  0.19812704335E+04 0.  0.
        5    1    3    3  502    0  0.68525924868E+03 -0.58812679649E+03  0.10236647193E+04  0.13650585754E+04  0.46999998093E+01 0.  1.
       -5    1    3    3    0  502 -0.68525924868E+03  0.58812679649E+03  0.89403095989E+02  0.90746259991E+03  0.46999998093E+01 0. -1.
</event>
<event>
 5   0  0.1834645E-04  0.1986446E+04  0.7818609E-02  0.8612984E-01
       -2   -1    0    0    0  501  0.00000000000E+00  0.00000000000E+00  0.76835391164E+03  0.76835391164E+03  0.25500000920E-02 0.  1.
        2   -1    0    0  501    0  0.00000000000E+00  0.00000000000E+00 -0.12839031338E+04  0.12839031338E+04  0.25500000920E-02 0. -1.
    10030    2    1    2    0    0  0.00000000000E+00  0.00000000000E+00 -0.51554922213E+03  0.20522570454E+04  0.19864460677E+04 0.  0.
        1    1    3    3  502    0  0.84947189166E+03 -0.21501662904E+03  0.22532536567E+03  0.90476857036E+03  0.50400001928E-02 0.  1.
       -1    1    3    3    0  502 -0.84947189166E+03  0.21501662904E+03 -0.74087458780E+03  0.11474884750E+04  0.50400001928E-02 0. -1.
</event>
<event>
 5   0  0.1812865E-04  0.1964147E+04  0.7818609E-02  0.8623569E-01
        2   -1    0    0  501    0  0.00000000000E+00  0.00000000000E+00  0.15718222931E+04  0.15718222931E+04  0.25500000920E-02 0.  1.
       -2   -1    0    0    0  501  0.00000000000E+00  0.00000000000E+00 -0.61359858065E+03  0.61359858066E+03  0.25500000920E-02 0. -1.
    10030    2    1    2    0    0  0.00000000000E+00  0.00000000000E+00  0.95822371243E+03  0.21854208737E+04  0.19641465608E+04 0.  0.
        3    1    3    3  502    0  0.88266486236E+03  0.14251523423E+02  0.95790027771E+03  0.13026409012E+04  0.10100000352E+00 0. -1.
       -3    1    3    3    0  502 -0.88266486236E+03 -0.14251523423E+02  0.32343472245E+00  0.88277997257E+03  0.10100000352E+00 0.  1.
</event>
<event>
 5   0  0.8861350E-05  0.1995106E+04  0.7818609E-02  0.8608912E-01
       -1   -1    0    0    0  501  0.00000000000E+00  0.00000000000E+00  0.46751616716E+03  0.46751616719E+03  0.50400001928E-02 0. -1.
        1   -1    0    0  501    0  0.00000000000E+00  0.00000000000E+00 -0.21285072304E+04  0.21285072304E+04  0.50400001928E-02 0.  1.
    10030    2    1    2    0    0  0.00000000000E+00  0.00000000000E+00 -0.16609910633E+04  0.25960233976E+04  0.19951055533E+04 0.  0.
        1    1    3    3  502    0  0.18060550089E+03  0.91920777640E+03 -0.38437262803E+03  0.10125727630E+04  0.50400001928E-02 0.  1.
       -1    1    3    3    0  502 -0.18060550089E+03 -0.91920777640E+03 -0.12766184352E+04  0.15834506346E+04  0.50400001928E-02 0. -1.
</event>
<event>
 5   0  0.8577422E-05  0.1811436E+04  0.7818609E-02  0.8700241E-01
        1   -1    0    0  501    0  0.00000000000E+00  0.00000000000E+00  0.15818566584E+04  0.15818566584E+04  0.50400001928E-02 0. -1.
       -1   -1    0    0    0  501  0.00000000000E+00  0.00000000000E+00 -0.51858375313E+03  0.51858375316E+03  0.50400001928E-02 0.  1.
    10030    2    1    2    0    0  0.00000000000E+00  0.00000000000E+00  0.10632729053E+04  0.21004404116E+04  0.18114360744E+04 0.  0.
        2    1    3    3  502    0 -0.13733966198E+03 -0.55389196020E+03  0.13471734736E+04  0.14630566818E+04  0.25500000920E-02 0. -1.
       -2    1    3    3    0  502  0.13733966198E+03  0.55389196020E+03 -0.28390056826E+03  0.63738372979E+03  0.25500000920E-02 0.  1.
</event>
<event>
 5   0  0.1834645E-04  0.2014941E+04  0.7818609E-02  0.8599667E-01
       -2   -1    0    0    0  501  0.00000000000E+00  0.00000000000E+00  0.75145974310E+03  0.75145974310E+03  0.25500000920E-02 0.  1.
        2   -1    0    0  501    0  0.00000000000E+00  0.00000000000E+00 -0.13507006596E+04  0.13507006596E+04  0.25500000920E-02 0. -1.
    10030    2    1    2    0    0  0.00000000000E+00  0.00000000000E+00 -0.59924091654E+03  0.21021604027E+04  0.20149413596E+04 0.  0.
        1    1    3    3  502    0 -0.47238029027E+02  0.55142553174E+03  0.57866019206E+03  0.80071790685E+03  0.50400001928E-02 0.  1.
       -1    1    3    3    0  502  0.47238029027E+02 -0.55142553174E+03 -0.11779011086E+04  0.13014424959E+04  0.50400001928E-02 0. -1.
</event>
<event>
 5   0  0.1812865E-04  0.1838469E+04  0.7818609E-02  0.8686105E-01
       -2   -1    0    0    0  501  0.00000000000E+00  0.00000000000E+00  0.40883355335E+03  0.40883355336E+03  0.25500000920E-02 0. -1.
        2   -1    0    0  501    0  0.00000000000E+00  0.00000000000E+00 -0.20668371016E+04  0.20668371016E+04  0.25500000920E-02 0.  1.
    10030    2    1    2    0    0  0.00000000000E+00  0.00000000000E+00 -0.16580035482E+04  0.24756706550E+04  0.18384693160E+04 0.  0.
        3    1    3    3  502    0  0.60876829664E+03 -0.62391103605E+03 -0.12218945475E+04  0.15009630626E+04  0.10100000352E+00 0.  1.
       -3    1    3    3    0  502 -0.60876829664E+03  0.62391103605E+03 -0.43610900078E+03  0.97470759238E+03  0.10100000352E+00 0. -1.
</event>
<event>
 5   0  0.8881384E-05  0.1818139E+04  0.7818609E-02  0.8696713E-01
        1   -1    0    0  501    0  0.00000000000E+00  0.00000000000E+00  0.57374461030E+03  0.57374461032E+03  0.50400001928E-02 0. -1.
       -1   -1    0    0    0  501  0.00000000000E+00  0.00000000000E+00 -0.14403742547E+04  0.14403742547E+04  0.50400001928E-02 0.  1.
    10030    2    1    2    0    0  0.00000000000E+00  0.00000000000E+00 -0.86662964442E+03  0.20141188651E+04  0.18181385706E+04 0.  0.
        5    1    3    3  502    0  0.24944075859E+03 -0.23908209792E+03 -0.13647851657E+04  0.14078499850E+04  0.46999998093E+01 0.  1.
       -5    1    3    3    0  502 -0.24944075859E+03  0.23908209792E+03  0.49815552129E+03  0.60626888010E+03  0.46999998093E+01 0. -1.
</event>
<event>
 5   0  0.1812865E-04  0.1836919E+04  0.7818609E-02  0.8686909E-01
       -2   -1    0    0    0  501  0.00000000000E+00  0.00000000000E+00  0.49088634665E+03  0.49088634665E+03  0.25500000920E-02 0.  1.
        2   -1    0    0  501    0  0.00000000000E+00  0.00000000000E+00 -0.17184586885E+04  0.17184586885E+04  0.25500000920E-02 0. -1.
    10030    2    1    2    0    0  0.00000000000E+00  0.00000000000E+00 -0.12275723418E+04  0.22093450351E+04  0.18369190591E+04 0.  0.
        3    1    3    3  502    0 -0.76740395643E+03  0.16394098675E+03 -0.39757447577E+02  0.78572650733E+03  0.10100000352E+00 0.  1.
       -3    1    3    3    0  502  0.76740395643E+03 -0.16394098675E+03 -0.11878148943E+04  0.14236185278E+04  0.10100000352E+00 0. -1.
</event>
<event>
 5   0  0.8958919E-05  0.1978856E+04  0.7818609E-02  0.8616571E-01
        1   -1    0    0  501    0  0.00000000000E+00  0.00000000000E+00  0.13611869150E+04  0.13611869150E+04  0.50400001928E-02 0. -1.
       -1   -1    0    0    0  501  0.00000000000E+00  0.00000000000E+00 -0.71920127841E+03  0.71920127843E+03  0.50400001928E-02 0.  1.
    10030    2    1    2    0    0  0.00000000000E+00  0.00000000000E+00  0.64198563659E+03  0.20803881934E+04  0.19788555980E+04 0.  0.
        4    1    3    3  502    0 -0.66179837423E+03 -0.39417309210E+03 -0.33184895456E+03  0.83873407956E+03  0.12699999809E+01 0.  1.
       -4    1    3    3    0  502  0.66179837423E+03  0.39417309210E+03  0.97383459115E+03  0.12416541139E+04  0.12699999809E+01 0. -1.
</event>
<event>
 5   0  0.8958919E-05  0.2005550E+04  0.7818609E-02  0.8604030E-01
       -1   -1    0    0    0  501  0.00000000000E+00  0.00000000000E+00  0.83858524916E+03  0.83858524918E+03  0.50400001928E-02 0.  1.
        1   -1    0    0  501    0  0.00000000000E+00  0.00000000000E+00 -0.11991115796E+04  0.11991115796E+04  0.50400001928E-02 0. -1.
    10030    2    1    2    0    0  0.00000000000E+00  0.00000000000E+00 -0.36052633047E+03  0.20376968288E+04  0.20055495833E+04 0.  0.
        4    1    3    3  502    0  0.21560639203E+03 -0.88611220522E+03  0.24340358314E+03  0.94388975718E+03  0.12699999809E+01 0.  1.
       -4    1    3    3    0  502 -0.21560639203E+03  0.88611220522E+03 -0.60392991362E+03  0.10938070716E+04  0.12699999809E+01 0. -1.
</event>
<event>
 5   0  0.1812865E-04  0.2005116E+04  0.7818609E-02  0.8604233E-01
        2   -1    0    0  501    0  0.00000000000E+00  0.00000000000E+00  0.13772384968E+04  0.13772384968E+04  0.25500000920E-02 0. -1.
       -2   -1    0    0    0  501  0.00000000000E+00  0.00000000000E+00 -0.72980999453E+03  0.72980999454E+03  0.25500000920E-02 0.  1.
    10030    2    1    2    0    0  0.00000000000E+00  0.00000000000E+00  0.64742850225E+03  0.21070484913E+04  0.20051158768E+04 0.  0.
        3    1    3    3  502    0  0.62017698487E+03  0.65578582717E+03 -0.13487419633E+03  0.91261470660E+03  0.10100000352E+00 0.  1.
       -3    1    3    3    0  502 -0.62017698487E+03 -0.65578582717E+03  0.78230269858E+03  0.11944337847E+04  0.10100000352E+00 0. -1.
</event>
<event>
 5   0  0.8765057E-05  0.1936398E+04  0.7818609E-02  0.8636948E-01
        1   -1    0    0  501    0  0.00000000000E+00  0.00000000000E+00  0.12848403932E+04  0.12848403932E+04  0.50400001928E-02 0.  1.
       -1   -1    0    0    0  501  0.00000000000E+00  0.00000000000E+00 -0.72959171236E+03  0.72959171238E+03  0.50400001928E-02 0. -1.
    10030    2    1    2    0    0  0.00000000000E+00  0.00000000000E+00  0.55524868086E+03  0.20144321056E+04  0.19363975859E+04 0.  0.
        3    1    3    3  502    0 -0.92728015910E+03  0.19980477672E+03  0.75799801929E+02  0.95158607726E+03  0.10100000352E+00 0.  1.
       -3    1    3    3    0  502  0.92728015910E+03 -0.19980477672E+03  0.47944887893E+03  0.10628460284E+04  0.10100000352E+00 0. -1.
</event>
<event>
 5   0  0.8861350E-05  0.1986111E+04  0.7818609E-02  0.8613142E-01
       -1   -1    0    0    0  501  0.00000000000E+00  0.00000000000E+00  0.63206588847E+03  0.63206588849E+03  0.50400001928E-02 0. -1.
        1   -1    0    0  501    0  0.00000000000E+00  0.00000000000E+00 -0.15602160213E+04  0.15602160213E+04  0.50400001928E-02 0.  1.
    10030    2    1    2    0    0  0.00000000000E+00  0.00000000000E+00 -0.92815013281E+03  0.21922819098E+04  0.19861111004E+04 0.  0.
        1    1    3    3  502    0 -0.22964805895E+03 -0.35605970910E+03  0.52728959238E+03  0.67642520775E+03  0.50400001928E-02 0. -1.
       -1    1    3    3    0  502  0.22964805895E+03  0.35605970910E+03 -0.14554397252E+04  0.15158567020E+04  0.50400001928E-02 0.  1.
</event>
<event>
 5   0  0.8958919E-05  0.1976660E+04  0.7818609E-02  0.8617611E-01
        1   -1    0    0  501    0  0.00000000000E+00  0.00000000000E+00  0.16145369635E+04  0.16145369635E+04  0.50400001928E-02 0. -1.
       -1   -1    0    0    0  501  0.00000000000E+00  0.00000000000E+00 -0.60500080786E+03  0.60500080788E+03  0.50400001928E-02 0.  1.
    10030    2    1    2    0    0  0.00000000000E+00  0.00000000000E+00  0.10095361557E+04  0.22195377714E+04  0.19766599781E+04 0.  0.
        4    1    3    3  502    0  0.55238498796E+02 -0.24675999138E+03 -0.56806199712E+03  0.62180208311E+03  0.12699999809E+01 0.  1.
       -4    1    3    3    0  502 -0.55238498796E+02  0.24675999138E+03  0.15775981528E+04  0.15977356883E+04  0.12699999809E+01 0. -1.
</event>
<event>
 5   0  0.1782172E-04  0.2003938E+04  0.7818609E-02  0.8604782E-01
        2   -1    0    0  501    0  0.00000000000E+00  0.00000000000E+00  0.14454127897E+04  0.14454127897E+04  0.25500000920E-02 0. -1.
       -2   -1    0    0    0  501  0.00000000000E+00  0.00000000000E+00 -0.69457074134E+03  0.69457074135E+03  0.25500000920E-02 0.  1.
    10030    2    1    2    0    0  0.00000000000E+00  0.00000000000E+00  0.75084204834E+03  0.21399835310E+04  0.20039375568E+04 0.  0.
        2    1    3    3  502    0 -0.34815090608E+03  0.42433707364E+03 -0.51974189634E+03  0.75591179663E+03  0.25500000920E-02 0.  1.
       -2    1    3    3    0  502  0.34815090608E+03 -0.42433707364E+03  0.12705839447E+04  0.13840717344E+04  0.25500000920E-02 0. -1.
</event>
<event>
 5   0  0.1782172E-04  0.2007980E+04  0.7818609E-02  0.8602899E-01
        2   -1    0    0  501    0  0.00000000000E+00  0.00000000000E+00  0.14197292306E+04  0.14197292306E+04  0.25500000920E-02 0.  1.
       -2   -1    0    0    0  501  0.00000000000E+00  0.00000000000E+00 -0.70999154452E+03  0.70999154452E+03  0.25500000920E-02 0. -1.
    10030    2    1    2    0    0  0.00000000000E+00  0.00000000000E+00  0.70973768612E+03  0.21297207752E+04  0.20079798298E+04 0.  0.
        2    1    3    3  502    0 -0.49891043590E+03  0.51955894898E+03  0.10966590171E+04  0.13120648323E+04  0.25500000920E-02 0.  1.
       -2    1    3    3    0  502  0.49891043590E+03 -0.51955894898E+03 -0.38692133094E+03  0.81765594284E+03  0.25500000920E-02 0. -1.
</event>
<event>
 5   0  0.1782172E-04  0.1996678E+04  0.7818609E-02  0.8608176E-01
        2   -1    0    0  501    0  0.00000000000E+00  0.00000000000E+00  0.19365076271E+04  0.19365076271E+04  0.25500000920E-02 0. -1.
       -2   -1    0    0    0  501  0.00000000000E+00  0.00000000000E+00 -0.51467928796E+03  0.51467928797E+03  0.25500000920E-02 0.  1.
    10030    2    1    2    0    0  0.00000000000E+00  0.00000000000E+00  0.14218283391E+04  0.24511869150E+04  0.19966776071E+04 0.  0.
        2    1    3    3  502    0  0.17575955931E+03 -0.91741254032E+03  0.27837055394E+03  0.97469346829E+03  0.25500000920E-02 0.  1.
       -2    1    3    3    0  502 -0.17575955931E+03  0.91741254032E+03  0.11434577852E+04  0.14764934467E+04  0.25500000920E-02 0. -1.
</event>
<event>
 5   0  0.8577422E-05  0.2060246E+04  0.7818609E-02  0.8578960E-01
        1   -1    0    0  501    0  0.00000000000E+00  0.00000000000E+00  0.85881794850E+03  0.85881794852E+03  0.50400001928E-02 0.  1.
       -1   -1    0    0    0  501  0.00000000000E+00  0.00000000000E+00 -0.12355973399E+04  0.12355973399E+04  0.50400001928E-02 0. -1.
    10030    2    1    2    0    0  0.00000000000E+00  0.00000000000E+00 -0.37677939138E+03  0.20944152884E+04  0.20602457840E+04 0.  0.
        2    1    3    3  502    0  0.28670999659E+03  0.82938765021E+03 -0.73684344351E+03  0.11458729235E+04  0.25500000920E-02 0. -1.
       -2    1    3    3    0  502 -0.28670999659E+03 -0.82938765021E+03  0.36006405213E+03  0.94854236495E+03  0.25500000920E-02 0.  1.
</event>
<event>
 5   0  0.8958919E-05  0.2035688E+04  0.7818609E-02  0.8590115E-01
        1   -1    0    0  501    0  0.00000000000E+00  0.00000000000E+00  0.77727557020E+03  0.77727557021E+03  0.50400001928E-02 0. -1.
       -1   -1    0    0    0  501  0.00000000000E+00  0.00000000000E+00 -0.13328687279E+04  0.13328687279E+04  0.50400001928E-02 0.  1.
    10030    2    1    2    0    0  0.00000000000E+00  0.00000000000E+00 -0.55559315771E+03  0.21101442981E+04  0.20356878941E+04 0.  0.
        4    1    3    3  502    0  0.62360805996E+03  0.61602603926E+03 -0.81404747192E+03  0.11962650179E+04  0.12699999809E+01 0.  1.
       -4    1    3    3    0  502 -0.62360805996E+03 -0.61602603926E+03  0.25845431421E+03  0.91387928028E+03  0.12699999809E+01 0. -1.
</event>
<event>
 5   0  0.8765057E-05  0.1814137E+04  0.7818609E-02  0.8698818E-01
        1   -1    0    0  501    0  0.00000000000E+00  0.00000000000E+00  0.11359106356E+04  0.11359106356E+04  0.50400001928E-02 0.  1.
       -1   -1    0    0    0  501  0.00000000000E+00  0.00000000000E+00 -0.72432897453E+03  0.72432897454E+03  0.50400001928E-02 0. -1.
    10030    2    1    2    0    0  0.00000000000E+00  0.00000000000E+00  0.41158166108E+03  0.18602396102E+04  0.18141366937E+04 0.  0.
        3    1    3    3  502    0 -0.83238772229E+03  0.51594928813E+02  0.57156537044E+03  0.10110481392E+04  0.10100000352E+00 0.  1.
       -3    1    3    3    0  502  0.83238772229E+03 -0.51594928813E+02 -0.15998370936E+03  0.84919147096E+03  0.10100000352E+00 0. -1.
</event>
<event>
 5   0  0.1807498E-04  0.1997032E+04  0.7818609E-02  0.8608010E-01
        2   -1    0    0  501    0  0.00000000000E+00  0.00000000000E+00  0.10505325030E+04  0.10505325030E+04  0.25500000920E-02 0. -1.
       -2   -1    0    0    0  501  0.00000000000E+00  0.00000000000E+00 -0.94907510157E+03  0.94907510157E+03  0.25500000920E-02 0.  1.
    10030    2    1    2    0    0  0.00000000000E+00  0.00000000000E+00  0.10145740140E+03  0.19996076045E+04  0.19970320398E+04 0.  0.
        5    1    3    3  502    0 -0.49821409000E+03 -0.62365100267E+03 -0.54992353096E+03  0.96932751561E+03  0.46999998093E+01 0.  1.
       -5    1    3    3    0  502  0.49821409000E+03  0.62365100267E+03  0.65138093237E+03  0.10302800889E+04  0.46999998093E+01 0. -1.
</event>
<event>
 5   0  0.8958919E-05  0.1964501E+04  0.7818609E-02  0.8623400E-01
        1   -1    0    0  501    0  0.00000000000E+00  0.00000000000E+00  0.13049782228E+04  0.13049782228E+04  0.50400001928E-02 0.  1.
       -1   -1    0    0    0  501  0.00000000000E+00  0.00000000000E+00 -0.73933471071E+03  0.73933471073E+03  0.50400001928E-02 0. -1.
    10030    2    1    2    0    0  0.00000000000E+00  0.00000000000E+00  0.56564351213E+03  0.20443129336E+04  0.19645006459E+04 0.  0.
        4    1    3    3  502    0 -0.48566978024E+03  0.28685607812E+02  0.11707860708E+04  0.12678484278E+04  0.12699999809E+01 0.  1.
       -4    1    3    3    0  502  0.48566978024E+03 -0.28685607812E+02 -0.60514255863E+03  0.77646450576E+03  0.12699999809E+01 0. -1.
</event>
<event>
 5   0  0.1807498E-04  0.1971536E+04  0.7818609E-02  0.8620046E-01
        2   -1    0    0  501    0  0.00000000000E+00  0.00000000000E+00  0.88386549118E+03  0.88386549119E+03  0.25500000920E-02 0. -1.
       -2   -1    0    0    0  501  0.00000000000E+00  0.00000000000E+00 -0.10994185712E+04  0.10994185712E+04  0.25500000920E-02 0.  1.
    10030    2    1    2    0    0  0.00000000000E+00  0.00000000000E+00 -0.21555307999E+03  0.19832840624E+04  0.19715355796E+04 0.  0.
        5    1    3    3  502    0  0.93765115963E+01  0.21697116729E+03  0.85948938644E+03  0.88651480631E+03  0.46999998093E+01 0. -1.
       -5    1    3    3    0  502 -0.93765115963E+01 -0.21697116729E+03 -0.10750424664E+04  0.10967692561E+04  0.46999998093E+01 0.  1.
</event>
<event>
 5   0  0.8958919E-05  0.2081828E+04  0.7818609E-02  0.8569291E-01
        1   -1    0    0  501    0  0.00000000000E+00  0.00000000000E+00  0.16952396664E+04  0.16952396664E+04  0.50400001928E-02 0. -1.
       -1   -1    0    0    0  501  0.00000000000E+00  0.00000000000E+00 -0.63914355611E+03  0.63914355613E+03  0.50400001928E-02 0.  1.
    10030    2    1    2    0    0  0.00000000000E+00  0.00000000000E+00  0.10560961103E+04  0.23343832225E+04  0.20818275710E+04 0.  0.
        4    1    3    3  502    0 -0.86452926650E+03 -0.54198714362E+03  0.29732149556E+03  0.10628088262E+04  0.12699999809E+01 0. -1.
       -4    1    3    3    0  502  0.86452926650E+03  0.54198714362E+03  0.75877461474E+03  0.12715743963E+04  0.12699999809E+01 0.  1.
</event>
<event>
 5   0  0.8881384E-05  0.1897507E+04  0.7818609E-02  0.8656098E-01
       -1   -1    0    0    0  501  0.00000000000E+00  0.00000000000E+00  0.52418657110E+03  0.52418657113E+03  0.50400001928E-02 0.  1.
        1   -1    0    0  501    0  0.00000000000E+00  0.00000000000E+00 -0.17172002579E+04  0.17172002579E+04  0.50400001928E-02 0. -1.
    10030    2    1    2    0    0  0.00000000000E+00  0.00000000000E+00 -0.11930136868E+04  0.22413868290E+04  0.18975071174E+04 0.  0.
        5    1    3    3  502    0  0.74464760056E+03  0.58080773560E+02  0.94523932511E+02  0.75288132470E+03  0.46999998093E+01 0.  1.
       -5    1    3    3    0  502 -0.74464760056E+03 -0.58080773560E+02 -0.12875376193E+04  0.14885055043E+04  0.46999998093E+01 0. -1.
</event>
<event>
 5   0  0.8765057E-05  0.1965532E+04  0.7818609E-02  0.8622907E-01
       -1   -1    0    0    0  501  0.00000000000E+00  0.00000000000E+00  0.54300204487E+03  0.54300204489E+03  0.50400001928E-02 0.  1.
        1   -1    0    0  501    0  0.00000000000E+00  0.00000000000E+00 -0.17786834311E+04  0.17786834311E+04  0.50400001928E-02 0. -1.
    10030    2    1    2    0    0  0.00000000000E+00  0.00000000000E+00 -0.12356813862E+04  0.23216854760E+04  0.19655317248E+04 0.  0.
        3    1    3    3  502    0  0.76403737397E+03 -0.60898340469E+03 -0.74292987518E+03  0.12274195312E+04  0.10100000352E+00 0.  1.
       -3    1    3    3    0  502 -0.76403737397E+03  0.60898340469E+03 -0.49275151103E+03  0.10942659447E+04  0.10100000352E+00 0. -1.
</event>
<event>
 5   0  0.8765057E-05  0.1891665E+04  0.7818609E-02  0.8659016E-01
       -1   -1    0    0    0  501  0.00000000000E+00  0.00000000000E+00  0.12905812017E+04  0.12905812017E+04  0.50400001928E-02 0. -1.
        1   -1    0    0  501    0  0.00000000000E+00  0.00000000000E+00 -0.69317540541E+03  0.69317540542E+03  0.50400001928E-02 0.  1.
    10030    2    1    2    0    0  0.00000000000E+00  0.00000000000E+00  0.59740579626E+03  0.19837566071E+04  0.18916650313E+04 0.  0.
        3    1    3    3  502    0  0.61896316095E+03 -0.16911835244E+03 -0.43002431075E+03  0.77242302516E+03  0.10100000352E+00 0.  1.
       -3    1    3    3    0  502 -0.61896316095E+03  0.16911835244E+03  0.10274301070E+04  0.12113335819E+04  0.10100000352E+00 0. -1.
</event>
<event>
 5   0  0.1893687E-04  0.1852926E+04  0.7818609E-02  0.8678649E-01
       -2   -1    0    0    0  501  0.00000000000E+00  0.00000000000E+00  0.48581912310E+03  0.48581912310E+03  0.25500000920E-02 0.  1.
        2   -1    0    0  501    0  0.00000000000E+00  0.00000000000E+00 -0.17667768826E+04  0.17667768826E+04  0.25500000920E-02 0. -1.
    10030    2    1    2    0    0  0.00000000000E+00  0.00000000000E+00 -0.12809577595E+04  0.22525960057E+04  0.18529263297E+04 0.  0.
        4    1    3    3  502    0  0.22180736567E+03 -0.57590359032E+03  0.19955676630E+03  0.64860463203E+03  0.12699999809E+01 0.  1.
       -4    1    3    3    0  502 -0.22180736567E+03  0.57590359032E+03 -0.14805145258E+04  0.16039913737E+04  0.12699999809E+01 0. -1.
</event>
<event>
 5   0  0.1782172E-04  0.1912786E+04  0.7818609E-02  0.8648518E-01
       -2   -1    0    0    0  501  0.00000000000E+00  0.00000000000E+00  0.80778907887E+03  0.80778907887E+03  0.25500000920E-02 0. -1.
        2   -1    0    0  501    0  0.00000000000E+00  0.00000000000E+00 -0.11323350469E+04  0.11323350469E+04  0.25500000920E-02 0.  1.
    10030    2    1    2    0    0  0.00000000000E+00  0.00000000000E+00 -0.32454596801E+03  0.19401241258E+04  0.19127863284E+04 0.  0.
        2    1    3    3  502    0 -0.25406015431E+03 -0.81801734368E+03  0.26923524768E+03  0.89787892011E+03  0.25500000920E-02 0. -1.
       -2    1    3    3    0  502  0.25406015431E+03  0.81801734368E+03 -0.59378121569E+03  0.10422452056E+04  0.25500000920E-02 0.  1.
</event>
<event>
 5   0  0.8765057E-05  0.1992066E+04  0.7818609E-02  0.8610339E-01
        1   -1    0    0  501    0  0.00000000000E+00  0.00000000000E+00  0.10176427877E+04  0.10176427877E+04  0.50400001928E-02 0.  1.
       -1   -1    0    0    0  501  0.00000000000E+00  0.00000000000E+00 -0.97488216683E+03  0.97488216684E+03  0.50400001928E-02 0. -1.
    10030    2    1    2    0    0  0.00000000000E+00  0.00000000000E+00  0.42760620906E+02  0.19925249546E+04  0.19920660692E+04 0.  0.
        3    1    3    3  502    0  0.91396959699E+03 -0.38679849503E+03  0.10582899476E+03  0.99807478994E+03  0.10100000352E+00 0.  1.
       -3    1    3    3    0  502 -0.91396959699E+03  0.38679849503E+03 -0.63068373850E+02  0.99445016465E+03  0.10100000352E+00 0. -1.
</event>
<event>
 5   0  0.1812865E-04  0.2024863E+04  0.7818609E-02  0.8595084E-01
       -2   -1    0    0    0  501  0.00000000000E+00  0.00000000000E+00  0.47685099045E+03  0.47685099046E+03  0.25500000920E-02 0. -1.
        2   -1    0    0  501    0  0.00000000000E+00  0.00000000000E+00 -0.21495559878E+04  0.21495559878E+04  0.25500000920E-02 0.  1.
    10030    2    1    2    0    0  0.00000000000E+00  0.00000000000E+00 -0.16727049974E+04  0.26264069783E+04  0.20248633552E+04 0.  0.
        3    1    3    3  502    0  0.16494602570E+03 -0.89087068117E+03 -0.25027942440E+03  0.93994551036E+03  0.10100000352E+00 0. -1.
       -3    1    3    3    0  502 -0.16494602570E+03  0.89087068117E+03 -0.14224255730E+04  0.16864614679E+04  0.10100000352E+00 0.  1.
</event>
<event>
 5   0  0.8861350E-05  0.1987513E+04  0.7818609E-02  0.8612481E-01
        1   -1    0    0  501    0  0.00000000000E+00  0.00000000000E+00  0.87017370730E+03  0.87017370731E+03  0.50400001928E-02 0. -1.
       -1   -1    0    0    0  501  0.00000000000E+00  0.00000000000E+00 -0.11348900899E+04  0.11348900900E+04  0.50400001928E-02 0.  1.
    10030    2    1    2    0    0  0.00000000000E+00  0.00000000000E+00 -0.26471638265E+03  0.20050637973E+04  0.19875125328E+04 0.  0.
        1    1    3    3  502    0  0.21059681012E+03 -0.87560629438E+03 -0.55620414640E+03  0.10584897032E+04  0.50400001928E-02 0.  1.
       -1    1    3    3    0  502 -0.21059681012E+03  0.87560629438E+03  0.29148776375E+03  0.94657409411E+03  0.50400001928E-02 0. -1.
</event>
<event>
 5   0  0.8958919E-05  0.1994756E+04  0.7818609E-02  0.8609076E-01
       -1   -1    0    0    0  501  0.00000000000E+00  0.00000000000E+00  0.44847420054E+03  0.44847420057E+03  0.50400001928E-02 0.  1.
        1   -1    0    0  501    0  0.00000000000E+00  0.00000000000E+00 -0.22181054459E+04  0.22181054459E+04  0.50400001928E-02 0. -1.
    10030    2    1    2    0    0  0.00000000000E+00  0.00000000000E+00 -0.17696312454E+04  0.26665796465E+04  0.19947561922E+04 0.  0.
        4    1    3    3  502    0 -0.92162431538E+03  0.24885901372E+03 -0.49867101341E+03  0.10770313737E+04  0.12699999809E+01 0.  1.
       -4    1    3    3    0  502  0.92162431538E+03 -0.24885901372E+03 -0.12709602319E+04  0.15895482728E+04  0.12699999809E+01 0. -1.
</event>
<event>
 5   0  0.8881384E-05  0.2025453E+04  0.7818609E-02  0.8594812E-01
        1   -1    0    0  501    0  0.00000000000E+00  0.00000000000E+00  0.87392516961E+03  0.87392516962E+03  0.50400001928E-02 0.  1.
       -1   -1    0    0    0  501  0.00000000000E+00  0.00000000000E+00 -0.11735730701E+04  0.11735730701E+04  0.50400001928E-02 0. -1.
    10030    2    1    2    0    0  0.00000000000E+00  0.00000000000E+00 -0.29964790047E+03  0.20474982397E+04  0.20254530795E+04 0.  0.
        5    1    3    3  502    0 -0.34570309502E+03 -0.93000883508E+02  0.80781633286E+03  0.88360008594E+03  0.46999998093E+01 0.  1.
       -5    1    3    3    0  502  0.34570309502E+03  0.93000883508E+02 -0.11074642333E+04  0.11638981538E+04  0.46999998093E+01 0. -1.
</event>
<event>
 5   0  0.1812865E-04  0.2082576E+04  0.7818609E-02  0.8568958E-01
       -2   -1    0    0    0  501  0.00000000000E+00  0.00000000000E+00  0.93458699243E+03  0.93458699243E+03  0.25500000920E-02 0.  1.
        2   -1    0    0  501    0  0.00000000000E+00  0.00000000000E+00 -0.11601704661E+04  0.11601704661E+04  0.25500000920E-02 0. -1.
    10030    2    1    2    0    0  0.00000000000E+00  0.00000000000E+00 -0.22558347368E+03  0.20947574585E+04  0.20825755464E+04 0.  0.
        3    1    3    3  502    0  0.30088770241E+03 -0.38484047798E+03  0.81217672327E+03  0.94776929839E+03  0.10100000352E+00 0.  1.
       -3    1    3    3    0  502 -0.30088770241E+03  0.38484047798E+03 -0.10377601969E+04  0.11469881602E+04  0.10100000352E+00 0. -1.
</event>
<event>
 5   0  0.8861350E-05  0.1883601E+04  0.7818609E-02  0.8663062E-01
       -1   -1    0    0    0  501  0.00000000000E+00  0.00000000000E+00  0.57861527009E+03  0.57861527011E+03  0.50400001928E-02 0.  1.
        1   -1    0    0  501    0  0.00000000000E+00  0.00000000000E+00 -0.15329505433E+04  0.15329505433E+04  0.50400001928E-02 0. -1.
    10030    2    1    2    0    0  0.00000000000E+00  0.00000000000E+00 -0.95433527321E+03  0.21115658134E+04  0.18836014363E+04 0.  0.
        1    1    3    3  502    0 -0.93601663835E+03  0.10406145886E+03 -0.48357399817E+03  0.10586783016E+04  0.50400001928E-02 0.  1.
       -1    1    3    3    0  502  0.93601663835E+03 -0.10406145886E+03 -0.47076127503E+03  0.10528875118E+04  0.50400001928E-02 0. -1.
</event>
<event>
 5   0  0.1834645E-04  0.1999333E+04  0.7818609E-02  0.8606933E-01
        2   -1    0    0  501    0  0.00000000000E+00  0.00000000000E+00  0.10229444787E+04  0.10229444787E+04  0.25500000920E-02 0.  1.
       -2   -1    0    0    0  501  0.00000000000E+00  0.00000000000E+00 -0.97691799123E+03  0.97691799123E+03  0.25500000920E-02 0. -1.
    10030    2    1    2    0    0  0.00000000000E+00  0.00000000000E+00  0.46026487519E+02  0.19998624700E+04  0.19993327540E+04 0.  0.
        1    1    3    3  502    0  0.47005819879E+03  0.53567877415E+03  0.72421709697E+03  0.10160693199E+04  0.50400001928E-02 0.  1.
       -1    1    3    3    0  502 -0.47005819879E+03 -0.53567877415E+03 -0.67819060945E+03  0.98379315005E+03  0.50400001928E-02 0. -1.
</event>
<event>
 5   0  0.8958919E-05  0.2014109E+04  0.7818609E-02  0.8600052E-01
       -1   -1    0    0    0  501  0.00000000000E+00  0.00000000000E+00  0.93643314787E+03  0.93643314788E+03  0.50400001928E-02 0.  1.
        1   -1    0    0  501    0  0.00000000000E+00  0.00000000000E+00 -0.10830021579E+04  0.10830021579E+04  0.50400001928E-02 0. -1.
    10030    2    1    2    0    0  0.00000000000E+00  0.00000000000E+00 -0.14656901006E+03  0.20194353058E+04  0.20141093515E+04 0.  0.
        4    1    3    3  502    0 -0.95380792977E+03 -0.24718294637E+03  0.13537281551E+03  0.99457347036E+03  0.12699999809E+01 0.  1.
       -4    1    3    3    0  502  0.95380792977E+03  0.24718294637E+03 -0.28194182557E+03  0.10248618355E+04  0.12699999809E+01 0. -1.
</event>
<event>
 5   0  0.8881384E-05  0.2001621E+04  0.7818609E-02  0.8605863E-01
        1   -1    0    0  501    0  0.00000000000E+00  0.00000000000E+00  0.23887442799E+04  0.23887442799E+04  0.50400001928E-02 0.  1.
       -1   -1    0    0    0  501  0.00000000000E+00  0.00000000000E+00 -0.41930884727E+03  0.41930884730E+03  0.50400001928E-02 0. -1.
    10030    2    1    2    0    0  0.00000000000E+00  0.00000000000E+00  0.19694354327E+04  0.28080531272E+04  0.20016209536E+04 0.  0.
        5    1    3    3  502    0 -0.19399445402E+03 -0.78777229164E+03  0.18067924279E+04  0.19805908207E+04  0.46999998093E+01 0. -1.
       -5    1    3    3    0  502  0.19399445402E+03  0.78777229164E+03  0.16264300476E+03  0.82746230649E+03  0.46999998093E+01 0.  1.
</event>
<event>
 5   0  0.8577422E-05  0.2017160E+04  0.7818609E-02  0.8598639E-01
       -1   -1    0    0    0  501  0.00000000000E+00  0.00000000000E+00  0.56399800711E+03  0.56399800713E+03  0.50400001928E-02 0.  1.
        1   -1    0    0  501    0  0.00000000000E+00  0.00000000000E+00 -0.18036126376E+04  0.18036126376E+04  0.50400001928E-02 0. -1.
    10030    2    1    2    0    0  0.00000000000E+00  0.00000000000E+00 -0.12396146304E+04  0.23676106447E+04  0.20171603141E+04 0.  0.
        2    1    3    3  502    0  0.14097447637E+03  0.41207308235E+03  0.44794012673E+03  0.62476266319E+03  0.25500000920E-02 0.  1.
       -2    1    3    3    0  502 -0.14097447637E+03 -0.41207308235E+03 -0.16875547572E+04  0.17428479815E+04  0.25500000920E-02 0. -1.
</event>
<event>
 5   0  0.8958919E-05  0.1995734E+04  0.7818609E-02  0.8608618E-01
       -1   -1    0    0    0  501  0.00000000000E+00  0.00000000000E+00  0.12398168711E+04  0.12398168711E+04  0.50400001928E-02 0.  1.
        1   -1    0    0  501    0  0.00000000000E+00  0.00000000000E+00 -0.80313361186E+03  0.80313361188E+03  0.50400001928E-02 0. -1.
    10030    2    1    2    0    0  0.00000000000E+00  0.00000000000E+00  0.43668325928E+03  0.20429504830E+04  0.19957340522E+04 0.  0.
        4    1    3    3  502    0 -0.45762733272E+03  0.83458545372E+03  0.52506594025E+03  0.10870379523E+04  0.12699999809E+01 0.  1.
       -4    1    3    3    0  502  0.45762733272E+03 -0.83458545372E+03 -0.88382680972E+02  0.95591253073E+03  0.12699999809E+01 0. -1.
</event>
<event>
 5   0  0.8881384E-05  0.1999894E+04  0.7818609E-02  0.8606670E-01
        1   -1    0    0  501    0  0.00000000000E+00  0.00000000000E+00  0.13809156438E+04  0.13809156439E+04  0.50400001928E-02 0. -1.
       -1   -1    0    0    0  501  0.00000000000E+00  0.00000000000E+00 -0.72408066770E+03  0.72408066771E+03  0.50400001928E-02 0.  1.
    10030    2    1    2    0    0  0.00000000000E+00  0.00000000000E+00  0.65683497615E+03  0.21049963116E+04  0.19998943187E+04 0.  0.
        5    1    3    3  502    0  0.13025293791E+03  0.37263959545E+03  0.12954195173E+04  0.13542377604E+04  0.46999998093E+01 0. -1.
       -5    1    3    3    0  502 -0.13025293791E+03 -0.37263959545E+03 -0.63858454115E+03  0.75075855115E+03  0.46999998093E+01 0.  1.
</event>
<event>
 5   0  0.1782172E-04  0.1967813E+04  0.7818609E-02  0.8621819E-01
        2   -1    0    0  501    0  0.00000000000E+00  0.00000000000E+00  0.17739778458E+04  0.17739778458E+04  0.25500000920E-02 0.  1.
       -2   -1    0    0    0  501  0.00000000000E+00  0.00000000000E+00 -0.54570696398E+03  0.54570696399E+03  0.25500000920E-02 0. -1.
    10030    2    1    2    0    0  0.00000000000E+00  0.00000000000E+00  0.12282708818E+04  0.23196848098E+04  0.19678130647E+04 0.  0.
        2    1    3    3  502    0  0.30219780239E+03 -0.42648001551E+03 -0.36850547023E+03  0.63953498497E+03  0.25500000920E-02 0. -1.
       -2    1    3    3    0  502 -0.30219780239E+03  0.42648001551E+03  0.15967763520E+04  0.16801498248E+04  0.25500000920E-02 0.  1.
</event>
<event>
 5   0  0.8861350E-05  0.1906816E+04  0.7818609E-02  0.8651471E-01
       -1   -1    0    0    0  501  0.00000000000E+00  0.00000000000E+00  0.51993534821E+03  0.51993534823E+03  0.50400001928E-02 0.  1.
        1   -1    0    0  501    0  0.00000000000E+00  0.00000000000E+00 -0.17482687439E+04  0.17482687439E+04  0.50400001928E-02 0. -1.
    10030    2    1    2    0    0  0.00000000000E+00  0.00000000000E+00 -0.12283333957E+04  0.22682040922E+04  0.19068158990E+04 0.  0.
        1    1    3    3  502    0 -0.14879714407E+03  0.27851757199E+03  0.45592546482E+03  0.55459954696E+03  0.50400001928E-02 0.  1.
       -1    1    3    3    0  502  0.14879714407E+03 -0.27851757199E+03 -0.16842588606E+04  0.17136045452E+04  0.50400001928E-02 0. -1.
</event>
<event>
 5   0  0.8861350E-05  0.2216369E+04  0.7818609E-02  0.8511646E-01
        1   -1    0    0  501    0  0.00000000000E+00  0.00000000000E+00  0.14840288964E+04  0.14840288964E+04  0.50400001928E-02 0.  1.
       -1   -1    0    0    0  501  0.00000000000E+00  0.00000000000E+00 -0.82752636032E+03  0.82752636033E+03  0.50400001928E-02 0. -1.
    10030    2    1    2    0    0  0.00000000000E+00  0.00000000000E+00  0.65650253606E+03  0.23115552567E+04  0.22163691310E+04 0.  0.
        1    1    3    3  502    0 -0.67001276147E+03 -0.73601479620E+03 -0.17995198078E+03  0.10114433233E+04  0.50400001928E-02 0. -1.
       -1    1    3    3    0  502  0.67001276147E+03  0.73601479620E+03  0.83645451683E+03  0.13001119335E+04  0.50400001928E-02 0.  1.
</event>
<event>
 5   0  0.8861350E-05  0.1977575E+04  0.7818609E-02  0.8617177E-01
        1   -1    0    0  501    0  0.00000000000E+00  0.00000000000E+00  0.13089401667E+04  0.13089401667E+04  0.50400001928E-02 0. -1.
       -1   -1    0    0    0  501  0.00000000000E+00  0.00000000000E+00 -0.74694093975E+03  0.74694093977E+03  0.50400001928E-02 0.  1.
    10030    2    1    2    0    0  0.00000000000E+00  0.00000000000E+00  0.56199922691E+03  0.20558811064E+04  0.19775752812E+04 0.  0.
        1    1    3    3  502    0 -0.88367275819E+03  0.31570891054E+03  0.60503270508E+03  0.11165188015E+04  0.50400001928E-02 0. -1.
       -1    1    3    3    0  502  0.88367275819E+03 -0.31570891054E+03 -0.43033478175E+02  0.93936230499E+03  0.50400001928E-02 0.  1.
</event>
<event>
 5   0  0.1893687E-04  0.1999478E+04  0.7818609E-02  0.8606865E-01
        2   -1    0    0  501    0  0.00000000000E+00  0.00000000000E+00  0.15092797285E+04  0.15092797285E+04  0.25500000920E-02 0.  1.
       -2   -1    0    0    0  501  0.00000000000E+00  0.00000000000E+00 -0.66222168422E+03  0.66222168422E+03  0.25500000920E-02 0. -1.
    10030    2    1    2    0    0  0.00000000000E+00  0.00000000000E+00  0.84705804428E+03  0.21715014127E+04  0.19994776956E+04 0.  0.
        4    1    3    3  502    0 -0.98962974303E+03  0.13476451841E+03  0.37559998627E+03  0.10670545751E+04  0.12699999809E+01 0.  1.
       -4    1    3    3    0  502  0.98962974303E+03 -0.13476451841E+03  0.47145805801E+03  0.11044468376E+04  0.12699999809E+01 0. -1.
</event>
<event>
 5   0  0.8765057E-05  0.2019977E+04  0.7818609E-02  0.8597337E-01
       -1   -1    0    0    0  501  0.00000000000E+00  0.00000000000E+00  0.72676425304E+03  0.72676425306E+03  0.50400001928E-02 0.  1.
        1   -1    0    0  501    0  0.00000000000E+00  0.00000000000E+00 -0.14035872871E+04  0.14035872871E+04  0.50400001928E-02 0. -1.
    10030    2    1    2    0    0  0.00000000000E+00  0.00000000000E+00 -0.67682303406E+03  0.21303515402E+04  0.20199772933E+04 0.  0.
        3    1    3    3  502    0 -0.12830996442E+02  0.31507249522E+03  0.67351766089E+03  0.74368095407E+03  0.10100000352E+00 0.  1.
       -3    1    3    3    0  502  0.12830996442E+02 -0.31507249522E+03 -0.13503406950E+04  0.13866705861E+04  0.10100000352E+00 0. -1.
</event>
<event>
 5   0  0.1893687E-04  0.2002565E+04  0.7818609E-02  0.8605423E-01
       -2   -1    0    0    0  501  0.00000000000E+00  0.00000000000E+00  0.78624411644E+03  0.78624411644E+03  0.25500000920E-02 0. -1.
        2   -1    0    0  501    0  0.00000000000E+00  0.00000000000E+00 -0.12751335927E+04  0.12751335927E+04  0.25500000920E-02 0.  1.
    10030    2    1    2    0    0  0.00000000000E+00  0.00000000000E+00 -0.48888947623E+03  0.20613777091E+04  0.20025646406E+04 0.  0.
        4    1    3    3  502    0 -0.54478304362E+03  0.31252940550E+03  0.55826597918E+03  0.84031286455E+03  0.12699999809E+01 0. -1.
       -4    1    3    3    0  502  0.54478304362E+03 -0.31252940550E+03 -0.10471554554E+04  0.12210648446E+04  0.12699999809E+01 0.  1.
</event>
<event>
 5   0  0.1812865E-04  0.1970987E+04  0.7818609E-02  0.8620306E-01
        2   -1    0    0  501    0  0.00000000000E+00  0.00000000000E+00  0.12065321022E+04  0.12065321022E+04  0.25500000920E-02 0.  1.
       -2   -1    0    0    0  501  0.00000000000E+00  0.00000000000E+00 -0.80494968129E+03  0.80494968129E+03  0.25500000920E-02 0. -1.
    10030    2    1    2    0    0  0.00000000000E+00  0.00000000000E+00  0.40158242090E+03  0.20114817835E+04  0.19709871954E+04 0.  0.
        3    1    3    3  502    0 -0.47908435872E+03 -0.10227313759E+03 -0.67188903455E+03  0.83151458339E+03  0.10100000352E+00 0. -1.
       -3    1    3    3    0  502  0.47908435872E+03  0.10227313759E+03  0.10734714554E+04  0.11799672001E+04  0.10100000352E+00 0.  1.
</event>
<event>
 5   0  0.1834645E-04  0.2003459E+04  0.7818609E-02  0.8605005E-01
        2   -1    0    0  501    0  0.00000000000E+00  0.00000000000E+00  0.78237785183E+03  0.78237785184E+03  0.25500000920E-02 0.  1.
       -2   -1    0    0    0  501  0.00000000000E+00  0.00000000000E+00 -0.12825797727E+04  0.12825797727E+04  0.25500000920E-02 0. -1.
    10030    2    1    2    0    0  0.00000000000E+00  0.00000000000E+00 -0.50020192088E+03  0.20649576246E+04  0.20034590162E+04 0.  0.
        1    1    3    3  502    0 -0.37546566038E+03 -0.34283477215E+03  0.63949906526E+03  0.81698788095E+03  0.50400001928E-02 0.  1.
       -1    1    3    3    0  502  0.37546566038E+03  0.34283477215E+03 -0.11397009861E+04  0.12479697436E+04  0.50400001928E-02 0. -1.
</event>
<event>
 5   0  0.1893687E-04  0.2073803E+04  0.7818609E-02  0.8572872E-01
       -2   -1    0    0    0  501  0.00000000000E+00  0.00000000000E+00  0.66179684663E+03  0.66179684663E+03  0.25500000920E-02 0. -1.
        2   -1    0    0  501    0  0.00000000000E+00  0.00000000000E+00 -0.16246138600E+04  0.16246138600E+04  0.25500000920E-02 0.  1.
    10030    2    1    2    0    0  0.00000000000E+00  0.00000000000E+00 -0.96281701334E+03  0.22864107066E+04  0.20738026227E+04 0.  0.
        4    1    3    3  502    0  0.12748490274E+03 -0.10181614617E+04 -0.64589322123E+03  0.12124705475E+04  0.12699999809E+01 0. -1.
       -4    1    3    3    0  502 -0.12748490274E+03  0.10181614617E+04 -0.31692379211E+03  0.10739401591E+04  0.12699999809E+01 0.  1.
</event>
<event>
 5   0  0.8765057E-05  0.1959531E+04  0.7818609E-02  0.8625779E-01
       -1   -1    0    0    0  501  0.00000000000E+00  0.00000000000E+00  0.56264782159E+03  0.56264782161E+03  0.50400001928E-02 0. -1.
        1   -1    0    0  501    0  0.00000000000E+00  0.00000000000E+00 -0.17061123255E+04  0.17061123255E+04  0.50400001928E-02 0.  1.
    10030    2    1    2    0    0  0.00000000000E+00  0.00000000000E+00 -0.11434645039E+04  0.22687601471E+04  0.19595309473E+04 0.  0.
        3    1    3    3  502    0 -0.12789947694E+03  0.88536209293E+03 -0.10902026126E+03  0.90117131522E+03  0.10100000352E+00 0. -1.
       -3    1    3    3    0  502  0.12789947694E+03 -0.88536209293E+03 -0.10344442427E+04  0.13675888319E+04  0.10100000352E+00 0.  1.
</event>
<event>
 5   0  0.1812865E-04  0.2000894E+04  0.7818609E-02  0.8606203E-01
        2   -1    0    0  501    0  0.00000000000E+00  0.00000000000E+00  0.15805746377E+04  0.15805746377E+04  0.25500000920E-02 0. -1.
       -2   -1    0    0    0  501  0.00000000000E+00  0.00000000000E+00 -0.63324687722E+03  0.63324687723E+03  0.25500000920E-02 0.  1.
    10030    2    1    2    0    0  0.00000000000E+00  0.00000000000E+00  0.94732776044E+03  0.22138215149E+04  0.20008937538E+04 0.  0.
        3    1    3    3  502    0  0.28283972726E+03 -0.52259349834E+03  0.13641686582E+04  0.14879712410E+04  0.10100000352E+00 0. -1.
       -3    1    3    3    0  502 -0.28283972726E+03  0.52259349834E+03 -0.41684089778E+03  0.72585027388E+03  0.10100000352E+00 0.  1.
</event>
<event>
 5   0  0.8765057E-05  0.2021280E+04  0.7818609E-02  0.8596736E-01
        1   -1    0    0  501    0  0.00000000000E+00  0.00000000000E+00  0.80431737075E+03  0.80431737077E+03  0.50400001928E-02 0. -1.
       -1   -1    0    0    0  501  0.00000000000E+00  0.00000000000E+00 -0.12698885188E+04  0.12698885188E+04  0.50400001928E-02 0.  1.
    10030    2    1    2    0    0  0.00000000000E+00  0.00000000000E+00 -0.46557114805E+03  0.20742058896E+04  0.20212801831E+04 0.  0.
        3    1    3    3  502    0  0.93114284486E+03  0.12957660772E+03  0.14783927807E+03  0.95166882745E+03  0.10100000352E+00 0. -1.
       -3    1    3    3    0  502 -0.93114284486E+03 -0.12957660772E+03 -0.61341042611E+03  0.11225370621E+04  0.10100000352E+00 0.  1.
</event>
<event>
 5   0  0.1893687E-04  0.1920219E+04  0.7818609E-02  0.8644857E-01
        2   -1    0    0  501    0  0.00000000000E+00  0.00000000000E+00  0.84203785822E+03  0.84203785822E+03  0.25500000920E-02 0.  1.
       -2   -1    0    0    0  501  0.00000000000E+00  0.00000000000E+00 -0.10947372258E+04  0.10947372258E+04  0.25500000920E-02 0. -1.
    10030    2    1    2    0    0  0.00000000000E+00  0.00000000000E+00 -0.25269936755E+03  0.19367750840E+04  0.19202189343E+04 0.  0.
        4    1    3    3  502    0  0.21842800601E+03 -0.93462264927E+03 -0.15060459281E+03  0.97155218420E+03  0.12699999809E+01 0. -1.
       -4    1    3    3    0  502 -0.21842800601E+03  0.93462264927E+03 -0.10209477474E+03  0.96522289979E+03  0.12699999809E+01 0.  1.
</event>
<event>
 5   0  0.1782172E-04  0.1975211E+04  0.7818609E-02  0.8618299E-01
        2   -1    0    0  501    0  0.00000000000E+00  0.00000000000E+00  0.56935524630E+03  0.56935524631E+03  0.25500000920E-02 0.  1.
       -2   -1    0    0    0  501  0.00000000000E+00  0.00000000000E+00 -0.17131044524E+04  0.17131044524E+04  0.25500000920E-02 0. -1.
    10030    2    1    2    0    0  0.00000000000E+00  0.00000000000E+00 -0.11437492061E+04  0.22824596987E+04  0.19752113887E+04 0.  0.
        2    1    3    3  502    0  0.15958502057E+03 -0.74754353513E+03 -0.12945117478E+04  0.15033460615E+04  0.25500000920E-02 0. -1.
       -2    1    3    3    0  502 -0.15958502057E+03  0.74754353513E+03  0.15076254162E+03  0.77911363719E+03  0.25500000920E-02 0.  1.
</event>
<event>
 5   0  0.1834645E-04  0.1989373E+04  0.7818609E-02  0.8611605E-01
       -2   -1    0    0    0  501  0.00000000000E+00  0.00000000000E+00  0.56409614290E+03  0.56409614290E+03  0.25500000920E-02 0. -1.
        2   -1    0    0  501    0  0.00000000000E+00  0.00000000000E+00 -0.17539578193E+04  0.17539578193E+04  0.25500000920E-02 0.  1.
    10030    2    1    2    0    0  0.00000000000E+00  0.00000000000E+00 -0.11898616764E+04  0.23180539622E+04  0.19893726053E+04 0.  0.
        1    1    3    3  502    0  0.26941801561E+03 -0.91932878477E+03 -0.28303213915E+03  0.99892876296E+03  0.50400001928E-02 0. -1.
       -1    1    3    3    0  502 -0.26941801561E+03  0.91932878477E+03 -0.90682953727E+03  0.13191251993E+04  0.50400001928E-02 0.  1.
</event>
<event>
 5   0  0.1812865E-04  0.1984733E+04  0.7818609E-02  0.8613792E-01
       -2   -1    0    0    0  501  0.00000000000E+00  0.00000000000E+00  0.85456481984E+03  0.85456481985E+03  0.25500000920E-02 0. -1.
        2   -1    0    0  501    0  0.00000000000E+00  0.00000000000E+00 -0.11523889892E+04  0.11523889893E+04  0.25500000920E-02 0.  1.
    10030    2    1    2    0    0  0.00000000000E+00  0.00000000000E+00 -0.29782416941E+03  0.20069538091E+04  0.19847328173E+04 0.  0.
        3    1    3    3  502    0 -0.95730798993E+03 -0.21372885433E+03  0.33475296936E+01  0.98088216770E+03  0.10100000352E+00 0.  1.
       -3    1    3    3    0  502  0.95730798993E+03  0.21372885433E+03 -0.30117169910E+03  0.10260716414E+04  0.10100000352E+00 0. -1.
</event>
<event>
 5   0  0.1782172E-04  0.1964539E+04  0.7818609E-02  0.8623382E-01
       -2   -1    0    0    0  501  0.00000000000E+00  0.00000000000E+00  0.45238875571E+03  0.45238875572E+03  0.25500000920E-02 0. -1.
        2   -1    0    0  501    0  0.00000000000E+00  0.00000000000E+00 -0.21327962843E+04  0.21327962843E+04  0.25500000920E-02 0.  1.
    10030    2    1    2    0    0  0.00000000000E+00  0.00000000000E+00 -0.16804075286E+04  0.25851850400E+04  0.19645386810E+04 0.  0.
        2    1    3    3  502    0  0.69727361227E+03 -0.52307383479E+02 -0.17480263754E+04  0.18826902990E+04  0.25500000920E-02 0.  1.
       -2    1    3    3    0  502 -0.69727361227E+03  0.52307383479E+02  0.67618846814E+02  0.70249474104E+03  0.25500000920E-02 0. -1.
</event>
<event>
 5   0  0.8577422E-05  0.2007487E+04  0.7818609E-02  0.8603128E-01
        1   -1    0    0  501    0  0.00000000000E+00  0.00000000000E+00  0.11703420408E+04  0.11703420408E+04  0.50400001928E-02 0. -1.
       -1   -1    0    0    0  501  0.00000000000E+00  0.00000000000E+00 -0.86086045540E+03  0.86086045542E+03  0.50400001928E-02 0.  1.
    10030    2    1    2    0    0  0.00000000000E+00  0.00000000000E+00  0.30948158537E+03  0.20312024962E+04  0.20074871678E+04 0.  0.
        2    1    3    3  502    0  0.72700596290E+03  0.44927391847E+03 -0.37789654081E+03  0.93444663811E+03  0.25500000920E-02 0.  1.
       -2    1    3    3    0  502 -0.72700596290E+03 -0.44927391847E+03  0.68737812618E+03  0.10967558581E+04  0.25500000920E-02 0. -1.
</event>
<event>
 5   0  0.8577422E-05  0.2005197E+04  0.7818609E-02  0.8604195E-01
        1   -1    0    0  501    0  0.00000000000E+00  0.00000000000E+00  0.85568690910E+03  0.85568690912E+03  0.50400001928E-02 0.  1.
       -1   -1    0    0    0  501  0.00000000000E+00  0.00000000000E+00 -0.11747333867E+04  0.11747333867E+04  0.50400001928E-02 0. -1.
    10030    2    1    2    0    0  0.00000000000E+00  0.00000000000E+00 -0.31904647756E+03  0.20304202958E+04  0.20051972279E+04 0.  0.
        2    1    3    3  502    0  0.22062506518E+03  0.94456853959E+02 -0.11452189289E+04  0.11700956849E+04  0.25500000920E-02 0. -1.
       -2    1    3    3    0  502 -0.22062506518E+03 -0.94456853959E+02  0.82617245138E+03  0.86032461087E+03  0.25500000920E-02 0.  1.
</event>
<event>
 5   0  0.8958919E-05  0.1955374E+04  0.7818609E-02  0.8627774E-01
       -1   -1    0    0    0  501  0.00000000000E+00  0.00000000000E+00  0.50893384063E+03  0.50893384065E+03  0.50400001928E-02 0.  1.
        1   -1    0    0  501    0  0.00000000000E+00  0.00000000000E+00 -0.18781851751E+04  0.18781851751E+04  0.50400001928E-02 0. -1.
    10030    2    1    2    0    0  0.00000000000E+00  0.00000000000E+00 -0.13692513345E+04  0.23871190158E+04  0.19553741275E+04 0.  0.
        4    1    3    3  502    0 -0.30969700512E+02  0.26599187136E+03 -0.18325401553E+04  0.18520031943E+04  0.12699999809E+01 0. -1.
       -4    1    3    3    0  502  0.30969700512E+02 -0.26599187136E+03  0.46328882083E+03  0.53511582147E+03  0.12699999809E+01 0.  1.
</event>
<event>
 5   0  0.8881384E-05  0.2038596E+04  0.7818609E-02  0.8588785E-01
        1   -1    0    0  501    0  0.00000000000E+00  0.00000000000E+00  0.23001516258E+04  0.23001516258E+04  0.50400001928E-02 0.  1.
       -1   -1    0    0    0  501  0.00000000000E+00  0.00000000000E+00 -0.45169578160E+03  0.45169578163E+03  0.50400001928E-02 0. -1.
    10030    2    1    2    0    0  0.00000000000E+00  0.00000000000E+00  0.18484558442E+04  0.27518474075E+04  0.20385963666E+04 0.  0.
        5    1    3    3  502    0 -0.72806167096E+03  0.71317681208E+03  0.90281063605E+03  0.13615374018E+04  0.46999998093E+01 0. -1.
       -5    1    3    3    0  502  0.72806167096E+03 -0.71317681208E+03  0.94564520819E+03  0.13903100056E+04  0.46999998093E+01 0.  1.
</event>
<event>
 5   0  0.8881384E-05  0.2001962E+04  0.7818609E-02  0.8605704E-01
        1   -1    0    0  501    0  0.00000000000E+00  0.00000000000E+00  0.16262308438E+04  0.16262308438E+04  0.50400001928E-02 0. -1.
       -1   -1    0    0    0  501  0.00000000000E+00  0.00000000000E+00 -0.61612593103E+03  0.61612593105E+03  0.50400001928E-02 0.  1.
    10030    2    1    2    0    0  0.00000000000E+00  0.00000000000E+00  0.10101049127E+04  0.22423567748E+04  0.20019620303E+04 0.  0.
        5    1    3    3  502    0  0.68930352385E+03 -0.55309011045E+02  0.13156546450E+04  0.14863269053E+04  0.46999998093E+01 0. -1.
       -5    1    3    3    0  502 -0.68930352385E+03  0.55309011045E+02 -0.30554973223E+03  0.75602986949E+03  0.46999998093E+01 0.  1.
</event>
<event>
 5   0  0.1812865E-04  0.2007233E+04  0.7818609E-02  0.8603246E-01
       -2   -1    0    0    0  501  0.00000000000E+00  0.00000000000E+00  0.13093680565E+04  0.13093680565E+04  0.25500000920E-02 0.  1.
        2   -1    0    0  501    0  0.00000000000E+00  0.00000000000E+00 -0.76926124455E+03  0.76926124456E+03  0.25500000920E-02 0. -1.
    10030    2    1    2    0    0  0.00000000000E+00  0.00000000000E+00  0.54010681190E+03  0.20786293010E+04  0.20072330215E+04 0.  0.
        3    1    3    3  502    0  0.39225619237E+03  0.57318362436E+03  0.10202816667E+04  0.12342524366E+04  0.10100000352E+00 0.  1.
       -3    1    3    3    0  502 -0.39225619237E+03 -0.57318362436E+03 -0.48017485482E+03  0.84437686438E+03  0.10100000352E+00 0. -1.
</event>
<event>
 5   0  0.1812865E-04  0.2025729E+04  0.7818609E-02  0.8594685E-01
       -2   -1    0    0    0  501  0.00000000000E+00  0.00000000000E+00  0.46078826385E+03  0.46078826385E+03  0.25500000920E-02 0. -1.
        2   -1    0    0  501    0  0.00000000000E+00  0.00000000000E+00 -0.22263904933E+04  0.22263904933E+04  0.25500000920E-02 0.  1.
    10030    2    1    2    0    0  0.00000000000E+00  0.00000000000E+00 -0.17656022295E+04  0.26871787572E+04  0.20257291133E+04 0.  0.
        3    1    3    3  502    0  0.59559380401E+03 -0.57099865173E+03 -0.10350548598E+03  0.83155567191E+03  0.10100000352E+00 0. -1.
       -3    1    3    3    0  502 -0.59559380401E+03  0.57099865173E+03 -0.16620967435E+04  0.18556230853E+04  0.10100000352E+00 0.  1.
</event>
<event>
 5   0  0.8881384E-05  0.2011624E+04  0.7818609E-02  0.8601205E-01
        1   -1    0    0  501    0  0.00000000000E+00  0.00000000000E+00  0.12686333106E+04  0.12686333106E+04  0.50400001928E-02 0. -1.
       -1   -1    0    0    0  501  0.00000000000E+00  0.00000000000E+00 -0.79743880878E+03  0.79743880880E+03  0.50400001928E-02 0.  1.
    10030    2    1    2    0    0  0.00000000000E+00  0.00000000000E+00  0.47119450177E+03  0.20660721194E+04  0.20116236586E+04 0.  0.
        5    1    3    3  502    0  0.10039064252E+04 -0.48714546692E+02  0.19670234241E+03  0.10241655721E+04  0.46999998093E+01 0. -1.
       -5    1    3    3    0  502 -0.10039064252E+04  0.48714546692E+02  0.27449215936E+03  0.10419065472E+04  0.46999998093E+01 0.  1.
</event>
<event>
 5   0  0.1834645E-04  0.1996533E+04  0.7818609E-02  0.8608243E-01
        2   -1    0    0  501    0  0.00000000000E+00  0.00000000000E+00  0.64793552698E+03  0.64793552699E+03  0.25500000920E-02 0.  1.
       -2   -1    0    0    0  501  0.00000000000E+00  0.00000000000E+00 -0.15380166052E+04  0.15380166052E+04  0.25500000920E-02 0. -1.
    10030    2    1    2    0    0  0.00000000000E+00  0.00000000000E+00 -0.89008107823E+03  0.21859521322E+04  0.19965325939E+04 0.  0.
        1    1    3    3  502    0  0.73174098535E+03 -0.19528098287E+03 -0.11570928051E+04  0.13829111655E+04  0.50400001928E-02 0. -1.
       -1    1    3    3    0  502 -0.73174098535E+03  0.19528098287E+03  0.26701172689E+03  0.80304096672E+03  0.50400001928E-02 0.  1.
</event>
<event>
 5   0  0.8577422E-05  0.2017727E+04  0.7818609E-02  0.8598377E-01
       -1   -1    0    0    0  501  0.00000000000E+00  0.00000000000E+00  0.55329411095E+03  0.55329411097E+03  0.50400001928E-02 0. -1.
        1   -1    0    0  501    0  0.00000000000E+00  0.00000000000E+00 -0.18395384674E+04  0.18395384674E+04  0.50400001928E-02 0.  1.
    10030    2    1    2    0    0  0.00000000000E+00  0.00000000000E+00 -0.12862443565E+04  0.23928325784E+04  0.20177272372E+04 0.  0.
        2    1    3    3  502    0  0.83459671245E+02  0.48495848933E+03 -0.16875641307E+04  0.17578461106E+04  0.25500000920E-02 0.  1.
       -2    1    3    3    0  502 -0.83459671245E+02 -0.48495848933E+03  0.40131977426E+03  0.63498646782E+03  0.25500000920E-02 0. -1.
</event>
<event>
 5   0  0.1812865E-04  0.2040425E+04  0.7818609E-02  0.8587951E-01
        2   -1    0    0  501    0  0.00000000000E+00  0.00000000000E+00  0.18608674484E+04  0.18608674484E+04  0.25500000920E-02 0. -1.
       -2   -1    0    0    0  501  0.00000000000E+00  0.00000000000E+00 -0.55932680101E+03  0.55932680101E+03  0.25500000920E-02 0.  1.
    10030    2    1    2    0    0  0.00000000000E+00  0.00000000000E+00  0.13015406474E+04  0.24201942494E+04  0.20404245019E+04 0.  0.
        3    1    3    3  502    0  0.51301235219E+02 -0.90882521795E+03  0.11972087081E+04  0.15039626972E+04  0.10100000352E+00 0. -1.
       -3    1    3    3    0  502 -0.51301235219E+02  0.90882521795E+03  0.10433193926E+03  0.91623155222E+03  0.10100000352E+00 0.  1.
</event>
<event>
 5   0  0.1893687E-04  0.1999831E+04  0.7818609E-02  0.8606700E-01
       -2   -1    0    0    0  501  0.00000000000E+00  0.00000000000E+00  0.83772762710E+03  0.83772762711E+03  0.25500000920E-02 0.  1.
        2   -1    0    0  501    0  0.00000000000E+00  0.00000000000E+00 -0.11935036051E+04  0.11935036051E+04  0.25500000920E-02 0. -1.
    10030    2    1    2    0    0  0.00000000000E+00  0.00000000000E+00 -0.35577597803E+03  0.20312312322E+04  0.19998309359E+04 0.  0.
        4    1    3    3  502    0  0.78546573779E+02 -0.63273805535E+03 -0.96024342831E+03  0.11526474159E+04  0.12699999809E+01 0. -1.
       -4    1    3    3    0  502 -0.78546573779E+02  0.63273805535E+03  0.60446745028E+03  0.87858381631E+03  0.12699999809E+01 0.  1.
</event>
<event>
 5   0  0.1807498E-04  0.2018068E+04  0.7818609E-02  0.8598220E-01
        2   -1    0    0  501    0  0.00000000000E+00  0.00000000000E+00  0.11780374716E+04  0.11780374716E+04  0.25500000920E-02 0.  1.
       -2   -1    0    0    0  501  0.00000000000E+00  0.00000000000E+00 -0.86427579830E+03  0.86427579831E+03  0.25500000920E-02 0. -1.
    10030    2    1    2    0    0  0.00000000000E+00  0.00000000000E+00  0.31376167332E+03  0.20423132699E+04  0.20180676661E+04 0.  0.
        5    1    3    3  502    0 -0.67276238761E+03  0.74140101164E+03  0.28426001347E+03  0.10407259656E+04  0.46999998093E+01 0. -1.
       -5    1    3    3    0  502  0.67276238761E+03 -0.74140101164E+03  0.29501659848E+02  0.10015873043E+04  0.46999998093E+01 0.  1.
</event>
<event>
 5   0  0.8861350E-05  0.2055717E+04  0.7818609E-02  0.8581005E-01
        1   -1    0    0  501    0  0.00000000000E+00  0.00000000000E+00  0.11374237051E+04  0.11374237051E+04  0.50400001928E-02 0. -1.
       -1   -1    0    0    0  501  0.00000000000E+00  0.00000000000E+00 -0.92884761568E+03  0.92884761570E+03  0.50400001928E-02 0.  1.
    10030    2    1    2    0    0  0.00000000000E+00  0.00000000000E+00  0.20857608943E+03  0.20662713208E+04  0.20557171951E+04 0.  0.
        1    1    3    3  502    0  0.25867221733E+03  0.46095375483E+03  0.99034868326E+03  0.11225774782E+04  0.50400001928E-02 0. -1.
       -1    1    3    3    0  502 -0.25867221733E+03 -0.46095375483E+03 -0.78177259383E+03  0.94369384262E+03  0.50400001928E-02 0.  1.
</event>
<event>
 5   0  0.8765057E-05  0.2001203E+04  0.7818609E-02  0.8606059E-01
       -1   -1    0    0    0  501  0.00000000000E+00  0.00000000000E+00  0.14744788752E+04  0.14744788752E+04  0.50400001928E-02 0. -1.
        1   -1    0    0  501    0  0.00000000000E+00  0.00000000000E+00 -0.67902155536E+03  0.67902155538E+03  0.50400001928E-02 0.  1.
    10030    2    1    2    0    0  0.00000000000E+00  0.00000000000E+00  0.79545731982E+03  0.21535004306E+04  0.20012025777E+04 0.  0.
        3    1    3    3  502    0  0.90526465401E+03 -0.39320192130E+03  0.57484845582E+03  0.11421745060E+04  0.10100000352E+00 0.  1.
       -3    1    3    3    0  502 -0.90526465401E+03  0.39320192130E+03  0.22060886401E+03  0.10113259246E+04  0.10100000352E+00 0. -1.
</event>
<event>
 5   0  0.8958919E-05  0.1945475E+04  0.7818609E-02  0.8632546E-01
        1   -1    0    0  501    0  0.00000000000E+00  0.00000000000E+00  0.12123799100E+04  0.12123799100E+04  0.50400001928E-02 0.  1.
       -1   -1    0    0    0  501  0.00000000000E+00  0.00000000000E+00 -0.78046316257E+03  0.78046316259E+03  0.50400001928E-02 0. -1.
    10030    2    1    2    0    0  0.00000000000E+00  0.00000000000E+00  0.43191674743E+03  0.19928430726E+04  0.19454746041E+04 0.  0.
        4    1    3    3  502    0  0.70993870745E+03  0.39963669607E+03 -0.32848408551E+03  0.87842237250E+03  0.12699999809E+01 0. -1.
       -4    1    3    3    0  502 -0.70993870745E+03 -0.39963669607E+03  0.76040083294E+03  0.11144207001E+04  0.12699999809E+01 0.  1.
</event>
<event>
 5   0  0.8881384E-05  0.1967996E+04  0.7818609E-02  0.8621731E-01
        1   -1    0    0  501    0  0.00000000000E+00  0.00000000000E+00  0.11331159460E+04  0.11331159460E+04  0.50400001928E-02 0.  1.
       -1   -1    0    0    0  501  0.00000000000E+00  0.00000000000E+00 -0.85450418820E+03  0.85450418822E+03  0.50400001928E-02 0. -1.
    10030    2    1    2    0    0  0.00000000000E+00  0.00000000000E+00  0.27861175776E+03  0.19876201342E+04  0.19679962618E+04 0.  0.
        5    1    3    3  502    0 -0.57210847465E+03 -0.75303412293E+03  0.41379103885E+03  0.10322856247E+04  0.46999998093E+01 0.  1.
       -5    1    3    3    0  502  0.57210847465E+03  0.75303412293E+03 -0.13517928109E+03  0.95533450953E+03  0.46999998093E+01 0. -1.
</event>
<event>
 5   0  0.1812865E-04  0.2002406E+04  0.7818609E-02  0.8605497E-01
       -2   -1    0    0    0  501  0.00000000000E+00  0.00000000000E+00  0.82263347183E+03  0.82263347184E+03  0.25500000920E-02 0.  1.
        2   -1    0    0  501    0  0.00000000000E+00  0.00000000000E+00 -0.12185345565E+04  0.12185345565E+04  0.25500000920E-02 0. -1.
    10030    2    1    2    0    0  0.00000000000E+00  0.00000000000E+00 -0.39590108468E+03  0.20411680284E+04  0.20024058657E+04 0.  0.
        3    1    3    3  502    0 -0.43986512681E+03 -0.25250096192E+03  0.68199157902E+03  0.84991210699E+03  0.10100000352E+00 0.  1.
       -3    1    3    3    0  502  0.43986512681E+03  0.25250096192E+03 -0.10778926637E+04  0.11912559214E+04  0.10100000352E+00 0. -1.
</event>
<event>
 5   0  0.8577422E-05  0.1971770E+04  0.7818609E-02  0.8619934E-01
       -1   -1    0    0    0  501  0.00000000000E+00  0.00000000000E+00  0.58454665263E+03  0.58454665265E+03  0.50400001928E-02 0.  1.
        1   -1    0    0  501    0  0.00000000000E+00  0.00000000000E+00 -0.16627749406E+04  0.16627749406E+04  0.50400001928E-02 0. -1.
    10030    2    1    2    0    0  0.00000000000E+00  0.00000000000E+00 -0.10782282880E+04  0.22473215933E+04  0.19717702966E+04 0.  0.
        2    1    3    3  502    0  0.10473823830E+03  0.34681191287E+03 -0.15841587619E+04  0.16250561789E+04  0.25500000920E-02 0. -1.
       -2    1    3    3    0  502 -0.10473823830E+03 -0.34681191287E+03  0.50593047396E+03  0.62226541439E+03  0.25500000920E-02 0.  1.
</event>
<event>
 5   0  0.8958919E-05  0.2015943E+04  0.7818609E-02  0.8599203E-01
       -1   -1    0    0    0  501  0.00000000000E+00  0.00000000000E+00  0.91041882534E+03  0.91041882535E+03  0.50400001928E-02 0. -1.
        1   -1    0    0  501    0  0.00000000000E+00  0.00000000000E+00 -0.11159776023E+04  0.11159776024E+04  0.50400001928E-02 0.  1.
    10030    2    1    2    0    0  0.00000000000E+00  0.00000000000E+00 -0.20555877701E+03  0.20263964277E+04  0.20159434693E+04 0.  0.
        4    1    3    3  502    0  0.27372597005E+03  0.56119542488E+03  0.69261313856E+03  0.93251315496E+03  0.12699999809E+01 0.  1.
       -4    1    3    3    0  502 -0.27372597005E+03 -0.56119542488E+03 -0.89817191556E+03  0.10938832727E+04  0.12699999809E+01 0. -1.
</event>
<event>
 5   0  0.8765057E-05  0.1997634E+04  0.7818609E-02  0.8607728E-01
        1   -1    0    0  501    0  0.00000000000E+00  0.00000000000E+00  0.89987505096E+03  0.89987505097E+03  0.50400001928E-02 0.  1.
       -1   -1    0    0    0  501  0.00000000000E+00  0.00000000000E+00 -0.11086372552E+04  0.11086372552E+04  0.50400001928E-02 0. -1.
    10030    2    1    2    0    0  0.00000000000E+00  0.00000000000E+00 -0.20876220424E+03  0.20085123062E+04  0.19976336066E+04 0.  0.
        3    1    3    3  502    0 -0.26479897854E+03  0.85903581233E+03 -0.54215313624E+03  0.10497576193E+04  0.10100000352E+00 0.  1.
       -3    1    3    3    0  502  0.26479897854E+03 -0.85903581233E+03  0.33339093200E+03  0.95875468689E+03  0.10100000352E+00 0. -1.
</event>
<event>
 5   0  0.8958919E-05  0.1522712E+04  0.7818609E-02  0.8869489E-01
       -1   -1    0    0    0  501  0.00000000000E+00  0.00000000000E+00  0.15568188950E+04  0.15568188950E+04  0.50400001928E-02 0. -1.
        1   -1    0    0  501    0  0.00000000000E+00  0.00000000000E+00 -0.37233793344E+03  0.37233793348E+03  0.50400001928E-02 0.  1.
    10030    2    1    2    0    0  0.00000000000E+00  0.00000000000E+00  0.11844809616E+04  0.19291568285E+04  0.15227116998E+04 0.  0.
        4    1    3    3  502    0 -0.35654407642E+03 -0.47730135366E+03  0.11928214144E+04  0.13333284667E+04  0.12699999809E+01 0. -1.
       -4    1    3    3    0  502  0.35654407642E+03  0.47730135366E+03 -0.83404528323E+01  0.59582836177E+03  0.12699999809E+01 0.  1.
</event>
<event>
 5   0  0.1782172E-04  0.2064164E+04  0.7818609E-02  0.8577196E-01
        2   -1    0    0  501    0  0.00000000000E+00  0.00000000000E+00  0.15081807612E+04  0.15081807612E+04  0.25500000920E-02 0. -1.
       -2   -1    0    0    0  501  0.00000000000E+00  0.00000000000E+00 -0.70627665619E+03  0.70627665619E+03  0.25500000920E-02 0.  1.
    10030    2    1    2    0    0  0.00000000000E+00  0.00000000000E+00  0.80190410504E+03  0.22144574174E+04  0.20641636224E+04 0.  0.
        2    1    3    3  502    0 -0.65334518320E+03 -0.42160310159E+02 -0.45498402484E+03  0.79727528686E+03  0.25500000920E-02 0.  1.
       -2    1    3    3    0  502  0.65334518320E+03  0.42160310159E+02  0.12568881299E+04  0.14171821306E+04  0.25500000920E-02 0. -1.
</event>
<event>
 5   0  0.1807498E-04  0.2027780E+04  0.7818609E-02  0.8593742E-01
        2   -1    0    0  501    0  0.00000000000E+00  0.00000000000E+00  0.94395478056E+03  0.94395478056E+03  0.25500000920E-02 0.  1.
       -2   -1    0    0    0  501  0.00000000000E+00  0.00000000000E+00 -0.10890065914E+04  0.10890065914E+04  0.25500000920E-02 0. -1.
    10030    2    1    2    0    0  0.00000000000E+00  0.00000000000E+00 -0.14505181081E+03  0.20329613719E+04  0.20277800453E+04 0.  0.
        5    1    3    3  502    0 -0.75302212300E+03 -0.46355593597E+03  0.42475001436E+03  0.98100004495E+03  0.46999998093E+01 0.  1.
       -5    1    3    3    0  502  0.75302212300E+03  0.46355593597E+03 -0.56980182516E+03  0.10519613270E+04  0.46999998093E+01 0. -1.
</event>
<event>
 5   0  0.1812865E-04  0.1948850E+04  0.7818609E-02  0.8630916E-01
        2   -1    0    0  501    0  0.00000000000E+00  0.00000000000E+00  0.16983917020E+04  0.16983917020E+04  0.25500000920E-02 0. -1.
       -2   -1    0    0    0  501  0.00000000000E+00  0.00000000000E+00 -0.55906060802E+03  0.55906060803E+03  0.25500000920E-02 0.  1.
    10030    2    1    2    0    0  0.00000000000E+00  0.00000000000E+00  0.11393310940E+04  0.22574523101E+04  0.19488498122E+04 0.  0.
        3    1    3    3  502    0 -0.64900437010E+03 -0.68300404938E+03  0.85763331438E+03  0.12740628383E+04  0.10100000352E+00 0.  1.
       -3    1    3    3    0  502  0.64900437010E+03  0.68300404938E+03  0.28169777964E+03  0.98338947174E+03  0.10100000352E+00 0. -1.
</event>
<event>
 5   0  0.1807498E-04  0.2013211E+04  0.7818609E-02  0.8600469E-01
        2   -1    0    0  501    0  0.00000000000E+00  0.00000000000E+00  0.10991378867E+04  0.10991378867E+04  0.25500000920E-02 0.  1.
       -2   -1    0    0    0  501  0.00000000000E+00  0.00000000000E+00 -0.92186285725E+03  0.92186285726E+03  0.25500000920E-02 0. -1.
    10030    2    1    2    0    0  0.00000000000E+00  0.00000000000E+00  0.17727502943E+03  0.20210007439E+04  0.20132107617E+04 0.  0.
        5    1    3    3  502    0 -0.14566262684E+03 -0.76149673255E+03 -0.55582588571E+03  0.95397032436E+03  0.46999998093E+01 0. -1.
       -5    1    3    3    0  502  0.14566262684E+03  0.76149673255E+03  0.73310091514E+03  0.10670304196E+04  0.46999998093E+01 0.  1.
</event>
<event>
 5   0  0.8958919E-05  0.2005312E+04  0.7818609E-02  0.8604141E-01
        1   -1    0    0  501    0  0.00000000000E+00  0.00000000000E+00  0.16206481696E+04  0.16206481696E+04  0.50400001928E-02 0.  1.
       -1   -1    0    0    0  501  0.00000000000E+00  0.00000000000E+00 -0.62031888652E+03  0.62031888654E+03  0.50400001928E-02 0. -1.
    10030    2    1    2    0    0  0.00000000000E+00  0.00000000000E+00  0.10003292831E+04  0.22409670561E+04  0.20053116147E+04 0.  0.
        4    1    3    3  502    0 -0.16759310448E+02  0.47318105143E+03  0.14878460851E+04  0.15613675954E+04  0.12699999809E+01 0.  1.
       -4    1    3    3    0  502  0.16759310448E+02 -0.47318105143E+03 -0.48751680205E+03  0.67959946078E+03  0.12699999809E+01 0. -1.
</event>
<event>
 5   0  0.8881384E-05  0.2022995E+04  0.7818609E-02  0.8595945E-01
        1   -1    0    0  501    0  0.00000000000E+00  0.00000000000E+00  0.11128092371E+04  0.11128092371E+04  0.50400001928E-02 0.  1.
       -1   -1    0    0    0  501  0.00000000000E+00  0.00000000000E+00 -0.91940913944E+03  0.91940913945E+03  0.50400001928E-02 0. -1.
    10030    2    1    2    0    0  0.00000000000E+00  0.00000000000E+00  0.19340009769E+03  0.20322183766E+04  0.20229947930E+04 0.  0.
        5    1    3    3  502    0 -0.78405579294E+03 -0.57000574856E+03 -0.19350262408E+03  0.98849147460E+03  0.46999998093E+01 0. -1.
       -5    1    3    3    0  502  0.78405579294E+03  0.57000574856E+03  0.38690272176E+03  0.10437269020E+04  0.46999998093E+01 0.  1.
</event>
<event>
 5   0  0.8765057E-05  0.1924379E+04  0.7818609E-02  0.8642816E-01
       -1   -1    0    0    0  501  0.00000000000E+00  0.00000000000E+00  0.50343933782E+03  0.50343933784E+03  0.50400001928E-02 0.  1.
        1   -1    0    0  501    0  0.00000000000E+00  0.00000000000E+00 -0.18389676788E+04  0.18389676788E+04  0.50400001928E-02 0. -1.
    10030    2    1    2    0    0  0.00000000000E+00  0.00000000000E+00 -0.13355283410E+04  0.23424070166E+04  0.19243790380E+04 0.  0.
        3    1    3    3  502    0  0.82770344066E+03  0.31714190404E+03 -0.21209707739E+03  0.91140394635E+03  0.10100000352E+00 0.  1.
       -3    1    3    3    0  502 -0.82770344066E+03 -0.31714190404E+03 -0.11234312636E+04  0.14310030703E+04  0.10100000352E+00 0. -1.
</event>
<event>
 5   0  0.8881384E-05  0.2005059E+04  0.7818609E-02  0.8604259E-01
       -1   -1    0    0    0  501  0.00000000000E+00  0.00000000000E+00  0.64729485919E+03  0.64729485921E+03  0.50400001928E-02 0.  1.
        1   -1    0    0  501    0  0.00000000000E+00  0.00000000000E+00 -0.15527160937E+04  0.15527160938E+04  0.50400001928E-02 0. -1.
    10030    2    1    2    0    0  0.00000000000E+00  0.00000000000E+00 -0.90542123455E+03  0.22000109530E+04  0.20050587476E+04 0.  0.
        5    1    3    3  502    0  0.51995609752E+03 -0.42444310267E+03  0.36436624653E+03  0.76373499485E+03  0.46999998093E+01 0.  1.
       -5    1    3    3    0  502 -0.51995609752E+03  0.42444310267E+03 -0.12697874811E+04  0.14362759581E+04  0.46999998093E+01 0. -1.
</event>
<event>
 5   0  0.1782172E-04  0.2000521E+04  0.7818609E-02  0.8606377E-01
       -2   -1    0    0    0  501  0.00000000000E+00  0.00000000000E+00  0.87749588069E+03  0.87749588070E+03  0.25500000920E-02 0. -1.
        2   -1    0    0  501    0  0.00000000000E+00  0.00000000000E+00 -0.11402001732E+04  0.11402001732E+04  0.25500000920E-02 0.  1.
    10030    2    1    2    0    0  0.00000000000E+00  0.00000000000E+00 -0.26270429249E+03  0.20176960539E+04  0.20005208873E+04 0.  0.
        2    1    3    3  502    0  0.50830145896E+03 -0.58469461268E+03 -0.76946297482E+03  0.10919301410E+04  0.25500000920E-02 0.  1.
       -2    1    3    3    0  502 -0.50830145896E+03  0.58469461268E+03  0.50675868232E+03  0.92576591285E+03  0.25500000920E-02 0. -1.
</event>
<event>
 5   0  0.1812865E-04  0.2001264E+04  0.7818609E-02  0.8606030E-01
        2   -1    0    0  501    0  0.00000000000E+00  0.00000000000E+00  0.34007856740E+04  0.34007856740E+04  0.25500000920E-02 0.  1.
       -2   -1    0    0    0  501  0.00000000000E+00  0.00000000000E+00 -0.29442161036E+03  0.29442161037E+03  0.25500000920E-02 0. -1.
    10030    2    1    2    0    0  0.00000000000E+00  0.00000000000E+00  0.31063640637E+04  0.36952072844E+04  0.20012643950E+04 0.  0.
        3    1    3    3  502    0  0.49621995995E+03  0.86146111028E+03  0.13433429202E+04  0.16712030711E+04  0.10100000352E+00 0. -1.
       -3    1    3    3    0  502 -0.49621995995E+03 -0.86146111028E+03  0.17630211434E+04  0.20240042133E+04  0.10100000352E+00 0.  1.
</event>
<event>
 5   0  0.1812865E-04  0.2011031E+04  0.7818609E-02  0.8601480E-01
       -2   -1    0    0    0  501  0.00000000000E+00  0.00000000000E+00  0.63512146824E+03  0.63512146824E+03  0.25500000920E-02 0.  1.
        2   -1    0    0  501    0  0.00000000000E+00  0.00000000000E+00 -0.15919188413E+04  0.15919188413E+04  0.25500000920E-02 0. -1.
    10030    2    1    2    0    0  0.00000000000E+00  0.00000000000E+00 -0.95679737303E+03  0.22270403095E+04  0.20110314088E+04 0.  0.
        3    1    3    3  502    0  0.16132719869E+03  0.53774592487E+03  0.44538783221E+03  0.71663622294E+03  0.10100000352E+00 0.  1.
       -3    1    3    3    0  502 -0.16132719869E+03 -0.53774592487E+03 -0.14021852052E+04  0.15104040866E+04  0.10100000352E+00 0. -1.
</event>
<event>
 5   0  0.8577422E-05  0.1999241E+04  0.7818609E-02  0.8606976E-01
        1   -1    0    0  501    0  0.00000000000E+00  0.00000000000E+00  0.14412344958E+04  0.14412344958E+04  0.50400001928E-02 0.  1.
       -1   -1    0    0    0  501  0.00000000000E+00  0.00000000000E+00 -0.69332285753E+03  0.69332285755E+03  0.50400001928E-02 0. -1.
    10030    2    1    2    0    0  0.00000000000E+00  0.00000000000E+00  0.74791163830E+03  0.21345573534E+04  0.19992406749E+04 0.  0.
        2    1    3    3  502    0 -0.72109584351E+03 -0.26291447037E+03  0.10577218700E+04  0.13068583659E+04  0.25500000920E-02 0.  1.
       -2    1    3    3    0  502  0.72109584351E+03  0.26291447037E+03 -0.30981023167E+03  0.82769898750E+03  0.25500000920E-02 0. -1.
</event>
<event>
 5   0  0.1893687E-04  0.1563533E+04  0.7818609E-02  0.8843270E-01
       -2   -1    0    0    0  501  0.00000000000E+00  0.00000000000E+00  0.44513240476E+03  0.44513240477E+03  0.25500000920E-02 0.  1.
        2   -1    0    0  501    0  0.00000000000E+00  0.00000000000E+00 -0.13729818227E+04  0.13729818227E+04  0.25500000920E-02 0. -1.
    10030    2    1    2    0    0  0.00000000000E+00  0.00000000000E+00 -0.92784941798E+03  0.18181142275E+04  0.15635327953E+04 0.  0.
        4    1    3    3  502    0 -0.77835057004E+03 -0.43477885453E+01 -0.37920135796E+03  0.86581972485E+03  0.12699999809E+01 0.  1.
       -4    1    3    3    0  502  0.77835057004E+03  0.43477885453E+01 -0.54864806002E+03  0.95229450267E+03  0.12699999809E+01 0. -1.
</event>
<event>
 5   0  0.1812865E-04  0.2007974E+04  0.7818609E-02  0.8602902E-01
        2   -1    0    0  501    0  0.00000000000E+00  0.00000000000E+00  0.13196336912E+04  0.13196336912E+04  0.25500000920E-02 0. -1.
       -2   -1    0    0    0  501  0.00000000000E+00  0.00000000000E+00 -0.76384046638E+03  0.76384046638E+03  0.25500000920E-02 0.  1.
    10030    2    1    2    0    0  0.00000000000E+00  0.00000000000E+00  0.55579322485E+03  0.20834741576E+04  0.20079737191E+04 0.  0.
        3    1    3    3  502    0 -0.51898314317E+02  0.26382260953E+03  0.12815805397E+04  0.13094825292E+04  0.10100000352E+00 0. -1.
       -3    1    3    3    0  502  0.51898314317E+02 -0.26382260953E+03 -0.72578731482E+03  0.77399162844E+03  0.10100000352E+00 0.  1.
</event>
<event>
 5   0  0.1812865E-04  0.1988378E+04  0.7818609E-02  0.8612074E-01
       -2   -1    0    0    0  501  0.00000000000E+00  0.00000000000E+00  0.18368693669E+04  0.18368693669E+04  0.25500000920E-02 0. -1.
        2   -1    0    0  501    0  0.00000000000E+00  0.00000000000E+00 -0.53809595524E+03  0.53809595525E+03  0.25500000920E-02 0.  1.
    10030    2    1    2    0    0  0.00000000000E+00  0.00000000000E+00  0.12987734117E+04  0.23749653222E+04  0.19883782102E+04 0.  0.
        3    1    3    3  502    0 -0.98583096588E+03  0.42107061714E+02  0.79457802968E+03  0.12668819808E+04  0.10100000352E+00 0.  1.
       -3    1    3    3    0  502  0.98583096588E+03 -0.42107061714E+02  0.50419538201E+03  0.11080833413E+04  0.10100000352E+00 0. -1.
</event>
<event>
 5   0  0.1812865E-04  0.1991577E+04  0.7818609E-02  0.8610569E-01
        2   -1    0    0  501    0  0.00000000000E+00  0.00000000000E+00  0.16451850245E+04  0.16451850246E+04  0.25500000920E-02 0.  1.
       -2   -1    0    0    0  501  0.00000000000E+00  0.00000000000E+00 -0.60272516136E+03  0.60272516137E+03  0.25500000920E-02 0. -1.
    10030    2    1    2    0    0  0.00000000000E+00  0.00000000000E+00  0.10424598632E+04  0.22479101859E+04  0.19915766713E+04 0.  0.
        3    1    3    3  502    0  0.13020702247E+03 -0.58830771333E+02 -0.59109499996E+03  0.60811860482E+03  0.10100000352E+00 0. -1.
       -3    1    3    3    0  502 -0.13020702247E+03  0.58830771333E+02  0.16335548631E+04  0.16397915811E+04  0.10100000352E+00 0.  1.
</event>
<event>
 5   0  0.1807498E-04  0.2003005E+04  0.7818609E-02  0.8605217E-01
        2   -1    0    0  501    0  0.00000000000E+00  0.00000000000E+00  0.12780051229E+04  0.12780051229E+04  0.25500000920E-02 0.  1.
       -2   -1    0    0    0  501  0.00000000000E+00  0.00000000000E+00 -0.78482264663E+03  0.78482264664E+03  0.25500000920E-02 0. -1.
    10030    2    1    2    0    0  0.00000000000E+00  0.00000000000E+00  0.49318247623E+03  0.20628277695E+04  0.20030051053E+04 0.  0.
        5    1    3    3  502    0  0.82135572740E+03 -0.21157916529E+03 -0.30184944220E+03  0.90029225803E+03  0.46999998093E+01 0. -1.
       -5    1    3    3    0  502 -0.82135572740E+03  0.21157916529E+03  0.79503191842E+03  0.11625355115E+04  0.46999998093E+01 0.  1.
</event>
<event>
 5   0  0.8765057E-05  0.2068442E+04  0.7818609E-02  0.8575274E-01
        1   -1    0    0  501    0  0.00000000000E+00  0.00000000000E+00  0.57893960103E+03  0.57893960106E+03  0.50400001928E-02 0. -1.
       -1   -1    0    0    0  501  0.00000000000E+00  0.00000000000E+00 -0.18475385168E+04  0.18475385168E+04  0.50400001928E-02 0.  1.
    10030    2    1    2    0    0  0.00000000000E+00  0.00000000000E+00 -0.12685989158E+04  0.24264781179E+04  0.20684421305E+04 0.  0.
        3    1    3    3  502    0 -0.38244510782E+03  0.51973726808E+03 -0.15824197537E+04  0.17089304771E+04  0.10100000352E+00 0.  1.
       -3    1    3    3    0  502  0.38244510782E+03 -0.51973726808E+03  0.31382083792E+03  0.71754764082E+03  0.10100000352E+00 0. -1.
</event>
<event>
 5   0  0.8577422E-05  0.2018083E+04  0.7818609E-02  0.8598213E-01
       -1   -1    0    0    0  501  0.00000000000E+00  0.00000000000E+00  0.73109873890E+03  0.73109873891E+03  0.50400001928E-02 0.  1.
        1   -1    0    0  501    0  0.00000000000E+00  0.00000000000E+00 -0.13926502780E+04  0.13926502781E+04  0.50400001928E-02 0. -1.
    10030    2    1    2    0    0  0.00000000000E+00  0.00000000000E+00 -0.66155153915E+03  0.21237490170E+04  0.20180831123E+04 0.  0.
        2    1    3    3  502    0  0.23477175965E+03  0.38753015485E+03  0.61802278089E+03  0.76632209792E+03  0.25500000920E-02 0.  1.
       -2    1    3    3    0  502 -0.23477175965E+03 -0.38753015485E+03 -0.12795743200E+04  0.13574269190E+04  0.25500000920E-02 0. -1.
</event>
<event>
 5   0  0.8958919E-05  0.1995615E+04  0.7818609E-02  0.8608674E-01
       -1   -1    0    0    0  501  0.00000000000E+00  0.00000000000E+00  0.73613023580E+03  0.73613023582E+03  0.50400001928E-02 0. -1.
        1   -1    0    0  501    0  0.00000000000E+00  0.00000000000E+00 -0.13525050204E+04  0.13525050204E+04  0.50400001928E-02 0.  1.
    10030    2    1    2    0    0  0.00000000000E+00  0.00000000000E+00 -0.61637478458E+03  0.20886352562E+04  0.19956150326E+04 0.  0.
        4    1    3    3  502    0 -0.38829603702E+03 -0.88237067066E+03 -0.57760909239E+03  0.11238263608E+04  0.12699999809E+01 0. -1.
       -4    1    3    3    0  502  0.38829603702E+03  0.88237067066E+03 -0.38765692196E+02  0.96480889537E+03  0.12699999809E+01 0.  1.
</event>
<event>
 5   0  0.1812865E-04  0.2057039E+04  0.7818609E-02  0.8580408E-01
        2   -1    0    0  501    0  0.00000000000E+00  0.00000000000E+00  0.10141933165E+04  0.10141933165E+04  0.25500000920E-02 0.  1.
       -2   -1    0    0    0  501  0.00000000000E+00  0.00000000000E+00 -0.10430481957E+04  0.10430481957E+04  0.25500000920E-02 0. -1.
    10030    2    1    2    0    0  0.00000000000E+00  0.00000000000E+00 -0.28854879155E+02  0.20572415122E+04  0.20570391429E+04 0.  0.
        3    1    3    3  502    0 -0.57386766211E+03  0.61214858693E+03  0.58044408385E+03  0.10202770853E+04  0.10100000352E+00 0.  1.
       -3    1    3    3    0  502  0.57386766211E+03 -0.61214858693E+03 -0.60929896300E+03  0.10369644269E+04  0.10100000352E+00 0. -1.
</event>
<event>
 5   0  0.1812865E-04  0.2035877E+04  0.7818609E-02  0.8590028E-01
       -2   -1    0    0    0  501  0.00000000000E+00  0.00000000000E+00  0.16343114907E+04  0.16343114907E+04  0.25500000920E-02 0. -1.
        2   -1    0    0  501    0  0.00000000000E+00  0.00000000000E+00 -0.63402793532E+03  0.63402793532E+03  0.25500000920E-02 0.  1.
    10030    2    1    2    0    0  0.00000000000E+00  0.00000000000E+00  0.10002835554E+04  0.22683394260E+04  0.20358773442E+04 0.  0.
        3    1    3    3  502    0  0.54457165487E+03 -0.29583076689E+03 -0.39960822525E+03  0.73740143329E+03  0.10100000352E+00 0. -1.
       -3    1    3    3    0  502 -0.54457165487E+03  0.29583076689E+03  0.13998917806E+04  0.15309379927E+04  0.10100000352E+00 0.  1.
</event>
<event>
 5   0  0.1834645E-04  0.1982101E+04  0.7818609E-02  0.8615035E-01
        2   -1    0    0  501    0  0.00000000000E+00  0.00000000000E+00  0.10206232881E+04  0.10206232881E+04  0.25500000920E-02 0. -1.
       -2   -1    0    0    0  501  0.00000000000E+00  0.00000000000E+00 -0.96233474102E+03  0.96233474103E+03  0.25500000920E-02 0.  1.
    10030    2    1    2    0    0  0.00000000000E+00  0.00000000000E+00  0.58288547077E+02  0.19829580291E+04  0.19821011555E+04 0.  0.
        1    1    3    3  502    0 -0.95968225974E+03 -0.20194177276E+03 -0.11378360877E+03  0.98727768581E+03  0.50400001928E-02 0. -1.
       -1    1    3    3    0  502  0.95968225974E+03  0.20194177276E+03  0.17207215585E+03  0.99568034332E+03  0.50400001928E-02 0.  1.
</event>
<event>
 5   0  0.8861350E-05  0.2003322E+04  0.7818609E-02  0.8605069E-01
       -1   -1    0    0    0  501  0.00000000000E+00  0.00000000000E+00  0.78286679719E+03  0.78286679721E+03  0.50400001928E-02 0.  1.
        1   -1    0    0  501    0  0.00000000000E+00  0.00000000000E+00 -0.12816037329E+04  0.12816037329E+04  0.50400001928E-02 0. -1.
    10030    2    1    2    0    0  0.00000000000E+00  0.00000000000E+00 -0.49873693575E+03  0.20644705302E+04  0.20033222504E+04 0.  0.
        1    1    3    3  502    0  0.73129959885E+03  0.62118168205E+03 -0.54564928640E+03  0.11038110931E+04  0.50400001928E-02 0. -1.
       -1    1    3    3    0  502 -0.73129959885E+03 -0.62118168205E+03  0.46912350651E+02  0.96065943709E+03  0.50400001928E-02 0.  1.
</event>
<event>
 5   0  0.1782172E-04  0.2000156E+04  0.7818609E-02  0.8606548E-01
        2   -1    0    0  501    0  0.00000000000E+00  0.00000000000E+00  0.14860919579E+04  0.14860919579E+04  0.25500000920E-02 0. -1.
       -2   -1    0    0    0  501  0.00000000000E+00  0.00000000000E+00 -0.67301084678E+03  0.67301084678E+03  0.25500000920E-02 0.  1.
    10030    2    1    2    0    0  0.00000000000E+00  0.00000000000E+00  0.81308111108E+03  0.21591028046E+04  0.20001560009E+04 0.  0.
        2    1    3    3  502    0  0.41038786981E+03 -0.86233440077E+03  0.86105694470E+02  0.95888112562E+03  0.25500000920E-02 0.  1.
       -2    1    3    3    0  502 -0.41038786981E+03  0.86233440077E+03  0.72697541661E+03  0.12002216790E+04  0.25500000920E-02 0. -1.
</event>
<event>
 5   0  0.1812865E-04  0.2004719E+04  0.7818609E-02  0.8604418E-01
        2   -1    0    0  501    0  0.00000000000E+00  0.00000000000E+00  0.21072852462E+04  0.21072852462E+04  0.25500000920E-02 0.  1.
       -2   -1    0    0    0  501  0.00000000000E+00  0.00000000000E+00 -0.47678620728E+03  0.47678620729E+03  0.25500000920E-02 0. -1.
    10030    2    1    2    0    0  0.00000000000E+00  0.00000000000E+00  0.16304990390E+04  0.25840714535E+04  0.20047189730E+04 0.  0.
        3    1    3    3  502    0  0.66901697179E+03  0.58537203409E+03  0.21829007652E+03  0.91536588015E+03  0.10100000352E+00 0. -1.
       -3    1    3    3    0  502 -0.66901697179E+03 -0.58537203409E+03  0.14122089624E+04  0.16687055734E+04  0.10100000352E+00 0.  1.
</event>
<event>
 5   0  0.8861350E-05  0.1969139E+04  0.7818609E-02  0.8621187E-01
        1   -1    0    0  501    0  0.00000000000E+00  0.00000000000E+00  0.13607375347E+04  0.13607375347E+04  0.50400001928E-02 0. -1.
       -1   -1    0    0    0  501  0.00000000000E+00  0.00000000000E+00 -0.71239066389E+03  0.71239066390E+03  0.50400001928E-02 0.  1.
    10030    2    1    2    0    0  0.00000000000E+00  0.00000000000E+00  0.64834687079E+03  0.20731281986E+04  0.19691386094E+04 0.  0.
        1    1    3    3  502    0  0.36806603040E+03 -0.76176566427E+03 -0.20602593889E+03  0.87075037613E+03  0.50400001928E-02 0.  1.
       -1    1    3    3    0  502 -0.36806603040E+03  0.76176566427E+03  0.85437280968E+03  0.12023778225E+04  0.50400001928E-02 0. -1.
</event>
<event>
 5   0  0.1893687E-04  0.1805842E+04  0.7818609E-02  0.8703199E-01
        2   -1    0    0  501    0  0.00000000000E+00  0.00000000000E+00  0.66908202265E+03  0.66908202265E+03  0.25500000920E-02 0. -1.
       -2   -1    0    0    0  501  0.00000000000E+00  0.00000000000E+00 -0.12184852913E+04  0.12184852913E+04  0.25500000920E-02 0.  1.
    10030    2    1    2    0    0  0.00000000000E+00  0.00000000000E+00 -0.54940326870E+03  0.18875673140E+04  0.18058423002E+04 0.  0.
        4    1    3    3  502    0 -0.38803220209E+03 -0.42819258960E+03 -0.99989163875E+03  0.11548605049E+04  0.12699999809E+01 0.  1.
       -4    1    3    3    0  502  0.38803220209E+03  0.42819258960E+03  0.45048837005E+03  0.73270680910E+03  0.12699999809E+01 0. -1.
</event>
<event>
 5   0  0.6531625E-05  0.1823390E+04  0.7818609E-02  0.8693959E-01
        3   -1    0    0  501    0  0.00000000000E+00  0.00000000000E+00  0.11164367815E+04  0.11164367860E+04  0.10100000352E+00 0.  1.
       -3   -1    0    0    0  501  0.00000000000E+00  0.00000000000E+00 -0.74450013737E+03  0.74450014422E+03  0.10100000352E+00 0. -1.
    10030    2    1    2    0    0  0.00000000000E+00  0.00000000000E+00  0.37193664411E+03  0.18609369303E+04  0.18233895336E+04 0.  0.
        2    1    3    3  502    0 -0.58849004380E+03  0.17280503998E+03  0.87439928238E+03  0.10680618983E+04  0.25500000920E-02 0.  1.
       -2    1    3    3    0  502  0.58849004380E+03 -0.17280503998E+03 -0.50246263827E+03  0.79287503199E+03  0.25500000920E-02 0. -1.
</event>
<event>
 5   0  0.1807498E-04  0.1847399E+04  0.7818609E-02  0.8681492E-01
       -2   -1    0    0    0  501  0.00000000000E+00  0.00000000000E+00  0.10832591507E+04  0.10832591507E+04  0.25500000920E-02 0.  1.
        2   -1    0    0  501    0  0.00000000000E+00  0.00000000000E+00 -0.78764202463E+03  0.78764202464E+03  0.25500000920E-02 0. -1.
    10030    2    1    2    0    0  0.00000000000E+00  0.00000000000E+00  0.29561712602E+03  0.18709011753E+04  0.18473986366E+04 0.  0.
        5    1    3    3  502    0  0.72771560184E+03 -0.42358122010E+03  0.53238603650E+03  0.99621685844E+03  0.46999998093E+01 0.  1.
       -5    1    3    3    0  502 -0.72771560184E+03  0.42358122010E+03 -0.23676891048E+03  0.87468431685E+03  0.46999998093E+01 0. -1.
</event>
<event>
 5   0  0.1893687E-04  0.1995083E+04  0.7818609E-02  0.8608923E-01
        2   -1    0    0  501    0  0.00000000000E+00  0.00000000000E+00  0.17983700750E+04  0.17983700750E+04  0.25500000920E-02 0. -1.
       -2   -1    0    0    0  501  0.00000000000E+00  0.00000000000E+00 -0.55332805698E+03  0.55332805699E+03  0.25500000920E-02 0.  1.
    10030    2    1    2    0    0  0.00000000000E+00  0.00000000000E+00  0.12450420180E+04  0.23516981319E+04  0.19950825741E+04 0.  0.
        4    1    3    3  502    0 -0.73009866393E+03  0.46379985883E+03  0.36774178684E+02  0.86574148639E+03  0.12699999809E+01 0.  1.
       -4    1    3    3    0  502  0.73009866393E+03 -0.46379985883E+03  0.12082678393E+04  0.14859566456E+04  0.12699999809E+01 0. -1.
</event>
<event>
 5   0  0.1812865E-04  0.1961194E+04  0.7818609E-02  0.8624982E-01
        2   -1    0    0  501    0  0.00000000000E+00  0.00000000000E+00  0.15656722611E+04  0.15656722611E+04  0.25500000920E-02 0. -1.
       -2   -1    0    0    0  501  0.00000000000E+00  0.00000000000E+00 -0.61415801477E+03  0.61415801478E+03  0.25500000920E-02 0.  1.
    10030    2    1    2    0    0  0.00000000000E+00  0.00000000000E+00  0.95151424629E+03  0.21798302758E+04  0.19611936851E+04 0.  0.
        3    1    3    3  502    0 -0.74261458266E+03 -0.13347981973E+03 -0.22038601793E+03  0.78604280275E+03  0.10100000352E+00 0.  1.
       -3    1    3    3    0  502  0.74261458266E+03  0.13347981973E+03  0.11719002642E+04  0.13937874731E+04  0.10100000352E+00 0. -1.
</event>
<event>
 5   0  0.1812865E-04  0.1977781E+04  0.7818609E-02  0.8617080E-01
       -2   -1    0    0    0  501  0.00000000000E+00  0.00000000000E+00  0.11400546240E+04  0.11400546240E+04  0.25500000920E-02 0. -1.
        2   -1    0    0  501    0  0.00000000000E+00  0.00000000000E+00 -0.85776951292E+03  0.85776951292E+03  0.25500000920E-02 0.  1.
    10030    2    1    2    0    0  0.00000000000E+00  0.00000000000E+00  0.28228511107E+03  0.19978241369E+04  0.19777806749E+04 0.  0.
        3    1    3    3  502    0 -0.97696944713E+03 -0.10238176761E+03  0.26178963256E+02  0.98266814097E+03  0.10100000352E+00 0.  1.
       -3    1    3    3    0  502  0.97696944713E+03  0.10238176761E+03  0.25610614782E+03  0.10151559959E+04  0.10100000352E+00 0. -1.
</event>
<event>
 5   0  0.1782172E-04  0.1980632E+04  0.7818609E-02  0.8615730E-01
        2   -1    0    0  501    0  0.00000000000E+00  0.00000000000E+00  0.10925742309E+04  0.10925742309E+04  0.25500000920E-02 0. -1.
       -2   -1    0    0    0  501  0.00000000000E+00  0.00000000000E+00 -0.89762831288E+03  0.89762831289E+03  0.25500000920E-02 0.  1.
    10030    2    1    2    0    0  0.00000000000E+00  0.00000000000E+00  0.19494591800E+03  0.19902025438E+04  0.19806317816E+04 0.  0.
        2    1    3    3  502    0 -0.57421402058E+03 -0.74958680389E+03 -0.20250511857E+03  0.96571757830E+03  0.25500000920E-02 0.  1.
       -2    1    3    3    0  502  0.57421402058E+03  0.74958680389E+03  0.39745103658E+03  0.10244849655E+04  0.25500000920E-02 0. -1.
</event>
<event>
 5   0  0.1812865E-04  0.1996421E+04  0.7818609E-02  0.8608296E-01
        2   -1    0    0  501    0  0.00000000000E+00  0.00000000000E+00  0.16080161771E+04  0.16080161771E+04  0.25500000920E-02 0.  1.
       -2   -1    0    0    0  501  0.00000000000E+00  0.00000000000E+00 -0.61966080135E+03  0.61966080136E+03  0.25500000920E-02 0. -1.
    10030    2    1    2    0    0  0.00000000000E+00  0.00000000000E+00  0.98835537574E+03  0.22276769785E+04  0.19964213913E+04 0.  0.
        3    1    3    3  502    0 -0.23909716115E+03  0.93052091802E+03  0.79645975562E+03  0.12479522362E+04  0.10100000352E+00 0.  1.
       -3    1    3    3    0  502  0.23909716115E+03 -0.93052091802E+03  0.19189562012E+03  0.97972474224E+03  0.10100000352E+00 0. -1.
</event>
<event>
 5   0  0.8881384E-05  0.1995754E+04  0.7818609E-02  0.8608608E-01
        1   -1    0    0  501    0  0.00000000000E+00  0.00000000000E+00  0.61977346960E+03  0.61977346962E+03  0.50400001928E-02 0. -1.
       -1   -1    0    0    0  501  0.00000000000E+00  0.00000000000E+00 -0.16066492959E+04  0.16066492959E+04  0.50400001928E-02 0.  1.
    10030    2    1    2    0    0  0.00000000000E+00  0.00000000000E+00 -0.98687582628E+03  0.22264227655E+04  0.19957541017E+04 0.  0.
        5    1    3    3  502    0 -0.69470253842E+03  0.67973577551E+03 -0.74557910696E+03  0.12249745451E+04  0.46999998093E+01 0. -1.
       -5    1    3    3    0  502  0.69470253842E+03 -0.67973577551E+03 -0.24129671932E+03  0.10014482204E+04  0.46999998093E+01 0.  1.
</event>
<event>
 5   0  0.1834645E-04  0.2057703E+04  0.7818609E-02  0.8580108E-01
       -2   -1    0    0    0  501  0.00000000000E+00  0.00000000000E+00  0.11348038743E+04  0.11348038743E+04  0.25500000920E-02 0. -1.
        2   -1    0    0  501    0  0.00000000000E+00  0.00000000000E+00 -0.93279174893E+03  0.93279174894E+03  0.25500000920E-02 0.  1.
    10030    2    1    2    0    0  0.00000000000E+00  0.00000000000E+00  0.20201212534E+03  0.20675956232E+04  0.20577032736E+04 0.  0.
        1    1    3    3  502    0 -0.35726034240E+03  0.46559571816E+03  0.95012566921E+03  0.11167600961E+04  0.50400001928E-02 0. -1.
       -1    1    3    3    0  502  0.35726034240E+03 -0.46559571816E+03 -0.74811354386E+03  0.95083552708E+03  0.50400001928E-02 0.  1.
</event>
<event>
 5   0  0.8765057E-05  0.2024255E+04  0.7818609E-02  0.8595364E-01
        1   -1    0    0  501    0  0.00000000000E+00  0.00000000000E+00  0.12473997561E+04  0.12473997561E+04  0.50400001928E-02 0. -1.
       -1   -1    0    0    0  501  0.00000000000E+00  0.00000000000E+00 -0.82123019260E+03  0.82123019262E+03  0.50400001928E-02 0.  1.
    10030    2    1    2    0    0  0.00000000000E+00  0.00000000000E+00  0.42616956350E+03  0.20686299487E+04  0.20242552625E+04 0.  0.
        3    1    3    3  502    0  0.49433817831E+03 -0.42994290384E+02  0.11145699059E+04  0.12200347654E+04  0.10100000352E+00 0. -1.
       -3    1    3    3    0  502 -0.49433817831E+03  0.42994290384E+02 -0.68840034238E+03  0.84859518331E+03  0.10100000352E+00 0.  1.
</event>
<event>
 5   0  0.1893687E-04  0.1955512E+04  0.7818609E-02  0.8627707E-01
       -2   -1    0    0    0  501  0.00000000000E+00  0.00000000000E+00  0.62875534683E+03  0.62875534684E+03  0.25500000920E-02 0. -1.
        2   -1    0    0  501    0  0.00000000000E+00  0.00000000000E+00 -0.15204754720E+04  0.15204754720E+04  0.25500000920E-02 0.  1.
    10030    2    1    2    0    0  0.00000000000E+00  0.00000000000E+00 -0.89172012518E+03  0.21492308189E+04  0.19555122938E+04 0.  0.
        4    1    3    3  502    0  0.14356535622E+03 -0.96436217868E+03 -0.36509542171E+03  0.10411059999E+04  0.12699999809E+01 0. -1.
       -4    1    3    3    0  502 -0.14356535622E+03  0.96436217868E+03 -0.52662470346E+03  0.11081248190E+04  0.12699999809E+01 0.  1.
</event>
<event>
 5   0  0.1893687E-04  0.1990395E+04  0.7818609E-02  0.8611125E-01
       -2   -1    0    0    0  501  0.00000000000E+00  0.00000000000E+00  0.67099201107E+03  0.67099201108E+03  0.25500000920E-02 0. -1.
        2   -1    0    0  501    0  0.00000000000E+00  0.00000000000E+00 -0.14760497217E+04  0.14760497217E+04  0.25500000920E-02 0.  1.
    10030    2    1    2    0    0  0.00000000000E+00  0.00000000000E+00 -0.80505771061E+03  0.21470417328E+04  0.19903945048E+04 0.  0.
        4    1    3    3  502    0  0.88392187702E+02 -0.20807111096E+02  0.66651278014E+03  0.67267154965E+03  0.12699999809E+01 0. -1.
       -4    1    3    3    0  502 -0.88392187702E+02  0.20807111096E+02 -0.14715704907E+04  0.14743701831E+04  0.12699999809E+01 0.  1.
</event>
<event>
 5   0  0.6531625E-05  0.2069584E+04  0.7818609E-02  0.8574761E-01
        3   -1    0    0  501    0  0.00000000000E+00  0.00000000000E+00  0.67814055775E+03  0.67814056527E+03  0.10100000352E+00 0. -1.
       -3   -1    0    0    0  501  0.00000000000E+00  0.00000000000E+00 -0.15790161752E+04  0.15790161784E+04  0.10100000352E+00 0.  1.
    10030    2    1    2    0    0  0.00000000000E+00  0.00000000000E+00 -0.90087561742E+03  0.22571567437E+04  0.20695844238E+04 0.  0.
        5    1    3    3  502    0 -0.83843858679E+03 -0.48914402725E+03 -0.84144403977E+03  0.12846366433E+04  0.46999998093E+01 0. -1.
       -5    1    3    3    0  502  0.83843858679E+03  0.48914402725E+03 -0.59431577647E+02  0.97252010038E+03  0.46999998093E+01 0.  1.
</event>
<event>
 5   0  0.1893687E-04  0.2001015E+04  0.7818609E-02  0.8606146E-01
        2   -1    0    0  501    0  0.00000000000E+00  0.00000000000E+00  0.11164012051E+04  0.11164012052E+04  0.25500000920E-02 0. -1.
       -2   -1    0    0    0  501  0.00000000000E+00  0.00000000000E+00 -0.89664491985E+03  0.89664491985E+03  0.25500000920E-02 0.  1.
    10030    2    1    2    0    0  0.00000000000E+00  0.00000000000E+00  0.21975628530E+03  0.20130461250E+04  0.20010152115E+04 0.  0.
        4    1    3    3  502    0 -0.36068261118E+03 -0.91017862835E+03 -0.97508757963E+02  0.98388345463E+03  0.12699999809E+01 0.  1.
       -4    1    3    3    0  502  0.36068261118E+03  0.91017862835E+03  0.31726504326E+03  0.10291626704E+04  0.12699999809E+01 0. -1.
</event>
<event>
 5   0  0.1834645E-04  0.2106761E+04  0.7818609E-02  0.8558271E-01
       -2   -1    0    0    0  501  0.00000000000E+00  0.00000000000E+00  0.64602248787E+03  0.64602248788E+03  0.25500000920E-02 0. -1.
        2   -1    0    0  501    0  0.00000000000E+00  0.00000000000E+00 -0.17176040436E+04  0.17176040437E+04  0.25500000920E-02 0.  1.
    10030    2    1    2    0    0  0.00000000000E+00  0.00000000000E+00 -0.10715815558E+04  0.23636265315E+04  0.21067613415E+04 0.  0.
        1    1    3    3  502    0 -0.35030045049E+03 -0.84940760491E+03  0.42198559870E+02  0.91977410453E+03  0.50400001928E-02 0. -1.
       -1    1    3    3    0  502  0.35030045049E+03  0.84940760491E+03 -0.11137801156E+04  0.14438524270E+04  0.50400001928E-02 0.  1.
</event>
<event>
 5   0  0.8958919E-05  0.1901506E+04  0.7818609E-02  0.8654107E-01
        1   -1    0    0  501    0  0.00000000000E+00  0.00000000000E+00  0.91108924142E+03  0.91108924143E+03  0.50400001928E-02 0. -1.
       -1   -1    0    0    0  501  0.00000000000E+00  0.00000000000E+00 -0.99214392050E+03  0.99214392051E+03  0.50400001928E-02 0.  1.
    10030    2    1    2    0    0  0.00000000000E+00  0.00000000000E+00 -0.81054679084E+02  0.19032331619E+04  0.19015064049E+04 0.  0.
        4    1    3    3  502    0  0.55581124390E+03  0.76730661312E+03  0.38566326294E+02  0.94824814886E+03  0.12699999809E+01 0. -1.
       -4    1    3    3    0  502 -0.55581124390E+03 -0.76730661312E+03 -0.11962100538E+03  0.95498501309E+03  0.12699999809E+01 0.  1.
</event>
<event>
 5   0  0.8881384E-05  0.2000967E+04  0.7818609E-02  0.8606169E-01
        1   -1    0    0  501    0  0.00000000000E+00  0.00000000000E+00  0.21380999089E+04  0.21380999089E+04  0.50400001928E-02 0. -1.
       -1   -1    0    0    0  501  0.00000000000E+00  0.00000000000E+00 -0.46815752282E+03  0.46815752284E+03  0.50400001928E-02 0.  1.
    10030    2    1    2    0    0  0.00000000000E+00  0.00000000000E+00  0.16699423860E+04  0.26062574317E+04  0.20009673230E+04 0.  0.
        5    1    3    3  502    0 -0.28270894170E+03  0.91050210488E+03  0.12300537352E+04  0.15562752681E+04  0.46999998093E+01 0. -1.
       -5    1    3    3    0  502  0.28270894170E+03 -0.91050210488E+03  0.43988865085E+03  0.10499821636E+04  0.46999998093E+01 0.  1.
</event>
<event>
 5   0  0.1893687E-04  0.2006115E+04  0.7818609E-02  0.8603767E-01
       -2   -1    0    0    0  501  0.00000000000E+00  0.00000000000E+00  0.49569556605E+03  0.49569556605E+03  0.25500000920E-02 0.  1.
        2   -1    0    0  501    0  0.00000000000E+00  0.00000000000E+00 -0.20297228128E+04  0.20297228128E+04  0.25500000920E-02 0. -1.
    10030    2    1    2    0    0  0.00000000000E+00  0.00000000000E+00 -0.15340272467E+04  0.25254183788E+04  0.20061152495E+04 0.  0.
        4    1    3    3  502    0  0.50529554792E+03 -0.64799875626E+03 -0.14911558563E+04  0.17025784504E+04  0.12699999809E+01 0. -1.
       -4    1    3    3    0  502 -0.50529554792E+03  0.64799875626E+03 -0.42871390390E+02  0.82283992847E+03  0.12699999809E+01 0.  1.
</event>
<event>
 5   0  0.1834645E-04  0.2004272E+04  0.7818609E-02  0.8604626E-01
        2   -1    0    0  501    0  0.00000000000E+00  0.00000000000E+00  0.17073326068E+04  0.17073326068E+04  0.25500000920E-02 0. -1.
       -2   -1    0    0    0  501  0.00000000000E+00  0.00000000000E+00 -0.58821372506E+03  0.58821372506E+03  0.25500000920E-02 0.  1.
    10030    2    1    2    0    0  0.00000000000E+00  0.00000000000E+00  0.11191188817E+04  0.22955463319E+04  0.20042719103E+04 0.  0.
        1    1    3    3  502    0 -0.59874388054E+03 -0.25612929261E+03 -0.31283081974E+03  0.72246769535E+03  0.50400001928E-02 0.  1.
       -1    1    3    3    0  502  0.59874388054E+03  0.25612929261E+03  0.14319497015E+04  0.15730786365E+04  0.50400001928E-02 0. -1.
</event>
<event>
 5   0  0.1782172E-04  0.1983269E+04  0.7818609E-02  0.8614483E-01
       -2   -1    0    0    0  501  0.00000000000E+00  0.00000000000E+00  0.42790869767E+03  0.42790869767E+03  0.25500000920E-02 0. -1.
        2   -1    0    0  501    0  0.00000000000E+00  0.00000000000E+00 -0.22980105997E+04  0.22980105997E+04  0.25500000920E-02 0.  1.
    10030    2    1    2    0    0  0.00000000000E+00  0.00000000000E+00 -0.18701019021E+04  0.27259192974E+04  0.19832687392E+04 0.  0.
        2    1    3    3  502    0 -0.49872981086E+03 -0.22164595933E+03 -0.20730160382E+04  0.21436543215E+04  0.25500000920E-02 0.  1.
       -2    1    3    3    0  502  0.49872981086E+03  0.22164595933E+03  0.20291413612E+03  0.58226497590E+03  0.25500000920E-02 0. -1.
</event>
<event>
 5   0  0.1807498E-04  0.1745120E+04  0.7818609E-02  0.8736041E-01
       -2   -1    0    0    0  501  0.00000000000E+00  0.00000000000E+00  0.53126658802E+03  0.53126658803E+03  0.25500000920E-02 0.  1.
        2   -1    0    0  501    0  0.00000000000E+00  0.00000000000E+00 -0.14331051174E+04  0.14331051174E+04  0.25500000920E-02 0. -1.
    10030    2    1    2    0    0  0.00000000000E+00  0.00000000000E+00 -0.90183852941E+03  0.19643717055E+04  0.17451198996E+04 0.  0.
        5    1    3    3  502    0  0.39964466379E+03 -0.61013835905E+03  0.88158792697E+02  0.73469635715E+03  0.46999998093E+01 0.  1.
       -5    1    3    3    0  502 -0.39964466379E+03  0.61013835905E+03 -0.98999732210E+03  0.12296753483E+04  0.46999998093E+01 0. -1.
</event>
<event>
 5   0  0.1782172E-04  0.2006017E+04  0.7818609E-02  0.8603812E-01
       -2   -1    0    0    0  501  0.00000000000E+00  0.00000000000E+00  0.11741828567E+04  0.11741828567E+04  0.25500000920E-02 0.  1.
        2   -1    0    0  501    0  0.00000000000E+00  0.00000000000E+00 -0.85678856931E+03  0.85678856931E+03  0.25500000920E-02 0. -1.
    10030    2    1    2    0    0  0.00000000000E+00  0.00000000000E+00  0.31739428737E+03  0.20309714260E+04  0.20060173976E+04 0.  0.
        2    1    3    3  502    0 -0.38830341811E+03  0.44944463335E+03  0.97698788924E+03  0.11433658027E+04  0.25500000920E-02 0.  1.
       -2    1    3    3    0  502  0.38830341811E+03 -0.44944463335E+03 -0.65959360187E+03  0.88760562334E+03  0.25500000920E-02 0. -1.
</event>
<event>
 5   0  0.8765057E-05  0.1981830E+04  0.7818609E-02  0.8615163E-01
        1   -1    0    0  501    0  0.00000000000E+00  0.00000000000E+00  0.17142958455E+04  0.17142958455E+04  0.50400001928E-02 0. -1.
       -1   -1    0    0    0  501  0.00000000000E+00  0.00000000000E+00 -0.57277878861E+03  0.57277878863E+03  0.50400001928E-02 0.  1.
    10030    2    1    2    0    0  0.00000000000E+00  0.00000000000E+00  0.11415170569E+04  0.22870746341E+04  0.19818297583E+04 0.  0.
        3    1    3    3  502    0 -0.63376023402E+03  0.73589736273E+03  0.79782627271E+03  0.12568706116E+04  0.10100000352E+00 0.  1.
       -3    1    3    3    0  502  0.63376023402E+03 -0.73589736273E+03  0.34369078417E+03  0.10302040225E+04  0.10100000352E+00 0. -1.
</event>
<event>
 5   0  0.1834645E-04  0.1992472E+04  0.7818609E-02  0.8610149E-01
        2   -1    0    0  501    0  0.00000000000E+00  0.00000000000E+00  0.10676229684E+04  0.10676229684E+04  0.25500000920E-02 0.  1.
       -2   -1    0    0    0  501  0.00000000000E+00  0.00000000000E+00 -0.92962194301E+03  0.92962194301E+03  0.25500000920E-02 0. -1.
    10030    2    1    2    0    0  0.00000000000E+00  0.00000000000E+00  0.13800102538E+03  0.19972449114E+04  0.19924715690E+04 0.  0.
        1    1    3    3  502    0  0.77723450823E+03  0.51342903098E+03  0.42309299466E+03  0.10230887219E+04  0.50400001928E-02 0.  1.
       -1    1    3    3    0  502 -0.77723450823E+03 -0.51342903098E+03 -0.28509196928E+03  0.97415618954E+03  0.50400001928E-02 0. -1.
</event>
<event>
 5   0  0.8577422E-05  0.1988153E+04  0.7818609E-02  0.8612180E-01
        1   -1    0    0  501    0  0.00000000000E+00  0.00000000000E+00  0.72056250606E+03  0.72056250608E+03  0.50400001928E-02 0. -1.
       -1   -1    0    0    0  501  0.00000000000E+00  0.00000000000E+00 -0.13714113607E+04  0.13714113607E+04  0.50400001928E-02 0.  1.
    10030    2    1    2    0    0  0.00000000000E+00  0.00000000000E+00 -0.65084885467E+03  0.20919738668E+04  0.19881525162E+04 0.  0.
        2    1    3    3  502    0  0.10091174517E+03 -0.95464305488E+03 -0.59709505099E+03  0.11305083115E+04  0.25500000920E-02 0.  1.
       -2    1    3    3    0  502 -0.10091174517E+03  0.95464305488E+03 -0.53753803678E+02  0.96146555527E+03  0.25500000920E-02 0. -1.
</event>
<event>
 5   0  0.8958919E-05  0.2060000E+04  0.7818609E-02  0.8579071E-01
       -1   -1    0    0    0  501  0.00000000000E+00  0.00000000000E+00  0.13507608614E+04  0.13507608614E+04  0.50400001928E-02 0. -1.
        1   -1    0    0  501    0  0.00000000000E+00  0.00000000000E+00 -0.78540907539E+03  0.78540907541E+03  0.50400001928E-02 0.  1.
    10030    2    1    2    0    0  0.00000000000E+00  0.00000000000E+00  0.56535178602E+03  0.21361699368E+04  0.20599998439E+04 0.  0.
        4    1    3    3  502    0  0.80632900670E+02  0.10260573045E+04  0.32419339787E+03  0.10790728562E+04  0.12699999809E+01 0.  1.
       -4    1    3    3    0  502 -0.80632900670E+02 -0.10260573045E+04  0.24115838815E+03  0.10570970806E+04  0.12699999809E+01 0. -1.
</event>
<event>
 5   0  0.1812865E-04  0.2010734E+04  0.7818609E-02  0.8601618E-01
        2   -1    0    0  501    0  0.00000000000E+00  0.00000000000E+00  0.12600828543E+04  0.12600828543E+04  0.25500000920E-02 0.  1.
       -2   -1    0    0    0  501  0.00000000000E+00  0.00000000000E+00 -0.80214021381E+03  0.80214021381E+03  0.25500000920E-02 0. -1.
    10030    2    1    2    0    0  0.00000000000E+00  0.00000000000E+00  0.45794264046E+03  0.20622230681E+04  0.20107343237E+04 0.  0.
        3    1    3    3  502    0 -0.86548159868E+03 -0.46910429154E+03  0.19672393271E+02  0.98463406769E+03  0.10100000352E+00 0. -1.
       -3    1    3    3    0  502  0.86548159868E+03  0.46910429154E+03  0.43827024719E+03  0.10775890004E+04  0.10100000352E+00 0.  1.
</event>
<event>
 5   0  0.1807498E-04  0.1934116E+04  0.7818609E-02  0.8638059E-01
       -2   -1    0    0    0  501  0.00000000000E+00  0.00000000000E+00  0.10825154609E+04  0.10825154609E+04  0.25500000920E-02 0. -1.
        2   -1    0    0  501    0  0.00000000000E+00  0.00000000000E+00 -0.86391486823E+03  0.86391486824E+03  0.25500000920E-02 0.  1.
    10030    2    1    2    0    0  0.00000000000E+00  0.00000000000E+00  0.21860059269E+03  0.19464303292E+04  0.19341160273E+04 0.  0.
        5    1    3    3  502    0 -0.20178260167E+03  0.72988052210E+03 -0.49597506525E+03  0.90523762087E+03  0.46999998093E+01 0.  1.
       -5    1    3    3    0  502  0.20178260167E+03 -0.72988052210E+03  0.71457565794E+03  0.10411927083E+04  0.46999998093E+01 0. -1.
</event>
<event>
 5   0  0.1807498E-04  0.1996554E+04  0.7818609E-02  0.8608234E-01
        2   -1    0    0  501    0  0.00000000000E+00  0.00000000000E+00  0.89042526920E+03  0.89042526920E+03  0.25500000920E-02 0. -1.
       -2   -1    0    0    0  501  0.00000000000E+00  0.00000000000E+00 -0.11191916973E+04  0.11191916973E+04  0.25500000920E-02 0.  1.
    10030    2    1    2    0    0  0.00000000000E+00  0.00000000000E+00 -0.22876642808E+03  0.20096169665E+04  0.19965535989E+04 0.  0.
        5    1    3    3  502    0  0.23202105902E+03 -0.92669463448E+03 -0.40599898340E+03  0.10380048082E+04  0.46999998093E+01 0.  1.
       -5    1    3    3    0  502 -0.23202105902E+03  0.92669463448E+03  0.17723255531E+03  0.97161215825E+03  0.46999998093E+01 0. -1.
</event>
<event>
 5   0  0.1834645E-04  0.1799931E+04  0.7818609E-02  0.8706336E-01
       -2   -1    0    0    0  501  0.00000000000E+00  0.00000000000E+00  0.28978844556E+03  0.28978844557E+03  0.25500000920E-02 0.  1.
        2   -1    0    0  501    0  0.00000000000E+00  0.00000000000E+00 -0.27949289942E+04  0.27949289942E+04  0.25500000920E-02 0. -1.
    10030    2    1    2    0    0  0.00000000000E+00  0.00000000000E+00 -0.25051405487E+04  0.30847174398E+04  0.17999312528E+04 0.  0.
        1    1    3    3  502    0  0.52584632525E+03  0.73033440216E+03 -0.12627716043E+04  0.15506433572E+04  0.50400001928E-02 0.  1.
       -1    1    3    3    0  502 -0.52584632525E+03 -0.73033440216E+03 -0.12423689444E+04  0.15340740826E+04  0.50400001928E-02 0. -1.
</event>
<event>
 5   0  0.8958919E-05  0.1988660E+04  0.7818609E-02  0.8611941E-01
        1   -1    0    0  501    0  0.00000000000E+00  0.00000000000E+00  0.16329240288E+04  0.16329240288E+04  0.50400001928E-02 0. -1.
       -1   -1    0    0    0  501  0.00000000000E+00  0.00000000000E+00 -0.60547335153E+03  0.60547335155E+03  0.50400001928E-02 0.  1.
    10030    2    1    2    0    0  0.00000000000E+00  0.00000000000E+00  0.10274506773E+04  0.22383973804E+04  0.19886598347E+04 0.  0.
        4    1    3    3  502    0  0.81901074068E+03  0.13695210493E+03 -0.10191273740E+03  0.83661358544E+03  0.12699999809E+01 0.  1.
       -4    1    3    3    0  502 -0.81901074068E+03 -0.13695210493E+03  0.11293634147E+04  0.14017837949E+04  0.12699999809E+01 0. -1.
</event>
<event>
 5   0  0.6531625E-05  0.2048736E+04  0.7818609E-02  0.8584168E-01
        3   -1    0    0  501    0  0.00000000000E+00  0.00000000000E+00  0.78858976010E+03  0.78858976657E+03  0.10100000352E+00 0. -1.
       -3   -1    0    0    0  501  0.00000000000E+00  0.00000000000E+00 -0.13306415192E+04  0.13306415230E+04  0.10100000352E+00 0.  1.
    10030    2    1    2    0    0  0.00000000000E+00  0.00000000000E+00 -0.54205175908E+03  0.21192312896E+04  0.20487364763E+04 0.  0.
        2    1    3    3  502    0  0.10081539628E+03 -0.36215913306E+03 -0.12567081140E+04  0.13117310187E+04  0.25500000920E-02 0.  1.
       -2    1    3    3    0  502 -0.10081539628E+03  0.36215913306E+03  0.71465635490E+03  0.80750027083E+03  0.25500000920E-02 0. -1.
</event>
<event>
 5   0  0.1807498E-04  0.1955446E+04  0.7818609E-02  0.8627739E-01
        2   -1    0    0  501    0  0.00000000000E+00  0.00000000000E+00  0.25553959029E+04  0.25553959029E+04  0.25500000920E-02 0.  1.
       -2   -1    0    0    0  501  0.00000000000E+00  0.00000000000E+00 -0.37408761392E+03  0.37408761393E+03  0.25500000920E-02 0. -1.
    10030    2    1    2    0    0  0.00000000000E+00  0.00000000000E+00  0.21813082890E+04  0.29294835168E+04  0.19554456842E+04 0.  0.
        5    1    3    3  502    0  0.92851162444E+03  0.29304802901E+03  0.95742389305E+03  0.13655378373E+04  0.46999998093E+01 0.  1.
       -5    1    3    3    0  502 -0.92851162444E+03 -0.29304802901E+03  0.12238843959E+04  0.15639456796E+04  0.46999998093E+01 0. -1.
</event>
<event>
 5   0  0.1782172E-04  0.1957348E+04  0.7818609E-02  0.8626825E-01
       -2   -1    0    0    0  501  0.00000000000E+00  0.00000000000E+00  0.42440687351E+03  0.42440687352E+03  0.25500000920E-02 0.  1.
        2   -1    0    0  501    0  0.00000000000E+00  0.00000000000E+00 -0.22568043216E+04  0.22568043216E+04  0.25500000920E-02 0. -1.
    10030    2    1    2    0    0  0.00000000000E+00  0.00000000000E+00 -0.18323974481E+04  0.26812111952E+04  0.19573484782E+04 0.  0.
        2    1    3    3  502    0  0.91380730474E+02  0.88828382472E+03 -0.36757904398E+03  0.96566709830E+03  0.25500000920E-02 0.  1.
       -2    1    3    3    0  502 -0.91380730474E+02 -0.88828382472E+03 -0.14648184041E+04  0.17155440969E+04  0.25500000920E-02 0. -1.
</event>
<event>
 5   0  0.1812865E-04  0.2047459E+04  0.7818609E-02  0.8584748E-01
       -2   -1    0    0    0  501  0.00000000000E+00  0.00000000000E+00  0.14290693462E+04  0.14290693462E+04  0.25500000920E-02 0.  1.
        2   -1    0    0  501    0  0.00000000000E+00  0.00000000000E+00 -0.73336003639E+03  0.73336003640E+03  0.25500000920E-02 0. -1.
    10030    2    1    2    0    0  0.00000000000E+00  0.00000000000E+00  0.69570930977E+03  0.21624293826E+04  0.20474592526E+04 0.  0.
        3    1    3    3  502    0 -0.38917957845E+03  0.92004542733E+03  0.58420169918E+03  0.11572536317E+04  0.10100000352E+00 0. -1.
       -3    1    3    3    0  502  0.38917957845E+03 -0.92004542733E+03  0.11150761059E+03  0.10051757508E+04  0.10100000352E+00 0.  1.
</event>
<event>
 5   0  0.8861350E-05  0.1977377E+04  0.7818609E-02  0.8617271E-01
       -1   -1    0    0    0  501  0.00000000000E+00  0.00000000000E+00  0.12374940847E+04  0.12374940847E+04  0.50400001928E-02 0.  1.
        1   -1    0    0  501    0  0.00000000000E+00  0.00000000000E+00 -0.78990645877E+03  0.78990645879E+03  0.50400001928E-02 0. -1.
    10030    2    1    2    0    0  0.00000000000E+00  0.00000000000E+00  0.44758762588E+03  0.20274005434E+04  0.19773766158E+04 0.  0.
        1    1    3    3  502    0  0.82247086472E+03  0.30882614277E+03  0.68877828224E+03  0.11163545279E+04  0.50400001928E-02 0.  1.
       -1    1    3    3    0  502 -0.82247086472E+03 -0.30882614277E+03 -0.24119065636E+03  0.91104601558E+03  0.50400001928E-02 0. -1.
</event>
<event>
 5   0  0.1812865E-04  0.1989474E+04  0.7818609E-02  0.8611558E-01
        2   -1    0    0  501    0  0.00000000000E+00  0.00000000000E+00  0.94730190275E+03  0.94730190276E+03  0.25500000920E-02 0. -1.
       -2   -1    0    0    0  501  0.00000000000E+00  0.00000000000E+00 -0.10445473530E+04  0.10445473530E+04  0.25500000920E-02 0.  1.
    10030    2    1    2    0    0  0.00000000000E+00  0.00000000000E+00 -0.97245450239E+02  0.19918492558E+04  0.19894739958E+04 0.  0.
        3    1    3    3  502    0  0.52736781478E+03 -0.43965528450E+03 -0.76926545689E+03  0.10311076251E+04  0.10100000352E+00 0.  1.
       -3    1    3    3    0  502 -0.52736781478E+03  0.43965528450E+03  0.67202000665E+03  0.96074163061E+03  0.10100000352E+00 0. -1.
</event>
<event>
 5   0  0.1807498E-04  0.2012835E+04  0.7818609E-02  0.8600643E-01
       -2   -1    0    0    0  501  0.00000000000E+00  0.00000000000E+00  0.15044975851E+04  0.15044975851E+04  0.25500000920E-02 0.  1.
        2   -1    0    0  501    0  0.00000000000E+00  0.00000000000E+00 -0.67323198691E+03  0.67323198691E+03  0.25500000920E-02 0. -1.
    10030    2    1    2    0    0  0.00000000000E+00  0.00000000000E+00  0.83126559820E+03  0.21777295720E+04  0.20128347160E+04 0.  0.
        5    1    3    3  502    0 -0.79485604976E+03 -0.51012038833E+03  0.39542654852E+02  0.94530664971E+03  0.46999998093E+01 0. -1.
       -5    1    3    3    0  502  0.79485604976E+03  0.51012038833E+03  0.79172294335E+03  0.12324229223E+04  0.46999998093E+01 0.  1.
</event>
<event>
 5   0  0.8861350E-05  0.1998779E+04  0.7818609E-02  0.8607192E-01
        1   -1    0    0  501    0  0.00000000000E+00  0.00000000000E+00  0.17799186669E+04  0.17799186669E+04  0.50400001928E-02 0.  1.
       -1   -1    0    0    0  501  0.00000000000E+00  0.00000000000E+00 -0.56113752210E+03  0.56113752212E+03  0.50400001928E-02 0. -1.
    10030    2    1    2    0    0  0.00000000000E+00  0.00000000000E+00  0.12187811448E+04  0.23410561890E+04  0.19987787774E+04 0.  0.
        1    1    3    3  502    0 -0.74797083056E+03 -0.51762757225E+03  0.10942633362E+04  0.14229585081E+04  0.50400001928E-02 0.  1.
       -1    1    3    3    0  502  0.74797083056E+03  0.51762757225E+03  0.12451780858E+03  0.91809768086E+03  0.50400001928E-02 0. -1.
</event>
<event>
 5   0  0.8577422E-05  0.2035943E+04  0.7818609E-02  0.8589998E-01
       -1   -1    0    0    0  501  0.00000000000E+00  0.00000000000E+00  0.10638431232E+04  0.10638431232E+04  0.50400001928E-02 0.  1.
        1   -1    0    0  501    0  0.00000000000E+00  0.00000000000E+00 -0.97407799200E+03  0.97407799201E+03  0.50400001928E-02 0. -1.
    10030    2    1    2    0    0  0.00000000000E+00  0.00000000000E+00  0.89765131203E+02  0.20379211152E+04  0.20359431950E+04 0.  0.
        2    1    3    3  502    0 -0.62499373343E+03  0.77316404488E+03 -0.17411381733E+03  0.10093143358E+04  0.25500000920E-02 0. -1.
       -2    1    3    3    0  502  0.62499373343E+03 -0.77316404488E+03  0.26387894854E+03  0.10286067794E+04  0.25500000920E-02 0.  1.
</event>
<event>
 5   0  0.1893687E-04  0.1975913E+04  0.7818609E-02  0.8617966E-01
        2   -1    0    0  501    0  0.00000000000E+00  0.00000000000E+00  0.22439891383E+04  0.22439891383E+04  0.25500000920E-02 0.  1.
       -2   -1    0    0    0  501  0.00000000000E+00  0.00000000000E+00 -0.43496567116E+03  0.43496567117E+03  0.25500000920E-02 0. -1.
    10030    2    1    2    0    0  0.00000000000E+00  0.00000000000E+00  0.18090234671E+04  0.26789548094E+04  0.19759131981E+04 0.  0.
        4    1    3    3  502    0 -0.55190178856E+03  0.78066037083E+03  0.56683594622E+03  0.11114543633E+04  0.12699999809E+01 0.  1.
       -4    1    3    3    0  502  0.55190178856E+03 -0.78066037083E+03  0.12421875209E+04  0.15675004462E+04  0.12699999809E+01 0. -1.
</event>
<event>
 5   0  0.1893687E-04  0.2014787E+04  0.7818609E-02  0.8599738E-01
       -2   -1    0    0    0  501  0.00000000000E+00  0.00000000000E+00  0.18030435882E+04  0.18030435882E+04  0.25500000920E-02 0.  1.
        2   -1    0    0  501    0  0.00000000000E+00  0.00000000000E+00 -0.56284923905E+03  0.56284923906E+03  0.25500000920E-02 0. -1.
    10030    2    1    2    0    0  0.00000000000E+00  0.00000000000E+00  0.12401943492E+04  0.23658928273E+04  0.20147870474E+04 0.  0.
        4    1    3    3  502    0  0.65088499940E+03 -0.13182244199E+03  0.15096066974E+04  0.16492247975E+04  0.12699999809E+01 0.  1.
       -4    1    3    3    0  502 -0.65088499940E+03  0.13182244199E+03 -0.26941234829E+03  0.71666802982E+03  0.12699999809E+01 0. -1.
</event>
<event>
 5   0  0.1782172E-04  0.1991189E+04  0.7818609E-02  0.8610751E-01
        2   -1    0    0  501    0  0.00000000000E+00  0.00000000000E+00  0.18984081540E+04  0.18984081540E+04  0.25500000920E-02 0. -1.
       -2   -1    0    0    0  501  0.00000000000E+00  0.00000000000E+00 -0.52212606794E+03  0.52212606795E+03  0.25500000920E-02 0.  1.
    10030    2    1    2    0    0  0.00000000000E+00  0.00000000000E+00  0.13762820861E+04  0.24205342220E+04  0.19911889763E+04 0.  0.
        2    1    3    3  502    0  0.36921707292E+03  0.69419939743E+03 -0.54259398935E+02  0.78814854736E+03  0.25500000920E-02 0.  1.
       -2    1    3    3    0  502 -0.36921707292E+03 -0.69419939743E+03  0.14305414850E+04  0.16323856746E+04  0.25500000920E-02 0. -1.
</event>
<event>
 5   0  0.1834645E-04  0.2007943E+04  0.7818609E-02  0.8602916E-01
       -2   -1    0    0    0  501  0.00000000000E+00  0.00000000000E+00  0.85082819585E+03  0.85082819586E+03  0.25500000920E-02 0.  1.
        2   -1    0    0  501    0  0.00000000000E+00  0.00000000000E+00 -0.11846800272E+04  0.11846800272E+04  0.25500000920E-02 0. -1.
    10030    2    1    2    0    0  0.00000000000E+00  0.00000000000E+00 -0.33385183130E+03  0.20355082230E+04  0.20079433958E+04 0.  0.
        1    1    3    3  502    0  0.92397313252E+03 -0.89908590311E+02 -0.55446875294E+03  0.10813165597E+04  0.50400001928E-02 0.  1.
       -1    1    3    3    0  502 -0.92397313252E+03  0.89908590311E+02  0.22061692164E+03  0.95419166333E+03  0.50400001928E-02 0. -1.
</event>
<event>
 5   0  0.1893687E-04  0.1997574E+04  0.7818609E-02  0.8607756E-01
       -2   -1    0    0    0  501  0.00000000000E+00  0.00000000000E+00  0.71799977196E+03  0.71799977197E+03  0.25500000920E-02 0.  1.
        2   -1    0    0  501    0  0.00000000000E+00  0.00000000000E+00 -0.13893816051E+04  0.13893816051E+04  0.25500000920E-02 0. -1.
    10030    2    1    2    0    0  0.00000000000E+00  0.00000000000E+00 -0.67138183312E+03  0.21073813771E+04  0.19975742045E+04 0.  0.
        4    1    3    3  502    0  0.51111035800E+03  0.80788315395E+03 -0.64084017371E+03  0.11509069161E+04  0.12699999809E+01 0.  1.
       -4    1    3    3    0  502 -0.51111035800E+03 -0.80788315395E+03 -0.30541659406E+02  0.95647446090E+03  0.12699999809E+01 0. -1.
</event>
<event>
 5   0  0.1812865E-04  0.1986790E+04  0.7818609E-02  0.8612822E-01
       -2   -1    0    0    0  501  0.00000000000E+00  0.00000000000E+00  0.98424015927E+03  0.98424015927E+03  0.25500000920E-02 0.  1.
        2   -1    0    0  501    0  0.00000000000E+00  0.00000000000E+00 -0.10026353941E+04  0.10026353941E+04  0.25500000920E-02 0. -1.
    10030    2    1    2    0    0  0.00000000000E+00  0.00000000000E+00 -0.18395234807E+02  0.19868755534E+04  0.19867903966E+04 0.  0.
        3    1    3    3  502    0  0.64382828124E+03  0.32094681255E+03  0.67589546333E+03  0.98709492946E+03  0.10100000352E+00 0.  1.
       -3    1    3    3    0  502 -0.64382828124E+03 -0.32094681255E+03 -0.69429069813E+03  0.99978062390E+03  0.10100000352E+00 0. -1.
</event>
<event>
 5   0  0.8765057E-05  0.2027304E+04  0.7818609E-02  0.8593961E-01
       -1   -1    0    0    0  501  0.00000000000E+00  0.00000000000E+00  0.59141803065E+03  0.59141803067E+03  0.50400001928E-02 0. -1.
        1   -1    0    0  501    0  0.00000000000E+00  0.00000000000E+00 -0.17373328152E+04  0.17373328152E+04  0.50400001928E-02 0.  1.
    10030    2    1    2    0    0  0.00000000000E+00  0.00000000000E+00 -0.11459147845E+04  0.23287508459E+04  0.20273035808E+04 0.  0.
        3    1    3    3  502    0  0.17366012832E+03  0.82903392848E+03  0.66644136825E+02  0.84964495286E+03  0.10100000352E+00 0. -1.
       -3    1    3    3    0  502 -0.17366012832E+03 -0.82903392848E+03 -0.12125589214E+04  0.14791058930E+04  0.10100000352E+00 0.  1.
</event>
<event>
 5   0  0.8765057E-05  0.1997363E+04  0.7818609E-02  0.8607854E-01
       -1   -1    0    0    0  501  0.00000000000E+00  0.00000000000E+00  0.11468665292E+04  0.11468665292E+04  0.50400001928E-02 0. -1.
        1   -1    0    0  501    0  0.00000000000E+00  0.00000000000E+00 -0.86964344887E+03  0.86964344888E+03  0.50400001928E-02 0.  1.
    10030    2    1    2    0    0  0.00000000000E+00  0.00000000000E+00  0.27722308037E+03  0.20165099781E+04  0.19973632258E+04 0.  0.
        3    1    3    3  502    0 -0.52236944853E+03  0.10541203450E+03 -0.71410528100E+03  0.89102631854E+03  0.10100000352E+00 0.  1.
       -3    1    3    3    0  502  0.52236944853E+03 -0.10541203450E+03  0.99132836136E+03  0.11254836596E+04  0.10100000352E+00 0. -1.
</event>
<event>
 5   0  0.8958919E-05  0.2079318E+04  0.7818609E-02  0.8570409E-01
        1   -1    0    0  501    0  0.00000000000E+00  0.00000000000E+00  0.11938856459E+04  0.11938856459E+04  0.50400001928E-02 0. -1.
       -1   -1    0    0    0  501  0.00000000000E+00  0.00000000000E+00 -0.90535528468E+03  0.90535528469E+03  0.50400001928E-02 0.  1.
    10030    2    1    2    0    0  0.00000000000E+00  0.00000000000E+00  0.28853036120E+03  0.20992409306E+04  0.20793178485E+04 0.  0.
        4    1    3    3  502    0 -0.10219891109E+04 -0.15034966275E+02 -0.47824186290E+02  0.10232187247E+04  0.12699999809E+01 0. -1.
       -4    1    3    3    0  502  0.10219891109E+04  0.15034966275E+02  0.33635454749E+03  0.10760222058E+04  0.12699999809E+01 0.  1.
</event>
<event>
 5   0  0.8861350E-05  0.1996907E+04  0.7818609E-02  0.8608068E-01
       -1   -1    0    0    0  501  0.00000000000E+00  0.00000000000E+00  0.75899992360E+03  0.75899992362E+03  0.50400001928E-02 0. -1.
        1   -1    0    0  501    0  0.00000000000E+00  0.00000000000E+00 -0.13134509499E+04  0.13134509500E+04  0.50400001928E-02 0.  1.
    10030    2    1    2    0    0  0.00000000000E+00  0.00000000000E+00 -0.55445102634E+03  0.20724508736E+04  0.19969067787E+04 0.  0.
        1    1    3    3  502    0 -0.34596224538E+03 -0.80110372845E+03 -0.78081626776E+03  0.11709530746E+04  0.50400001928E-02 0.  1.
       -1    1    3    3    0  502  0.34596224538E+03  0.80110372845E+03  0.22636524142E+03  0.90149779895E+03  0.50400001928E-02 0. -1.
</event>
<event>
 5   0  0.1834645E-04  0.2021306E+04  0.7818609E-02  0.8596724E-01
        2   -1    0    0  501    0  0.00000000000E+00  0.00000000000E+00  0.16806924564E+04  0.16806924564E+04  0.25500000920E-02 0. -1.
       -2   -1    0    0    0  501  0.00000000000E+00  0.00000000000E+00 -0.60773723196E+03  0.60773723196E+03  0.25500000920E-02 0.  1.
    10030    2    1    2    0    0  0.00000000000E+00  0.00000000000E+00  0.10729552244E+04  0.22884296883E+04  0.20213058959E+04 0.  0.
        1    1    3    3  502    0 -0.91495095669E+03  0.97981325008E+02  0.63291673001E+02  0.92235645447E+03  0.50400001928E-02 0.  1.
       -1    1    3    3    0  502  0.91495095669E+03 -0.97981325008E+02  0.10096635514E+04  0.13660732338E+04  0.50400001928E-02 0. -1.
</event>
<event>
 5   0  0.1893687E-04  0.1995677E+04  0.7818609E-02  0.8608644E-01
       -2   -1    0    0    0  501  0.00000000000E+00  0.00000000000E+00  0.81705463348E+03  0.81705463349E+03  0.25500000920E-02 0. -1.
        2   -1    0    0  501    0  0.00000000000E+00  0.00000000000E+00 -0.12186232837E+04  0.12186232837E+04  0.25500000920E-02 0.  1.
    10030    2    1    2    0    0  0.00000000000E+00  0.00000000000E+00 -0.40156865020E+03  0.20356779172E+04  0.19956771286E+04 0.  0.
        4    1    3    3  502    0 -0.40704071556E+03 -0.89007591706E+03 -0.25624934493E+01  0.97873666608E+03  0.12699999809E+01 0.  1.
       -4    1    3    3    0  502  0.40704071556E+03  0.89007591706E+03 -0.39900615675E+03  0.10569412511E+04  0.12699999809E+01 0. -1.
</event>
<event>
 5   0  0.1782172E-04  0.2001508E+04  0.7818609E-02  0.8605916E-01
       -2   -1    0    0    0  501  0.00000000000E+00  0.00000000000E+00  0.12254001938E+04  0.12254001938E+04  0.25500000920E-02 0. -1.
        2   -1    0    0  501    0  0.00000000000E+00  0.00000000000E+00 -0.81729072068E+03  0.81729072068E+03  0.25500000920E-02 0.  1.
    10030    2    1    2    0    0  0.00000000000E+00  0.00000000000E+00  0.40810947311E+03  0.20426909145E+04  0.20015076393E+04 0.  0.
        2    1    3    3  502    0  0.13503284519E+03 -0.59563537721E+03  0.10131423843E+04  0.11829931795E+04  0.25500000920E-02 0. -1.
       -2    1    3    3    0  502 -0.13503284519E+03  0.59563537721E+03 -0.60503291120E+03  0.85969773497E+03  0.25500000920E-02 0.  1.
</event>
<event>
 5   0  0.8881384E-05  0.2004061E+04  0.7818609E-02  0.8604724E-01
       -1   -1    0    0    0  501  0.00000000000E+00  0.00000000000E+00  0.51100188205E+03  0.51100188208E+03  0.50400001928E-02 0. -1.
        1   -1    0    0  501    0  0.00000000000E+00  0.00000000000E+00 -0.19648958907E+04  0.19648958908E+04  0.50400001928E-02 0.  1.
    10030    2    1    2    0    0  0.00000000000E+00  0.00000000000E+00 -0.14538940087E+04  0.24758977728E+04  0.20040613746E+04 0.  0.
        5    1    3    3  502    0  0.70236356170E+03  0.24109034582E+02  0.15546134974E+03  0.71978200840E+03  0.46999998093E+01 0. -1.
       -5    1    3    3    0  502 -0.70236356170E+03 -0.24109034582E+02 -0.16093553584E+04  0.17561157644E+04  0.46999998093E+01 0.  1.
</event>
<event>
 5   0  0.8765057E-05  0.2016120E+04  0.7818609E-02  0.8599121E-01
       -1   -1    0    0    0  501  0.00000000000E+00  0.00000000000E+00  0.76946635736E+03  0.76946635738E+03  0.50400001928E-02 0. -1.
        1   -1    0    0  501    0  0.00000000000E+00  0.00000000000E+00 -0.13206356179E+04  0.13206356179E+04  0.50400001928E-02 0.  1.
    10030    2    1    2    0    0  0.00000000000E+00  0.00000000000E+00 -0.55116926053E+03  0.20901019753E+04  0.20161197170E+04 0.  0.
        3    1    3    3  502    0 -0.33266578327E+03  0.32216758199E+03  0.65266373979E+03  0.80026773125E+03  0.10100000352E+00 0. -1.
       -3    1    3    3    0  502  0.33266578327E+03 -0.32216758199E+03 -0.12038330003E+04  0.12898342440E+04  0.10100000352E+00 0.  1.
</event>
<event>
 5   0  0.1834645E-04  0.1994102E+04  0.7818609E-02  0.8609383E-01
       -2   -1    0    0    0  501  0.00000000000E+00  0.00000000000E+00  0.93760682052E+03  0.93760682053E+03  0.25500000920E-02 0. -1.
        2   -1    0    0  501    0  0.00000000000E+00  0.00000000000E+00 -0.10602643604E+04  0.10602643604E+04  0.25500000920E-02 0.  1.
    10030    2    1    2    0    0  0.00000000000E+00  0.00000000000E+00 -0.12265753989E+03  0.19978711809E+04  0.19941024005E+04 0.  0.
        1    1    3    3  502    0  0.41423950809E+03 -0.42300717751E+03 -0.86508037580E+03  0.10482812117E+04  0.50400001928E-02 0.  1.
       -1    1    3    3    0  502 -0.41423950809E+03  0.42300717751E+03  0.74242283591E+03  0.94958996919E+03  0.50400001928E-02 0. -1.
</event>
<event>
 5   0  0.8958919E-05  0.1985240E+04  0.7818609E-02  0.8613553E-01
       -1   -1    0    0    0  501  0.00000000000E+00  0.00000000000E+00  0.63865397245E+03  0.63865397247E+03  0.50400001928E-02 0. -1.
        1   -1    0    0  501    0  0.00000000000E+00  0.00000000000E+00 -0.15427667677E+04  0.15427667677E+04  0.50400001928E-02 0.  1.
    10030    2    1    2    0    0  0.00000000000E+00  0.00000000000E+00 -0.90411279520E+03  0.21814207401E+04  0.19852396578E+04 0.  0.
        4    1    3    3  502    0  0.56724653083E+02 -0.91865371607E+03 -0.43640897245E+02  0.92143826550E+03  0.12699999809E+01 0.  1.
       -4    1    3    3    0  502 -0.56724653083E+02  0.91865371607E+03 -0.86047189795E+03  0.12599824746E+04  0.12699999809E+01 0. -1.
</event>
<event>
 5   0  0.8765057E-05  0.2112474E+04  0.7818609E-02  0.8555768E-01
        1   -1    0    0  501    0  0.00000000000E+00  0.00000000000E+00  0.11071046357E+04  0.11071046357E+04  0.50400001928E-02 0.  1.
       -1   -1    0    0    0  501  0.00000000000E+00  0.00000000000E+00 -0.10077066129E+04  0.10077066129E+04  0.50400001928E-02 0. -1.
    10030    2    1    2    0    0  0.00000000000E+00  0.00000000000E+00  0.99398022754E+02  0.21148112486E+04  0.21124740591E+04 0.  0.
        3    1    3    3  502    0  0.13965387230E+03  0.14700402395E+03 -0.98803998905E+03  0.10086309619E+04  0.10100000352E+00 0. -1.
       -3    1    3    3    0  502 -0.13965387230E+03 -0.14700402395E+03  0.10874380118E+04  0.11061802868E+04  0.10100000352E+00 0.  1.
</event>
<event>
 5   0  0.8861350E-05  0.2025060E+04  0.7818609E-02  0.8594993E-01
       -1   -1    0    0    0  501  0.00000000000E+00  0.00000000000E+00  0.12471573816E+04  0.12471573816E+04  0.50400001928E-02 0. -1.
        1   -1    0    0  501    0  0.00000000000E+00  0.00000000000E+00 -0.82204276189E+03  0.82204276191E+03  0.50400001928E-02 0.  1.
    10030    2    1    2    0    0  0.00000000000E+00  0.00000000000E+00  0.42511461970E+03  0.20692001435E+04  0.20250597013E+04 0.  0.
        1    1    3    3  502    0  0.82604464499E+03 -0.50590968628E+03  0.51380959775E+03  0.10964919831E+04  0.50400001928E-02 0. -1.
       -1    1    3    3    0  502 -0.82604464499E+03  0.50590968628E+03 -0.88694978053E+02  0.97270816042E+03  0.50400001928E-02 0.  1.
</event>
<event>
 5   0  0.8881384E-05  0.2017810E+04  0.7818609E-02  0.8598339E-01
       -1   -1    0    0    0  501  0.00000000000E+00  0.00000000000E+00  0.64159818282E+03  0.64159818284E+03  0.50400001928E-02 0.  1.
        1   -1    0    0  501    0  0.00000000000E+00  0.00000000000E+00 -0.15864908734E+04  0.15864908734E+04  0.50400001928E-02 0. -1.
    10030    2    1    2    0    0  0.00000000000E+00  0.00000000000E+00 -0.94489269054E+03  0.22280890562E+04  0.20178103592E+04 0.  0.
        5    1    3    3  502    0  0.86259305044E+03  0.70016382440E+02 -0.10450398188E+04  0.13568711720E+04  0.46999998093E+01 0. -1.
       -5    1    3    3    0  502 -0.86259305044E+03 -0.70016382440E+02  0.10014712829E+03  0.87121788422E+03  0.46999998093E+01 0.  1.
</event>
<event>
 5   0  0.8765057E-05  0.2017892E+04  0.7818609E-02  0.8598301E-01
        1   -1    0    0  501    0  0.00000000000E+00  0.00000000000E+00  0.11515682012E+04  0.11515682012E+04  0.50400001928E-02 0. -1.
       -1   -1    0    0    0  501  0.00000000000E+00  0.00000000000E+00 -0.88398743877E+03  0.88398743878E+03  0.50400001928E-02 0.  1.
    10030    2    1    2    0    0  0.00000000000E+00  0.00000000000E+00  0.26758076241E+03  0.20355556400E+04  0.20178917957E+04 0.  0.
        3    1    3    3  502    0 -0.10993455808E+03 -0.43858839026E+03 -0.77606200240E+03  0.89817460713E+03  0.10100000352E+00 0.  1.
       -3    1    3    3    0  502  0.10993455808E+03  0.43858839026E+03  0.10436427648E+04  0.11373810328E+04  0.10100000352E+00 0. -1.
</event>
<event>
 5   0  0.1893687E-04  0.1896360E+04  0.7818609E-02  0.8656671E-01
        2   -1    0    0  501    0  0.00000000000E+00  0.00000000000E+00  0.15229146187E+04  0.15229146187E+04  0.25500000920E-02 0. -1.
       -2   -1    0    0    0  501  0.00000000000E+00  0.00000000000E+00 -0.59034489131E+03  0.59034489132E+03  0.25500000920E-02 0.  1.
    10030    2    1    2    0    0  0.00000000000E+00  0.00000000000E+00  0.93256972736E+03  0.21132595100E+04  0.18963595282E+04 0.  0.
        4    1    3    3  502    0 -0.34141478207E+03 -0.68896904150E+03 -0.15196932501E+03  0.78379760283E+03  0.12699999809E+01 0. -1.
       -4    1    3    3    0  502  0.34141478207E+03  0.68896904150E+03  0.10845390524E+04  0.13294619072E+04  0.12699999809E+01 0.  1.
</event>
<event>
 5   0  0.1834645E-04  0.2010408E+04  0.7818609E-02  0.8601770E-01
        2   -1    0    0  501    0  0.00000000000E+00  0.00000000000E+00  0.22033004407E+04  0.22033004407E+04  0.25500000920E-02 0.  1.
       -2   -1    0    0    0  501  0.00000000000E+00  0.00000000000E+00 -0.45860086447E+03  0.45860086447E+03  0.25500000920E-02 0. -1.
    10030    2    1    2    0    0  0.00000000000E+00  0.00000000000E+00  0.17446995762E+04  0.26619013051E+04  0.20104084031E+04 0.  0.
        1    1    3    3  502    0  0.91689426146E+03  0.35313046916E+03  0.59135171719E+03  0.11467750731E+04  0.50400001928E-02 0. -1.
       -1    1    3    3    0  502 -0.91689426146E+03 -0.35313046916E+03  0.11533478590E+04  0.15151262320E+04  0.50400001928E-02 0.  1.
</event>
<event>
 5   0  0.8958919E-05  0.1998483E+04  0.7818609E-02  0.8607330E-01
       -1   -1    0    0    0  501  0.00000000000E+00  0.00000000000E+00  0.82948902032E+03  0.82948902033E+03  0.50400001928E-02 0.  1.
        1   -1    0    0  501    0  0.00000000000E+00  0.00000000000E+00 -0.12037333936E+04  0.12037333936E+04  0.50400001928E-02 0. -1.
    10030    2    1    2    0    0  0.00000000000E+00  0.00000000000E+00 -0.37424437330E+03  0.20332224140E+04  0.19984830581E+04 0.  0.
        4    1    3    3  502    0 -0.93029635748E+03  0.13652515982E+03  0.15697527045E+03  0.95327502875E+03  0.12699999809E+01 0.  1.
       -4    1    3    3    0  502  0.93029635748E+03 -0.13652515982E+03 -0.53121964375E+03  0.10799473852E+04  0.12699999809E+01 0. -1.
</event>
<event>
 5   0  0.1807498E-04  0.2008264E+04  0.7818609E-02  0.8602767E-01
       -2   -1    0    0    0  501  0.00000000000E+00  0.00000000000E+00  0.13860982132E+04  0.13860982132E+04  0.25500000920E-02 0. -1.
        2   -1    0    0  501    0  0.00000000000E+00  0.00000000000E+00 -0.72742394557E+03  0.72742394557E+03  0.25500000920E-02 0.  1.
    10030    2    1    2    0    0  0.00000000000E+00  0.00000000000E+00  0.65867426759E+03  0.21135221587E+04  0.20082639579E+04 0.  0.
        5    1    3    3  502    0  0.74062689699E+03  0.54388795698E+03 -0.96749117495E+02  0.92397228965E+03  0.46999998093E+01 0.  1.
       -5    1    3    3    0  502 -0.74062689699E+03 -0.54388795698E+03  0.75542338508E+03  0.11895498691E+04  0.46999998093E+01 0. -1.
</event>
<event>
 5   0  0.8958919E-05  0.1827837E+04  0.7818609E-02  0.8691634E-01
        1   -1    0    0  501    0  0.00000000000E+00  0.00000000000E+00  0.14378618854E+04  0.14378618854E+04  0.50400001928E-02 0. -1.
       -1   -1    0    0    0  501  0.00000000000E+00  0.00000000000E+00 -0.58089527837E+03  0.58089527839E+03  0.50400001928E-02 0.  1.
    10030    2    1    2    0    0  0.00000000000E+00  0.00000000000E+00  0.85696660704E+03  0.20187571638E+04  0.18278371702E+04 0.  0.
        4    1    3    3  502    0  0.57654030565E+03 -0.32417862429E+03 -0.26807012501E+03  0.71369020542E+03  0.12699999809E+01 0.  1.
       -4    1    3    3    0  502 -0.57654030565E+03  0.32417862429E+03  0.11250367320E+04  0.13050669584E+04  0.12699999809E+01 0. -1.
</event>
<event>
 5   0  0.8861350E-05  0.2017756E+04  0.7818609E-02  0.8598364E-01
        1   -1    0    0  501    0  0.00000000000E+00  0.00000000000E+00  0.76541090111E+03  0.76541090113E+03  0.50400001928E-02 0.  1.
       -1   -1    0    0    0  501  0.00000000000E+00  0.00000000000E+00 -0.13297890226E+04  0.13297890226E+04  0.50400001928E-02 0. -1.
    10030    2    1    2    0    0  0.00000000000E+00  0.00000000000E+00 -0.56437812145E+03  0.20951999237E+04  0.20177561935E+04 0.  0.
        1    1    3    3  502    0  0.23624682697E+03 -0.96150442395E+03 -0.81022467501E+02  0.99341228138E+03  0.50400001928E-02 0.  1.
       -1    1    3    3    0  502 -0.23624682697E+03  0.96150442395E+03 -0.48335565394E+03  0.11017876423E+04  0.50400001928E-02 0. -1.
</event>
<event>
 5   0  0.8861350E-05  0.1992475E+04  0.7818609E-02  0.8610147E-01
        1   -1    0    0  501    0  0.00000000000E+00  0.00000000000E+00  0.15945956900E+04  0.15945956901E+04  0.50400001928E-02 0. -1.
       -1   -1    0    0    0  501  0.00000000000E+00  0.00000000000E+00 -0.62240784896E+03  0.62240784898E+03  0.50400001928E-02 0.  1.
    10030    2    1    2    0    0  0.00000000000E+00  0.00000000000E+00  0.97218784108E+03  0.22170035390E+04  0.19924747160E+04 0.  0.
        1    1    3    3  502    0  0.36634024681E+03 -0.86289699574E+03  0.86127369807E+03  0.12730234816E+04  0.50400001928E-02 0.  1.
       -1    1    3    3    0  502 -0.36634024681E+03  0.86289699574E+03  0.11091414301E+03  0.94398005744E+03  0.50400001928E-02 0. -1.
</event>
<event>
 5   0  0.8765057E-05  0.2061226E+04  0.7818609E-02  0.8578519E-01
       -1   -1    0    0    0  501  0.00000000000E+00  0.00000000000E+00  0.12116160985E+04  0.12116160985E+04  0.50400001928E-02 0. -1.
        1   -1    0    0  501    0  0.00000000000E+00  0.00000000000E+00 -0.87664951850E+03  0.87664951852E+03  0.50400001928E-02 0.  1.
    10030    2    1    2    0    0  0.00000000000E+00  0.00000000000E+00  0.33496658000E+03  0.20882656170E+04  0.20612255281E+04 0.  0.
        3    1    3    3  502    0  0.59098141483E+03  0.44272056266E+03 -0.56090740017E+03  0.92729588107E+03  0.10100000352E+00 0.  1.
       -3    1    3    3    0  502 -0.59098141483E+03 -0.44272056266E+03  0.89587398017E+03  0.11609697360E+04  0.10100000352E+00 0. -1.
</event>
<event>
 5   0  0.1807498E-04  0.2042297E+04  0.7818609E-02  0.8587097E-01
       -2   -1    0    0    0  501  0.00000000000E+00  0.00000000000E+00  0.55709452633E+03  0.55709452633E+03  0.25500000920E-02 0. -1.
        2   -1    0    0  501    0  0.00000000000E+00  0.00000000000E+00 -0.18717549998E+04  0.18717549998E+04  0.25500000920E-02 0.  1.
    10030    2    1    2    0    0  0.00000000000E+00  0.00000000000E+00 -0.13146604735E+04  0.24288495261E+04  0.20422972017E+04 0.  0.
        5    1    3    3  502    0 -0.54686080733E+03  0.49273209771E+03  0.18435327932E+03  0.75884773459E+03  0.46999998093E+01 0. -1.
       -5    1    3    3    0  502  0.54686080733E+03 -0.49273209771E+03 -0.14990137528E+04  0.16700017915E+04  0.46999998093E+01 0.  1.
</event>
<event>
 5   0  0.1834645E-04  0.1990955E+04  0.7818609E-02  0.8610861E-01
        2   -1    0    0  501    0  0.00000000000E+00  0.00000000000E+00  0.13194770620E+04  0.13194770620E+04  0.25500000920E-02 0.  1.
       -2   -1    0    0    0  501  0.00000000000E+00  0.00000000000E+00 -0.75103628384E+03  0.75103628384E+03  0.25500000920E-02 0. -1.
    10030    2    1    2    0    0  0.00000000000E+00  0.00000000000E+00  0.56844077814E+03  0.20705133458E+04  0.19909546949E+04 0.  0.
        1    1    3    3  502    0  0.67967706668E+03  0.75591698597E+02 -0.46808137059E+03  0.82871900508E+03  0.50400001928E-02 0. -1.
       -1    1    3    3    0  502 -0.67967706668E+03 -0.75591698597E+02  0.10365221487E+04  0.12417943407E+04  0.50400001928E-02 0.  1.
</event>
<event>
 5   0  0.8958919E-05  0.2089384E+04  0.7818609E-02  0.8565934E-01
       -1   -1    0    0    0  501  0.00000000000E+00  0.00000000000E+00  0.82885909377E+03  0.82885909379E+03  0.50400001928E-02 0. -1.
        1   -1    0    0  501    0  0.00000000000E+00  0.00000000000E+00 -0.13167276516E+04  0.13167276516E+04  0.50400001928E-02 0.  1.
    10030    2    1    2    0    0  0.00000000000E+00  0.00000000000E+00 -0.48786855784E+03  0.21455867454E+04  0.20893842998E+04 0.  0.
        4    1    3    3  502    0 -0.13450760207E+03  0.28497661790E+03  0.77888815707E+03  0.84022160284E+03  0.12699999809E+01 0. -1.
       -4    1    3    3    0  502  0.13450760207E+03 -0.28497661790E+03 -0.12667567149E+04  0.13053651426E+04  0.12699999809E+01 0.  1.
</event>
<event>
 5   0  0.8765057E-05  0.1919373E+04  0.7818609E-02  0.8645273E-01
        1   -1    0    0  501    0  0.00000000000E+00  0.00000000000E+00  0.25466749197E+04  0.25466749197E+04  0.50400001928E-02 0.  1.
       -1   -1    0    0    0  501  0.00000000000E+00  0.00000000000E+00 -0.36164748700E+03  0.36164748704E+03  0.50400001928E-02 0. -1.
    10030    2    1    2    0    0  0.00000000000E+00  0.00000000000E+00  0.21850274327E+04  0.29083224068E+04  0.19193734238E+04 0.  0.
        3    1    3    3  502    0  0.17191457274E+03 -0.42690137651E+03 -0.18353478326E+03  0.49546385585E+03  0.10100000352E+00 0. -1.
       -3    1    3    3    0  502 -0.17191457274E+03  0.42690137651E+03  0.23685622160E+04  0.24128585509E+04  0.10100000352E+00 0.  1.
</event>
<event>
 5   0  0.1807498E-04  0.1988486E+04  0.7818609E-02  0.8612023E-01
        2   -1    0    0  501    0  0.00000000000E+00  0.00000000000E+00  0.16416280449E+04  0.16416280449E+04  0.25500000920E-02 0. -1.
       -2   -1    0    0    0  501  0.00000000000E+00  0.00000000000E+00 -0.60215799534E+03  0.60215799534E+03  0.25500000920E-02 0.  1.
    10030    2    1    2    0    0  0.00000000000E+00  0.00000000000E+00  0.10394700496E+04  0.22437860403E+04  0.19884863114E+04 0.  0.
        5    1    3    3  502    0  0.84468359162E+03  0.15211537580E+03 -0.46563266299E+02  0.85954620892E+03  0.46999998093E+01 0.  1.
       -5    1    3    3    0  502 -0.84468359162E+03 -0.15211537580E+03  0.10860333159E+04  0.13842398314E+04  0.46999998093E+01 0. -1.
</event>
<event>
 5   0  0.8765057E-05  0.2022019E+04  0.7818609E-02  0.8596395E-01
       -1   -1    0    0    0  501  0.00000000000E+00  0.00000000000E+00  0.54754458905E+03  0.54754458907E+03  0.50400001928E-02 0. -1.
        1   -1    0    0  501    0  0.00000000000E+00  0.00000000000E+00 -0.18667701589E+04  0.18667701589E+04  0.50400001928E-02 0.  1.
    10030    2    1    2    0    0  0.00000000000E+00  0.00000000000E+00 -0.13192255698E+04  0.24143147480E+04  0.20220186938E+04 0.  0.
        3    1    3    3  502    0  0.33943340201E+03  0.50532582897E+03 -0.16234184649E+04  0.17337983592E+04  0.10100000352E+00 0.  1.
       -3    1    3    3    0  502 -0.33943340201E+03 -0.50532582897E+03  0.30419289507E+03  0.68051638881E+03  0.10100000352E+00 0. -1.
</event>
<event>
 5   0  0.8765057E-05  0.1979765E+04  0.7818609E-02  0.8616140E-01
       -1   -1    0    0    0  501  0.00000000000E+00  0.00000000000E+00  0.70569152728E+03  0.70569152730E+03  0.50400001928E-02 0. -1.
        1   -1    0    0  501    0  0.00000000000E+00  0.00000000000E+00 -0.13885212140E+04  0.13885212141E+04  0.50400001928E-02 0.  1.
    10030    2    1    2    0    0  0.00000000000E+00  0.00000000000E+00 -0.68282968677E+03  0.20942127414E+04  0.19797652954E+04 0.  0.
        3    1    3    3  502    0 -0.79709857340E+03  0.26487356725E+03  0.21264213725E+03  0.86645301724E+03  0.10100000352E+00 0. -1.
       -3    1    3    3    0  502  0.79709857340E+03 -0.26487356725E+03 -0.89547182401E+03  0.12277597241E+04  0.10100000352E+00 0.  1.
</event>
<event>
 5   0  0.1893687E-04  0.2002364E+04  0.7818609E-02  0.8605516E-01
        2   -1    0    0  501    0  0.00000000000E+00  0.00000000000E+00  0.11746979407E+04  0.11746979407E+04  0.25500000920E-02 0.  1.
       -2   -1    0    0    0  501  0.00000000000E+00  0.00000000000E+00 -0.85329596766E+03  0.85329596766E+03  0.25500000920E-02 0. -1.
    10030    2    1    2    0    0  0.00000000000E+00  0.00000000000E+00  0.32140197307E+03  0.20279939084E+04  0.20023636194E+04 0.  0.
        4    1    3    3  502    0  0.79631783391E+03 -0.49819385982E+02  0.77322259208E+03  0.11110710390E+04  0.12699999809E+01 0. -1.
       -4    1    3    3    0  502 -0.79631783391E+03  0.49819385982E+02 -0.45182061901E+03  0.91692286943E+03  0.12699999809E+01 0.  1.
</event>
<event>
 5   0  0.1782172E-04  0.2005665E+04  0.7818609E-02  0.8603976E-01
       -2   -1    0    0    0  501  0.00000000000E+00  0.00000000000E+00  0.55643342106E+03  0.55643342106E+03  0.25500000920E-02 0.  1.
        2   -1    0    0  501    0  0.00000000000E+00  0.00000000000E+00 -0.18073562549E+04  0.18073562549E+04  0.25500000920E-02 0. -1.
    10030    2    1    2    0    0  0.00000000000E+00  0.00000000000E+00 -0.12509228338E+04  0.23637896760E+04  0.20056653998E+04 0.  0.
        2    1    3    3  502    0  0.14346992578E+03 -0.25211367121E+02  0.54389823646E+03  0.56306706906E+03  0.25500000920E-02 0.  1.
       -2    1    3    3    0  502 -0.14346992578E+03  0.25211367121E+02 -0.17948210703E+04  0.18007226069E+04  0.25500000920E-02 0. -1.
</event>
<event>
 5   0  0.8577422E-05  0.1999812E+04  0.7818609E-02  0.8606709E-01
       -1   -1    0    0    0  501  0.00000000000E+00  0.00000000000E+00  0.72716301107E+03  0.72716301109E+03  0.50400001928E-02 0.  1.
        1   -1    0    0  501    0  0.00000000000E+00  0.00000000000E+00 -0.13749489346E+04  0.13749489346E+04  0.50400001928E-02 0. -1.
    10030    2    1    2    0    0  0.00000000000E+00  0.00000000000E+00 -0.64778592354E+03  0.21021119457E+04  0.19998119986E+04 0.  0.
        2    1    3    3  502    0 -0.60984470746E+02 -0.98742154654E+03 -0.17123433811E+03  0.10040127563E+04  0.25500000920E-02 0. -1.
       -2    1    3    3    0  502  0.60984470746E+02  0.98742154654E+03 -0.47655158543E+03  0.10980991894E+04  0.25500000920E-02 0.  1.
</event>
<event>
 5   0  0.1782172E-04  0.2125633E+04  0.7818609E-02  0.8550035E-01
       -2   -1    0    0    0  501  0.00000000000E+00  0.00000000000E+00  0.68781261637E+03  0.68781261638E+03  0.25500000920E-02 0.  1.
        2   -1    0    0  501    0  0.00000000000E+00  0.00000000000E+00 -0.16422775155E+04  0.16422775155E+04  0.25500000920E-02 0. -1.
    10030    2    1    2    0    0  0.00000000000E+00  0.00000000000E+00 -0.95446489910E+03  0.23300901319E+04  0.21256332654E+04 0.  0.
        2    1    3    3  502    0  0.27924831663E+02 -0.12238044868E+03 -0.16341232329E+04  0.16389373114E+04  0.25500000920E-02 0. -1.
       -2    1    3    3    0  502 -0.27924831663E+02  0.12238044868E+03  0.67965833382E+03  0.69115282042E+03  0.25500000920E-02 0.  1.
</event>
<event>
 5   0  0.8577422E-05  0.1984925E+04  0.7818609E-02  0.8613702E-01
        1   -1    0    0  501    0  0.00000000000E+00  0.00000000000E+00  0.18138330306E+04  0.18138330306E+04  0.50400001928E-02 0.  1.
       -1   -1    0    0    0  501  0.00000000000E+00  0.00000000000E+00 -0.54303861103E+03  0.54303861105E+03  0.50400001928E-02 0. -1.
    10030    2    1    2    0    0  0.00000000000E+00  0.00000000000E+00  0.12707944196E+04  0.23568716417E+04  0.19849245523E+04 0.  0.
        2    1    3    3  502    0 -0.24831250967E+03  0.36573836983E+03 -0.41967908888E+03  0.60955245490E+03  0.25500000920E-02 0. -1.
       -2    1    3    3    0  502  0.24831250967E+03 -0.36573836983E+03  0.16904735085E+04  0.17473191868E+04  0.25500000920E-02 0.  1.
</event>
<event>
 5   0  0.6531625E-05  0.2046300E+04  0.7818609E-02  0.8585275E-01
       -3   -1    0    0    0  501  0.00000000000E+00  0.00000000000E+00  0.66545848397E+03  0.66545849163E+03  0.10100000352E+00 0.  1.
        3   -1    0    0  501    0  0.00000000000E+00  0.00000000000E+00 -0.15731048062E+04  0.15731048095E+04  0.10100000352E+00 0. -1.
    10030    2    1    2    0    0  0.00000000000E+00  0.00000000000E+00 -0.90764632224E+03  0.22385633011E+04  0.20463000285E+04 0.  0.
        5    1    3    3  502    0 -0.82469026185E+03  0.60309122337E+03 -0.51354968168E+03  0.11434983241E+04  0.46999998093E+01 0. -1.
       -5    1    3    3    0  502  0.82469026185E+03 -0.60309122337E+03 -0.39409664056E+03  0.10950649770E+04  0.46999998093E+01 0.  1.
</event>
<event>
 5   0  0.8861350E-05  0.2052313E+04  0.7818609E-02  0.8582546E-01
        1   -1    0    0  501    0  0.00000000000E+00  0.00000000000E+00  0.80946463751E+03  0.80946463752E+03  0.50400001928E-02 0. -1.
       -1   -1    0    0    0  501  0.00000000000E+00  0.00000000000E+00 -0.13008563682E+04  0.13008563682E+04  0.50400001928E-02 0.  1.
    10030    2    1    2    0    0  0.00000000000E+00  0.00000000000E+00 -0.49139173071E+03  0.21103210057E+04  0.20523130644E+04 0.  0.
        1    1    3    3  502    0 -0.46991259425E+03 -0.41975053668E+03  0.58712797221E+03  0.86123609716E+03  0.50400001928E-02 0. -1.
       -1    1    3    3    0  502  0.46991259425E+03  0.41975053668E+03 -0.10785197029E+04  0.12490849086E+04  0.50400001928E-02 0.  1.
</event>
<event>
 5   0  0.1782172E-04  0.2011054E+04  0.7818609E-02  0.8601470E-01
        2   -1    0    0  501    0  0.00000000000E+00  0.00000000000E+00  0.90287606937E+03  0.90287606938E+03  0.25500000920E-02 0.  1.
       -2   -1    0    0    0  501  0.00000000000E+00  0.00000000000E+00 -0.11198482630E+04  0.11198482630E+04  0.25500000920E-02 0. -1.
    10030    2    1    2    0    0  0.00000000000E+00  0.00000000000E+00 -0.21697219367E+03  0.20227243324E+04  0.20110536522E+04 0.  0.
        2    1    3    3  502    0 -0.54293838520E+03 -0.81817815663E+03  0.10930366870E+03  0.98800044439E+03  0.25500000920E-02 0. -1.
       -2    1    3    3    0  502  0.54293838520E+03  0.81817815663E+03 -0.32627586237E+03  0.10347238880E+04  0.25500000920E-02 0.  1.
</event>
<event>
 5   0  0.1893687E-04  0.2015924E+04  0.7818609E-02  0.8599212E-01
        2   -1    0    0  501    0  0.00000000000E+00  0.00000000000E+00  0.20115711886E+04  0.20115711886E+04  0.25500000920E-02 0.  1.
       -2   -1    0    0    0  501  0.00000000000E+00  0.00000000000E+00 -0.50507135882E+03  0.50507135883E+03  0.25500000920E-02 0. -1.
    10030    2    1    2    0    0  0.00000000000E+00  0.00000000000E+00  0.15064998298E+04  0.25166425474E+04  0.20159236033E+04 0.  0.
        4    1    3    3  502    0  0.87142708008E+03  0.27485588562E+03  0.12844426013E+04  0.15763011523E+04  0.12699999809E+01 0.  1.
       -4    1    3    3    0  502 -0.87142708008E+03 -0.27485588562E+03  0.22205722844E+03  0.94034139511E+03  0.12699999809E+01 0. -1.
</event>
<event>
 5   0  0.1834645E-04  0.2011184E+04  0.7818609E-02  0.8601409E-01
        2   -1    0    0  501    0  0.00000000000E+00  0.00000000000E+00  0.11993870384E+04  0.11993870384E+04  0.25500000920E-02 0.  1.
       -2   -1    0    0    0  501  0.00000000000E+00  0.00000000000E+00 -0.84311042153E+03  0.84311042154E+03  0.25500000920E-02 0. -1.
    10030    2    1    2    0    0  0.00000000000E+00  0.00000000000E+00  0.35627661690E+03  0.20424974600E+04  0.20111844386E+04 0.  0.
        1    1    3    3  502    0 -0.47772869834E+03  0.72271884341E+03 -0.34036780492E+03  0.93080474778E+03  0.50400001928E-02 0. -1.
       -1    1    3    3    0  502  0.47772869834E+03 -0.72271884341E+03  0.69664442182E+03  0.11116927122E+04  0.50400001928E-02 0.  1.
</event>
<event>
 5   0  0.1834645E-04  0.1994250E+04  0.7818609E-02  0.8609314E-01
       -2   -1    0    0    0  501  0.00000000000E+00  0.00000000000E+00  0.80115545287E+03  0.80115545287E+03  0.25500000920E-02 0. -1.
        2   -1    0    0  501    0  0.00000000000E+00  0.00000000000E+00 -0.12410299361E+04  0.12410299361E+04  0.25500000920E-02 0.  1.
    10030    2    1    2    0    0  0.00000000000E+00  0.00000000000E+00 -0.43987448326E+03  0.20421853890E+04  0.19942496338E+04 0.  0.
        1    1    3    3  502    0  0.53427074223E+03  0.35142879174E+03  0.56350826377E+03  0.85234323194E+03  0.50400001928E-02 0. -1.
       -1    1    3    3    0  502 -0.53427074223E+03 -0.35142879174E+03 -0.10033827470E+04  0.11898421571E+04  0.50400001928E-02 0.  1.
</event>
<event>
 5   0  0.8577422E-05  0.2012773E+04  0.7818609E-02  0.8600672E-01
        1   -1    0    0  501    0  0.00000000000E+00  0.00000000000E+00  0.82769070990E+03  0.82769070991E+03  0.50400001928E-02 0. -1.
       -1   -1    0    0    0  501  0.00000000000E+00  0.00000000000E+00 -0.12236616931E+04  0.12236616931E+04  0.50400001928E-02 0.  1.
    10030    2    1    2    0    0  0.00000000000E+00  0.00000000000E+00 -0.39597098317E+03  0.20513524030E+04  0.20127726304E+04 0.  0.
        2    1    3    3  502    0 -0.53960443331E+03  0.77209452252E+03  0.16307969751E+03  0.95598006459E+03  0.25500000920E-02 0. -1.
       -2    1    3    3    0  502  0.53960443331E+03 -0.77209452252E+03 -0.55905068068E+03  0.10953723384E+04  0.25500000920E-02 0.  1.
</event>
<event>
 5   0  0.6531625E-05  0.1957291E+04  0.7818609E-02  0.8626853E-01
        4   -1    0    0  501    0  0.00000000000E+00  0.00000000000E+00  0.12002527247E+04  0.12002533966E+04  0.12699999809E+01 0. -1.
       -4   -1    0    0    0  501  0.00000000000E+00  0.00000000000E+00 -0.79795305584E+03  0.79795406648E+03  0.12699999809E+01 0.  1.
    10030    2    1    2    0    0  0.00000000000E+00  0.00000000000E+00  0.40229966889E+03  0.19982074631E+04  0.19572909957E+04 0.  0.
        3    1    3    3  502    0  0.85134466400E+03 -0.10441114700E+03  0.68223058030E+03  0.10959598530E+04  0.10100000352E+00 0. -1.
       -3    1    3    3    0  502 -0.85134466400E+03  0.10441114700E+03 -0.27993091141E+03  0.90224761009E+03  0.10100000352E+00 0.  1.
</event>
<event>
 5   0  0.1834645E-04  0.1991317E+04  0.7818609E-02  0.8610691E-01
       -2   -1    0    0    0  501  0.00000000000E+00  0.00000000000E+00  0.10950958105E+04  0.10950958105E+04  0.25500000920E-02 0. -1.
        2   -1    0    0  501    0  0.00000000000E+00  0.00000000000E+00 -0.90525011080E+03  0.90525011081E+03  0.25500000920E-02 0.  1.
    10030    2    1    2    0    0  0.00000000000E+00  0.00000000000E+00  0.18984569969E+03  0.20003459213E+04  0.19913167541E+04 0.  0.
        1    1    3    3  502    0  0.87625253305E+03 -0.44584548016E+03 -0.63076404328E+02  0.98517781474E+03  0.50400001928E-02 0. -1.
       -1    1    3    3    0  502 -0.87625253305E+03  0.44584548016E+03  0.25292210402E+03  0.10151681066E+04  0.50400001928E-02 0.  1.
</event>
<event>
 5   0  0.1807498E-04  0.2069090E+04  0.7818609E-02  0.8574983E-01
       -2   -1    0    0    0  501  0.00000000000E+00  0.00000000000E+00  0.94389538161E+03  0.94389538161E+03  0.25500000920E-02 0. -1.
        2   -1    0    0  501    0  0.00000000000E+00  0.00000000000E+00 -0.11339006897E+04  0.11339006897E+04  0.25500000920E-02 0.  1.
    10030    2    1    2    0    0  0.00000000000E+00  0.00000000000E+00 -0.19000530810E+03  0.20777960713E+04  0.20690902583E+04 0.  0.
        5    1    3    3  502    0  0.86117372855E+03 -0.21214690728E+02 -0.67029289112E+03  0.10915057965E+04  0.46999998093E+01 0.  1.
       -5    1    3    3    0  502 -0.86117372855E+03  0.21214690728E+02  0.48028758302E+03  0.98629027484E+03  0.46999998093E+01 0. -1.
</event>
<event>
 5   0  0.1893687E-04  0.1992120E+04  0.7818609E-02  0.8610314E-01
        2   -1    0    0  501    0  0.00000000000E+00  0.00000000000E+00  0.26217175395E+04  0.26217175395E+04  0.25500000920E-02 0.  1.
       -2   -1    0    0    0  501  0.00000000000E+00  0.00000000000E+00 -0.37842972391E+03  0.37842972392E+03  0.25500000920E-02 0. -1.
    10030    2    1    2    0    0  0.00000000000E+00  0.00000000000E+00  0.22432878155E+04  0.30001472634E+04  0.19921203223E+04 0.  0.
        4    1    3    3  502    0  0.85366841573E+03 -0.43033019740E+03  0.15427887279E+04  0.18149745217E+04  0.12699999809E+01 0. -1.
       -4    1    3    3    0  502 -0.85366841573E+03  0.43033019740E+03  0.70049908768E+03  0.11851727416E+04  0.12699999809E+01 0.  1.
</event>
<event>
 5   0  0.8861350E-05  0.2006326E+04  0.7818609E-02  0.8603669E-01
       -1   -1    0    0    0  501  0.00000000000E+00  0.00000000000E+00  0.21826448580E+04  0.21826448581E+04  0.50400001928E-02 0. -1.
        1   -1    0    0  501    0  0.00000000000E+00  0.00000000000E+00 -0.46106247204E+03  0.46106247206E+03  0.50400001928E-02 0.  1.
    10030    2    1    2    0    0  0.00000000000E+00  0.00000000000E+00  0.17215823860E+04  0.26437073301E+04  0.20063256305E+04 0.  0.
        1    1    3    3  502    0  0.17635005893E+03  0.78434884351E+03  0.70143116864E+02  0.80698358625E+03  0.50400001928E-02 0.  1.
       -1    1    3    3    0  502 -0.17635005893E+03 -0.78434884351E+03  0.16514392691E+04  0.18367237439E+04  0.50400001928E-02 0. -1.
</event>
<event>
 5   0  0.1812865E-04  0.1990573E+04  0.7818609E-02  0.8611041E-01
        2   -1    0    0  501    0  0.00000000000E+00  0.00000000000E+00  0.74039798873E+03  0.74039798873E+03  0.25500000920E-02 0. -1.
       -2   -1    0    0    0  501  0.00000000000E+00  0.00000000000E+00 -0.13379219850E+04  0.13379219850E+04  0.25500000920E-02 0.  1.
    10030    2    1    2    0    0  0.00000000000E+00  0.00000000000E+00 -0.59752399628E+03  0.20783199737E+04  0.19905725275E+04 0.  0.
        3    1    3    3  502    0 -0.99404188476E+03  0.21584486635E+02 -0.25195758279E+03  0.10257035597E+04  0.10100000352E+00 0.  1.
       -3    1    3    3    0  502  0.99404188476E+03 -0.21584486635E+02 -0.34556641350E+03  0.10526164140E+04  0.10100000352E+00 0. -1.
</event>
<event>
 5   0  0.1834645E-04  0.2031379E+04  0.7818609E-02  0.8592089E-01
        2   -1    0    0  501    0  0.00000000000E+00  0.00000000000E+00  0.11071800589E+04  0.11071800589E+04  0.25500000920E-02 0.  1.
       -2   -1    0    0    0  501  0.00000000000E+00  0.00000000000E+00 -0.93175938362E+03  0.93175938363E+03  0.25500000920E-02 0. -1.
    10030    2    1    2    0    0  0.00000000000E+00  0.00000000000E+00  0.17542067525E+03  0.20389394425E+04  0.20313792450E+04 0.  0.
        1    1    3    3  502    0 -0.16842718959E+03 -0.36204969686E+03 -0.84966993083E+03  0.93882197065E+03  0.50400001928E-02 0. -1.
       -1    1    3    3    0  502  0.16842718959E+03  0.36204969686E+03  0.10250906061E+04  0.11001174719E+04  0.50400001928E-02 0.  1.
</event>
<event>
 5   0  0.8958919E-05  0.2012605E+04  0.7818609E-02  0.8600750E-01
       -1   -1    0    0    0  501  0.00000000000E+00  0.00000000000E+00  0.11835537271E+04  0.11835537272E+04  0.50400001928E-02 0.  1.
        1   -1    0    0  501    0  0.00000000000E+00  0.00000000000E+00 -0.85559659630E+03  0.85559659631E+03  0.50400001928E-02 0. -1.
    10030    2    1    2    0    0  0.00000000000E+00  0.00000000000E+00  0.32795713085E+03  0.20391503235E+04  0.20126048201E+04 0.  0.
        4    1    3    3  502    0 -0.45706024994E+03 -0.46151680765E+03  0.94271290268E+03  0.11448192283E+04  0.12699999809E+01 0.  1.
       -4    1    3    3    0  502  0.45706024994E+03  0.46151680765E+03 -0.61475577182E+03  0.89433109512E+03  0.12699999809E+01 0. -1.
</event>
<event>
 5   0  0.1812865E-04  0.2103096E+04  0.7818609E-02  0.8559881E-01
        2   -1    0    0  501    0  0.00000000000E+00  0.00000000000E+00  0.93639998828E+03  0.93639998828E+03  0.25500000920E-02 0. -1.
       -2   -1    0    0    0  501  0.00000000000E+00  0.00000000000E+00 -0.11808556466E+04  0.11808556466E+04  0.25500000920E-02 0.  1.
    10030    2    1    2    0    0  0.00000000000E+00  0.00000000000E+00 -0.24445565835E+03  0.21172556349E+04  0.21030960165E+04 0.  0.
        3    1    3    3  502    0  0.74454016843E+03 -0.67456021955E+03  0.19031632328E+03  0.10225418648E+04  0.10100000352E+00 0. -1.
       -3    1    3    3    0  502 -0.74454016843E+03  0.67456021955E+03 -0.43477198163E+03  0.10947137701E+04  0.10100000352E+00 0.  1.
</event>
<event>
 5   0  0.1834645E-04  0.1981193E+04  0.7818609E-02  0.8615464E-01
        2   -1    0    0  501    0  0.00000000000E+00  0.00000000000E+00  0.15936978681E+04  0.15936978681E+04  0.25500000920E-02 0.  1.
       -2   -1    0    0    0  501  0.00000000000E+00  0.00000000000E+00 -0.61572607344E+03  0.61572607345E+03  0.25500000920E-02 0. -1.
    10030    2    1    2    0    0  0.00000000000E+00  0.00000000000E+00  0.97797179462E+03  0.22094239415E+04  0.19811929039E+04 0.  0.
        1    1    3    3  502    0  0.88359573866E+02 -0.59521755258E+03  0.13665205038E+04  0.14931408629E+04  0.50400001928E-02 0.  1.
       -1    1    3    3    0  502 -0.88359573866E+02  0.59521755258E+03 -0.38854870921E+03  0.71628307857E+03  0.50400001928E-02 0. -1.
</event>
<event>
 5   0  0.8577422E-05  0.2015414E+04  0.7818609E-02  0.8599448E-01
       -1   -1    0    0    0  501  0.00000000000E+00  0.00000000000E+00  0.83045584959E+03  0.83045584961E+03  0.50400001928E-02 0. -1.
        1   -1    0    0  501    0  0.00000000000E+00  0.00000000000E+00 -0.12227908755E+04  0.12227908755E+04  0.50400001928E-02 0.  1.
    10030    2    1    2    0    0  0.00000000000E+00  0.00000000000E+00 -0.39233502593E+03  0.20532467251E+04  0.20154144342E+04 0.  0.
        2    1    3    3  502    0 -0.72954860608E+03 -0.66643222686E+03 -0.39761847195E+03  0.10651166748E+04  0.25500000920E-02 0.  1.
       -2    1    3    3    0  502  0.72954860608E+03  0.66643222686E+03  0.52834460117E+01  0.98813005037E+03  0.25500000920E-02 0. -1.
</event>
<event>
 5   0  0.1807498E-04  0.1981056E+04  0.7818609E-02  0.8615529E-01
       -2   -1    0    0    0  501  0.00000000000E+00  0.00000000000E+00  0.66422129920E+03  0.66422129920E+03  0.25500000920E-02 0.  1.
        2   -1    0    0  501    0  0.00000000000E+00  0.00000000000E+00 -0.14771368521E+04  0.14771368521E+04  0.25500000920E-02 0. -1.
    10030    2    1    2    0    0  0.00000000000E+00  0.00000000000E+00 -0.81291555288E+03  0.21413581513E+04  0.19810560406E+04 0.  0.
        5    1    3    3  502    0  0.26558482723E+03  0.68835671940E+03 -0.11208071937E+04  0.13418647954E+04  0.46999998093E+01 0. -1.
       -5    1    3    3    0  502 -0.26558482723E+03 -0.68835671940E+03  0.30789164085E+03  0.79949335589E+03  0.46999998093E+01 0.  1.
</event>
<event>
 5   0  0.8861350E-05  0.2005374E+04  0.7818609E-02  0.8604112E-01
       -1   -1    0    0    0  501  0.00000000000E+00  0.00000000000E+00  0.11256569514E+04  0.11256569514E+04  0.50400001928E-02 0.  1.
        1   -1    0    0  501    0  0.00000000000E+00  0.00000000000E+00 -0.89315029862E+03  0.89315029864E+03  0.50400001928E-02 0. -1.
    10030    2    1    2    0    0  0.00000000000E+00  0.00000000000E+00  0.23250665276E+03  0.20188072500E+04  0.20053736233E+04 0.  0.
        1    1    3    3  502    0 -0.98687584044E+03 -0.16675549578E+03  0.17706928800E+03  0.10164078180E+04  0.50400001928E-02 0. -1.
       -1    1    3    3    0  502  0.98687584044E+03  0.16675549578E+03  0.55437364765E+02  0.10023994320E+04  0.50400001928E-02 0.  1.
</event>
<event>
 5   0  0.1834645E-04  0.1898364E+04  0.7818609E-02  0.8655671E-01
       -2   -1    0    0    0  501  0.00000000000E+00  0.00000000000E+00  0.54505619173E+03  0.54505619173E+03  0.25500000920E-02 0.  1.
        2   -1    0    0  501    0  0.00000000000E+00  0.00000000000E+00 -0.16529416556E+04  0.16529416556E+04  0.25500000920E-02 0. -1.
    10030    2    1    2    0    0  0.00000000000E+00  0.00000000000E+00 -0.11078854639E+04  0.21979978473E+04  0.18983635942E+04 0.  0.
        1    1    3    3  502    0  0.78565457642E+03 -0.11175337570E+03  0.49027725473E+02  0.79507587583E+03  0.50400001928E-02 0.  1.
       -1    1    3    3    0  502 -0.78565457642E+03  0.11175337570E+03 -0.11569131893E+04  0.14029219715E+04  0.50400001928E-02 0. -1.
</event>
<event>
 5   0  0.1782172E-04  0.1739076E+04  0.7818609E-02  0.8739386E-01
        2   -1    0    0  501    0  0.00000000000E+00  0.00000000000E+00  0.52762930362E+03  0.52762930363E+03  0.25500000920E-02 0. -1.
       -2   -1    0    0    0  501  0.00000000000E+00  0.00000000000E+00 -0.14330066924E+04  0.14330066924E+04  0.25500000920E-02 0.  1.
    10030    2    1    2    0    0  0.00000000000E+00  0.00000000000E+00 -0.90537738873E+03  0.19606359960E+04  0.17390759882E+04 0.  0.
        2    1    3    3  502    0  0.66100615991E+03  0.10588785651E+03 -0.10783250847E+04  0.12692227425E+04  0.25500000920E-02 0.  1.
       -2    1    3    3    0  502 -0.66100615991E+03 -0.10588785651E+03  0.17294769601E+03  0.69141325353E+03  0.25500000920E-02 0. -1.
</event>
<event>
 5   0  0.8881384E-05  0.1971612E+04  0.7818609E-02  0.8620009E-01
       -1   -1    0    0    0  501  0.00000000000E+00  0.00000000000E+00  0.67125506026E+03  0.67125506028E+03  0.50400001928E-02 0.  1.
        1   -1    0    0  501    0  0.00000000000E+00  0.00000000000E+00 -0.14477558757E+04  0.14477558757E+04  0.50400001928E-02 0. -1.
    10030    2    1    2    0    0  0.00000000000E+00  0.00000000000E+00 -0.77650081543E+03  0.21190109360E+04  0.19716119878E+04 0.  0.
        5    1    3    3  502    0  0.27147076414E+03 -0.92415094831E+03 -0.61379659232E+03  0.11421557240E+04  0.46999998093E+01 0. -1.
       -5    1    3    3    0  502 -0.27147076414E+03  0.92415094831E+03 -0.16270422311E+03  0.97685521202E+03  0.46999998093E+01 0.  1.
</event>
<event>
 5   0  0.8765057E-05  0.1852556E+04  0.7818609E-02  0.8678839E-01
       -1   -1    0    0    0  501  0.00000000000E+00  0.00000000000E+00  0.51455622763E+03  0.51455622766E+03  0.50400001928E-02 0. -1.
        1   -1    0    0  501    0  0.00000000000E+00  0.00000000000E+00 -0.16674387544E+04  0.16674387544E+04  0.50400001928E-02 0.  1.
    10030    2    1    2    0    0  0.00000000000E+00  0.00000000000E+00 -0.11528825268E+04  0.21819949821E+04  0.18525560670E+04 0.  0.
        3    1    3    3  502    0 -0.37625580974E+03 -0.81283453879E+03 -0.85447527759E+03  0.12379000089E+04  0.10100000352E+00 0.  1.
       -3    1    3    3    0  502  0.37625580974E+03  0.81283453879E+03 -0.29840724920E+03  0.94409497319E+03  0.10100000352E+00 0. -1.
</event>
<event>
 5   0  0.1812865E-04  0.2013000E+04  0.7818609E-02  0.8600567E-01
       -2   -1    0    0    0  501  0.00000000000E+00  0.00000000000E+00  0.11129674068E+04  0.11129674068E+04  0.25500000920E-02 0. -1.
        2   -1    0    0  501    0  0.00000000000E+00  0.00000000000E+00 -0.91021766270E+03  0.91021766270E+03  0.25500000920E-02 0.  1.
    10030    2    1    2    0    0  0.00000000000E+00  0.00000000000E+00  0.20274974406E+03  0.20231850695E+04  0.20130003394E+04 0.  0.
        3    1    3    3  502    0  0.77994556778E+03  0.38358858104E+03 -0.40872355112E+03  0.96047396615E+03  0.10100000352E+00 0.  1.
       -3    1    3    3    0  502 -0.77994556778E+03 -0.38358858104E+03  0.61147329517E+03  0.10627111033E+04  0.10100000352E+00 0. -1.
</event>
<event>
 5   0  0.1807498E-04  0.2208544E+04  0.7818609E-02  0.8514881E-01
       -2   -1    0    0    0  501  0.00000000000E+00  0.00000000000E+00  0.12495530736E+04  0.12495530736E+04  0.25500000920E-02 0.  1.
        2   -1    0    0  501    0  0.00000000000E+00  0.00000000000E+00 -0.97588180858E+03  0.97588180859E+03  0.25500000920E-02 0. -1.
    10030    2    1    2    0    0  0.00000000000E+00  0.00000000000E+00  0.27367126505E+03  0.22254348822E+04  0.22085435141E+04 0.  0.
        5    1    3    3  502    0  0.33690924730E+03 -0.15893839048E+03 -0.91064593591E+03  0.98390414343E+03  0.46999998093E+01 0. -1.
       -5    1    3    3    0  502 -0.33690924730E+03  0.15893839048E+03  0.11843172010E+04  0.12415307388E+04  0.46999998093E+01 0.  1.
</event>
<event>
 5   0  0.8881384E-05  0.1968714E+04  0.7818609E-02  0.8621389E-01
        1   -1    0    0  501    0  0.00000000000E+00  0.00000000000E+00  0.89551983252E+03  0.89551983254E+03  0.50400001928E-02 0. -1.
       -1   -1    0    0    0  501  0.00000000000E+00  0.00000000000E+00 -0.10820072578E+04  0.10820072578E+04  0.50400001928E-02 0.  1.
    10030    2    1    2    0    0  0.00000000000E+00  0.00000000000E+00 -0.18648742529E+03  0.19775270904E+04  0.19687142589E+04 0.  0.
        5    1    3    3  502    0  0.86919699408E+03 -0.21170006282E+03  0.31922388571E+03  0.94986646973E+03  0.46999998093E+01 0. -1.
       -5    1    3    3    0  502 -0.86919699408E+03  0.21170006282E+03 -0.50571131100E+03  0.10276606206E+04  0.46999998093E+01 0.  1.
</event>
<event>
 5   0  0.1834645E-04  0.2008655E+04  0.7818609E-02  0.8602585E-01
       -2   -1    0    0    0  501  0.00000000000E+00  0.00000000000E+00  0.17639883870E+04  0.17639883870E+04  0.25500000920E-02 0. -1.
        2   -1    0    0  501    0  0.00000000000E+00  0.00000000000E+00 -0.57181409478E+03  0.57181409479E+03  0.25500000920E-02 0.  1.
    10030    2    1    2    0    0  0.00000000000E+00  0.00000000000E+00  0.11921742922E+04  0.23358024818E+04  0.20086546968E+04 0.  0.
        1    1    3    3  502    0  0.72084520031E+03  0.19966309230E+03 -0.18328701051E+03  0.77011510924E+03  0.50400001928E-02 0.  1.
       -1    1    3    3    0  502 -0.72084520031E+03 -0.19966309230E+03  0.13754613027E+04  0.15656873725E+04  0.50400001928E-02 0. -1.
</event>
<event>
 5   0  0.8861350E-05  0.1506898E+04  0.7818609E-02  0.8879879E-01
       -1   -1    0    0    0  501  0.00000000000E+00  0.00000000000E+00  0.65890431081E+03  0.65890431083E+03  0.50400001928E-02 0.  1.
        1   -1    0    0  501    0  0.00000000000E+00  0.00000000000E+00 -0.86155958248E+03  0.86155958250E+03  0.50400001928E-02 0. -1.
    10030    2    1    2    0    0  0.00000000000E+00  0.00000000000E+00 -0.20265527167E+03  0.15204638933E+04  0.15068979036E+04 0.  0.
        1    1    3    3  502    0 -0.24998428229E+03  0.87196639941E+02 -0.81307861444E+03  0.85509778897E+03  0.50400001928E-02 0. -1.
       -1    1    3    3    0  502  0.24998428229E+03 -0.87196639941E+02  0.61042334277E+03  0.66536610436E+03  0.50400001928E-02 0.  1.
</event>
<event>
 5   0  0.1812865E-04  0.2001093E+04  0.7818609E-02  0.8606110E-01
        2   -1    0    0  501    0  0.00000000000E+00  0.00000000000E+00  0.12248535663E+04  0.12248535663E+04  0.25500000920E-02 0.  1.
       -2   -1    0    0    0  501  0.00000000000E+00  0.00000000000E+00 -0.81731704120E+03  0.81731704120E+03  0.25500000920E-02 0. -1.
    10030    2    1    2    0    0  0.00000000000E+00  0.00000000000E+00  0.40753652509E+03  0.20421706075E+04  0.20010933938E+04 0.  0.
        3    1    3    3  502    0  0.89511065703E+02 -0.39576768854E+03  0.11371181875E+04  0.12073450529E+04  0.10100000352E+00 0.  1.
       -3    1    3    3    0  502 -0.89511065703E+02  0.39576768854E+03 -0.72958166245E+03  0.83482555457E+03  0.10100000352E+00 0. -1.
</event>
<event>
 5   0  0.1893687E-04  0.1922107E+04  0.7818609E-02  0.8643930E-01
       -2   -1    0    0    0  501  0.00000000000E+00  0.00000000000E+00  0.57554304260E+03  0.57554304260E+03  0.25500000920E-02 0.  1.
        2   -1    0    0  501    0  0.00000000000E+00  0.00000000000E+00 -0.16047867646E+04  0.16047867646E+04  0.25500000920E-02 0. -1.
    10030    2    1    2    0    0  0.00000000000E+00  0.00000000000E+00 -0.10292437220E+04  0.21803298072E+04  0.19221070285E+04 0.  0.
        4    1    3    3  502    0  0.27712022604E+03  0.82932793820E+03 -0.96699859462E+03  0.13037132904E+04  0.12699999809E+01 0. -1.
       -4    1    3    3    0  502 -0.27712022604E+03 -0.82932793820E+03 -0.62245127423E+02  0.87661651681E+03  0.12699999809E+01 0.  1.
</event>
<event>
 5   0  0.1782172E-04  0.2003857E+04  0.7818609E-02  0.8604820E-01
        2   -1    0    0  501    0  0.00000000000E+00  0.00000000000E+00  0.16077128361E+04  0.16077128361E+04  0.25500000920E-02 0.  1.
       -2   -1    0    0    0  501  0.00000000000E+00  0.00000000000E+00 -0.62440274548E+03  0.62440274548E+03  0.25500000920E-02 0. -1.
    10030    2    1    2    0    0  0.00000000000E+00  0.00000000000E+00  0.98331009061E+03  0.22321155816E+04  0.20038565905E+04 0.  0.
        2    1    3    3  502    0  0.46116022274E+03 -0.36632133588E+03 -0.41123071744E+03  0.71831105737E+03  0.25500000920E-02 0. -1.
       -2    1    3    3    0  502 -0.46116022274E+03  0.36632133588E+03  0.13945408081E+04  0.15138045242E+04  0.25500000920E-02 0.  1.
</event>
<event>
 5   0  0.1782172E-04  0.1984851E+04  0.7818609E-02  0.8613736E-01
       -2   -1    0    0    0  501  0.00000000000E+00  0.00000000000E+00  0.79515642522E+03  0.79515642522E+03  0.25500000920E-02 0.  1.
        2   -1    0    0  501    0  0.00000000000E+00  0.00000000000E+00 -0.12386344238E+04  0.12386344238E+04  0.25500000920E-02 0. -1.
    10030    2    1    2    0    0  0.00000000000E+00  0.00000000000E+00 -0.44347799855E+03  0.20337908490E+04  0.19848507456E+04 0.  0.
        2    1    3    3  502    0 -0.80496805674E+03  0.21342014837E+03  0.33137297995E+03  0.89628666394E+03  0.25500000920E-02 0.  1.
       -2    1    3    3    0  502  0.80496805674E+03 -0.21342014837E+03 -0.77485097850E+03  0.11375041850E+04  0.25500000920E-02 0. -1.
</event>
<event>
 5   0  0.1834645E-04  0.2010273E+04  0.7818609E-02  0.8601833E-01
       -2   -1    0    0    0  501  0.00000000000E+00  0.00000000000E+00  0.83073628589E+03  0.83073628589E+03  0.25500000920E-02 0.  1.
        2   -1    0    0  501    0  0.00000000000E+00  0.00000000000E+00 -0.12161492099E+04  0.12161492099E+04  0.25500000920E-02 0. -1.
    10030    2    1    2    0    0  0.00000000000E+00  0.00000000000E+00 -0.38541292404E+03  0.20468854958E+04  0.20102728947E+04 0.  0.
        1    1    3    3  502    0 -0.65039427279E+03 -0.72385291157E+03 -0.44893121923E+03  0.10716879151E+04  0.50400001928E-02 0. -1.
       -1    1    3    3    0  502  0.65039427279E+03  0.72385291157E+03  0.63518295189E+02  0.97519758076E+03  0.50400001928E-02 0.  1.
</event>
<event>
 5   0  0.8881384E-05  0.2035419E+04  0.7818609E-02  0.8590238E-01
       -1   -1    0    0    0  501  0.00000000000E+00  0.00000000000E+00  0.81087962731E+03  0.81087962733E+03  0.50400001928E-02 0.  1.
        1   -1    0    0  501    0  0.00000000000E+00  0.00000000000E+00 -0.12772948522E+04  0.12772948522E+04  0.50400001928E-02 0. -1.
    10030    2    1    2    0    0  0.00000000000E+00  0.00000000000E+00 -0.46641522487E+03  0.20881744795E+04  0.20354187517E+04 0.  0.
        5    1    3    3  502    0  0.20311807630E+03 -0.88064962072E+03 -0.71321220516E+03  0.11513011973E+04  0.46999998093E+01 0. -1.
       -5    1    3    3    0  502 -0.20311807630E+03  0.88064962072E+03  0.24679698030E+03  0.93687328218E+03  0.46999998093E+01 0.  1.
</event>
<event>
 5   0  0.8861350E-05  0.1642602E+04  0.7818609E-02  0.8794795E-01
       -1   -1    0    0    0  501  0.00000000000E+00  0.00000000000E+00  0.33990113937E+03  0.33990113940E+03  0.50400001928E-02 0.  1.
        1   -1    0    0  501    0  0.00000000000E+00  0.00000000000E+00 -0.19845056493E+04  0.19845056493E+04  0.50400001928E-02 0. -1.
    10030    2    1    2    0    0  0.00000000000E+00  0.00000000000E+00 -0.16446045099E+04  0.23244067887E+04  0.16426024855E+04 0.  0.
        1    1    3    3  502    0 -0.22413470556E+03  0.68954706956E+03 -0.13682064650E+04  0.15484509867E+04  0.50400001928E-02 0. -1.
       -1    1    3    3    0  502  0.22413470556E+03 -0.68954706956E+03 -0.27639804493E+03  0.77595580199E+03  0.50400001928E-02 0.  1.
</event>
<event>
 5   0  0.1834645E-04  0.1999509E+04  0.7818609E-02  0.8606850E-01
       -2   -1    0    0    0  501  0.00000000000E+00  0.00000000000E+00  0.86209345440E+03  0.86209345441E+03  0.25500000920E-02 0. -1.
        2   -1    0    0  501    0  0.00000000000E+00  0.00000000000E+00 -0.11593974950E+04  0.11593974950E+04  0.25500000920E-02 0.  1.
    10030    2    1    2    0    0  0.00000000000E+00  0.00000000000E+00 -0.29730404057E+03  0.20214909494E+04  0.19995089312E+04 0.  0.
        1    1    3    3  502    0 -0.12021451943E+02  0.35832043114E+02  0.86137094152E+03  0.86219971558E+03  0.50400001928E-02 0. -1.
       -1    1    3    3    0  502  0.12021451943E+02 -0.35832043114E+02 -0.11586749821E+04  0.11592912338E+04  0.50400001928E-02 0.  1.
</event>
<event>
 5   0  0.8577422E-05  0.1809409E+04  0.7818609E-02  0.8701312E-01
        1   -1    0    0  501    0  0.00000000000E+00  0.00000000000E+00  0.10573151453E+04  0.10573151453E+04  0.50400001928E-02 0. -1.
       -1   -1    0    0    0  501  0.00000000000E+00  0.00000000000E+00 -0.77412132269E+03  0.77412132270E+03  0.50400001928E-02 0.  1.
    10030    2    1    2    0    0  0.00000000000E+00  0.00000000000E+00  0.28319382261E+03  0.18314364680E+04  0.18094089629E+04 0.  0.
        2    1    3    3  502    0  0.49031231061E+03  0.75634156364E+03  0.22020494289E+03  0.92787334249E+03  0.25500000920E-02 0.  1.
       -2    1    3    3    0  502 -0.49031231061E+03 -0.75634156364E+03  0.62988879714E+02  0.90356312552E+03  0.25500000920E-02 0. -1.
</event>
<event>
 5   0  0.8765057E-05  0.2031339E+04  0.7818609E-02  0.8592107E-01
        1   -1    0    0  501    0  0.00000000000E+00  0.00000000000E+00  0.13556623175E+04  0.13556623175E+04  0.50400001928E-02 0.  1.
       -1   -1    0    0    0  501  0.00000000000E+00  0.00000000000E+00 -0.76094527219E+03  0.76094527221E+03  0.50400001928E-02 0. -1.
    10030    2    1    2    0    0  0.00000000000E+00  0.00000000000E+00  0.59471704529E+03  0.21166075897E+04  0.20313392934E+04 0.  0.
        3    1    3    3  502    0  0.38888624582E+03 -0.61701623399E+03  0.10338842187E+04  0.12652502255E+04  0.10100000352E+00 0.  1.
       -3    1    3    3    0  502 -0.38888624582E+03  0.61701623399E+03 -0.43916717342E+03  0.85135736421E+03  0.10100000352E+00 0. -1.
</event>
<event>
 5   0  0.8958919E-05  0.2018599E+04  0.7818609E-02  0.8597974E-01
        1   -1    0    0  501    0  0.00000000000E+00  0.00000000000E+00  0.13628295326E+04  0.13628295326E+04  0.50400001928E-02 0.  1.
       -1   -1    0    0    0  501  0.00000000000E+00  0.00000000000E+00 -0.74747840330E+03  0.74747840332E+03  0.50400001928E-02 0. -1.
    10030    2    1    2    0    0  0.00000000000E+00  0.00000000000E+00  0.61535112929E+03  0.21103079359E+04  0.20185991608E+04 0.  0.
        4    1    3    3  502    0 -0.61479535196E+03  0.10955425623E+03  0.11366104823E+04  0.12968656295E+04  0.12699999809E+01 0. -1.
       -4    1    3    3    0  502  0.61479535196E+03 -0.10955425623E+03 -0.52125935296E+03  0.81344230637E+03  0.12699999809E+01 0.  1.
</event>
<event>
 5   0  0.1834645E-04  0.2007445E+04  0.7818609E-02  0.8603148E-01
       -2   -1    0    0    0  501  0.00000000000E+00  0.00000000000E+00  0.52758986748E+03  0.52758986749E+03  0.25500000920E-02 0.  1.
        2   -1    0    0  501    0  0.00000000000E+00  0.00000000000E+00 -0.19095487076E+04  0.19095487076E+04  0.25500000920E-02 0. -1.
    10030    2    1    2    0    0  0.00000000000E+00  0.00000000000E+00 -0.13819588402E+04  0.24371385751E+04  0.20074446938E+04 0.  0.
        1    1    3    3  502    0  0.99808717190E+03  0.81890887335E+02 -0.77309113110E+03  0.12651300396E+04  0.50400001928E-02 0. -1.
       -1    1    3    3    0  502 -0.99808717190E+03 -0.81890887335E+02 -0.60886770906E+03  0.11720085355E+04  0.50400001928E-02 0.  1.
</event>
<event>
 5   0  0.8577422E-05  0.2007104E+04  0.7818609E-02  0.8603307E-01
       -1   -1    0    0    0  501  0.00000000000E+00  0.00000000000E+00  0.66344589046E+03  0.66344589048E+03  0.50400001928E-02 0. -1.
        1   -1    0    0  501    0  0.00000000000E+00  0.00000000000E+00 -0.15180086320E+04  0.15180086320E+04  0.50400001928E-02 0.  1.
    10030    2    1    2    0    0  0.00000000000E+00  0.00000000000E+00 -0.85456274153E+03  0.21814545225E+04  0.20071039720E+04 0.  0.
        2    1    3    3  502    0  0.41785602122E+03  0.22559074229E+03  0.53361070392E+03  0.71430751139E+03  0.25500000920E-02 0. -1.
       -2    1    3    3    0  502 -0.41785602122E+03 -0.22559074229E+03 -0.13881734454E+04  0.14671470111E+04  0.25500000920E-02 0.  1.
</event>
<event>
 5   0  0.8881384E-05  0.1976795E+04  0.7818609E-02  0.8617547E-01
        1   -1    0    0  501    0  0.00000000000E+00  0.00000000000E+00  0.10623500996E+04  0.10623500996E+04  0.50400001928E-02 0.  1.
       -1   -1    0    0    0  501  0.00000000000E+00  0.00000000000E+00 -0.91959287197E+03  0.91959287198E+03  0.50400001928E-02 0. -1.
    10030    2    1    2    0    0  0.00000000000E+00  0.00000000000E+00  0.14275722766E+03  0.19819429716E+04  0.19767949607E+04 0.  0.
        5    1    3    3  502    0  0.35433789749E+03  0.31562519081E+03 -0.79790461839E+03  0.92835794644E+03  0.46999998093E+01 0. -1.
       -5    1    3    3    0  502 -0.35433789749E+03 -0.31562519081E+03  0.94066184605E+03  0.10535850252E+04  0.46999998093E+01 0.  1.
</event>
<event>
 5   0  0.8881384E-05  0.1905855E+04  0.7818609E-02  0.8651947E-01
       -1   -1    0    0    0  501  0.00000000000E+00  0.00000000000E+00  0.64096452177E+03  0.64096452179E+03  0.50400001928E-02 0. -1.
        1   -1    0    0  501    0  0.00000000000E+00  0.00000000000E+00 -0.14167255071E+04  0.14167255071E+04  0.50400001928E-02 0.  1.
    10030    2    1    2    0    0  0.00000000000E+00  0.00000000000E+00 -0.77576098528E+03  0.20576900289E+04  0.19058549653E+04 0.  0.
        5    1    3    3  502    0 -0.15418082676E+03 -0.15593551349E+03 -0.13891004659E+04  0.14063107075E+04  0.46999998093E+01 0.  1.
       -5    1    3    3    0  502  0.15418082676E+03  0.15593551349E+03  0.61333948065E+03  0.65137932131E+03  0.46999998093E+01 0. -1.
</event>
<event>
 5   0  0.1834645E-04  0.2041434E+04  0.7818609E-02  0.8587490E-01
        2   -1    0    0  501    0  0.00000000000E+00  0.00000000000E+00  0.14406732136E+04  0.14406732136E+04  0.25500000920E-02 0. -1.
       -2   -1    0    0    0  501  0.00000000000E+00  0.00000000000E+00 -0.72317828176E+03  0.72317828177E+03  0.25500000920E-02 0.  1.
    10030    2    1    2    0    0  0.00000000000E+00  0.00000000000E+00  0.71749493183E+03  0.21638514954E+04  0.20414343773E+04 0.  0.
        1    1    3    3  502    0 -0.95824443841E+03 -0.30608771924E+03  0.54215986248E+03  0.11427420584E+04  0.50400001928E-02 0.  1.
       -1    1    3    3    0  502  0.95824443841E+03  0.30608771924E+03  0.17533506934E+03  0.10211094369E+04  0.50400001928E-02 0. -1.
</event>
<event>
 5   0  0.8881384E-05  0.2003468E+04  0.7818609E-02  0.8605001E-01
        1   -1    0    0  501    0  0.00000000000E+00  0.00000000000E+00  0.64104829024E+03  0.64104829026E+03  0.50400001928E-02 0. -1.
       -1   -1    0    0    0  501  0.00000000000E+00  0.00000000000E+00 -0.15653589539E+04  0.15653589539E+04  0.50400001928E-02 0.  1.
    10030    2    1    2    0    0  0.00000000000E+00  0.00000000000E+00 -0.92431066365E+03  0.22064072442E+04  0.20034676748E+04 0.  0.
        5    1    3    3  502    0 -0.56504759946E+02  0.28946658357E+03  0.59213749896E+03  0.66153805527E+03  0.46999998093E+01 0. -1.
       -5    1    3    3    0  502  0.56504759946E+02 -0.28946658357E+03 -0.15164481626E+04  0.15448691889E+04  0.46999998093E+01 0.  1.
</event>
<event>
 5   0  0.1782172E-04  0.1976137E+04  0.7818609E-02  0.8617859E-01
        2   -1    0    0  501    0  0.00000000000E+00  0.00000000000E+00  0.11156899428E+04  0.11156899428E+04  0.25500000920E-02 0. -1.
       -2   -1    0    0    0  501  0.00000000000E+00  0.00000000000E+00 -0.87504576326E+03  0.87504576327E+03  0.25500000920E-02 0.  1.
    10030    2    1    2    0    0  0.00000000000E+00  0.00000000000E+00  0.24064417952E+03  0.19907357061E+04  0.19761374017E+04 0.  0.
        2    1    3    3  502    0 -0.11945009538E+03 -0.89845141659E+03 -0.27602622370E+03  0.94745646308E+03  0.25500000920E-02 0.  1.
       -2    1    3    3    0  502  0.11945009538E+03  0.89845141659E+03  0.51667040322E+03  0.10432792430E+04  0.25500000920E-02 0. -1.
</event>
<event>
 5   0  0.8577422E-05  0.1999364E+04  0.7818609E-02  0.8606918E-01
        1   -1    0    0  501    0  0.00000000000E+00  0.00000000000E+00  0.18379824548E+04  0.18379824549E+04  0.50400001928E-02 0.  1.
       -1   -1    0    0    0  501  0.00000000000E+00  0.00000000000E+00 -0.54372910662E+03  0.54372910664E+03  0.50400001928E-02 0. -1.
    10030    2    1    2    0    0  0.00000000000E+00  0.00000000000E+00  0.12942533482E+04  0.23817115615E+04  0.19993644572E+04 0.  0.
        2    1    3    3  502    0  0.10668739394E+03 -0.73304200898E+03 -0.15253835042E+03  0.75630730217E+03  0.25500000920E-02 0. -1.
       -2    1    3    3    0  502 -0.10668739394E+03  0.73304200898E+03  0.14467916986E+04  0.16254042593E+04  0.25500000920E-02 0.  1.
</event>
<event>
 5   0  0.1807498E-04  0.1989620E+04  0.7818609E-02  0.8611489E-01
        2   -1    0    0  501    0  0.00000000000E+00  0.00000000000E+00  0.18785085027E+04  0.18785085027E+04  0.25500000920E-02 0.  1.
       -2   -1    0    0    0  501  0.00000000000E+00  0.00000000000E+00 -0.52682613010E+03  0.52682613011E+03  0.25500000920E-02 0. -1.
    10030    2    1    2    0    0  0.00000000000E+00  0.00000000000E+00  0.13516823726E+04  0.24053346328E+04  0.19896204310E+04 0.  0.
        5    1    3    3  502    0 -0.51772225411E+03  0.62339505627E+03  0.13734407902E+04  0.15946847409E+04  0.46999998093E+01 0.  1.
       -5    1    3    3    0  502  0.51772225411E+03 -0.62339505627E+03 -0.21758417587E+02  0.81064989195E+03  0.46999998093E+01 0. -1.
</event>
<event>
 5   0  0.1893687E-04  0.1993266E+04  0.7818609E-02  0.8609775E-01
       -2   -1    0    0    0  501  0.00000000000E+00  0.00000000000E+00  0.66464419615E+03  0.66464419615E+03  0.25500000920E-02 0. -1.
        2   -1    0    0  501    0  0.00000000000E+00  0.00000000000E+00 -0.14944502362E+04  0.14944502362E+04  0.25500000920E-02 0.  1.
    10030    2    1    2    0    0  0.00000000000E+00  0.00000000000E+00 -0.82980604003E+03  0.21590944323E+04  0.19932663404E+04 0.  0.
        4    1    3    3  502    0  0.30622032422E+03 -0.85561514957E+03 -0.85812389721E+03  0.12498905580E+04  0.12699999809E+01 0.  1.
       -4    1    3    3    0  502 -0.30622032422E+03  0.85561514957E+03  0.28317857184E+02  0.90920387432E+03  0.12699999809E+01 0. -1.
</event>
<event>
 5   0  0.1893687E-04  0.2000546E+04  0.7818609E-02  0.8606365E-01
        2   -1    0    0  501    0  0.00000000000E+00  0.00000000000E+00  0.16148863298E+04  0.16148863299E+04  0.25500000920E-02 0. -1.
       -2   -1    0    0    0  501  0.00000000000E+00  0.00000000000E+00 -0.61957685671E+03  0.61957685671E+03  0.25500000920E-02 0.  1.
    10030    2    1    2    0    0  0.00000000000E+00  0.00000000000E+00  0.99530947314E+03  0.22344631866E+04  0.20005461216E+04 0.  0.
        4    1    3    3  502    0  0.24366635873E+03  0.40738191094E+03  0.14810648582E+04  0.15552774809E+04  0.12699999809E+01 0. -1.
       -4    1    3    3    0  502 -0.24366635873E+03 -0.40738191094E+03 -0.48575538503E+03  0.67918570562E+03  0.12699999809E+01 0.  1.
</event>
<event>
 5   0  0.8881384E-05  0.1972793E+04  0.7818609E-02  0.8619448E-01
        1   -1    0    0  501    0  0.00000000000E+00  0.00000000000E+00  0.82294494486E+03  0.82294494487E+03  0.50400001928E-02 0.  1.
       -1   -1    0    0    0  501  0.00000000000E+00  0.00000000000E+00 -0.11823123455E+04  0.11823123455E+04  0.50400001928E-02 0. -1.
    10030    2    1    2    0    0  0.00000000000E+00  0.00000000000E+00 -0.35936740061E+03  0.20052572904E+04  0.19727929116E+04 0.  0.
        5    1    3    3  502    0 -0.19777115852E+02 -0.60070660064E+02  0.82087066586E+03  0.82331668183E+03  0.46999998093E+01 0.  1.
       -5    1    3    3    0  502  0.19777115852E+02  0.60070660064E+02 -0.11802380665E+04  0.11819406085E+04  0.46999998093E+01 0. -1.
</event>
<event>
 5   0  0.6531625E-05  0.1958376E+04  0.7818609E-02  0.8626332E-01
       -3   -1    0    0    0  501  0.00000000000E+00  0.00000000000E+00  0.16081953244E+04  0.16081953276E+04  0.10100000352E+00 0. -1.
        3   -1    0    0  501    0  0.00000000000E+00  0.00000000000E+00 -0.59620208901E+03  0.59620209757E+03  0.10100000352E+00 0.  1.
    10030    2    1    2    0    0  0.00000000000E+00  0.00000000000E+00  0.10119932354E+04  0.22043974251E+04  0.19583762916E+04 0.  0.
        4    1    3    3  502    0  0.22825341295E+03 -0.46750072673E+03 -0.42776433189E+03  0.67352838586E+03  0.12699999809E+01 0.  1.
       -4    1    3    3    0  502 -0.22825341295E+03  0.46750072673E+03  0.14397575673E+04  0.15308690393E+04  0.12699999809E+01 0. -1.
</event>
<event>
 5   0  0.8881384E-05  0.1927958E+04  0.7818609E-02  0.8641064E-01
       -1   -1    0    0    0  501  0.00000000000E+00  0.00000000000E+00  0.19234191352E+04  0.19234191352E+04  0.50400001928E-02 0. -1.
        1   -1    0    0  501    0  0.00000000000E+00  0.00000000000E+00 -0.48312676309E+03  0.48312676312E+03  0.50400001928E-02 0.  1.
    10030    2    1    2    0    0  0.00000000000E+00  0.00000000000E+00  0.14402923721E+04  0.24065458984E+04  0.19279577391E+04 0.  0.
        5    1    3    3  502    0 -0.73504125085E+03  0.55676168174E+03  0.36938534751E+03  0.99334628185E+03  0.46999998093E+01 0.  1.
       -5    1    3    3    0  502  0.73504125085E+03 -0.55676168174E+03  0.10709070246E+04  0.14131996165E+04  0.46999998093E+01 0. -1.
</event>
<event>
 5   0  0.1893687E-04  0.1985013E+04  0.7818609E-02  0.8613660E-01
       -2   -1    0    0    0  501  0.00000000000E+00  0.00000000000E+00  0.15235727429E+04  0.15235727429E+04  0.25500000920E-02 0. -1.
        2   -1    0    0  501    0  0.00000000000E+00  0.00000000000E+00 -0.64655196068E+03  0.64655196068E+03  0.25500000920E-02 0.  1.
    10030    2    1    2    0    0  0.00000000000E+00  0.00000000000E+00  0.87702078224E+03  0.21701247036E+04  0.19850127901E+04 0.  0.
        4    1    3    3  502    0 -0.53492057666E+03 -0.31958472036E+02 -0.47480302273E+03  0.71596151473E+03  0.12699999809E+01 0.  1.
       -4    1    3    3    0  502  0.53492057666E+03  0.31958472036E+02  0.13518238050E+04  0.14541631889E+04  0.12699999809E+01 0. -1.
</event>
<event>
 5   0  0.1807498E-04  0.1996382E+04  0.7818609E-02  0.8608314E-01
        2   -1    0    0  501    0  0.00000000000E+00  0.00000000000E+00  0.15265828426E+04  0.15265828426E+04  0.25500000920E-02 0. -1.
       -2   -1    0    0    0  501  0.00000000000E+00  0.00000000000E+00 -0.65268991214E+03  0.65268991215E+03  0.25500000920E-02 0.  1.
    10030    2    1    2    0    0  0.00000000000E+00  0.00000000000E+00  0.87389293046E+03  0.21792727547E+04  0.19963819488E+04 0.  0.
        5    1    3    3  502    0 -0.32249622848E+03 -0.86839703445E+03  0.31069791742E+02  0.92687898281E+03  0.46999998093E+01 0.  1.
       -5    1    3    3    0  502  0.32249622848E+03  0.86839703445E+03  0.84282313872E+03  0.12523937719E+04  0.46999998093E+01 0. -1.
</event>
<event>
 5   0  0.8765057E-05  0.1986328E+04  0.7818609E-02  0.8613039E-01
        1   -1    0    0  501    0  0.00000000000E+00  0.00000000000E+00  0.23201501698E+04  0.23201501698E+04  0.50400001928E-02 0. -1.
       -1   -1    0    0    0  501  0.00000000000E+00  0.00000000000E+00 -0.42513406690E+03  0.42513406693E+03  0.50400001928E-02 0.  1.
    10030    2    1    2    0    0  0.00000000000E+00  0.00000000000E+00  0.18950161029E+04  0.27452842367E+04  0.19863281476E+04 0.  0.
        3    1    3    3  502    0  0.30169472749E+03 -0.40806373962E+03  0.21274269682E+04  0.21871171069E+04  0.10100000352E+00 0. -1.
       -3    1    3    3    0  502 -0.30169472749E+03  0.40806373962E+03 -0.23241086536E+03  0.55816712975E+03  0.10100000352E+00 0.  1.
</event>
<event>
 5   0  0.1893687E-04  0.1966729E+04  0.7818609E-02  0.8622336E-01
        2   -1    0    0  501    0  0.00000000000E+00  0.00000000000E+00  0.11948702767E+04  0.11948702767E+04  0.25500000920E-02 0.  1.
       -2   -1    0    0    0  501  0.00000000000E+00  0.00000000000E+00 -0.80929727660E+03  0.80929727660E+03  0.25500000920E-02 0. -1.
    10030    2    1    2    0    0  0.00000000000E+00  0.00000000000E+00  0.38557300009E+03  0.20041675533E+04  0.19667285129E+04 0.  0.
        4    1    3    3  502    0 -0.94960820020E+03 -0.18023765303E+03  0.83372811616E+01  0.96659840090E+03  0.12699999809E+01 0. -1.
       -4    1    3    3    0  502  0.94960820020E+03  0.18023765303E+03  0.37723571893E+03  0.10375691524E+04  0.12699999809E+01 0.  1.
</event>
<event>
 5   0  0.1834645E-04  0.1977128E+04  0.7818609E-02  0.8617389E-01
       -2   -1    0    0    0  501  0.00000000000E+00  0.00000000000E+00  0.79916722774E+03  0.79916722775E+03  0.25500000920E-02 0.  1.
        2   -1    0    0  501    0  0.00000000000E+00  0.00000000000E+00 -0.12228461687E+04  0.12228461687E+04  0.25500000920E-02 0. -1.
    10030    2    1    2    0    0  0.00000000000E+00  0.00000000000E+00 -0.42367894096E+03  0.20220133965E+04  0.19771277982E+04 0.  0.
        1    1    3    3  502    0 -0.84979299267E+03 -0.24750036655E+03 -0.66212365453E+03  0.11053561850E+04  0.50400001928E-02 0. -1.
       -1    1    3    3    0  502  0.84979299267E+03  0.24750036655E+03  0.23844471357E+03  0.91665721144E+03  0.50400001928E-02 0.  1.
</event>
<event>
 5   0  0.8765057E-05  0.2033436E+04  0.7818609E-02  0.8591146E-01
        1   -1    0    0  501    0  0.00000000000E+00  0.00000000000E+00  0.15960947503E+04  0.15960947503E+04  0.50400001928E-02 0.  1.
       -1   -1    0    0    0  501  0.00000000000E+00  0.00000000000E+00 -0.64765310638E+03  0.64765310640E+03  0.50400001928E-02 0. -1.
    10030    2    1    2    0    0  0.00000000000E+00  0.00000000000E+00  0.94844164388E+03  0.22437478567E+04  0.20334362278E+04 0.  0.
        3    1    3    3  502    0  0.38026657575E+03 -0.12764160058E+02 -0.56613569246E+03  0.68211085968E+03  0.10100000352E+00 0. -1.
       -3    1    3    3    0  502 -0.38026657575E+03  0.12764160058E+02  0.15145773363E+04  0.15616369970E+04  0.10100000352E+00 0.  1.
</event>
<event>
 5   0  0.1812865E-04  0.1965434E+04  0.7818609E-02  0.8622954E-01
        2   -1    0    0  501    0  0.00000000000E+00  0.00000000000E+00  0.16000479697E+04  0.16000479697E+04  0.25500000920E-02 0. -1.
       -2   -1    0    0    0  501  0.00000000000E+00  0.00000000000E+00 -0.60356475112E+03  0.60356475113E+03  0.25500000920E-02 0.  1.
    10030    2    1    2    0    0  0.00000000000E+00  0.00000000000E+00  0.99648321861E+03  0.22036127209E+04  0.19654338500E+04 0.  0.
        3    1    3    3  502    0 -0.91319303350E+03  0.22966533534E+02  0.90448099073E+03  0.12855095686E+04  0.10100000352E+00 0. -1.
       -3    1    3    3    0  502  0.91319303350E+03 -0.22966533534E+02  0.92002227873E+02  0.91810315228E+03  0.10100000352E+00 0.  1.
</event>
<event>
 5   0  0.8765057E-05  0.2014157E+04  0.7818609E-02  0.8600030E-01
       -1   -1    0    0    0  501  0.00000000000E+00  0.00000000000E+00  0.42887053705E+03  0.42887053708E+03  0.50400001928E-02 0. -1.
        1   -1    0    0  501    0  0.00000000000E+00  0.00000000000E+00 -0.23648330380E+04  0.23648330380E+04  0.50400001928E-02 0.  1.
    10030    2    1    2    0    0  0.00000000000E+00  0.00000000000E+00 -0.19359625010E+04  0.27937035751E+04  0.20141571092E+04 0.  0.
        3    1    3    3  502    0  0.87017088856E+03 -0.49219465844E+03 -0.79950235106E+03  0.12801003776E+04  0.10100000352E+00 0.  1.
       -3    1    3    3    0  502 -0.87017088856E+03  0.49219465844E+03 -0.11364601499E+04  0.15136031975E+04  0.10100000352E+00 0. -1.
</event>
<event>
 5   0  0.8881384E-05  0.2000352E+04  0.7818609E-02  0.8606456E-01
        1   -1    0    0  501    0  0.00000000000E+00  0.00000000000E+00  0.10467852550E+04  0.10467852551E+04  0.50400001928E-02 0. -1.
       -1   -1    0    0    0  501  0.00000000000E+00  0.00000000000E+00 -0.95564185413E+03  0.95564185415E+03  0.50400001928E-02 0.  1.
    10030    2    1    2    0    0  0.00000000000E+00  0.00000000000E+00  0.91143400910E+02  0.20024271092E+04  0.20003517711E+04 0.  0.
        5    1    3    3  502    0 -0.29083950302E+03  0.10195163642E+03  0.99805661191E+03  0.10445672995E+04  0.46999998093E+01 0. -1.
       -5    1    3    3    0  502  0.29083950302E+03 -0.10195163642E+03 -0.90691321100E+03  0.95785980967E+03  0.46999998093E+01 0.  1.
</event>
<event>
 5   0  0.8861350E-05  0.1975049E+04  0.7818609E-02  0.8618376E-01
       -1   -1    0    0    0  501  0.00000000000E+00  0.00000000000E+00  0.81259896304E+03  0.81259896306E+03  0.50400001928E-02 0.  1.
        1   -1    0    0  501    0  0.00000000000E+00  0.00000000000E+00 -0.12001060923E+04  0.12001060923E+04  0.50400001928E-02 0. -1.
    10030    2    1    2    0    0  0.00000000000E+00  0.00000000000E+00 -0.38750712922E+03  0.20127050553E+04  0.19750493322E+04 0.  0.
        1    1    3    3  502    0 -0.19881142253E+03  0.71811773577E+03  0.46666541492E+03  0.87920172524E+03  0.50400001928E-02 0.  1.
       -1    1    3    3    0  502  0.19881142253E+03 -0.71811773577E+03 -0.85417254414E+03  0.11335033301E+04  0.50400001928E-02 0. -1.
</event>
<event>
 5   0  0.8861350E-05  0.1974570E+04  0.7818609E-02  0.8618603E-01
        1   -1    0    0  501    0  0.00000000000E+00  0.00000000000E+00  0.91672363243E+03  0.91672363245E+03  0.50400001928E-02 0. -1.
       -1   -1    0    0    0  501  0.00000000000E+00  0.00000000000E+00 -0.10632776564E+04  0.10632776564E+04  0.50400001928E-02 0.  1.
    10030    2    1    2    0    0  0.00000000000E+00  0.00000000000E+00 -0.14655402397E+03  0.19800012889E+04  0.19745700853E+04 0.  0.
        1    1    3    3  502    0 -0.96058765894E+03  0.19941064831E+03  0.37655024400E+02  0.98178977284E+03  0.50400001928E-02 0. -1.
       -1    1    3    3    0  502  0.96058765894E+03 -0.19941064831E+03 -0.18420904837E+03  0.99821151601E+03  0.50400001928E-02 0.  1.
</event>
<event>
 5   0  0.1812865E-04  0.1974158E+04  0.7818609E-02  0.8618799E-01
        2   -1    0    0  501    0  0.00000000000E+00  0.00000000000E+00  0.10209319145E+04  0.10209319145E+04  0.25500000920E-02 0. -1.
       -2   -1    0    0    0  501  0.00000000000E+00  0.00000000000E+00 -0.95434868336E+03  0.95434868336E+03  0.25500000920E-02 0.  1.
    10030    2    1    2    0    0  0.00000000000E+00  0.00000000000E+00  0.66583231156E+02  0.19752805979E+04  0.19741580772E+04 0.  0.
        3    1    3    3  502    0 -0.33222045784E+03  0.92897781120E+03  0.64209216438E+02  0.98868247683E+03  0.10100000352E+00 0.  1.
       -3    1    3    3    0  502  0.33222045784E+03 -0.92897781120E+03  0.23740147189E+01  0.98659812105E+03  0.10100000352E+00 0. -1.
</event>
<event>
 5   0  0.8861350E-05  0.1985302E+04  0.7818609E-02  0.8613523E-01
       -1   -1    0    0    0  501  0.00000000000E+00  0.00000000000E+00  0.78082974975E+03  0.78082974976E+03  0.50400001928E-02 0. -1.
        1   -1    0    0  501    0  0.00000000000E+00  0.00000000000E+00 -0.12619351136E+04  0.12619351136E+04  0.50400001928E-02 0.  1.
    10030    2    1    2    0    0  0.00000000000E+00  0.00000000000E+00 -0.48110536386E+03  0.20427648634E+04  0.19853024747E+04 0.  0.
        1    1    3    3  502    0 -0.18742364828E+03 -0.49561862383E+00 -0.12435637980E+04  0.12576083609E+04  0.50400001928E-02 0.  1.
       -1    1    3    3    0  502  0.18742364828E+03  0.49561862383E+00  0.76245843416E+03  0.78515650250E+03  0.50400001928E-02 0. -1.
</event>
<event>
 5   0  0.8577422E-05  0.2002387E+04  0.7818609E-02  0.8605506E-01
       -1   -1    0    0    0  501  0.00000000000E+00  0.00000000000E+00  0.48826405008E+03  0.48826405010E+03  0.50400001928E-02 0. -1.
        1   -1    0    0  501    0  0.00000000000E+00  0.00000000000E+00 -0.20529635376E+04  0.20529635376E+04  0.50400001928E-02 0.  1.
    10030    2    1    2    0    0  0.00000000000E+00  0.00000000000E+00 -0.15646994876E+04  0.25412275877E+04  0.20023868673E+04 0.  0.
        2    1    3    3  502    0 -0.11088448435E+03 -0.15200668233E+03 -0.20303246893E+04  0.20390242138E+04  0.25500000920E-02 0.  1.
       -2    1    3    3    0  502  0.11088448435E+03  0.15200668233E+03  0.46562520173E+03  0.50220337398E+03  0.25500000920E-02 0. -1.
</event>
<event>
 5   0  0.8881384E-05  0.1975671E+04  0.7818609E-02  0.8618081E-01
        1   -1    0    0  501    0  0.00000000000E+00  0.00000000000E+00  0.68916613068E+03  0.68916613070E+03  0.50400001928E-02 0.  1.
       -1   -1    0    0    0  501  0.00000000000E+00  0.00000000000E+00 -0.14159414468E+04  0.14159414468E+04  0.50400001928E-02 0. -1.
    10030    2    1    2    0    0  0.00000000000E+00  0.00000000000E+00 -0.72677531615E+03  0.21051075775E+04  0.19756709121E+04 0.  0.
        5    1    3    3  502    0  0.59640727998E+03  0.78377105092E+03 -0.44452155342E+03  0.10805647622E+04  0.46999998093E+01 0. -1.
       -5    1    3    3    0  502 -0.59640727998E+03 -0.78377105092E+03 -0.28225376273E+03  0.10245428153E+04  0.46999998093E+01 0.  1.
</event>
<event>
 5   0  0.1834645E-04  0.1993578E+04  0.7818609E-02  0.8609629E-01
       -2   -1    0    0    0  501  0.00000000000E+00  0.00000000000E+00  0.67880368436E+03  0.67880368436E+03  0.25500000920E-02 0. -1.
        2   -1    0    0  501    0  0.00000000000E+00  0.00000000000E+00 -0.14637347543E+04  0.14637347543E+04  0.25500000920E-02 0.  1.
    10030    2    1    2    0    0  0.00000000000E+00  0.00000000000E+00 -0.78493106998E+03  0.21425384387E+04  0.19935782344E+04 0.  0.
        1    1    3    3  502    0  0.21106142971E+03  0.64011783443E+03  0.39677036995E+03  0.78212818359E+03  0.50400001928E-02 0. -1.
       -1    1    3    3    0  502 -0.21106142971E+03 -0.64011783443E+03 -0.11817014399E+04  0.13604102551E+04  0.50400001928E-02 0.  1.
</event>
<event>
 5   0  0.1812865E-04  0.1974552E+04  0.7818609E-02  0.8618612E-01
        2   -1    0    0  501    0  0.00000000000E+00  0.00000000000E+00  0.13693566307E+04  0.13693566307E+04  0.25500000920E-02 0.  1.
       -2   -1    0    0    0  501  0.00000000000E+00  0.00000000000E+00 -0.71180423952E+03  0.71180423953E+03  0.25500000920E-02 0. -1.
    10030    2    1    2    0    0  0.00000000000E+00  0.00000000000E+00  0.65755239121E+03  0.20811608703E+04  0.19745519544E+04 0.  0.
        3    1    3    3  502    0  0.42979137466E+03  0.16915855375E+03  0.12484576315E+04  0.13311580334E+04  0.10100000352E+00 0.  1.
       -3    1    3    3    0  502 -0.42979137466E+03 -0.16915855375E+03 -0.59090524032E+03  0.75000283684E+03  0.10100000352E+00 0. -1.
</event>
<event>
 5   0  0.8958919E-05  0.1974008E+04  0.7818609E-02  0.8618870E-01
       -1   -1    0    0    0  501  0.00000000000E+00  0.00000000000E+00  0.14759255331E+04  0.14759255332E+04  0.50400001928E-02 0.  1.
        1   -1    0    0  501    0  0.00000000000E+00  0.00000000000E+00 -0.66004490042E+03  0.66004490044E+03  0.50400001928E-02 0. -1.
    10030    2    1    2    0    0  0.00000000000E+00  0.00000000000E+00  0.81588063272E+03  0.21359704336E+04  0.19740082285E+04 0.  0.
        4    1    3    3  502    0 -0.58077441006E+03  0.68587777024E+03 -0.33514166048E+02  0.89936202017E+03  0.12699999809E+01 0. -1.
       -4    1    3    3    0  502  0.58077441006E+03 -0.68587777024E+03  0.84939479877E+03  0.12366084134E+04  0.12699999809E+01 0.  1.
</event>
<event>
 5   0  0.8577422E-05  0.1911652E+04  0.7818609E-02  0.8649078E-01
       -1   -1    0    0    0  501  0.00000000000E+00  0.00000000000E+00  0.11359182760E+04  0.11359182760E+04  0.50400001928E-02 0.  1.
        1   -1    0    0  501    0  0.00000000000E+00  0.00000000000E+00 -0.80428645682E+03  0.80428645684E+03  0.50400001928E-02 0. -1.
    10030    2    1    2    0    0  0.00000000000E+00  0.00000000000E+00  0.33163181921E+03  0.19402047329E+04  0.19116523591E+04 0.  0.
        2    1    3    3  502    0  0.64243377315E+03  0.17795404732E+03  0.86103955593E+03  0.10889343014E+04  0.25500000920E-02 0.  1.
       -2    1    3    3    0  502 -0.64243377315E+03 -0.17795404732E+03 -0.52940773672E+03  0.85127043150E+03  0.25500000920E-02 0. -1.
</event>
<event>
 5   0  0.8958919E-05  0.1996355E+04  0.7818609E-02  0.8608327E-01
        1   -1    0    0  501    0  0.00000000000E+00  0.00000000000E+00  0.96630971373E+03  0.96630971374E+03  0.50400001928E-02 0. -1.
       -1   -1    0    0    0  501  0.00000000000E+00  0.00000000000E+00 -0.10310964627E+04  0.10310964627E+04  0.50400001928E-02 0.  1.
    10030    2    1    2    0    0  0.00000000000E+00  0.00000000000E+00 -0.64786748949E+02  0.19974061764E+04  0.19963552066E+04 0.  0.
        4    1    3    3  502    0 -0.63570373040E+03 -0.22873095675E+03 -0.76757257472E+03  0.10225489493E+04  0.12699999809E+01 0.  1.
       -4    1    3    3    0  502  0.63570373040E+03  0.22873095675E+03  0.70278582578E+03  0.97485722710E+03  0.12699999809E+01 0. -1.
</event>
<event>
 5   0  0.8861350E-05  0.2005935E+04  0.7818609E-02  0.8603851E-01
        1   -1    0    0  501    0  0.00000000000E+00  0.00000000000E+00  0.19685041487E+04  0.19685041487E+04  0.50400001928E-02 0. -1.
       -1   -1    0    0    0  501  0.00000000000E+00  0.00000000000E+00 -0.51101936409E+03  0.51101936411E+03  0.50400001928E-02 0.  1.
    10030    2    1    2    0    0  0.00000000000E+00  0.00000000000E+00  0.14574847846E+04  0.24795235128E+04  0.20059349325E+04 0.  0.
        1    1    3    3  502    0 -0.74366803116E+03 -0.11156941539E+02  0.15604939560E+04  0.17286723243E+04  0.50400001928E-02 0. -1.
       -1    1    3    3    0  502  0.74366803116E+03  0.11156941539E+02 -0.10300917142E+03  0.75085118854E+03  0.50400001928E-02 0.  1.
</event>
<event>
 5   0  0.6531625E-05  0.2004366E+04  0.7818609E-02  0.8604582E-01
       -3   -1    0    0    0  501  0.00000000000E+00  0.00000000000E+00  0.43270328489E+03  0.43270329668E+03  0.10100000352E+00 0. -1.
        3   -1    0    0  501    0  0.00000000000E+00  0.00000000000E+00 -0.23211537955E+04  0.23211537977E+04  0.10100000352E+00 0.  1.
    10030    2    1    2    0    0  0.00000000000E+00  0.00000000000E+00 -0.18884505106E+04  0.27538570944E+04  0.20043661256E+04 0.  0.
        5    1    3    3  502    0  0.30746817509E+03 -0.94817300337E+03 -0.10868764138E+04  0.14747512170E+04  0.46999998093E+01 0.  1.
       -5    1    3    3    0  502 -0.30746817509E+03  0.94817300337E+03 -0.80157409680E+03  0.12791058774E+04  0.46999998093E+01 0. -1.
</event>
<event>
 5   0  0.8861350E-05  0.2011148E+04  0.7818609E-02  0.8601426E-01
        1   -1    0    0  501    0  0.00000000000E+00  0.00000000000E+00  0.11548936876E+04  0.11548936876E+04  0.50400001928E-02 0.  1.
       -1   -1    0    0    0  501  0.00000000000E+00  0.00000000000E+00 -0.87555999981E+03  0.87555999983E+03  0.50400001928E-02 0. -1.
    10030    2    1    2    0    0  0.00000000000E+00  0.00000000000E+00  0.27933368777E+03  0.20304536874E+04  0.20111476494E+04 0.  0.
        1    1    3    3  502    0 -0.22603994167E+02 -0.77947633422E+03  0.78065076996E+03  0.11034083201E+04  0.50400001928E-02 0.  1.
       -1    1    3    3    0  502  0.22603994167E+02  0.77947633422E+03 -0.50131708220E+03  0.92704536733E+03  0.50400001928E-02 0. -1.
</event>
<event>
 5   0  0.1893687E-04  0.1975070E+04  0.7818609E-02  0.8618366E-01
        2   -1    0    0  501    0  0.00000000000E+00  0.00000000000E+00  0.75095737552E+03  0.75095737553E+03  0.25500000920E-02 0. -1.
       -2   -1    0    0    0  501  0.00000000000E+00  0.00000000000E+00 -0.12986424582E+04  0.12986424582E+04  0.25500000920E-02 0.  1.
    10030    2    1    2    0    0  0.00000000000E+00  0.00000000000E+00 -0.54768508264E+03  0.20495998337E+04  0.19750697528E+04 0.  0.
        4    1    3    3  502    0  0.43094255015E+03  0.19837998343E+03 -0.11726420860E+04  0.12649731911E+04  0.12699999809E+01 0.  1.
       -4    1    3    3    0  502 -0.43094255015E+03 -0.19837998343E+03  0.62495700337E+03  0.78462664262E+03  0.12699999809E+01 0. -1.
</event>
<event>
 5   0  0.1893687E-04  0.2131355E+04  0.7818609E-02  0.8547556E-01
        2   -1    0    0  501    0  0.00000000000E+00  0.00000000000E+00  0.12877372561E+04  0.12877372561E+04  0.25500000920E-02 0. -1.
       -2   -1    0    0    0  501  0.00000000000E+00  0.00000000000E+00 -0.88191032888E+03  0.88191032889E+03  0.25500000920E-02 0.  1.
    10030    2    1    2    0    0  0.00000000000E+00  0.00000000000E+00  0.40582692720E+03  0.21696475850E+04  0.21313552374E+04 0.  0.
        4    1    3    3  502    0 -0.74157442919E+02  0.39299607088E+02  0.12843670364E+04  0.12871068653E+04  0.12699999809E+01 0. -1.
       -4    1    3    3    0  502  0.74157442919E+02 -0.39299607088E+02 -0.87854010924E+03  0.88254071969E+03  0.12699999809E+01 0.  1.
</event>
<event>
 5   0  0.8861350E-05  0.2001008E+04  0.7818609E-02  0.8606150E-01
       -1   -1    0    0    0  501  0.00000000000E+00  0.00000000000E+00  0.62485080684E+03  0.62485080686E+03  0.50400001928E-02 0. -1.
        1   -1    0    0  501    0  0.00000000000E+00  0.00000000000E+00 -0.16019954604E+04  0.16019954604E+04  0.50400001928E-02 0.  1.
    10030    2    1    2    0    0  0.00000000000E+00  0.00000000000E+00 -0.97714465357E+03  0.22268462673E+04  0.20010079021E+04 0.  0.
        1    1    3    3  502    0  0.57397592584E+03 -0.83164409492E+02  0.41869611487E+03  0.71531190336E+03  0.50400001928E-02 0. -1.
       -1    1    3    3    0  502 -0.57397592584E+03  0.83164409492E+02 -0.13958407684E+04  0.15115343639E+04  0.50400001928E-02 0.  1.
</event>
<event>
 5   0  0.8958919E-05  0.2004924E+04  0.7818609E-02  0.8604322E-01
        1   -1    0    0  501    0  0.00000000000E+00  0.00000000000E+00  0.98048649496E+03  0.98048649498E+03  0.50400001928E-02 0.  1.
       -1   -1    0    0    0  501  0.00000000000E+00  0.00000000000E+00 -0.10249296504E+04  0.10249296504E+04  0.50400001928E-02 0. -1.
    10030    2    1    2    0    0  0.00000000000E+00  0.00000000000E+00 -0.44443155393E+02  0.20054161453E+04  0.20049236200E+04 0.  0.
        4    1    3    3  502    0 -0.85612558601E+03 -0.44787049785E+03  0.24503138226E+03  0.99678532948E+03  0.12699999809E+01 0. -1.
       -4    1    3    3    0  502  0.85612558601E+03  0.44787049785E+03 -0.28947453766E+03  0.10086308159E+04  0.12699999809E+01 0.  1.
</event>
<event>
 5   0  0.1893687E-04  0.1975750E+04  0.7818609E-02  0.8618043E-01
       -2   -1    0    0    0  501  0.00000000000E+00  0.00000000000E+00  0.10083619875E+04  0.10083619875E+04  0.25500000920E-02 0. -1.
        2   -1    0    0  501    0  0.00000000000E+00  0.00000000000E+00 -0.96780450618E+03  0.96780450618E+03  0.25500000920E-02 0.  1.
    10030    2    1    2    0    0  0.00000000000E+00  0.00000000000E+00  0.40557481340E+02  0.19761664937E+04  0.19757502630E+04 0.  0.
        4    1    3    3  502    0  0.79644389390E+03  0.11023219715E+03 -0.55379482780E+03  0.97630135595E+03  0.12699999809E+01 0.  1.
       -4    1    3    3    0  502 -0.79644389390E+03 -0.11023219715E+03  0.59435230914E+03  0.99986513776E+03  0.12699999809E+01 0. -1.
</event>
<event>
 5   0  0.1893687E-04  0.2022732E+04  0.7818609E-02  0.8596066E-01
        2   -1    0    0  501    0  0.00000000000E+00  0.00000000000E+00  0.17720760768E+04  0.17720760768E+04  0.25500000920E-02 0. -1.
       -2   -1    0    0    0  501  0.00000000000E+00  0.00000000000E+00 -0.57721058204E+03  0.57721058205E+03  0.25500000920E-02 0.  1.
    10030    2    1    2    0    0  0.00000000000E+00  0.00000000000E+00  0.11948654947E+04  0.23492866588E+04  0.20227318791E+04 0.  0.
        4    1    3    3  502    0  0.78411056778E+03  0.44932247475E+03  0.70107969894E+02  0.90644183992E+03  0.12699999809E+01 0.  1.
       -4    1    3    3    0  502 -0.78411056778E+03 -0.44932247475E+03  0.11247575248E+04  0.14428448189E+04  0.12699999809E+01 0. -1.
</event>
<event>
 5   0  0.1807498E-04  0.1780640E+04  0.7818609E-02  0.8716663E-01
       -2   -1    0    0    0  501  0.00000000000E+00  0.00000000000E+00  0.55762763086E+03  0.55762763086E+03  0.25500000920E-02 0. -1.
        2   -1    0    0  501    0  0.00000000000E+00  0.00000000000E+00 -0.14215038906E+04  0.14215038906E+04  0.25500000920E-02 0.  1.
    10030    2    1    2    0    0  0.00000000000E+00  0.00000000000E+00 -0.86387625971E+03  0.19791315214E+04  0.17806401621E+04 0.  0.
        5    1    3    3  502    0  0.17532775819E+02 -0.87524353356E+03 -0.61215128005E+03  0.10682274669E+04  0.46999998093E+01 0. -1.
       -5    1    3    3    0  502 -0.17532775819E+02  0.87524353356E+03 -0.25172497966E+03  0.91090405458E+03  0.46999998093E+01 0.  1.
</event>
<event>
 5   0  0.1834645E-04  0.1789068E+04  0.7818609E-02  0.8712134E-01
       -2   -1    0    0    0  501  0.00000000000E+00  0.00000000000E+00  0.87993847764E+03  0.87993847765E+03  0.25500000920E-02 0. -1.
        2   -1    0    0  501    0  0.00000000000E+00  0.00000000000E+00 -0.90937204603E+03  0.90937204603E+03  0.25500000920E-02 0.  1.
    10030    2    1    2    0    0  0.00000000000E+00  0.00000000000E+00 -0.29433568383E+02  0.17893105237E+04  0.17890684210E+04 0.  0.
        1    1    3    3  502    0  0.19517117517E+03  0.59862627105E+02  0.85632938894E+03  0.88032683937E+03  0.50400001928E-02 0. -1.
       -1    1    3    3    0  502 -0.19517117517E+03 -0.59862627105E+02 -0.88576295732E+03  0.90898368430E+03  0.50400001928E-02 0.  1.
</event>
<event>
 5   0  0.8881384E-05  0.2011609E+04  0.7818609E-02  0.8601212E-01
        1   -1    0    0  501    0  0.00000000000E+00  0.00000000000E+00  0.29287579117E+04  0.29287579117E+04  0.50400001928E-02 0. -1.
       -1   -1    0    0    0  501  0.00000000000E+00  0.00000000000E+00 -0.34541689910E+03  0.34541689913E+03  0.50400001928E-02 0.  1.
    10030    2    1    2    0    0  0.00000000000E+00  0.00000000000E+00  0.25833410126E+04  0.32741748108E+04  0.20116087851E+04 0.  0.
        5    1    3    3  502    0  0.83751121667E+03 -0.10218920464E+02  0.21980349612E+04  0.23522136904E+04  0.46999998093E+01 0. -1.
       -5    1    3    3    0  502 -0.83751121667E+03  0.10218920464E+02  0.38530605132E+03  0.92196112042E+03  0.46999998093E+01 0.  1.
</event>
<event>
 5   0  0.1807498E-04  0.1935618E+04  0.7818609E-02  0.8637327E-01
       -2   -1    0    0    0  501  0.00000000000E+00  0.00000000000E+00  0.74429620469E+03  0.74429620470E+03  0.25500000920E-02 0. -1.
        2   -1    0    0  501    0  0.00000000000E+00  0.00000000000E+00 -0.12584431246E+04  0.12584431246E+04  0.25500000920E-02 0.  1.
    10030    2    1    2    0    0  0.00000000000E+00  0.00000000000E+00 -0.51414691995E+03  0.20027393293E+04  0.19356181870E+04 0.  0.
        5    1    3    3  502    0  0.19475921632E+03  0.85748266523E+03  0.16120312287E+03  0.89398893189E+03  0.46999998093E+01 0. -1.
       -5    1    3    3    0  502 -0.19475921632E+03 -0.85748266523E+03 -0.67535004281E+03  0.11087503975E+04  0.46999998093E+01 0.  1.
</event>
<event>
 5   0  0.8577422E-05  0.1991958E+04  0.7818609E-02  0.8610390E-01
       -1   -1    0    0    0  501  0.00000000000E+00  0.00000000000E+00  0.13472161796E+04  0.13472161796E+04  0.50400001928E-02 0. -1.
        1   -1    0    0  501    0  0.00000000000E+00  0.00000000000E+00 -0.73631373118E+03  0.73631373120E+03  0.50400001928E-02 0.  1.
    10030    2    1    2    0    0  0.00000000000E+00  0.00000000000E+00  0.61090244842E+03  0.20835299108E+04  0.19919576019E+04 0.  0.
        2    1    3    3  502    0 -0.97474126648E+03  0.17600316415E+03  0.41453412439E+03  0.10737486627E+04  0.25500000920E-02 0.  1.
       -2    1    3    3    0  502  0.97474126648E+03 -0.17600316415E+03  0.19636832403E+03  0.10097812481E+04  0.25500000920E-02 0. -1.
</event>
<event>
 5   0  0.1807498E-04  0.1533948E+04  0.7818609E-02  0.8862186E-01
       -2   -1    0    0    0  501  0.00000000000E+00  0.00000000000E+00  0.85180209843E+03  0.85180209844E+03  0.25500000920E-02 0. -1.
        2   -1    0    0  501    0  0.00000000000E+00  0.00000000000E+00 -0.69059405942E+03  0.69059405942E+03  0.25500000920E-02 0.  1.
    10030    2    1    2    0    0  0.00000000000E+00  0.00000000000E+00  0.16120803902E+03  0.15423961579E+04  0.15339484593E+04 0.  0.
        5    1    3    3  502    0  0.75745829006E+03 -0.10409776955E+02 -0.39956055565E+02  0.75859739059E+03  0.46999998093E+01 0.  1.
       -5    1    3    3    0  502 -0.75745829006E+03  0.10409776955E+02  0.20116409458E+03  0.78379876727E+03  0.46999998093E+01 0. -1.
</event>
<event>
 5   0  0.8765057E-05  0.2076575E+04  0.7818609E-02  0.8571633E-01
       -1   -1    0    0    0  501  0.00000000000E+00  0.00000000000E+00  0.87478557146E+03  0.87478557147E+03  0.50400001928E-02 0.  1.
        1   -1    0    0  501    0  0.00000000000E+00  0.00000000000E+00 -0.12323492604E+04  0.12323492604E+04  0.50400001928E-02 0. -1.
    10030    2    1    2    0    0  0.00000000000E+00  0.00000000000E+00 -0.35756368897E+03  0.21071348319E+04  0.20765754039E+04 0.  0.
        3    1    3    3  502    0 -0.93994518752E+03 -0.30573594780E+03  0.14381162698E+03  0.99882592056E+03  0.10100000352E+00 0. -1.
       -3    1    3    3    0  502  0.93994518752E+03  0.30573594780E+03 -0.50137531595E+03  0.11083089114E+04  0.10100000352E+00 0.  1.
</event>
<event>
 5   0  0.8958919E-05  0.2019776E+04  0.7818609E-02  0.8597430E-01
       -1   -1    0    0    0  501  0.00000000000E+00  0.00000000000E+00  0.63474020956E+03  0.63474020958E+03  0.50400001928E-02 0.  1.
        1   -1    0    0  501    0  0.00000000000E+00  0.00000000000E+00 -0.16067571822E+04  0.16067571822E+04  0.50400001928E-02 0. -1.
    10030    2    1    2    0    0  0.00000000000E+00  0.00000000000E+00 -0.97201697261E+03  0.22414973918E+04  0.20197756218E+04 0.  0.
        4    1    3    3  502    0  0.10776112268E+03  0.57559795456E+03 -0.13990956245E+04  0.15167055232E+04  0.12699999809E+01 0. -1.
       -4    1    3    3    0  502 -0.10776112268E+03 -0.57559795456E+03  0.42707865189E+03  0.72479186851E+03  0.12699999809E+01 0.  1.
</event>
<event>
 5   0  0.8765057E-05  0.1998400E+04  0.7818609E-02  0.8607369E-01
       -1   -1    0    0    0  501  0.00000000000E+00  0.00000000000E+00  0.11538842946E+04  0.11538842946E+04  0.50400001928E-02 0.  1.
        1   -1    0    0  501    0  0.00000000000E+00  0.00000000000E+00 -0.86525233647E+03  0.86525233648E+03  0.50400001928E-02 0. -1.
    10030    2    1    2    0    0  0.00000000000E+00  0.00000000000E+00  0.28863195809E+03  0.20191366311E+04  0.19984004423E+04 0.  0.
        3    1    3    3  502    0  0.49282012715E+03  0.45063552093E+03  0.89530301397E+03  0.11169205645E+04  0.10100000352E+00 0.  1.
       -3    1    3    3    0  502 -0.49282012715E+03 -0.45063552093E+03 -0.60667105588E+03  0.90221606652E+03  0.10100000352E+00 0. -1.
</event>
<event>
 5   0  0.8765057E-05  0.1993717E+04  0.7818609E-02  0.8609564E-01
        1   -1    0    0  501    0  0.00000000000E+00  0.00000000000E+00  0.10869933579E+04  0.10869933579E+04  0.50400001928E-02 0. -1.
       -1   -1    0    0    0  501  0.00000000000E+00  0.00000000000E+00 -0.91419759153E+03  0.91419759154E+03  0.50400001928E-02 0.  1.
    10030    2    1    2    0    0  0.00000000000E+00  0.00000000000E+00  0.17279576634E+03  0.20011909494E+04  0.19937168403E+04 0.  0.
        3    1    3    3  502    0 -0.17232627626E+03  0.23140850460E+03 -0.87137021507E+03  0.91789558415E+03  0.10100000352E+00 0.  1.
       -3    1    3    3    0  502  0.17232627626E+03 -0.23140850460E+03  0.10441659814E+04  0.10832953653E+04  0.10100000352E+00 0. -1.
</event>
<event>
 5   0  0.1782172E-04  0.1570941E+04  0.7818609E-02  0.8838602E-01
       -2   -1    0    0    0  501  0.00000000000E+00  0.00000000000E+00  0.74965234831E+03  0.74965234832E+03  0.25500000920E-02 0.  1.
        2   -1    0    0  501    0  0.00000000000E+00  0.00000000000E+00 -0.82299989232E+03  0.82299989232E+03  0.25500000920E-02 0. -1.
    10030    2    1    2    0    0  0.00000000000E+00  0.00000000000E+00 -0.73347544006E+02  0.15726522406E+04  0.15709408671E+04 0.  0.
        2    1    3    3  502    0 -0.23047169323E+03 -0.48522099144E+03  0.53701874967E+03  0.75956945003E+03  0.25500000920E-02 0.  1.
       -2    1    3    3    0  502  0.23047169323E+03  0.48522099144E+03 -0.61036629368E+03  0.81308279061E+03  0.25500000920E-02 0. -1.
</event>
<event>
 5   0  0.8881384E-05  0.1988643E+04  0.7818609E-02  0.8611949E-01
        1   -1    0    0  501    0  0.00000000000E+00  0.00000000000E+00  0.99779580262E+03  0.99779580263E+03  0.50400001928E-02 0. -1.
       -1   -1    0    0    0  501  0.00000000000E+00  0.00000000000E+00 -0.99085941593E+03  0.99085941594E+03  0.50400001928E-02 0.  1.
    10030    2    1    2    0    0  0.00000000000E+00  0.00000000000E+00  0.69363866949E+01  0.19886552186E+04  0.19886431216E+04 0.  0.
        5    1    3    3  502    0  0.31574659109E+03  0.94160680605E+03  0.51779865294E+02  0.99449611936E+03  0.46999998093E+01 0. -1.
       -5    1    3    3    0  502 -0.31574659109E+03 -0.94160680605E+03 -0.44843478599E+02  0.99415909921E+03  0.46999998093E+01 0.  1.
</event>
<event>
 5   0  0.8577422E-05  0.1961666E+04  0.7818609E-02  0.8624756E-01
        1   -1    0    0  501    0  0.00000000000E+00  0.00000000000E+00  0.10081410481E+04  0.10081410481E+04  0.50400001928E-02 0.  1.
       -1   -1    0    0    0  501  0.00000000000E+00  0.00000000000E+00 -0.95426464184E+03  0.95426464185E+03  0.50400001928E-02 0. -1.
    10030    2    1    2    0    0  0.00000000000E+00  0.00000000000E+00  0.53876406252E+02  0.19624056900E+04  0.19616659820E+04 0.  0.
        2    1    3    3  502    0  0.34595318850E+03  0.30026004420E+03  0.89455622797E+03  0.10050226603E+04  0.25500000920E-02 0.  1.
       -2    1    3    3    0  502 -0.34595318850E+03 -0.30026004420E+03 -0.84067982171E+03  0.95738302963E+03  0.25500000920E-02 0. -1.
</event>
<event>
 5   0  0.8765057E-05  0.1977393E+04  0.7818609E-02  0.8617264E-01
       -1   -1    0    0    0  501  0.00000000000E+00  0.00000000000E+00  0.11163118007E+04  0.11163118007E+04  0.50400001928E-02 0. -1.
        1   -1    0    0  501    0  0.00000000000E+00  0.00000000000E+00 -0.87566967193E+03  0.87566967194E+03  0.50400001928E-02 0.  1.
    10030    2    1    2    0    0  0.00000000000E+00  0.00000000000E+00  0.24064212873E+03  0.19919814726E+04  0.19773926148E+04 0.  0.
        3    1    3    3  502    0  0.38039696332E+03  0.28264924995E+03 -0.75379497790E+03  0.89039279372E+03  0.10100000352E+00 0.  1.
       -3    1    3    3    0  502 -0.38039696332E+03 -0.28264924995E+03  0.99443710664E+03  0.11015886789E+04  0.10100000352E+00 0. -1.
</event>
<event>
 5   0  0.1834645E-04  0.1783085E+04  0.7818609E-02  0.8715347E-01
       -2   -1    0    0    0  501  0.00000000000E+00  0.00000000000E+00  0.53957543405E+03  0.53957543405E+03  0.25500000920E-02 0. -1.
        2   -1    0    0  501    0  0.00000000000E+00  0.00000000000E+00 -0.14730993442E+04  0.14730993442E+04  0.25500000920E-02 0.  1.
    10030    2    1    2    0    0  0.00000000000E+00  0.00000000000E+00 -0.93352391012E+03  0.20126747782E+04  0.17830852117E+04 0.  0.
        1    1    3    3  502    0  0.71155420903E+03 -0.42244266529E+03 -0.92256861358E+02  0.83263348860E+03  0.50400001928E-02 0. -1.
       -1    1    3    3    0  502 -0.71155420903E+03  0.42244266529E+03 -0.84126704876E+03  0.11800412896E+04  0.50400001928E-02 0.  1.
</event>
<event>
 5   0  0.1782172E-04  0.2004782E+04  0.7818609E-02  0.8604388E-01
        2   -1    0    0  501    0  0.00000000000E+00  0.00000000000E+00  0.16382333312E+04  0.16382333312E+04  0.25500000920E-02 0. -1.
       -2   -1    0    0    0  501  0.00000000000E+00  0.00000000000E+00 -0.61333586657E+03  0.61333586658E+03  0.25500000920E-02 0.  1.
    10030    2    1    2    0    0  0.00000000000E+00  0.00000000000E+00  0.10248974646E+04  0.22515691977E+04  0.20047815440E+04 0.  0.
        2    1    3    3  502    0 -0.35080591895E+03 -0.85890142063E+03  0.86246421738E+02  0.93178049368E+03  0.25500000920E-02 0.  1.
       -2    1    3    3    0  502  0.35080591895E+03  0.85890142063E+03  0.93865104286E+03  0.13197887041E+04  0.25500000920E-02 0. -1.
</event>
<event>
 5   0  0.8765057E-05  0.1984283E+04  0.7818609E-02  0.8614004E-01
       -1   -1    0    0    0  501  0.00000000000E+00  0.00000000000E+00  0.80498265949E+03  0.80498265950E+03  0.50400001928E-02 0. -1.
        1   -1    0    0  501    0  0.00000000000E+00  0.00000000000E+00 -0.12228153677E+04  0.12228153677E+04  0.50400001928E-02 0.  1.
    10030    2    1    2    0    0  0.00000000000E+00  0.00000000000E+00 -0.41783270820E+03  0.20277980272E+04  0.19842834140E+04 0.  0.
        3    1    3    3  502    0 -0.81377092403E+03 -0.46165159004E+02 -0.78699876059E+03  0.11330142974E+04  0.10100000352E+00 0.  1.
       -3    1    3    3    0  502  0.81377092403E+03  0.46165159004E+02  0.36916605239E+03  0.89478372981E+03  0.10100000352E+00 0. -1.
</event>
<event>
 5   0  0.1834645E-04  0.1984110E+04  0.7818609E-02  0.8614086E-01
       -2   -1    0    0    0  501  0.00000000000E+00  0.00000000000E+00  0.57663881229E+03  0.57663881229E+03  0.25500000920E-02 0.  1.
        2   -1    0    0  501    0  0.00000000000E+00  0.00000000000E+00 -0.17067408189E+04  0.17067408189E+04  0.25500000920E-02 0. -1.
    10030    2    1    2    0    0  0.00000000000E+00  0.00000000000E+00 -0.11301020066E+04  0.22833796312E+04  0.19841098747E+04 0.  0.
        1    1    3    3  502    0  0.34488146633E+03 -0.85816843691E+03 -0.97803294449E+03  0.13460849648E+04  0.50400001928E-02 0. -1.
       -1    1    3    3    0  502 -0.34488146633E+03  0.85816843691E+03 -0.15206906210E+03  0.93729466637E+03  0.50400001928E-02 0.  1.
</event>
<event>
 5   0  0.8861350E-05  0.2001473E+04  0.7818609E-02  0.8605932E-01
        1   -1    0    0  501    0  0.00000000000E+00  0.00000000000E+00  0.10529078212E+04  0.10529078212E+04  0.50400001928E-02 0. -1.
       -1   -1    0    0    0  501  0.00000000000E+00  0.00000000000E+00 -0.95115071760E+03  0.95115071761E+03  0.50400001928E-02 0.  1.
    10030    2    1    2    0    0  0.00000000000E+00  0.00000000000E+00  0.10175710364E+03  0.20040585389E+04  0.20014734870E+04 0.  0.
        1    1    3    3  502    0 -0.38347835017E+03  0.11504360483E+03  0.96922361695E+03  0.10486587127E+04  0.50400001928E-02 0. -1.
       -1    1    3    3    0  502  0.38347835017E+03 -0.11504360483E+03 -0.86746651331E+03  0.95539982615E+03  0.50400001928E-02 0.  1.
</event>
<event>
 5   0  0.8765057E-05  0.2037546E+04  0.7818609E-02  0.8589265E-01
        1   -1    0    0  501    0  0.00000000000E+00  0.00000000000E+00  0.85788941833E+03  0.85788941835E+03  0.50400001928E-02 0. -1.
       -1   -1    0    0    0  501  0.00000000000E+00  0.00000000000E+00 -0.12098277100E+04  0.12098277100E+04  0.50400001928E-02 0.  1.
    10030    2    1    2    0    0  0.00000000000E+00  0.00000000000E+00 -0.35193829170E+03  0.20677171284E+04  0.20375459656E+04 0.  0.
        3    1    3    3  502    0 -0.21028268378E+03 -0.95585742418E+03  0.11109077272E+03  0.98499918398E+03  0.10100000352E+00 0. -1.
       -3    1    3    3    0  502  0.21028268378E+03  0.95585742418E+03 -0.46302906442E+03  0.10827179444E+04  0.10100000352E+00 0.  1.
</event>
<event>
 5   0  0.1893687E-04  0.1452587E+04  0.7818609E-02  0.8916609E-01
       -2   -1    0    0    0  501  0.00000000000E+00  0.00000000000E+00  0.31513488110E+03  0.31513488111E+03  0.25500000920E-02 0.  1.
        2   -1    0    0  501    0  0.00000000000E+00  0.00000000000E+00 -0.16738935146E+04  0.16738935146E+04  0.25500000920E-02 0. -1.
    10030    2    1    2    0    0  0.00000000000E+00  0.00000000000E+00 -0.13587586335E+04  0.19890283957E+04  0.14525869801E+04 0.  0.
        4    1    3    3  502    0 -0.12629068547E+03  0.49453276441E+03 -0.13869099018E+04  0.14778473132E+04  0.12699999809E+01 0. -1.
       -4    1    3    3    0  502  0.12629068547E+03 -0.49453276441E+03  0.28151268365E+02  0.51118108251E+03  0.12699999809E+01 0.  1.
</event>
<event>
 5   0  0.6531625E-05  0.2009343E+04  0.7818609E-02  0.8602265E-01
       -4   -1    0    0    0  501  0.00000000000E+00  0.00000000000E+00  0.88780822446E+03  0.88780913282E+03  0.12699999809E+01 0.  1.
        4   -1    0    0  501    0  0.00000000000E+00  0.00000000000E+00 -0.11369158445E+04  0.11369165538E+04  0.12699999809E+01 0. -1.
    10030    2    1    2    0    0  0.00000000000E+00  0.00000000000E+00 -0.24910762000E+03  0.20247256866E+04  0.20093430518E+04 0.  0.
        2    1    3    3  502    0  0.59877427921E+01  0.17966283549E+03  0.87147192909E+03  0.88981903257E+03  0.25500000920E-02 0.  1.
       -2    1    3    3    0  502 -0.59877427921E+01 -0.17966283549E+03 -0.11205795491E+04  0.11349066540E+04  0.25500000920E-02 0. -1.
</event>
<event>
 5   0  0.1834645E-04  0.1996407E+04  0.7818609E-02  0.8608302E-01
       -2   -1    0    0    0  501  0.00000000000E+00  0.00000000000E+00  0.83037881107E+03  0.83037881108E+03  0.25500000920E-02 0. -1.
        2   -1    0    0  501    0  0.00000000000E+00  0.00000000000E+00 -0.11999466380E+04  0.11999466380E+04  0.25500000920E-02 0.  1.
    10030    2    1    2    0    0  0.00000000000E+00  0.00000000000E+00 -0.36956782695E+03  0.20303254491E+04  0.19964070353E+04 0.  0.
        1    1    3    3  502    0 -0.12719791947E+03 -0.97610215201E+03 -0.35329619844E+03  0.10458359937E+04  0.50400001928E-02 0. -1.
       -1    1    3    3    0  502  0.12719791947E+03  0.97610215201E+03 -0.16271628508E+02  0.98448945540E+03  0.50400001928E-02 0.  1.
</event>
<event>
 5   0  0.1807498E-04  0.2030066E+04  0.7818609E-02  0.8592691E-01
       -2   -1    0    0    0  501  0.00000000000E+00  0.00000000000E+00  0.47604211224E+03  0.47604211225E+03  0.25500000920E-02 0. -1.
        2   -1    0    0  501    0  0.00000000000E+00  0.00000000000E+00 -0.21642876281E+04  0.21642876281E+04  0.25500000920E-02 0.  1.
    10030    2    1    2    0    0  0.00000000000E+00  0.00000000000E+00 -0.16882455158E+04  0.26403297403E+04  0.20300660619E+04 0.  0.
        5    1    3    3  502    0 -0.30087601312E+02  0.84744903255E+03 -0.15696674822E+04  0.17840833000E+04  0.46999998093E+01 0.  1.
       -5    1    3    3    0  502  0.30087601312E+02 -0.84744903255E+03 -0.11857803358E+03  0.85624644032E+03  0.46999998093E+01 0. -1.
</event>
<event>
 5   0  0.1893687E-04  0.2078179E+04  0.7818609E-02  0.8570917E-01
       -2   -1    0    0    0  501  0.00000000000E+00  0.00000000000E+00  0.12323191538E+04  0.12323191538E+04  0.25500000920E-02 0.  1.
        2   -1    0    0  501    0  0.00000000000E+00  0.00000000000E+00 -0.87615877171E+03  0.87615877171E+03  0.25500000920E-02 0. -1.
    10030    2    1    2    0    0  0.00000000000E+00  0.00000000000E+00  0.35616038211E+03  0.21084779255E+04  0.20781792379E+04 0.  0.
        4    1    3    3  502    0 -0.60797133436E+03  0.65285054062E+03 -0.36247517690E+03  0.96292930092E+03  0.12699999809E+01 0. -1.
       -4    1    3    3    0  502  0.60797133436E+03 -0.65285054062E+03  0.71863555901E+03  0.11455486246E+04  0.12699999809E+01 0.  1.
</event>
<event>
 5   0  0.8765057E-05  0.2022290E+04  0.7818609E-02  0.8596269E-01
        1   -1    0    0  501    0  0.00000000000E+00  0.00000000000E+00  0.12405989082E+04  0.12405989082E+04  0.50400001928E-02 0.  1.
       -1   -1    0    0    0  501  0.00000000000E+00  0.00000000000E+00 -0.82412994429E+03  0.82412994430E+03  0.50400001928E-02 0. -1.
    10030    2    1    2    0    0  0.00000000000E+00  0.00000000000E+00  0.41646896389E+03  0.20647288525E+04  0.20222904926E+04 0.  0.
        3    1    3    3  502    0 -0.96869559023E+03 -0.20948899142E+03  0.41283421546E+03  0.10736334960E+04  0.10100000352E+00 0. -1.
       -3    1    3    3    0  502  0.96869559023E+03  0.20948899142E+03  0.36347484277E+01  0.99109535649E+03  0.10100000352E+00 0.  1.
</event>
<event>
 5   0  0.8765057E-05  0.1951034E+04  0.7818609E-02  0.8629862E-01
        1   -1    0    0  501    0  0.00000000000E+00  0.00000000000E+00  0.10016607477E+04  0.10016607477E+04  0.50400001928E-02 0.  1.
       -1   -1    0    0    0  501  0.00000000000E+00  0.00000000000E+00 -0.95005606674E+03  0.95005606675E+03  0.50400001928E-02 0. -1.
    10030    2    1    2    0    0  0.00000000000E+00  0.00000000000E+00  0.51604680948E+02  0.19517168145E+04  0.19510344643E+04 0.  0.
        3    1    3    3  502    0 -0.84228770588E+02  0.98445927548E+02  0.99301575581E+03  0.10014321684E+04  0.10100000352E+00 0.  1.
       -3    1    3    3    0  502  0.84228770588E+02 -0.98445927548E+02 -0.94141107486E+03  0.95028464605E+03  0.10100000352E+00 0. -1.
</event>
<event>
 5   0  0.1812865E-04  0.2032425E+04  0.7818609E-02  0.8591609E-01
       -2   -1    0    0    0  501  0.00000000000E+00  0.00000000000E+00  0.15613938265E+04  0.15613938265E+04  0.25500000920E-02 0. -1.
        2   -1    0    0  501    0  0.00000000000E+00  0.00000000000E+00 -0.66138874018E+03  0.66138874018E+03  0.25500000920E-02 0.  1.
    10030    2    1    2    0    0  0.00000000000E+00  0.00000000000E+00  0.90000508636E+03  0.22227825667E+04  0.20324254435E+04 0.  0.
        3    1    3    3  502    0  0.78777526819E+03 -0.18830395309E+03 -0.22118764462E+03  0.83962624796E+03  0.10100000352E+00 0.  1.
       -3    1    3    3    0  502 -0.78777526819E+03  0.18830395309E+03  0.11211927310E+04  0.13831563188E+04  0.10100000352E+00 0. -1.
</event>
<event>
 5   0  0.1893687E-04  0.2005173E+04  0.7818609E-02  0.8604206E-01
       -2   -1    0    0    0  501  0.00000000000E+00  0.00000000000E+00  0.66523323580E+03  0.66523323580E+03  0.25500000920E-02 0.  1.
        2   -1    0    0  501    0  0.00000000000E+00  0.00000000000E+00 -0.15110186085E+04  0.15110186085E+04  0.25500000920E-02 0. -1.
    10030    2    1    2    0    0  0.00000000000E+00  0.00000000000E+00 -0.84578537266E+03  0.21762518443E+04  0.20051731080E+04 0.  0.
        4    1    3    3  502    0 -0.32068735814E+03 -0.61749896599E+03 -0.12063039751E+04  0.13925933534E+04  0.12699999809E+01 0. -1.
       -4    1    3    3    0  502  0.32068735814E+03  0.61749896599E+03  0.36051860246E+03  0.78365849085E+03  0.12699999809E+01 0.  1.
</event>
<event>
 5   0  0.8577422E-05  0.1999424E+04  0.7818609E-02  0.8606890E-01
        1   -1    0    0  501    0  0.00000000000E+00  0.00000000000E+00  0.25564088691E+04  0.25564088691E+04  0.50400001928E-02 0.  1.
       -1   -1    0    0    0  501  0.00000000000E+00  0.00000000000E+00 -0.39094849371E+03  0.39094849375E+03  0.50400001928E-02 0. -1.
    10030    2    1    2    0    0  0.00000000000E+00  0.00000000000E+00  0.21654603754E+04  0.29473573628E+04  0.19994241138E+04 0.  0.
        2    1    3    3  502    0  0.60440650139E+03 -0.47323256387E+03  0.13865036595E+03  0.78005141011E+03  0.25500000920E-02 0. -1.
       -2    1    3    3    0  502 -0.60440650139E+03  0.47323256387E+03  0.20268100094E+04  0.21673059527E+04  0.25500000920E-02 0.  1.
</event>
<event>
 5   0  0.8861350E-05  0.1615539E+04  0.7818609E-02  0.8811058E-01
        1   -1    0    0  501    0  0.00000000000E+00  0.00000000000E+00  0.18800539725E+04  0.18800539725E+04  0.50400001928E-02 0.  1.
       -1   -1    0    0    0  501  0.00000000000E+00  0.00000000000E+00 -0.34706016510E+03  0.34706016513E+03  0.50400001928E-02 0. -1.
    10030    2    1    2    0    0  0.00000000000E+00  0.00000000000E+00  0.15329938074E+04  0.22271141377E+04  0.16155393429E+04 0.  0.
        1    1    3    3  502    0 -0.37621825476E+03 -0.37974878283E+03  0.16013413717E+04  0.16882071857E+04  0.50400001928E-02 0.  1.
       -1    1    3    3    0  502  0.37621825476E+03  0.37974878283E+03 -0.68347564258E+02  0.53890695193E+03  0.50400001928E-02 0. -1.
</event>
<event>
 5   0  0.8577422E-05  0.1964227E+04  0.7818609E-02  0.8623531E-01
       -1   -1    0    0    0  501  0.00000000000E+00  0.00000000000E+00  0.45486944280E+03  0.45486944283E+03  0.50400001928E-02 0. -1.
        1   -1    0    0  501    0  0.00000000000E+00  0.00000000000E+00 -0.21204923013E+04  0.21204923013E+04  0.50400001928E-02 0.  1.
    10030    2    1    2    0    0  0.00000000000E+00  0.00000000000E+00 -0.16656228585E+04  0.25753617442E+04  0.19642272288E+04 0.  0.
        2    1    3    3  502    0 -0.65111761438E+03  0.67530907194E+03 -0.45156567383E+03  0.10411090472E+04  0.25500000920E-02 0. -1.
       -2    1    3    3    0  502  0.65111761438E+03 -0.67530907194E+03 -0.12140571847E+04  0.15342526970E+04  0.25500000920E-02 0.  1.
</event>
<event>
 5   0  0.1893687E-04  0.1959847E+04  0.7818609E-02  0.8625627E-01
        2   -1    0    0  501    0  0.00000000000E+00  0.00000000000E+00  0.23906292974E+04  0.23906292974E+04  0.25500000920E-02 0. -1.
       -2   -1    0    0    0  501  0.00000000000E+00  0.00000000000E+00 -0.40167257515E+03  0.40167257516E+03  0.25500000920E-02 0.  1.
    10030    2    1    2    0    0  0.00000000000E+00  0.00000000000E+00  0.19889567223E+04  0.27923018726E+04  0.19598471636E+04 0.  0.
        4    1    3    3  502    0  0.49337841890E+03 -0.83552200765E+03  0.79949335739E+03  0.12572631113E+04  0.12699999809E+01 0.  1.
       -4    1    3    3    0  502 -0.49337841890E+03  0.83552200765E+03  0.11894633649E+04  0.15350387614E+04  0.12699999809E+01 0. -1.
</event>
<event>
 5   0  0.1893687E-04  0.1988988E+04  0.7818609E-02  0.8611787E-01
       -2   -1    0    0    0  501  0.00000000000E+00  0.00000000000E+00  0.98896725249E+03  0.98896725249E+03  0.25500000920E-02 0.  1.
        2   -1    0    0  501    0  0.00000000000E+00  0.00000000000E+00 -0.10000514584E+04  0.10000514584E+04  0.25500000920E-02 0. -1.
    10030    2    1    2    0    0  0.00000000000E+00  0.00000000000E+00 -0.11084205946E+02  0.19890187109E+04  0.19889878262E+04 0.  0.
        4    1    3    3  502    0 -0.32876306566E+02 -0.88477080763E+03  0.44736259651E+03  0.99198545313E+03  0.12699999809E+01 0.  1.
       -4    1    3    3    0  502  0.32876306566E+02  0.88477080763E+03 -0.45844680245E+03  0.99703325779E+03  0.12699999809E+01 0. -1.
</event>
<event>
 5   0  0.1807498E-04  0.1805649E+04  0.7818609E-02  0.8703301E-01
        2   -1    0    0  501    0  0.00000000000E+00  0.00000000000E+00  0.13518072900E+04  0.13518072900E+04  0.25500000920E-02 0. -1.
       -2   -1    0    0    0  501  0.00000000000E+00  0.00000000000E+00 -0.60296495272E+03  0.60296495273E+03  0.25500000920E-02 0.  1.
    10030    2    1    2    0    0  0.00000000000E+00  0.00000000000E+00  0.74884233729E+03  0.19547722427E+04  0.18056493776E+04 0.  0.
        5    1    3    3  502    0 -0.49811166298E+03  0.22988962763E+03 -0.40180631871E+03  0.68002564469E+03  0.46999998093E+01 0.  1.
       -5    1    3    3    0  502  0.49811166298E+03 -0.22988962763E+03  0.11506486560E+04  0.12747465980E+04  0.46999998093E+01 0. -1.
</event>
<event>
 5   0  0.8765057E-05  0.2001731E+04  0.7818609E-02  0.8605812E-01
        1   -1    0    0  501    0  0.00000000000E+00  0.00000000000E+00  0.80258591852E+03  0.80258591853E+03  0.50400001928E-02 0.  1.
       -1   -1    0    0    0  501  0.00000000000E+00  0.00000000000E+00 -0.12481304320E+04  0.12481304320E+04  0.50400001928E-02 0. -1.
    10030    2    1    2    0    0  0.00000000000E+00  0.00000000000E+00 -0.44554451346E+03  0.20507163505E+04  0.20017311600E+04 0.  0.
        3    1    3    3  502    0 -0.15878739232E+03  0.36255652940E+02 -0.12344625411E+04  0.12451609068E+04  0.10100000352E+00 0. -1.
       -3    1    3    3    0  502  0.15878739232E+03 -0.36255652940E+02  0.78891802764E+03  0.80555544369E+03  0.10100000352E+00 0.  1.
</event>
<event>
 5   0  0.8577422E-05  0.1999764E+04  0.7818609E-02  0.8606731E-01
        1   -1    0    0  501    0  0.00000000000E+00  0.00000000000E+00  0.43555607207E+03  0.43555607210E+03  0.50400001928E-02 0.  1.
       -1   -1    0    0    0  501  0.00000000000E+00  0.00000000000E+00 -0.22953727796E+04  0.22953727796E+04  0.50400001928E-02 0. -1.
    10030    2    1    2    0    0  0.00000000000E+00  0.00000000000E+00 -0.18598167075E+04  0.27309288517E+04  0.19997635379E+04 0.  0.
        2    1    3    3  502    0  0.57477924769E+03 -0.66592922152E+03 -0.15790198586E+04  0.18075222338E+04  0.25500000920E-02 0.  1.
       -2    1    3    3    0  502 -0.57477924769E+03  0.66592922152E+03 -0.28079684890E+03  0.92340661792E+03  0.25500000920E-02 0. -1.
</event>
<event>
 5   0  0.1834645E-04  0.2012459E+04  0.7818609E-02  0.8600818E-01
       -2   -1    0    0    0  501  0.00000000000E+00  0.00000000000E+00  0.12219397597E+04  0.12219397597E+04  0.25500000920E-02 0.  1.
        2   -1    0    0  501    0  0.00000000000E+00  0.00000000000E+00 -0.82859914614E+03  0.82859914615E+03  0.25500000920E-02 0. -1.
    10030    2    1    2    0    0  0.00000000000E+00  0.00000000000E+00  0.39334061353E+03  0.20505389058E+04  0.20124594321E+04 0.  0.
        1    1    3    3  502    0 -0.56169891560E+03  0.26356933672E+03  0.10038235040E+04  0.11801000357E+04  0.50400001928E-02 0.  1.
       -1    1    3    3    0  502  0.56169891560E+03 -0.26356933672E+03 -0.61048289047E+03  0.87043887012E+03  0.50400001928E-02 0. -1.
</event>
<event>
 5   0  0.8958919E-05  0.1997681E+04  0.7818609E-02  0.8607706E-01
       -1   -1    0    0    0  501  0.00000000000E+00  0.00000000000E+00  0.63459174066E+03  0.63459174068E+03  0.50400001928E-02 0. -1.
        1   -1    0    0  501    0  0.00000000000E+00  0.00000000000E+00 -0.15721637513E+04  0.15721637513E+04  0.50400001928E-02 0.  1.
    10030    2    1    2    0    0  0.00000000000E+00  0.00000000000E+00 -0.93757201068E+03  0.22067554920E+04  0.19976807869E+04 0.  0.
        4    1    3    3  502    0  0.72087454279E+03 -0.67324052157E+03 -0.64263420373E+03  0.11772396693E+04  0.12699999809E+01 0. -1.
       -4    1    3    3    0  502 -0.72087454279E+03  0.67324052157E+03 -0.29493780694E+03  0.10295158227E+04  0.12699999809E+01 0.  1.
</event>
<event>
 5   0  0.1893687E-04  0.2010359E+04  0.7818609E-02  0.8601793E-01
        2   -1    0    0  501    0  0.00000000000E+00  0.00000000000E+00  0.11513817962E+04  0.11513817962E+04  0.25500000920E-02 0. -1.
       -2   -1    0    0    0  501  0.00000000000E+00  0.00000000000E+00 -0.87754230584E+03  0.87754230585E+03  0.25500000920E-02 0.  1.
    10030    2    1    2    0    0  0.00000000000E+00  0.00000000000E+00  0.27383949039E+03  0.20289241021E+04  0.20103594070E+04 0.  0.
        4    1    3    3  502    0 -0.79167472366E+03 -0.59324558019E+03 -0.42756418665E+02  0.99021154847E+03  0.12699999809E+01 0.  1.
       -4    1    3    3    0  502  0.79167472366E+03  0.59324558019E+03  0.31659590906E+03  0.10387125536E+04  0.12699999809E+01 0. -1.
</event>
<event>
 5   0  0.1782172E-04  0.1961810E+04  0.7818609E-02  0.8624687E-01
        2   -1    0    0  501    0  0.00000000000E+00  0.00000000000E+00  0.14944410925E+04  0.14944410925E+04  0.25500000920E-02 0.  1.
       -2   -1    0    0    0  501  0.00000000000E+00  0.00000000000E+00 -0.64383574904E+03  0.64383574905E+03  0.25500000920E-02 0. -1.
    10030    2    1    2    0    0  0.00000000000E+00  0.00000000000E+00  0.85060534345E+03  0.21382768415E+04  0.19618099808E+04 0.  0.
        2    1    3    3  502    0 -0.54904067196E+02 -0.41064984020E+03 -0.54378999214E+03  0.68363389574E+03  0.25500000920E-02 0. -1.
       -2    1    3    3    0  502  0.54904067196E+02  0.41064984020E+03  0.13943953356E+04  0.14546429458E+04  0.25500000920E-02 0.  1.
</event>
<event>
 5   0  0.8958919E-05  0.2009870E+04  0.7818609E-02  0.8602020E-01
       -1   -1    0    0    0  501  0.00000000000E+00  0.00000000000E+00  0.67416455798E+03  0.67416455800E+03  0.50400001928E-02 0.  1.
        1   -1    0    0  501    0  0.00000000000E+00  0.00000000000E+00 -0.14979932453E+04  0.14979932453E+04  0.50400001928E-02 0. -1.
    10030    2    1    2    0    0  0.00000000000E+00  0.00000000000E+00 -0.82382868730E+03  0.21721578033E+04  0.20098696018E+04 0.  0.
        4    1    3    3  502    0  0.55086370630E+03 -0.29125298473E+03 -0.12640006993E+04  0.14092474959E+04  0.12699999809E+01 0. -1.
       -4    1    3    3    0  502 -0.55086370630E+03  0.29125298473E+03  0.44017201200E+03  0.76291030736E+03  0.12699999809E+01 0.  1.
</event>
<event>
 5   0  0.1893687E-04  0.1978383E+04  0.7818609E-02  0.8616795E-01
        2   -1    0    0  501    0  0.00000000000E+00  0.00000000000E+00  0.91987912443E+03  0.91987912443E+03  0.25500000920E-02 0. -1.
       -2   -1    0    0    0  501  0.00000000000E+00  0.00000000000E+00 -0.10637265155E+04  0.10637265155E+04  0.25500000920E-02 0.  1.
    10030    2    1    2    0    0  0.00000000000E+00  0.00000000000E+00 -0.14384739111E+03  0.19836056400E+04  0.19783829920E+04 0.  0.
        4    1    3    3  502    0  0.34850945972E+02 -0.98835365838E+03 -0.92971023480E+02  0.99332913305E+03  0.12699999809E+01 0.  1.
       -4    1    3    3    0  502 -0.34850945972E+02  0.98835365838E+03 -0.50876367632E+02  0.99027650692E+03  0.12699999809E+01 0. -1.
</event>
<event>
 5   0  0.8765057E-05  0.1962563E+04  0.7818609E-02  0.8624327E-01
       -1   -1    0    0    0  501  0.00000000000E+00  0.00000000000E+00  0.62113387330E+03  0.62113387332E+03  0.50400001928E-02 0.  1.
        1   -1    0    0  501    0  0.00000000000E+00  0.00000000000E+00 -0.15502504644E+04  0.15502504644E+04  0.50400001928E-02 0. -1.
    10030    2    1    2    0    0  0.00000000000E+00  0.00000000000E+00 -0.92911659109E+03  0.21713843377E+04  0.19625626875E+04 0.  0.
        3    1    3    3  502    0 -0.81531150056E+03  0.87483040392E+02 -0.10609153599E+04  0.13408682024E+04  0.10100000352E+00 0.  1.
       -3    1    3    3    0  502  0.81531150056E+03 -0.87483040392E+02  0.13179876878E+03  0.83051613528E+03  0.10100000352E+00 0. -1.
</event>
<event>
 5   0  0.1807498E-04  0.2016704E+04  0.7818609E-02  0.8598850E-01
        2   -1    0    0  501    0  0.00000000000E+00  0.00000000000E+00  0.14569036211E+04  0.14569036211E+04  0.25500000920E-02 0. -1.
       -2   -1    0    0    0  501  0.00000000000E+00  0.00000000000E+00 -0.69790080022E+03  0.69790080022E+03  0.25500000920E-02 0.  1.
    10030    2    1    2    0    0  0.00000000000E+00  0.00000000000E+00  0.75900282093E+03  0.21548044214E+04  0.20167044434E+04 0.  0.
        5    1    3    3  502    0  0.70979641672E+03 -0.17629247700E+03 -0.36219640077E+03  0.81614846282E+03  0.46999998093E+01 0.  1.
       -5    1    3    3    0  502 -0.70979641672E+03  0.17629247700E+03  0.11211992217E+04  0.13386559586E+04  0.46999998093E+01 0. -1.
</event>
<event>
 5   0  0.1807498E-04  0.2018303E+04  0.7818609E-02  0.8598111E-01
        2   -1    0    0  501    0  0.00000000000E+00  0.00000000000E+00  0.12591855523E+04  0.12591855523E+04  0.25500000920E-02 0.  1.
       -2   -1    0    0    0  501  0.00000000000E+00  0.00000000000E+00 -0.80876614135E+03  0.80876614135E+03  0.25500000920E-02 0. -1.
    10030    2    1    2    0    0  0.00000000000E+00  0.00000000000E+00  0.45041941097E+03  0.20679516937E+04  0.20183028914E+04 0.  0.
        5    1    3    3  502    0  0.21902955073E+03 -0.64192300038E+03 -0.54038296415E+03  0.86722253226E+03  0.46999998093E+01 0. -1.
       -5    1    3    3    0  502 -0.21902955073E+03  0.64192300038E+03  0.99080237513E+03  0.12007291614E+04  0.46999998093E+01 0.  1.
</event>
<event>
 5   0  0.1834645E-04  0.1517254E+04  0.7818609E-02  0.8873059E-01
        2   -1    0    0  501    0  0.00000000000E+00  0.00000000000E+00  0.46721876139E+03  0.46721876140E+03  0.25500000920E-02 0.  1.
       -2   -1    0    0    0  501  0.00000000000E+00  0.00000000000E+00 -0.12317896238E+04  0.12317896238E+04  0.25500000920E-02 0. -1.
    10030    2    1    2    0    0  0.00000000000E+00  0.00000000000E+00 -0.76457086243E+03  0.16990083852E+04  0.15172543918E+04 0.  0.
        1    1    3    3  502    0  0.13562811385E+03 -0.53073393876E+03 -0.96998041311E+03  0.11139728457E+04  0.50400001928E-02 0. -1.
       -1    1    3    3    0  502 -0.13562811385E+03  0.53073393876E+03  0.20540955068E+03  0.58503553956E+03  0.50400001928E-02 0.  1.
</event>
<event>
 5   0  0.8577422E-05  0.2023521E+04  0.7818609E-02  0.8595702E-01
        1   -1    0    0  501    0  0.00000000000E+00  0.00000000000E+00  0.26994107443E+04  0.26994107443E+04  0.50400001928E-02 0. -1.
       -1   -1    0    0    0  501  0.00000000000E+00  0.00000000000E+00 -0.37921580633E+03  0.37921580636E+03  0.50400001928E-02 0.  1.
    10030    2    1    2    0    0  0.00000000000E+00  0.00000000000E+00  0.23201949380E+04  0.30786265507E+04  0.20235209137E+04 0.  0.
        2    1    3    3  502    0 -0.12273046022E+03  0.95943104737E+03  0.16116507203E+04  0.18796246287E+04  0.25500000920E-02 0. -1.
       -2    1    3    3    0  502  0.12273046022E+03 -0.95943104737E+03  0.70854421766E+03  0.11990019220E+04  0.25500000920E-02 0.  1.
</event>
<event>
 5   0  0.8765057E-05  0.1804446E+04  0.7818609E-02  0.8703939E-01
        1   -1    0    0  501    0  0.00000000000E+00  0.00000000000E+00  0.14830243916E+04  0.14830243916E+04  0.50400001928E-02 0.  1.
       -1   -1    0    0    0  501  0.00000000000E+00  0.00000000000E+00 -0.54888286802E+03  0.54888286804E+03  0.50400001928E-02 0. -1.
    10030    2    1    2    0    0  0.00000000000E+00  0.00000000000E+00  0.93414152357E+03  0.20319072596E+04  0.18044463765E+04 0.  0.
        3    1    3    3  502    0 -0.64153393896E+03  0.34590279988E+03 -0.13174546526E+03  0.74065607378E+03  0.10100000352E+00 0. -1.
       -3    1    3    3    0  502  0.64153393896E+03 -0.34590279988E+03  0.10658869888E+04  0.12912511859E+04  0.10100000352E+00 0.  1.
</event>
<event>
 5   0  0.8765057E-05  0.2120354E+04  0.7818609E-02  0.8552330E-01
        1   -1    0    0  501    0  0.00000000000E+00  0.00000000000E+00  0.12274105061E+04  0.12274105061E+04  0.50400001928E-02 0. -1.
       -1   -1    0    0    0  501  0.00000000000E+00  0.00000000000E+00 -0.91572918902E+03  0.91572918904E+03  0.50400001928E-02 0.  1.
    10030    2    1    2    0    0  0.00000000000E+00  0.00000000000E+00  0.31168131706E+03  0.21431396951E+04  0.21203543358E+04 0.  0.
        3    1    3    3  502    0  0.59029472678E+03 -0.79616779242E+03 -0.22456068954E+03  0.10162472788E+04  0.10100000352E+00 0. -1.
       -3    1    3    3    0  502 -0.59029472678E+03  0.79616779242E+03  0.53624200660E+03  0.11268924163E+04  0.10100000352E+00 0.  1.
</event>
<event>
 5   0  0.1893687E-04  0.2008344E+04  0.7818609E-02  0.8602729E-01
        2   -1    0    0  501    0  0.00000000000E+00  0.00000000000E+00  0.85518589350E+03  0.85518589351E+03  0.25500000920E-02 0.  1.
       -2   -1    0    0    0  501  0.00000000000E+00  0.00000000000E+00 -0.11791140127E+04  0.11791140127E+04  0.25500000920E-02 0. -1.
    10030    2    1    2    0    0  0.00000000000E+00  0.00000000000E+00 -0.32392811923E+03  0.20342999062E+04  0.20083442638E+04 0.  0.
        4    1    3    3  502    0 -0.75762859502E+02  0.14429352046E+03 -0.11656277339E+04  0.11769665492E+04  0.12699999809E+01 0. -1.
       -4    1    3    3    0  502  0.75762859502E+02 -0.14429352046E+03  0.84169961467E+03  0.85733335708E+03  0.12699999809E+01 0.  1.
</event>
<event>
 5   0  0.8881384E-05  0.2015252E+04  0.7818609E-02  0.8599523E-01
       -1   -1    0    0    0  501  0.00000000000E+00  0.00000000000E+00  0.14640045047E+04  0.14640045047E+04  0.50400001928E-02 0.  1.
        1   -1    0    0  501    0  0.00000000000E+00  0.00000000000E+00 -0.69351578635E+03  0.69351578637E+03  0.50400001928E-02 0. -1.
    10030    2    1    2    0    0  0.00000000000E+00  0.00000000000E+00  0.77048871837E+03  0.21575202911E+04  0.20152520789E+04 0.  0.
        5    1    3    3  502    0 -0.79415755275E+03 -0.24814652572E+03 -0.22323203190E+03  0.86146244659E+03  0.46999998093E+01 0. -1.
       -5    1    3    3    0  502  0.79415755275E+03  0.24814652572E+03  0.99372075027E+03  0.12960578445E+04  0.46999998093E+01 0.  1.
</event>
<event>
 5   0  0.8958919E-05  0.1966825E+04  0.7818609E-02  0.8622290E-01
       -1   -1    0    0    0  501  0.00000000000E+00  0.00000000000E+00  0.70536916770E+03  0.70536916772E+03  0.50400001928E-02 0.  1.
        1   -1    0    0  501    0  0.00000000000E+00  0.00000000000E+00 -0.13710553941E+04  0.13710553941E+04  0.50400001928E-02 0. -1.
    10030    2    1    2    0    0  0.00000000000E+00  0.00000000000E+00 -0.66568622639E+03  0.20764245618E+04  0.19668250580E+04 0.  0.
        4    1    3    3  502    0  0.64753507721E+03  0.41274801407E+03 -0.98143584779E+03  0.12461462737E+04  0.12699999809E+01 0. -1.
       -4    1    3    3    0  502 -0.64753507721E+03 -0.41274801407E+03  0.31574962140E+03  0.83027828808E+03  0.12699999809E+01 0.  1.
</event>
<event>
 5   0  0.8577422E-05  0.1989599E+04  0.7818609E-02  0.8611499E-01
       -1   -1    0    0    0  501  0.00000000000E+00  0.00000000000E+00  0.10878800847E+04  0.10878800847E+04  0.50400001928E-02 0.  1.
        1   -1    0    0  501    0  0.00000000000E+00  0.00000000000E+00 -0.90968309321E+03  0.90968309322E+03  0.50400001928E-02 0. -1.
    10030    2    1    2    0    0  0.00000000000E+00  0.00000000000E+00  0.17819699146E+03  0.19975631779E+04  0.19895990757E+04 0.  0.
        2    1    3    3  502    0 -0.82434676903E+03  0.53077874088E+03 -0.79957381499E+02  0.98370058974E+03  0.25500000920E-02 0.  1.
       -2    1    3    3    0  502  0.82434676903E+03 -0.53077874088E+03  0.25815437296E+03  0.10138625882E+04  0.25500000920E-02 0. -1.
</event>
<event>
 5   0  0.1812865E-04  0.2004825E+04  0.7818609E-02  0.8604368E-01
        2   -1    0    0  501    0  0.00000000000E+00  0.00000000000E+00  0.14822171799E+04  0.14822171799E+04  0.25500000920E-02 0.  1.
       -2   -1    0    0    0  501  0.00000000000E+00  0.00000000000E+00 -0.67792426806E+03  0.67792426806E+03  0.25500000920E-02 0. -1.
    10030    2    1    2    0    0  0.00000000000E+00  0.00000000000E+00  0.80429291184E+03  0.21601414480E+04  0.20048251762E+04 0.  0.
        3    1    3    3  502    0 -0.73195426268E+03 -0.62966967503E+02  0.11369700684E+04  0.13536701327E+04  0.10100000352E+00 0.  1.
       -3    1    3    3    0  502  0.73195426268E+03  0.62966967503E+02 -0.33267715651E+03  0.80647131525E+03  0.10100000352E+00 0. -1.
</event>
<event>
 5   0  0.1893687E-04  0.1996901E+04  0.7818609E-02  0.8608071E-01
       -2   -1    0    0    0  501  0.00000000000E+00  0.00000000000E+00  0.70498914330E+03  0.70498914330E+03  0.25500000920E-02 0. -1.
        2   -1    0    0  501    0  0.00000000000E+00  0.00000000000E+00 -0.14140684696E+04  0.14140684696E+04  0.25500000920E-02 0.  1.
    10030    2    1    2    0    0  0.00000000000E+00  0.00000000000E+00 -0.70907932628E+03  0.21190576129E+04  0.19969005172E+04 0.  0.
        4    1    3    3  502    0  0.26335944117E+03  0.52098307861E+03 -0.12141030094E+04  0.13471560020E+04  0.12699999809E+01 0.  1.
       -4    1    3    3    0  502 -0.26335944117E+03 -0.52098307861E+03  0.50502368311E+03  0.77190161086E+03  0.12699999809E+01 0. -1.
</event>
<event>
 5   0  0.1834645E-04  0.1999070E+04  0.7818609E-02  0.8607055E-01
        2   -1    0    0  501    0  0.00000000000E+00  0.00000000000E+00  0.19066073110E+04  0.19066073110E+04  0.25500000920E-02 0.  1.
       -2   -1    0    0    0  501  0.00000000000E+00  0.00000000000E+00 -0.52400438042E+03  0.52400438042E+03  0.25500000920E-02 0. -1.
    10030    2    1    2    0    0  0.00000000000E+00  0.00000000000E+00  0.13826029306E+04  0.24306116914E+04  0.19990703667E+04 0.  0.
        1    1    3    3  502    0 -0.11771312393E+03  0.98850195449E+03  0.80058175076E+03  0.12774676643E+04  0.50400001928E-02 0.  1.
       -1    1    3    3    0  502  0.11771312393E+03 -0.98850195449E+03  0.58202117980E+03  0.11531440271E+04  0.50400001928E-02 0. -1.
</event>
<event>
 5   0  0.1812865E-04  0.2008379E+04  0.7818609E-02  0.8602713E-01
       -2   -1    0    0    0  501  0.00000000000E+00  0.00000000000E+00  0.91876540390E+03  0.91876540390E+03  0.25500000920E-02 0.  1.
        2   -1    0    0  501    0  0.00000000000E+00  0.00000000000E+00 -0.10975563174E+04  0.10975563174E+04  0.25500000920E-02 0. -1.
    10030    2    1    2    0    0  0.00000000000E+00  0.00000000000E+00 -0.17879091351E+03  0.20163217213E+04  0.20083792204E+04 0.  0.
        3    1    3    3  502    0 -0.65006239753E+03 -0.76394744746E+03 -0.13648446237E+03  0.10123363284E+04  0.10100000352E+00 0. -1.
       -3    1    3    3    0  502  0.65006239753E+03  0.76394744746E+03 -0.42306451148E+02  0.10039853929E+04  0.10100000352E+00 0.  1.
</event>
<event>
 5   0  0.8881384E-05  0.2011630E+04  0.7818609E-02  0.8601202E-01
        1   -1    0    0  501    0  0.00000000000E+00  0.00000000000E+00  0.19484193722E+04  0.19484193722E+04  0.50400001928E-02 0.  1.
       -1   -1    0    0    0  501  0.00000000000E+00  0.00000000000E+00 -0.51922302925E+03  0.51922302927E+03  0.50400001928E-02 0. -1.
    10030    2    1    2    0    0  0.00000000000E+00  0.00000000000E+00  0.14291963430E+04  0.24676424015E+04  0.20116303922E+04 0.  0.
        5    1    3    3  502    0 -0.51675117516E+03 -0.67317838111E+03  0.13768291848E+04  0.16173687285E+04  0.46999998093E+01 0.  1.
       -5    1    3    3    0  502  0.51675117516E+03  0.67317838111E+03  0.52367158228E+02  0.85027367305E+03  0.46999998093E+01 0. -1.
</event>
<event>
 5   0  0.8958919E-05  0.1976523E+04  0.7818609E-02  0.8617676E-01
       -1   -1    0    0    0  501  0.00000000000E+00  0.00000000000E+00  0.87474089756E+03  0.87474089757E+03  0.50400001928E-02 0. -1.
        1   -1    0    0  501    0  0.00000000000E+00  0.00000000000E+00 -0.11165146521E+04  0.11165146521E+04  0.50400001928E-02 0.  1.
    10030    2    1    2    0    0  0.00000000000E+00  0.00000000000E+00 -0.24177375457E+03  0.19912555497E+04  0.19765232394E+04 0.  0.
        4    1    3    3  502    0  0.60806515977E+03  0.25069473613E+03 -0.86399463674E+03  0.10858542418E+04  0.12699999809E+01 0.  1.
       -4    1    3    3    0  502 -0.60806515977E+03 -0.25069473613E+03  0.62222088217E+03  0.90540130790E+03  0.12699999809E+01 0. -1.
</event>
<event>
 5   0  0.8881384E-05  0.2046161E+04  0.7818609E-02  0.8585338E-01
        1   -1    0    0  501    0  0.00000000000E+00  0.00000000000E+00  0.84451957444E+03  0.84451957445E+03  0.50400001928E-02 0. -1.
       -1   -1    0    0    0  501  0.00000000000E+00  0.00000000000E+00 -0.12393959418E+04  0.12393959418E+04  0.50400001928E-02 0.  1.
    10030    2    1    2    0    0  0.00000000000E+00  0.00000000000E+00 -0.39487636740E+03  0.20839155163E+04  0.20461614143E+04 0.  0.
        5    1    3    3  502    0  0.49576469126E+03  0.27605860275E+03  0.66955098875E+03  0.87767397010E+03  0.46999998093E+01 0. -1.
       -5    1    3    3    0  502 -0.49576469126E+03 -0.27605860275E+03 -0.10644273562E+04  0.12062415462E+04  0.46999998093E+01 0.  1.
</event>
<event>
 5   0  0.8861350E-05  0.1984872E+04  0.7818609E-02  0.8613726E-01
       -1   -1    0    0    0  501  0.00000000000E+00  0.00000000000E+00  0.72172756531E+03  0.72172756533E+03  0.50400001928E-02 0.  1.
        1   -1    0    0  501    0  0.00000000000E+00  0.00000000000E+00 -0.13646830564E+04  0.13646830564E+04  0.50400001928E-02 0. -1.
    10030    2    1    2    0    0  0.00000000000E+00  0.00000000000E+00 -0.64295549110E+03  0.20864106217E+04  0.19848721669E+04 0.  0.
        1    1    3    3  502    0 -0.16125596516E+03  0.16147075345E+03  0.69377429305E+03  0.73034174209E+03  0.50400001928E-02 0.  1.
       -1    1    3    3    0  502  0.16125596516E+03 -0.16147075345E+03 -0.13367297841E+04  0.13560688797E+04  0.50400001928E-02 0. -1.
</event>
<event>
 5   0  0.1893687E-04  0.2043022E+04  0.7818609E-02  0.8586766E-01
        2   -1    0    0  501    0  0.00000000000E+00  0.00000000000E+00  0.63471949789E+03  0.63471949790E+03  0.25500000920E-02 0.  1.
       -2   -1    0    0    0  501  0.00000000000E+00  0.00000000000E+00 -0.16440092590E+04  0.16440092590E+04  0.25500000920E-02 0. -1.
    10030    2    1    2    0    0  0.00000000000E+00  0.00000000000E+00 -0.10092897611E+04  0.22787287569E+04  0.20430220081E+04 0.  0.
        4    1    3    3  502    0 -0.34773410139E+03 -0.92182860098E+03 -0.20370913652E+03  0.10060745500E+04  0.12699999809E+01 0. -1.
       -4    1    3    3    0  502  0.34773410139E+03  0.92182860098E+03 -0.80558062462E+03  0.12726542070E+04  0.12699999809E+01 0.  1.
</event>
<event>
 5   0  0.1834645E-04  0.1994070E+04  0.7818609E-02  0.8609398E-01
        2   -1    0    0  501    0  0.00000000000E+00  0.00000000000E+00  0.11400989115E+04  0.11400989115E+04  0.25500000920E-02 0.  1.
       -2   -1    0    0    0  501  0.00000000000E+00  0.00000000000E+00 -0.87192333537E+03  0.87192333537E+03  0.25500000920E-02 0. -1.
    10030    2    1    2    0    0  0.00000000000E+00  0.00000000000E+00  0.26817557617E+03  0.20120222469E+04  0.19940700545E+04 0.  0.
        1    1    3    3  502    0  0.77910308617E+03  0.62213616608E+03  0.12916352813E+03  0.10053547857E+04  0.50400001928E-02 0.  1.
       -1    1    3    3    0  502 -0.77910308617E+03 -0.62213616608E+03  0.13901204804E+03  0.10066674613E+04  0.50400001928E-02 0. -1.
</event>
<event>
 5   0  0.1782172E-04  0.2027703E+04  0.7818609E-02  0.8593777E-01
        2   -1    0    0  501    0  0.00000000000E+00  0.00000000000E+00  0.64907746478E+03  0.64907746478E+03  0.25500000920E-02 0.  1.
       -2   -1    0    0    0  501  0.00000000000E+00  0.00000000000E+00 -0.15836249177E+04  0.15836249177E+04  0.25500000920E-02 0. -1.
    10030    2    1    2    0    0  0.00000000000E+00  0.00000000000E+00 -0.93454745289E+03  0.22327023825E+04  0.20277033775E+04 0.  0.
        2    1    3    3  502    0  0.56183119598E+03  0.51115367218E+03  0.27215583253E+03  0.80684643306E+03  0.25500000920E-02 0.  1.
       -2    1    3    3    0  502 -0.56183119598E+03 -0.51115367218E+03 -0.12067032854E+04  0.14258559494E+04  0.25500000920E-02 0. -1.
</event>
<event>
 5   0  0.8765057E-05  0.2003088E+04  0.7818609E-02  0.8605178E-01
        1   -1    0    0  501    0  0.00000000000E+00  0.00000000000E+00  0.70859967630E+03  0.70859967632E+03  0.50400001928E-02 0. -1.
       -1   -1    0    0    0  501  0.00000000000E+00  0.00000000000E+00 -0.14155951478E+04  0.14155951478E+04  0.50400001928E-02 0.  1.
    10030    2    1    2    0    0  0.00000000000E+00  0.00000000000E+00 -0.70699547150E+03  0.21241948241E+04  0.20030878798E+04 0.  0.
        3    1    3    3  502    0  0.39388725577E+03 -0.86147049086E+03 -0.85437710911E+01  0.94728643139E+03  0.10100000352E+00 0. -1.
       -3    1    3    3    0  502 -0.39388725577E+03  0.86147049086E+03 -0.69845170041E+03  0.11769083927E+04  0.10100000352E+00 0.  1.
</event>
<event>
 5   0  0.1812865E-04  0.1971057E+04  0.7818609E-02  0.8620273E-01
        2   -1    0    0  501    0  0.00000000000E+00  0.00000000000E+00  0.13720105111E+04  0.13720105111E+04  0.25500000920E-02 0.  1.
       -2   -1    0    0    0  501  0.00000000000E+00  0.00000000000E+00 -0.70791478253E+03  0.70791478253E+03  0.25500000920E-02 0. -1.
    10030    2    1    2    0    0  0.00000000000E+00  0.00000000000E+00  0.66409572853E+03  0.20799252936E+04  0.19710570997E+04 0.  0.
        3    1    3    3  502    0  0.45930924944E+03 -0.11837336900E+03  0.12436432744E+04  0.13310243594E+04  0.10100000352E+00 0.  1.
       -3    1    3    3    0  502 -0.45930924944E+03  0.11837336900E+03 -0.57954754588E+03  0.74890093420E+03  0.10100000352E+00 0. -1.
</event>
<event>
 5   0  0.1807498E-04  0.2068340E+04  0.7818609E-02  0.8575320E-01
       -2   -1    0    0    0  501  0.00000000000E+00  0.00000000000E+00  0.10427135857E+04  0.10427135858E+04  0.25500000920E-02 0.  1.
        2   -1    0    0  501    0  0.00000000000E+00  0.00000000000E+00 -0.10256963453E+04  0.10256963453E+04  0.25500000920E-02 0. -1.
    10030    2    1    2    0    0  0.00000000000E+00  0.00000000000E+00  0.17017240485E+02  0.20684099310E+04  0.20683399276E+04 0.  0.
        5    1    3    3  502    0 -0.31067819437E+03 -0.60313369022E+03 -0.77202675540E+03  0.10277833380E+04  0.46999998093E+01 0. -1.
       -5    1    3    3    0  502  0.31067819437E+03  0.60313369022E+03  0.78904399589E+03  0.10406265931E+04  0.46999998093E+01 0.  1.
</event>
<event>
 5   0  0.1834645E-04  0.1955634E+04  0.7818609E-02  0.8627649E-01
       -2   -1    0    0    0  501  0.00000000000E+00  0.00000000000E+00  0.76659083941E+03  0.76659083942E+03  0.25500000920E-02 0.  1.
        2   -1    0    0  501    0  0.00000000000E+00  0.00000000000E+00 -0.12472438466E+04  0.12472438466E+04  0.25500000920E-02 0. -1.
    10030    2    1    2    0    0  0.00000000000E+00  0.00000000000E+00 -0.48065300715E+03  0.20138346860E+04  0.19556336132E+04 0.  0.
        1    1    3    3  502    0 -0.91251959706E+03 -0.49403206591E+02 -0.59851899171E+03  0.10924091154E+04  0.50400001928E-02 0. -1.
       -1    1    3    3    0  502  0.91251959706E+03  0.49403206591E+02  0.11786598457E+03  0.92142557062E+03  0.50400001928E-02 0.  1.
</event>
<event>
 5   0  0.8765057E-05  0.1984905E+04  0.7818609E-02  0.8613711E-01
       -1   -1    0    0    0  501  0.00000000000E+00  0.00000000000E+00  0.52457541156E+03  0.52457541159E+03  0.50400001928E-02 0. -1.
        1   -1    0    0  501    0  0.00000000000E+00  0.00000000000E+00 -0.18776371939E+04  0.18776371939E+04  0.50400001928E-02 0.  1.
    10030    2    1    2    0    0  0.00000000000E+00  0.00000000000E+00 -0.13530617824E+04  0.24022126055E+04  0.19849053416E+04 0.  0.
        3    1    3    3  502    0 -0.93546346389E+03 -0.19633084706E+03 -0.35331603606E+03  0.10190534458E+04  0.10100000352E+00 0.  1.
       -3    1    3    3    0  502  0.93546346389E+03  0.19633084706E+03 -0.99974574629E+03  0.13831591597E+04  0.10100000352E+00 0. -1.
</event>
<event>
 5   0  0.8958919E-05  0.1975739E+04  0.7818609E-02  0.8618048E-01
        1   -1    0    0  501    0  0.00000000000E+00  0.00000000000E+00  0.13854985220E+04  0.13854985220E+04  0.50400001928E-02 0. -1.
       -1   -1    0    0    0  501  0.00000000000E+00  0.00000000000E+00 -0.70435745392E+03  0.70435745394E+03  0.50400001928E-02 0.  1.
    10030    2    1    2    0    0  0.00000000000E+00  0.00000000000E+00  0.68114106811E+03  0.20898559760E+04  0.19757390632E+04 0.  0.
        4    1    3    3  502    0 -0.71287863326E+03  0.64797005872E+03  0.10925369525E+03  0.96953552053E+03  0.12699999809E+01 0.  1.
       -4    1    3    3    0  502  0.71287863326E+03 -0.64797005872E+03  0.57188737286E+03  0.11203204554E+04  0.12699999809E+01 0. -1.
</event>
<event>
 5   0  0.8765057E-05  0.2022508E+04  0.7818609E-02  0.8596169E-01
        1   -1    0    0  501    0  0.00000000000E+00  0.00000000000E+00  0.21562894191E+04  0.21562894191E+04  0.50400001928E-02 0.  1.
       -1   -1    0    0    0  501  0.00000000000E+00  0.00000000000E+00 -0.47425684028E+03  0.47425684031E+03  0.50400001928E-02 0. -1.
    10030    2    1    2    0    0  0.00000000000E+00  0.00000000000E+00  0.16820325788E+04  0.26305462594E+04  0.20225083502E+04 0.  0.
        3    1    3    3  502    0 -0.18595944045E+03  0.55147333235E+03 -0.23461107670E+03  0.62749192609E+03  0.10100000352E+00 0. -1.
       -3    1    3    3    0  502  0.18595944045E+03 -0.55147333235E+03  0.19166436555E+04  0.20030543333E+04  0.10100000352E+00 0.  1.
</event>
<event>
 5   0  0.1893687E-04  0.2020036E+04  0.7818609E-02  0.8597310E-01
        2   -1    0    0  501    0  0.00000000000E+00  0.00000000000E+00  0.21264983726E+04  0.21264983726E+04  0.25500000920E-02 0. -1.
       -2   -1    0    0    0  501  0.00000000000E+00  0.00000000000E+00 -0.47972568360E+03  0.47972568360E+03  0.25500000920E-02 0.  1.
    10030    2    1    2    0    0  0.00000000000E+00  0.00000000000E+00  0.16467726890E+04  0.26062240562E+04  0.20200355299E+04 0.  0.
        4    1    3    3  502    0 -0.71025243750E+03  0.59388474881E+03  0.13442396659E+04  0.16322191985E+04  0.12699999809E+01 0.  1.
       -4    1    3    3    0  502  0.71025243750E+03 -0.59388474881E+03  0.30253302316E+03  0.97400485771E+03  0.12699999809E+01 0. -1.
</event>
<event>
 5   0  0.1807498E-04  0.1986159E+04  0.7818609E-02  0.8613119E-01
        2   -1    0    0  501    0  0.00000000000E+00  0.00000000000E+00  0.11921506641E+04  0.11921506641E+04  0.25500000920E-02 0. -1.
       -2   -1    0    0    0  501  0.00000000000E+00  0.00000000000E+00 -0.82725003476E+03  0.82725003477E+03  0.25500000920E-02 0.  1.
    10030    2    1    2    0    0  0.00000000000E+00  0.00000000000E+00  0.36490062932E+03  0.20194006989E+04  0.19861587835E+04 0.  0.
        5    1    3    3  502    0 -0.31696591640E+03  0.17674268642E+03 -0.75740129494E+03  0.83987152645E+03  0.46999998093E+01 0.  1.
       -5    1    3    3    0  502  0.31696591640E+03 -0.17674268642E+03  0.11223019243E+04  0.11795291724E+04  0.46999998093E+01 0. -1.
</event>
<event>
 5   0  0.1782172E-04  0.1984129E+04  0.7818609E-02  0.8614077E-01
       -2   -1    0    0    0  501  0.00000000000E+00  0.00000000000E+00  0.86961142386E+03  0.86961142386E+03  0.25500000920E-02 0.  1.
        2   -1    0    0  501    0  0.00000000000E+00  0.00000000000E+00 -0.11317608930E+04  0.11317608930E+04  0.25500000920E-02 0. -1.
    10030    2    1    2    0    0  0.00000000000E+00  0.00000000000E+00 -0.26214946915E+03  0.20013723169E+04  0.19841292313E+04 0.  0.
        2    1    3    3  502    0 -0.87372703802E+02 -0.57004330935E+03 -0.94531282660E+03  0.11073390195E+04  0.25500000920E-02 0. -1.
       -2    1    3    3    0  502  0.87372703802E+02  0.57004330935E+03  0.68316335745E+03  0.89403329741E+03  0.25500000920E-02 0.  1.
</event>
<event>
 5   0  0.1812865E-04  0.2038358E+04  0.7818609E-02  0.8588894E-01
       -2   -1    0    0    0  501  0.00000000000E+00  0.00000000000E+00  0.12882964923E+04  0.12882964923E+04  0.25500000920E-02 0. -1.
        2   -1    0    0  501    0  0.00000000000E+00  0.00000000000E+00 -0.80627823300E+03  0.80627823301E+03  0.25500000920E-02 0.  1.
    10030    2    1    2    0    0  0.00000000000E+00  0.00000000000E+00  0.48201825927E+03  0.20945747253E+04  0.20383575931E+04 0.  0.
        3    1    3    3  502    0 -0.93193409570E+03 -0.31488175042E+03  0.51495833722E+03  0.11103304800E+04  0.10100000352E+00 0. -1.
       -3    1    3    3    0  502  0.93193409570E+03  0.31488175042E+03 -0.32940077956E+02  0.98424424531E+03  0.10100000352E+00 0.  1.
</event>
<event>
 5   0  0.1782172E-04  0.1610502E+04  0.7818609E-02  0.8814122E-01
       -2   -1    0    0    0  501  0.00000000000E+00  0.00000000000E+00  0.47734014397E+03  0.47734014398E+03  0.25500000920E-02 0.  1.
        2   -1    0    0  501    0  0.00000000000E+00  0.00000000000E+00 -0.13584212546E+04  0.13584212546E+04  0.25500000920E-02 0. -1.
    10030    2    1    2    0    0  0.00000000000E+00  0.00000000000E+00 -0.88108111062E+03  0.18357613986E+04  0.16105017817E+04 0.  0.
        2    1    3    3  502    0  0.38444159403E+03  0.44413944615E+03  0.18729234034E+03  0.61654976084E+03  0.25500000920E-02 0.  1.
       -2    1    3    3    0  502 -0.38444159403E+03 -0.44413944615E+03 -0.10683734510E+04  0.12192116377E+04  0.25500000920E-02 0. -1.
</event>
<event>
 5   0  0.1812865E-04  0.1947875E+04  0.7818609E-02  0.8631386E-01
        2   -1    0    0  501    0  0.00000000000E+00  0.00000000000E+00  0.11092052182E+04  0.11092052182E+04  0.25500000920E-02 0. -1.
       -2   -1    0    0    0  501  0.00000000000E+00  0.00000000000E+00 -0.85516557850E+03  0.85516557850E+03  0.25500000920E-02 0.  1.
    10030    2    1    2    0    0  0.00000000000E+00  0.00000000000E+00  0.25403963974E+03  0.19643707967E+04  0.19478748647E+04 0.  0.
        3    1    3    3  502    0 -0.70341392771E+03 -0.44191751460E+02  0.80488036702E+03  0.10698488118E+04  0.10100000352E+00 0. -1.
       -3    1    3    3    0  502  0.70341392771E+03  0.44191751460E+02 -0.55084072728E+03  0.89452198499E+03  0.10100000352E+00 0.  1.
</event>
<event>
 5   0  0.1812865E-04  0.1994805E+04  0.7818609E-02  0.8609053E-01
        2   -1    0    0  501    0  0.00000000000E+00  0.00000000000E+00  0.25166274396E+04  0.25166274396E+04  0.25500000920E-02 0. -1.
       -2   -1    0    0    0  501  0.00000000000E+00  0.00000000000E+00 -0.39529571942E+03  0.39529571942E+03  0.25500000920E-02 0.  1.
    10030    2    1    2    0    0  0.00000000000E+00  0.00000000000E+00  0.21213317202E+04  0.29119231591E+04  0.19948053081E+04 0.  0.
        3    1    3    3  502    0 -0.12770875124E+03 -0.58639316262E+03  0.22235729663E+04  0.23031376887E+04  0.10100000352E+00 0. -1.
       -3    1    3    3    0  502  0.12770875124E+03  0.58639316262E+03 -0.10224124612E+03  0.60878547035E+03  0.10100000352E+00 0.  1.
</event>
<event>
 5   0  0.1893687E-04  0.1998111E+04  0.7818609E-02  0.8607504E-01
       -2   -1    0    0    0  501  0.00000000000E+00  0.00000000000E+00  0.47596240980E+03  0.47596240981E+03  0.25500000920E-02 0. -1.
        2   -1    0    0  501    0  0.00000000000E+00  0.00000000000E+00 -0.20970397207E+04  0.20970397207E+04  0.25500000920E-02 0.  1.
    10030    2    1    2    0    0  0.00000000000E+00  0.00000000000E+00 -0.16210773109E+04  0.25730021305E+04  0.19981111870E+04 0.  0.
        4    1    3    3  502    0 -0.78914662635E+03 -0.60216631895E+03 -0.95596402196E+03  0.13781239051E+04  0.12699999809E+01 0.  1.
       -4    1    3    3    0  502  0.78914662635E+03  0.60216631895E+03 -0.66511328891E+03  0.11948782254E+04  0.12699999809E+01 0. -1.
</event>
<event>
 5   0  0.8881384E-05  0.1534515E+04  0.7818609E-02  0.8861820E-01
        1   -1    0    0  501    0  0.00000000000E+00  0.00000000000E+00  0.10733561671E+04  0.10733561671E+04  0.50400001928E-02 0. -1.
       -1   -1    0    0    0  501  0.00000000000E+00  0.00000000000E+00 -0.54845180521E+03  0.54845180524E+03  0.50400001928E-02 0.  1.
    10030    2    1    2    0    0  0.00000000000E+00  0.00000000000E+00  0.52490436184E+03  0.16218079723E+04  0.15345150732E+04 0.  0.
        5    1    3    3  502    0 -0.44444217944E+03  0.27678741403E+03  0.85517783850E+03  0.10027419154E+04  0.46999998093E+01 0. -1.
       -5    1    3    3    0  502  0.44444217944E+03 -0.27678741403E+03 -0.33027347666E+03  0.61906605691E+03  0.46999998093E+01 0.  1.
</event>
<event>
 5   0  0.8577422E-05  0.1993844E+04  0.7818609E-02  0.8609504E-01
       -1   -1    0    0    0  501  0.00000000000E+00  0.00000000000E+00  0.54062054168E+03  0.54062054170E+03  0.50400001928E-02 0. -1.
        1   -1    0    0  501    0  0.00000000000E+00  0.00000000000E+00 -0.18383575781E+04  0.18383575781E+04  0.50400001928E-02 0.  1.
    10030    2    1    2    0    0  0.00000000000E+00  0.00000000000E+00 -0.12977370364E+04  0.23789781198E+04  0.19938443968E+04 0.  0.
        2    1    3    3  502    0 -0.36799596009E+03  0.50913140686E+03 -0.15724849066E+04  0.16933235360E+04  0.25500000920E-02 0.  1.
       -2    1    3    3    0  502  0.36799596009E+03 -0.50913140686E+03  0.27474787019E+03  0.68565458379E+03  0.25500000920E-02 0. -1.
</event>
<event>
 5   0  0.8577422E-05  0.1736374E+04  0.7818609E-02  0.8740886E-01
        1   -1    0    0  501    0  0.00000000000E+00  0.00000000000E+00  0.98262570787E+03  0.98262570788E+03  0.50400001928E-02 0.  1.
       -1   -1    0    0    0  501  0.00000000000E+00  0.00000000000E+00 -0.76707627604E+03  0.76707627606E+03  0.50400001928E-02 0. -1.
    10030    2    1    2    0    0  0.00000000000E+00  0.00000000000E+00  0.21554943183E+03  0.17497019839E+04  0.17363742324E+04 0.  0.
        2    1    3    3  502    0 -0.32130277277E+03  0.20852613347E+03  0.89287641687E+03  0.97156930579E+03  0.25500000920E-02 0.  1.
       -2    1    3    3    0  502  0.32130277277E+03 -0.20852613347E+03 -0.67732698505E+03  0.77813267815E+03  0.25500000920E-02 0. -1.
</event>
<event>
 5   0  0.8765057E-05  0.2013314E+04  0.7818609E-02  0.8600421E-01
       -1   -1    0    0    0  501  0.00000000000E+00  0.00000000000E+00  0.72901340035E+03  0.72901340036E+03  0.50400001928E-02 0.  1.
        1   -1    0    0  501    0  0.00000000000E+00  0.00000000000E+00 -0.13900411223E+04  0.13900411224E+04  0.50400001928E-02 0. -1.
    10030    2    1    2    0    0  0.00000000000E+00  0.00000000000E+00 -0.66102772200E+03  0.21190545227E+04  0.20133142877E+04 0.  0.
        3    1    3    3  502    0  0.37543555493E+02 -0.79258117219E+03 -0.98253663226E+03  0.12629222767E+04  0.10100000352E+00 0. -1.
       -3    1    3    3    0  502 -0.37543555493E+02  0.79258117219E+03  0.32150891027E+03  0.85613224601E+03  0.10100000352E+00 0.  1.
</event>
<event>
 5   0  0.1834645E-04  0.2015332E+04  0.7818609E-02  0.8599486E-01
       -2   -1    0    0    0  501  0.00000000000E+00  0.00000000000E+00  0.74255039874E+03  0.74255039874E+03  0.25500000920E-02 0.  1.
        2   -1    0    0  501    0  0.00000000000E+00  0.00000000000E+00 -0.13674372939E+04  0.13674372940E+04  0.25500000920E-02 0. -1.
    10030    2    1    2    0    0  0.00000000000E+00  0.00000000000E+00 -0.62488689521E+03  0.21099876927E+04  0.20153323377E+04 0.  0.
        1    1    3    3  502    0 -0.44533776519E+03  0.67569788051E+03 -0.94105814664E+03  0.12411622723E+04  0.50400001928E-02 0. -1.
       -1    1    3    3    0  502  0.44533776519E+03 -0.67569788051E+03  0.31617125143E+03  0.86882542037E+03  0.50400001928E-02 0.  1.
</event>
<event>
 5   0  0.8765057E-05  0.2008265E+04  0.7818609E-02  0.8602766E-01
       -1   -1    0    0    0  501  0.00000000000E+00  0.00000000000E+00  0.47020063925E+03  0.47020063928E+03  0.50400001928E-02 0. -1.
        1   -1    0    0  501    0  0.00000000000E+00  0.00000000000E+00 -0.21443665703E+04  0.21443665703E+04  0.50400001928E-02 0.  1.
    10030    2    1    2    0    0  0.00000000000E+00  0.00000000000E+00 -0.16741659310E+04  0.26145672096E+04  0.20082654528E+04 0.  0.
        3    1    3    3  502    0  0.38017188064E+03 -0.20284706501E+03  0.34371160408E+03  0.55119440091E+03  0.10100000352E+00 0. -1.
       -3    1    3    3    0  502 -0.38017188064E+03  0.20284706501E+03 -0.20178775351E+04  0.20633728087E+04  0.10100000352E+00 0.  1.
</event>
<event>
 5   0  0.1812865E-04  0.2023524E+04  0.7818609E-02  0.8595701E-01
        2   -1    0    0  501    0  0.00000000000E+00  0.00000000000E+00  0.81507726690E+03  0.81507726690E+03  0.25500000920E-02 0.  1.
       -2   -1    0    0    0  501  0.00000000000E+00  0.00000000000E+00 -0.12559084198E+04  0.12559084199E+04  0.25500000920E-02 0. -1.
    10030    2    1    2    0    0  0.00000000000E+00  0.00000000000E+00 -0.44083115295E+03  0.20709856868E+04  0.20235240570E+04 0.  0.
        3    1    3    3  502    0  0.28622692381E+03  0.10954036222E+03  0.76642929307E+03  0.82543250138E+03  0.10100000352E+00 0.  1.
       -3    1    3    3    0  502 -0.28622692381E+03 -0.10954036222E+03 -0.12072604460E+04  0.12455531854E+04  0.10100000352E+00 0. -1.
</event>
<event>
 5   0  0.8861350E-05  0.2001289E+04  0.7818609E-02  0.8606018E-01
        1   -1    0    0  501    0  0.00000000000E+00  0.00000000000E+00  0.17112376577E+04  0.17112376578E+04  0.50400001928E-02 0. -1.
       -1   -1    0    0    0  501  0.00000000000E+00  0.00000000000E+00 -0.58512562814E+03  0.58512562816E+03  0.50400001928E-02 0.  1.
    10030    2    1    2    0    0  0.00000000000E+00  0.00000000000E+00  0.11261120296E+04  0.22963632859E+04  0.20012885943E+04 0.  0.
        1    1    3    3  502    0  0.29252152436E+03  0.89369395225E+03  0.17051787071E+03  0.95568512951E+03  0.50400001928E-02 0.  1.
       -1    1    3    3    0  502 -0.29252152436E+03 -0.89369395225E+03  0.95559415889E+03  0.13406781564E+04  0.50400001928E-02 0. -1.
</event>
<event>
 5   0  0.1893687E-04  0.1918202E+04  0.7818609E-02  0.8645849E-01
        2   -1    0    0  501    0  0.00000000000E+00  0.00000000000E+00  0.14907327009E+04  0.14907327009E+04  0.25500000920E-02 0.  1.
       -2   -1    0    0    0  501  0.00000000000E+00  0.00000000000E+00 -0.61706224274E+03  0.61706224275E+03  0.25500000920E-02 0. -1.
    10030    2    1    2    0    0  0.00000000000E+00  0.00000000000E+00  0.87367045817E+03  0.21077949437E+04  0.19182021413E+04 0.  0.
        4    1    3    3  502    0 -0.73717038259E+03  0.51154397941E+03  0.80910623896E+03  0.12082019428E+04  0.12699999809E+01 0.  1.
       -4    1    3    3    0  502  0.73717038259E+03 -0.51154397941E+03  0.64564219205E+02  0.89959300083E+03  0.12699999809E+01 0. -1.
</event>
<event>
 5   0  0.1893687E-04  0.1999633E+04  0.7818609E-02  0.8606792E-01
       -2   -1    0    0    0  501  0.00000000000E+00  0.00000000000E+00  0.82294360117E+03  0.82294360117E+03  0.25500000920E-02 0. -1.
        2   -1    0    0  501    0  0.00000000000E+00  0.00000000000E+00 -0.12147036708E+04  0.12147036708E+04  0.25500000920E-02 0.  1.
    10030    2    1    2    0    0  0.00000000000E+00  0.00000000000E+00 -0.39176006967E+03  0.20376472720E+04  0.19996325795E+04 0.  0.
        4    1    3    3  502    0  0.17627638035E+03  0.91704768123E+03 -0.55985551283E+03  0.10888019196E+04  0.12699999809E+01 0.  1.
       -4    1    3    3    0  502 -0.17627638035E+03 -0.91704768123E+03  0.16809544316E+03  0.94884535243E+03  0.12699999809E+01 0. -1.
</event>
<event>
 5   0  0.8881384E-05  0.1908296E+04  0.7818609E-02  0.8650738E-01
       -1   -1    0    0    0  501  0.00000000000E+00  0.00000000000E+00  0.11471203861E+04  0.11471203861E+04  0.50400001928E-02 0. -1.
        1   -1    0    0  501    0  0.00000000000E+00  0.00000000000E+00 -0.79363804238E+03  0.79363804239E+03  0.50400001928E-02 0.  1.
    10030    2    1    2    0    0  0.00000000000E+00  0.00000000000E+00  0.35348234374E+03  0.19407584285E+04  0.19082959704E+04 0.  0.
        5    1    3    3  502    0  0.53896131404E+03  0.61962857090E+03 -0.31727659773E+03  0.88040070046E+03  0.46999998093E+01 0.  1.
       -5    1    3    3    0  502 -0.53896131404E+03 -0.61962857090E+03  0.67075894146E+03  0.10603577281E+04  0.46999998093E+01 0. -1.
</event>
<event>
 5   0  0.8765057E-05  0.1986206E+04  0.7818609E-02  0.8613097E-01
        1   -1    0    0  501    0  0.00000000000E+00  0.00000000000E+00  0.91138231053E+03  0.91138231055E+03  0.50400001928E-02 0. -1.
       -1   -1    0    0    0  501  0.00000000000E+00  0.00000000000E+00 -0.10821515376E+04  0.10821515376E+04  0.50400001928E-02 0.  1.
    10030    2    1    2    0    0  0.00000000000E+00  0.00000000000E+00 -0.17076922706E+03  0.19935338481E+04  0.19862062015E+04 0.  0.
        3    1    3    3  502    0  0.44645519629E+03  0.79019532369E+03  0.31924393149E+03  0.96210581012E+03  0.10100000352E+00 0. -1.
       -3    1    3    3    0  502 -0.44645519629E+03 -0.79019532369E+03 -0.49001315854E+03  0.10314280380E+04  0.10100000352E+00 0.  1.
</event>
<event>
 5   0  0.8577422E-05  0.1994837E+04  0.7818609E-02  0.8609038E-01
       -1   -1    0    0    0  501  0.00000000000E+00  0.00000000000E+00  0.18695190783E+04  0.18695190783E+04  0.50400001928E-02 0. -1.
        1   -1    0    0  501    0  0.00000000000E+00  0.00000000000E+00 -0.53213872860E+03  0.53213872863E+03  0.50400001928E-02 0.  1.
    10030    2    1    2    0    0  0.00000000000E+00  0.00000000000E+00  0.13373803497E+04  0.24016578069E+04  0.19948368409E+04 0.  0.
        2    1    3    3  502    0  0.14816217486E+03 -0.48132346464E+03 -0.36782837237E+03  0.62363612724E+03  0.25500000920E-02 0.  1.
       -2    1    3    3    0  502 -0.14816217486E+03  0.48132346464E+03  0.17052087220E+04  0.17780216797E+04  0.25500000920E-02 0. -1.
</event>
<event>
 5   0  0.1893687E-04  0.2021662E+04  0.7818609E-02  0.8596560E-01
       -2   -1    0    0    0  501  0.00000000000E+00  0.00000000000E+00  0.62280502082E+03  0.62280502083E+03  0.25500000920E-02 0.  1.
        2   -1    0    0  501    0  0.00000000000E+00  0.00000000000E+00 -0.16406078571E+04  0.16406078571E+04  0.25500000920E-02 0. -1.
    10030    2    1    2    0    0  0.00000000000E+00  0.00000000000E+00 -0.10178028363E+04  0.22634128779E+04  0.20216615054E+04 0.  0.
        4    1    3    3  502    0  0.76601176994E+03 -0.14934795004E+03  0.21033506721E+03  0.80828293021E+03  0.12699999809E+01 0.  1.
       -4    1    3    3    0  502 -0.76601176994E+03  0.14934795004E+03 -0.12281379035E+04  0.14551299477E+04  0.12699999809E+01 0. -1.
</event>
<event>
 5   0  0.8765057E-05  0.1998109E+04  0.7818609E-02  0.8607505E-01
       -1   -1    0    0    0  501  0.00000000000E+00  0.00000000000E+00  0.41863108830E+03  0.41863108833E+03  0.50400001928E-02 0. -1.
        1   -1    0    0  501    0  0.00000000000E+00  0.00000000000E+00 -0.23842219341E+04  0.23842219341E+04  0.50400001928E-02 0.  1.
    10030    2    1    2    0    0  0.00000000000E+00  0.00000000000E+00 -0.19655908458E+04  0.28028530224E+04  0.19981085287E+04 0.  0.
        3    1    3    3  502    0 -0.30139185865E+03  0.90017166799E+03 -0.14195978157E+04  0.17077482405E+04  0.10100000352E+00 0. -1.
       -3    1    3    3    0  502  0.30139185865E+03 -0.90017166799E+03 -0.54599303004E+03  0.10951047819E+04  0.10100000352E+00 0.  1.
</event>
<event>
 5   0  0.1782172E-04  0.2068373E+04  0.7818609E-02  0.8575305E-01
       -2   -1    0    0    0  501  0.00000000000E+00  0.00000000000E+00  0.97130874877E+03  0.97130874877E+03  0.25500000920E-02 0.  1.
        2   -1    0    0  501    0  0.00000000000E+00  0.00000000000E+00 -0.11011345464E+04  0.11011345464E+04  0.25500000920E-02 0. -1.
    10030    2    1    2    0    0  0.00000000000E+00  0.00000000000E+00 -0.12982579759E+03  0.20724432951E+04  0.20683729049E+04 0.  0.
        2    1    3    3  502    0  0.32312089413E+03 -0.12420983903E+03 -0.10413595131E+04  0.10973900090E+04  0.25500000920E-02 0. -1.
       -2    1    3    3    0  502 -0.32312089413E+03  0.12420983903E+03  0.91153371549E+03  0.97505328615E+03  0.25500000920E-02 0.  1.
</event>
<event>
 5   0  0.1893687E-04  0.1999086E+04  0.7818609E-02  0.8607048E-01
        2   -1    0    0  501    0  0.00000000000E+00  0.00000000000E+00  0.17425008167E+04  0.17425008167E+04  0.25500000920E-02 0. -1.
       -2   -1    0    0    0  501  0.00000000000E+00  0.00000000000E+00 -0.57336316049E+03  0.57336316049E+03  0.25500000920E-02 0.  1.
    10030    2    1    2    0    0  0.00000000000E+00  0.00000000000E+00  0.11691376562E+04  0.23158639772E+04  0.19990855664E+04 0.  0.
        4    1    3    3  502    0 -0.33653082700E+03  0.65503223870E+03 -0.19836951960E+03  0.76267444592E+03  0.12699999809E+01 0.  1.
       -4    1    3    3    0  502  0.33653082700E+03 -0.65503223870E+03  0.13675071758E+04  0.15531895313E+04  0.12699999809E+01 0. -1.
</event>
<event>
 5   0  0.8881384E-05  0.1981273E+04  0.7818609E-02  0.8615427E-01
       -1   -1    0    0    0  501  0.00000000000E+00  0.00000000000E+00  0.16979429534E+04  0.16979429534E+04  0.50400001928E-02 0. -1.
        1   -1    0    0  501    0  0.00000000000E+00  0.00000000000E+00 -0.57797034460E+03  0.57797034462E+03  0.50400001928E-02 0.  1.
    10030    2    1    2    0    0  0.00000000000E+00  0.00000000000E+00  0.11199726088E+04  0.22759132981E+04  0.19812729988E+04 0.  0.
        5    1    3    3  502    0  0.68760605590E+03 -0.10847374135E+03 -0.24964827414E+03  0.73953701155E+03  0.46999998093E+01 0.  1.
       -5    1    3    3    0  502 -0.68760605590E+03  0.10847374135E+03  0.13696208830E+04  0.15363762865E+04  0.46999998093E+01 0. -1.
</event>
<event>
 5   0  0.8577422E-05  0.1991950E+04  0.7818609E-02  0.8610393E-01
       -1   -1    0    0    0  501  0.00000000000E+00  0.00000000000E+00  0.56349776015E+03  0.56349776017E+03  0.50400001928E-02 0. -1.
        1   -1    0    0  501    0  0.00000000000E+00  0.00000000000E+00 -0.17603734196E+04  0.17603734196E+04  0.50400001928E-02 0.  1.
    10030    2    1    2    0    0  0.00000000000E+00  0.00000000000E+00 -0.11968756594E+04  0.23238711797E+04  0.19919502795E+04 0.  0.
        2    1    3    3  502    0 -0.94362360465E+03 -0.16191340670E+03 -0.91862445378E+03  0.13268429996E+04  0.25500000920E-02 0. -1.
       -2    1    3    3    0  502  0.94362360465E+03  0.16191340670E+03 -0.27825120563E+03  0.99702818013E+03  0.25500000920E-02 0.  1.
</event>
<event>
 5   0  0.1782172E-04  0.1969496E+04  0.7818609E-02  0.8621017E-01
       -2   -1    0    0    0  501  0.00000000000E+00  0.00000000000E+00  0.10690451507E+04  0.10690451507E+04  0.25500000920E-02 0. -1.
        2   -1    0    0  501    0  0.00000000000E+00  0.00000000000E+00 -0.90709796852E+03  0.90709796853E+03  0.25500000920E-02 0.  1.
    10030    2    1    2    0    0  0.00000000000E+00  0.00000000000E+00  0.16194718218E+03  0.19761431192E+04  0.19694960619E+04 0.  0.
        2    1    3    3  502    0  0.11269204935E+01 -0.35835400455E+03 -0.83935148910E+03  0.91264986977E+03  0.25500000920E-02 0.  1.
       -2    1    3    3    0  502 -0.11269204935E+01  0.35835400455E+03  0.10012986713E+04  0.10634932495E+04  0.25500000920E-02 0. -1.
</event>
<event>
 5   0  0.1812865E-04  0.2058852E+04  0.7818609E-02  0.8579589E-01
        2   -1    0    0  501    0  0.00000000000E+00  0.00000000000E+00  0.15748696194E+04  0.15748696194E+04  0.25500000920E-02 0.  1.
       -2   -1    0    0    0  501  0.00000000000E+00  0.00000000000E+00 -0.67289263032E+03  0.67289263033E+03  0.25500000920E-02 0. -1.
    10030    2    1    2    0    0  0.00000000000E+00  0.00000000000E+00  0.90197698908E+03  0.22477622497E+04  0.20588522634E+04 0.  0.
        3    1    3    3  502    0  0.75588390237E+03  0.55198940773E+03  0.91887317787E+03  0.13116328401E+04  0.10100000352E+00 0.  1.
       -3    1    3    3    0  502 -0.75588390237E+03 -0.55198940773E+03 -0.16896188794E+02  0.93612940959E+03  0.10100000352E+00 0. -1.
</event>
<event>
 5   0  0.1807498E-04  0.2030605E+04  0.7818609E-02  0.8592444E-01
       -2   -1    0    0    0  501  0.00000000000E+00  0.00000000000E+00  0.66954852169E+03  0.66954852169E+03  0.25500000920E-02 0. -1.
        2   -1    0    0  501    0  0.00000000000E+00  0.00000000000E+00 -0.15396036855E+04  0.15396036855E+04  0.25500000920E-02 0.  1.
    10030    2    1    2    0    0  0.00000000000E+00  0.00000000000E+00 -0.87005516385E+03  0.22091522072E+04  0.20306052020E+04 0.  0.
        5    1    3    3  502    0 -0.64114461978E+03 -0.20163494988E+03 -0.12629216183E+04  0.14306348872E+04  0.46999998093E+01 0. -1.
       -5    1    3    3    0  502  0.64114461978E+03  0.20163494988E+03  0.39286645448E+03  0.77851732001E+03  0.46999998093E+01 0.  1.
</event>
<event>
 5   0  0.8577422E-05  0.1987793E+04  0.7818609E-02  0.8612349E-01
        1   -1    0    0  501    0  0.00000000000E+00  0.00000000000E+00  0.63498016830E+03  0.63498016832E+03  0.50400001928E-02 0.  1.
       -1   -1    0    0    0  501  0.00000000000E+00  0.00000000000E+00 -0.15556860124E+04  0.15556860124E+04  0.50400001928E-02 0. -1.
    10030    2    1    2    0    0  0.00000000000E+00  0.00000000000E+00 -0.92070584408E+03  0.21906661807E+04  0.19877925103E+04 0.  0.
        2    1    3    3  502    0  0.92645177278E+03 -0.35396612407E+03 -0.38872020852E+03  0.10652268795E+04  0.25500000920E-02 0. -1.
       -2    1    3    3    0  502 -0.92645177278E+03  0.35396612407E+03 -0.53198563556E+03  0.11254393012E+04  0.25500000920E-02 0.  1.
</event>
<event>
 5   0  0.1782172E-04  0.1999573E+04  0.7818609E-02  0.8606820E-01
       -2   -1    0    0    0  501  0.00000000000E+00  0.00000000000E+00  0.10120099305E+04  0.10120099305E+04  0.25500000920E-02 0. -1.
        2   -1    0    0  501    0  0.00000000000E+00  0.00000000000E+00 -0.98771091363E+03  0.98771091364E+03  0.25500000920E-02 0.  1.
    10030    2    1    2    0    0  0.00000000000E+00  0.00000000000E+00  0.24299016880E+02  0.19997208442E+04  0.19995732075E+04 0.  0.
        2    1    3    3  502    0 -0.25006557150E+03  0.56277021736E+03 -0.77551904612E+03  0.99028930041E+03  0.25500000920E-02 0.  1.
       -2    1    3    3    0  502  0.25006557150E+03 -0.56277021736E+03  0.79981806300E+03  0.10094315437E+04  0.25500000920E-02 0. -1.
</event>
<event>
 5   0  0.8577422E-05  0.2015822E+04  0.7818609E-02  0.8599259E-01
        1   -1    0    0  501    0  0.00000000000E+00  0.00000000000E+00  0.11198561507E+04  0.11198561508E+04  0.50400001928E-02 0. -1.
       -1   -1    0    0    0  501  0.00000000000E+00  0.00000000000E+00 -0.90715604564E+03  0.90715604565E+03  0.50400001928E-02 0.  1.
    10030    2    1    2    0    0  0.00000000000E+00  0.00000000000E+00  0.21270010510E+03  0.20270121964E+04  0.20158216959E+04 0.  0.
        2    1    3    3  502    0  0.73385323465E+03 -0.59115973516E+03  0.46592974742E+03  0.10512378095E+04  0.25500000920E-02 0.  1.
       -2    1    3    3    0  502 -0.73385323465E+03  0.59115973516E+03 -0.25322964232E+03  0.97577438695E+03  0.25500000920E-02 0. -1.
</event>
<event>
 5   0  0.1807498E-04  0.1997059E+04  0.7818609E-02  0.8607997E-01
       -2   -1    0    0    0  501  0.00000000000E+00  0.00000000000E+00  0.44950846677E+03  0.44950846678E+03  0.25500000920E-02 0. -1.
        2   -1    0    0  501    0  0.00000000000E+00  0.00000000000E+00 -0.22181143035E+04  0.22181143035E+04  0.25500000920E-02 0.  1.
    10030    2    1    2    0    0  0.00000000000E+00  0.00000000000E+00 -0.17686058367E+04  0.26676227703E+04  0.19970589973E+04 0.  0.
        5    1    3    3  502    0  0.20630473831E+02  0.82805603264E+03 -0.13945178074E+03  0.83998291577E+03  0.46999998093E+01 0. -1.
       -5    1    3    3    0  502 -0.20630473831E+02 -0.82805603264E+03 -0.16291540560E+04  0.18276398545E+04  0.46999998093E+01 0.  1.
</event>
<event>
 5   0  0.8861350E-05  0.1734267E+04  0.7818609E-02  0.8742059E-01
        1   -1    0    0  501    0  0.00000000000E+00  0.00000000000E+00  0.80359779104E+03  0.80359779106E+03  0.50400001928E-02 0.  1.
       -1   -1    0    0    0  501  0.00000000000E+00  0.00000000000E+00 -0.93569215315E+03  0.93569215317E+03  0.50400001928E-02 0. -1.
    10030    2    1    2    0    0  0.00000000000E+00  0.00000000000E+00 -0.13209436211E+03  0.17392899442E+04  0.17342665855E+04 0.  0.
        1    1    3    3  502    0 -0.14291487863E+03  0.43249800549E+03  0.67395248736E+03  0.81344400086E+03  0.50400001928E-02 0.  1.
       -1    1    3    3    0  502  0.14291487863E+03 -0.43249800549E+03 -0.80604684947E+03  0.92584594337E+03  0.50400001928E-02 0. -1.
</event>
<event>
 5   0  0.8577422E-05  0.1923431E+04  0.7818609E-02  0.8643280E-01
        1   -1    0    0  501    0  0.00000000000E+00  0.00000000000E+00  0.77964435945E+03  0.77964435946E+03  0.50400001928E-02 0. -1.
       -1   -1    0    0    0  501  0.00000000000E+00  0.00000000000E+00 -0.11863062354E+04  0.11863062354E+04  0.50400001928E-02 0.  1.
    10030    2    1    2    0    0  0.00000000000E+00  0.00000000000E+00 -0.40666187596E+03  0.19659505949E+04  0.19234312725E+04 0.  0.
        2    1    3    3  502    0 -0.46876530088E+03 -0.66622650326E+03 -0.72580438325E+03  0.10910502572E+04  0.25500000920E-02 0.  1.
       -2    1    3    3    0  502  0.46876530088E+03  0.66622650326E+03  0.31914250729E+03  0.87490033770E+03  0.25500000920E-02 0. -1.
</event>
<event>
 5   0  0.8861350E-05  0.2026914E+04  0.7818609E-02  0.8594140E-01
        1   -1    0    0  501    0  0.00000000000E+00  0.00000000000E+00  0.10865371120E+04  0.10865371120E+04  0.50400001928E-02 0.  1.
       -1   -1    0    0    0  501  0.00000000000E+00  0.00000000000E+00 -0.94529189422E+03  0.94529189424E+03  0.50400001928E-02 0. -1.
    10030    2    1    2    0    0  0.00000000000E+00  0.00000000000E+00  0.14124521773E+03  0.20318290062E+04  0.20269136387E+04 0.  0.
        1    1    3    3  502    0 -0.20458375824E+03 -0.86997809703E+03  0.54967095938E+03  0.10492161679E+04  0.50400001928E-02 0.  1.
       -1    1    3    3    0  502  0.20458375824E+03  0.86997809703E+03 -0.40842574165E+03  0.98261283827E+03  0.50400001928E-02 0. -1.
</event>
<event>
 5   0  0.1807498E-04  0.2013405E+04  0.7818609E-02  0.8600379E-01
       -2   -1    0    0    0  501  0.00000000000E+00  0.00000000000E+00  0.84294608976E+03  0.84294608976E+03  0.25500000920E-02 0. -1.
        2   -1    0    0  501    0  0.00000000000E+00  0.00000000000E+00 -0.12022712460E+04  0.12022712460E+04  0.25500000920E-02 0.  1.
    10030    2    1    2    0    0  0.00000000000E+00  0.00000000000E+00 -0.35932515624E+03  0.20452173358E+04  0.20134049227E+04 0.  0.
        5    1    3    3  502    0  0.86473514904E+03 -0.35902583314E+02  0.34263254496E+03  0.93084640212E+03  0.46999998093E+01 0. -1.
       -5    1    3    3    0  502 -0.86473514904E+03  0.35902583314E+02 -0.70195770120E+03  0.11143709336E+04  0.46999998093E+01 0.  1.
</event>
<event>
 5   0  0.8881384E-05  0.1992172E+04  0.7818609E-02  0.8610289E-01
        1   -1    0    0  501    0  0.00000000000E+00  0.00000000000E+00  0.86817109473E+03  0.86817109475E+03  0.50400001928E-02 0. -1.
       -1   -1    0    0    0  501  0.00000000000E+00  0.00000000000E+00 -0.11428480174E+04  0.11428480174E+04  0.50400001928E-02 0.  1.
    10030    2    1    2    0    0  0.00000000000E+00  0.00000000000E+00 -0.27467692266E+03  0.20110191121E+04  0.19921722962E+04 0.  0.
        5    1    3    3  502    0 -0.18145139555E+03  0.88473497626E+03  0.28673698132E+03  0.94758681588E+03  0.46999998093E+01 0. -1.
       -5    1    3    3    0  502  0.18145139555E+03 -0.88473497626E+03 -0.56141390398E+03  0.10634322963E+04  0.46999998093E+01 0.  1.
</event>
<event>
 5   0  0.8765057E-05  0.1986445E+04  0.7818609E-02  0.8612984E-01
        1   -1    0    0  501    0  0.00000000000E+00  0.00000000000E+00  0.11563705629E+04  0.11563705629E+04  0.50400001928E-02 0.  1.
       -1   -1    0    0    0  501  0.00000000000E+00  0.00000000000E+00 -0.85309266129E+03  0.85309266131E+03  0.50400001928E-02 0. -1.
    10030    2    1    2    0    0  0.00000000000E+00  0.00000000000E+00  0.30327790164E+03  0.20094632242E+04  0.19864453086E+04 0.  0.
        3    1    3    3  502    0  0.73993734104E+03  0.25299647327E+03  0.77108803955E+03  0.10982218624E+04  0.10100000352E+00 0.  1.
       -3    1    3    3    0  502 -0.73993734104E+03 -0.25299647327E+03 -0.46781013792E+03  0.91124136182E+03  0.10100000352E+00 0. -1.
</event>
<event>
 5   0  0.1834645E-04  0.2001010E+04  0.7818609E-02  0.8606148E-01
       -2   -1    0    0    0  501  0.00000000000E+00  0.00000000000E+00  0.46396654645E+03  0.46396654645E+03  0.25500000920E-02 0. -1.
        2   -1    0    0  501    0  0.00000000000E+00  0.00000000000E+00 -0.21575057286E+04  0.21575057286E+04  0.25500000920E-02 0.  1.
    10030    2    1    2    0    0  0.00000000000E+00  0.00000000000E+00 -0.16935391821E+04  0.26214722750E+04  0.20010102267E+04 0.  0.
        1    1    3    3  502    0 -0.48557567534E+03 -0.40818897775E+03 -0.18603714579E+04  0.19655492717E+04  0.50400001928E-02 0.  1.
       -1    1    3    3    0  502  0.48557567534E+03  0.40818897775E+03  0.16683227577E+03  0.65592300334E+03  0.50400001928E-02 0. -1.
</event>
<event>
 5   0  0.8765057E-05  0.1956270E+04  0.7818609E-02  0.8627343E-01
       -1   -1    0    0    0  501  0.00000000000E+00  0.00000000000E+00  0.44471716176E+03  0.44471716179E+03  0.50400001928E-02 0. -1.
        1   -1    0    0  501    0  0.00000000000E+00  0.00000000000E+00 -0.21513623466E+04  0.21513623466E+04  0.50400001928E-02 0.  1.
    10030    2    1    2    0    0  0.00000000000E+00  0.00000000000E+00 -0.17066451849E+04  0.25960795084E+04  0.19562696713E+04 0.  0.
        3    1    3    3  502    0  0.65362389189E+03 -0.67542029721E+03 -0.12126852959E+04  0.15342823752E+04  0.10100000352E+00 0.  1.
       -3    1    3    3    0  502 -0.65362389189E+03  0.67542029721E+03 -0.49395988903E+03  0.10617971332E+04  0.10100000352E+00 0. -1.
</event>
<event>
 5   0  0.1812865E-04  0.1995914E+04  0.7818609E-02  0.8608533E-01
        2   -1    0    0  501    0  0.00000000000E+00  0.00000000000E+00  0.17479326968E+04  0.17479326968E+04  0.25500000920E-02 0.  1.
       -2   -1    0    0    0  501  0.00000000000E+00  0.00000000000E+00 -0.56976935227E+03  0.56976935228E+03  0.25500000920E-02 0. -1.
    10030    2    1    2    0    0  0.00000000000E+00  0.00000000000E+00  0.11781633445E+04  0.23177020491E+04  0.19959143073E+04 0.  0.
        3    1    3    3  502    0  0.64726794250E+03 -0.44053661740E+03 -0.12946142487E+03  0.79359219464E+03  0.10100000352E+00 0. -1.
       -3    1    3    3    0  502 -0.64726794250E+03  0.44053661740E+03  0.13076247694E+04  0.15241098544E+04  0.10100000352E+00 0.  1.
</event>
<event>
 5   0  0.8861350E-05  0.1580662E+04  0.7818609E-02  0.8832517E-01
       -1   -1    0    0    0  501  0.00000000000E+00  0.00000000000E+00  0.36351048119E+03  0.36351048122E+03  0.50400001928E-02 0.  1.
        1   -1    0    0  501    0  0.00000000000E+00  0.00000000000E+00 -0.17183074451E+04  0.17183074451E+04  0.50400001928E-02 0. -1.
    10030    2    1    2    0    0  0.00000000000E+00  0.00000000000E+00 -0.13547969639E+04  0.20818179263E+04  0.15806615909E+04 0.  0.
        1    1    3    3  502    0 -0.45648208330E+03 -0.29257778859E+03 -0.14347280212E+04  0.15337607863E+04  0.50400001928E-02 0. -1.
       -1    1    3    3    0  502  0.45648208330E+03  0.29257778859E+03  0.79931057319E+02  0.54805714000E+03  0.50400001928E-02 0.  1.
</event>
<event>
 5   0  0.8861350E-05  0.1863713E+04  0.7818609E-02  0.8673133E-01
        1   -1    0    0  501    0  0.00000000000E+00  0.00000000000E+00  0.21778590595E+04  0.21778590595E+04  0.50400001928E-02 0. -1.
       -1   -1    0    0    0  501  0.00000000000E+00  0.00000000000E+00 -0.39872016906E+03  0.39872016910E+03  0.50400001928E-02 0.  1.
    10030    2    1    2    0    0  0.00000000000E+00  0.00000000000E+00  0.17791388904E+04  0.25765792286E+04  0.18637127809E+04 0.  0.
        1    1    3    3  502    0 -0.66573465170E+03 -0.64605519020E+03  0.76773381469E+03  0.12041615944E+04  0.50400001928E-02 0.  1.
       -1    1    3    3    0  502  0.66573465170E+03  0.64605519020E+03  0.10114050757E+04  0.13724176341E+04  0.50400001928E-02 0. -1.
</event>
<event>
 5   0  0.1834645E-04  0.1929510E+04  0.7818609E-02  0.8640305E-01
       -2   -1    0    0    0  501  0.00000000000E+00  0.00000000000E+00  0.85218968743E+03  0.85218968743E+03  0.25500000920E-02 0. -1.
        2   -1    0    0  501    0  0.00000000000E+00  0.00000000000E+00 -0.10921887887E+04  0.10921887887E+04  0.25500000920E-02 0.  1.
    10030    2    1    2    0    0  0.00000000000E+00  0.00000000000E+00 -0.23999910124E+03  0.19443784761E+04  0.19295098056E+04 0.  0.
        1    1    3    3  502    0  0.40007476795E+03  0.21452009093E+03  0.73783780657E+03  0.86630440274E+03  0.50400001928E-02 0. -1.
       -1    1    3    3    0  502 -0.40007476795E+03 -0.21452009093E+03 -0.97783690781E+03  0.10780740734E+04  0.50400001928E-02 0.  1.
</event>
<event>
 5   0  0.8765057E-05  0.2011405E+04  0.7818609E-02  0.8601307E-01
        1   -1    0    0  501    0  0.00000000000E+00  0.00000000000E+00  0.17709069292E+04  0.17709069292E+04  0.50400001928E-02 0.  1.
       -1   -1    0    0    0  501  0.00000000000E+00  0.00000000000E+00 -0.57114105169E+03  0.57114105171E+03  0.50400001928E-02 0. -1.
    10030    2    1    2    0    0  0.00000000000E+00  0.00000000000E+00  0.11997658776E+04  0.23420479810E+04  0.20114051268E+04 0.  0.
        3    1    3    3  502    0  0.47331881971E+03  0.46330838135E+03  0.14810934049E+04  0.16224435416E+04  0.10100000352E+00 0.  1.
       -3    1    3    3    0  502 -0.47331881971E+03 -0.46330838135E+03 -0.28132752737E+03  0.71960443938E+03  0.10100000352E+00 0. -1.
</event>
<event>
 5   0  0.8861350E-05  0.1999528E+04  0.7818609E-02  0.8606841E-01
        1   -1    0    0  501    0  0.00000000000E+00  0.00000000000E+00  0.91984183535E+03  0.91984183536E+03  0.50400001928E-02 0. -1.
       -1   -1    0    0    0  501  0.00000000000E+00  0.00000000000E+00 -0.10866306104E+04  0.10866306104E+04  0.50400001928E-02 0.  1.
    10030    2    1    2    0    0  0.00000000000E+00  0.00000000000E+00 -0.16678877502E+03  0.20064724457E+04  0.19995282394E+04 0.  0.
        1    1    3    3  502    0  0.86658699932E+03  0.49815096898E+03 -0.63302872401E+02  0.10015661081E+04  0.50400001928E-02 0. -1.
       -1    1    3    3    0  502 -0.86658699932E+03 -0.49815096898E+03 -0.10348590262E+03  0.10049063376E+04  0.50400001928E-02 0.  1.
</event>
<event>
 5   0  0.1812865E-04  0.2011239E+04  0.7818609E-02  0.8601384E-01
       -2   -1    0    0    0  501  0.00000000000E+00  0.00000000000E+00  0.12404535043E+04  0.12404535043E+04  0.25500000920E-02 0.  1.
        2   -1    0    0  501    0  0.00000000000E+00  0.00000000000E+00 -0.81524278882E+03  0.81524278882E+03  0.25500000920E-02 0. -1.
    10030    2    1    2    0    0  0.00000000000E+00  0.00000000000E+00  0.42521071547E+03  0.20556962931E+04  0.20112391944E+04 0.  0.
        3    1    3    3  502    0  0.94797312718E+03  0.54151212533E+02 -0.12590312963E+03  0.95782932296E+03  0.10100000352E+00 0.  1.
       -3    1    3    3    0  502 -0.94797312718E+03 -0.54151212533E+02  0.55111384510E+03  0.10978669701E+04  0.10100000352E+00 0. -1.
</event>
<event>
 5   0  0.1807498E-04  0.1999690E+04  0.7818609E-02  0.8606766E-01
       -2   -1    0    0    0  501  0.00000000000E+00  0.00000000000E+00  0.10869295445E+04  0.10869295445E+04  0.25500000920E-02 0.  1.
        2   -1    0    0  501    0  0.00000000000E+00  0.00000000000E+00 -0.91973755324E+03  0.91973755324E+03  0.25500000920E-02 0. -1.
    10030    2    1    2    0    0  0.00000000000E+00  0.00000000000E+00  0.16719199126E+03  0.20066670977E+04  0.19996898958E+04 0.  0.
        5    1    3    3  502    0 -0.17377317900E+03 -0.96646142414E+03 -0.10527075878E+03  0.98759750138E+03  0.46999998093E+01 0. -1.
       -5    1    3    3    0  502  0.17377317900E+03  0.96646142414E+03  0.27246275004E+03  0.10190695964E+04  0.46999998093E+01 0.  1.
</event>
<event>
 5   0  0.1782172E-04  0.1958827E+04  0.7818609E-02  0.8626116E-01
        2   -1    0    0  501    0  0.00000000000E+00  0.00000000000E+00  0.11789160797E+04  0.11789160797E+04  0.25500000920E-02 0.  1.
       -2   -1    0    0    0  501  0.00000000000E+00  0.00000000000E+00 -0.81367213362E+03  0.81367213362E+03  0.25500000920E-02 0. -1.
    10030    2    1    2    0    0  0.00000000000E+00  0.00000000000E+00  0.36524394612E+03  0.19925882134E+04  0.19588273655E+04 0.  0.
        2    1    3    3  502    0 -0.25698224233E+03  0.83337632065E+03 -0.27081306830E+03  0.91317888865E+03  0.25500000920E-02 0. -1.
       -2    1    3    3    0  502  0.25698224233E+03 -0.83337632065E+03  0.63605701442E+03  0.10794093247E+04  0.25500000920E-02 0.  1.
</event>
<event>
 5   0  0.1782172E-04  0.1959447E+04  0.7818609E-02  0.8625819E-01
        2   -1    0    0  501    0  0.00000000000E+00  0.00000000000E+00  0.11803385522E+04  0.11803385522E+04  0.25500000920E-02 0.  1.
       -2   -1    0    0    0  501  0.00000000000E+00  0.00000000000E+00 -0.81320612450E+03  0.81320612450E+03  0.25500000920E-02 0. -1.
    10030    2    1    2    0    0  0.00000000000E+00  0.00000000000E+00  0.36713242770E+03  0.19935446767E+04  0.19594474115E+04 0.  0.
        2    1    3    3  502    0  0.92211937522E+03  0.12859950738E+03  0.49385959197E+03  0.10539161599E+04  0.25500000920E-02 0.  1.
       -2    1    3    3    0  502 -0.92211937522E+03 -0.12859950738E+03 -0.12672716427E+03  0.93962851683E+03  0.25500000920E-02 0. -1.
</event>
<event>
 5   0  0.1812865E-04  0.2020227E+04  0.7818609E-02  0.8597222E-01
        2   -1    0    0  501    0  0.00000000000E+00  0.00000000000E+00  0.77240392574E+03  0.77240392574E+03  0.25500000920E-02 0. -1.
       -2   -1    0    0    0  501  0.00000000000E+00  0.00000000000E+00 -0.13209792789E+04  0.13209792789E+04  0.25500000920E-02 0.  1.
    10030    2    1    2    0    0  0.00000000000E+00  0.00000000000E+00 -0.54857535317E+03  0.20933832046E+04  0.20202272950E+04 0.  0.
        3    1    3    3  502    0 -0.72890981772E+03  0.64339175928E+03  0.96174914142E+01  0.97229367200E+03  0.10100000352E+00 0. -1.
       -3    1    3    3    0  502  0.72890981772E+03 -0.64339175928E+03 -0.55819284458E+03  0.11210895326E+04  0.10100000352E+00 0.  1.
</event>
<event>
 5   0  0.8577422E-05  0.2032757E+04  0.7818609E-02  0.8591457E-01
       -1   -1    0    0    0  501  0.00000000000E+00  0.00000000000E+00  0.77836937063E+03  0.77836937065E+03  0.50400001928E-02 0.  1.
        1   -1    0    0  501    0  0.00000000000E+00  0.00000000000E+00 -0.13271659996E+04  0.13271659996E+04  0.50400001928E-02 0. -1.
    10030    2    1    2    0    0  0.00000000000E+00  0.00000000000E+00 -0.54879662900E+03  0.21055353703E+04  0.20327571069E+04 0.  0.
        2    1    3    3  502    0 -0.63883605167E+02  0.48224432212E+03  0.64995605188E+03  0.81183962123E+03  0.25500000920E-02 0.  1.
       -2    1    3    3    0  502  0.63883605167E+02 -0.48224432212E+03 -0.11987526809E+04  0.12936957491E+04  0.25500000920E-02 0. -1.
</event>
<event>
 5   0  0.1834645E-04  0.1996979E+04  0.7818609E-02  0.8608034E-01
       -2   -1    0    0    0  501  0.00000000000E+00  0.00000000000E+00  0.95270443855E+03  0.95270443855E+03  0.25500000920E-02 0. -1.
        2   -1    0    0  501    0  0.00000000000E+00  0.00000000000E+00 -0.10464749804E+04  0.10464749804E+04  0.25500000920E-02 0.  1.
    10030    2    1    2    0    0  0.00000000000E+00  0.00000000000E+00 -0.93770541879E+02  0.19991794190E+04  0.19969790772E+04 0.  0.
        1    1    3    3  502    0  0.91730383471E+03 -0.55571637128E+02  0.34398933076E+03  0.98125592571E+03  0.50400001928E-02 0. -1.
       -1    1    3    3    0  502 -0.91730383471E+03  0.55571637128E+02 -0.43775987264E+03  0.10179234933E+04  0.50400001928E-02 0.  1.
</event>
<event>
 5   0  0.8765057E-05  0.1781392E+04  0.7818609E-02  0.8716258E-01
        1   -1    0    0  501    0  0.00000000000E+00  0.00000000000E+00  0.20320321556E+04  0.20320321557E+04  0.50400001928E-02 0. -1.
       -1   -1    0    0    0  501  0.00000000000E+00  0.00000000000E+00 -0.39041678265E+03  0.39041678268E+03  0.50400001928E-02 0.  1.
    10030    2    1    2    0    0  0.00000000000E+00  0.00000000000E+00  0.16416153730E+04  0.24224489383E+04  0.17813921034E+04 0.  0.
        3    1    3    3  502    0  0.31377677084E+03  0.47148162057E+03  0.17556465517E+04  0.18447345622E+04  0.10100000352E+00 0. -1.
       -3    1    3    3    0  502 -0.31377677084E+03 -0.47148162057E+03 -0.11403117868E+03  0.57771437611E+03  0.10100000352E+00 0.  1.
</event>
<event>
 5   0  0.8765057E-05  0.2002413E+04  0.7818609E-02  0.8605493E-01
        1   -1    0    0  501    0  0.00000000000E+00  0.00000000000E+00  0.13655344070E+04  0.13655344070E+04  0.50400001928E-02 0. -1.
       -1   -1    0    0    0  501  0.00000000000E+00  0.00000000000E+00 -0.73408226840E+03  0.73408226841E+03  0.50400001928E-02 0.  1.
    10030    2    1    2    0    0  0.00000000000E+00  0.00000000000E+00  0.63145213861E+03  0.20996166754E+04  0.20024131393E+04 0.  0.
        3    1    3    3  502    0 -0.79007042083E+03  0.48886886243E+03 -0.75495149941E+02  0.93214996776E+03  0.10100000352E+00 0.  1.
       -3    1    3    3    0  502  0.79007042083E+03 -0.48886886243E+03  0.70694728855E+03  0.11674667077E+04  0.10100000352E+00 0. -1.
</event>
<event>
 5   0  0.8958919E-05  0.1992386E+04  0.7818609E-02  0.8610189E-01
        1   -1    0    0  501    0  0.00000000000E+00  0.00000000000E+00  0.15595346640E+04  0.15595346640E+04  0.50400001928E-02 0.  1.
       -1   -1    0    0    0  501  0.00000000000E+00  0.00000000000E+00 -0.63634390669E+03  0.63634390671E+03  0.50400001928E-02 0. -1.
    10030    2    1    2    0    0  0.00000000000E+00  0.00000000000E+00  0.92319075733E+03  0.21958785707E+04  0.19923858871E+04 0.  0.
        4    1    3    3  502    0  0.85266383951E+03  0.10783699037E+03  0.10167634454E+04  0.13313429147E+04  0.12699999809E+01 0.  1.
       -4    1    3    3    0  502 -0.85266383951E+03 -0.10783699037E+03 -0.93572688091E+02  0.86453565603E+03  0.12699999809E+01 0. -1.
</event>
<event>
 5   0  0.1893687E-04  0.2041543E+04  0.7818609E-02  0.8587441E-01
        2   -1    0    0  501    0  0.00000000000E+00  0.00000000000E+00  0.93403149760E+03  0.93403149760E+03  0.25500000920E-02 0.  1.
       -2   -1    0    0    0  501  0.00000000000E+00  0.00000000000E+00 -0.11155668107E+04  0.11155668107E+04  0.25500000920E-02 0. -1.
    10030    2    1    2    0    0  0.00000000000E+00  0.00000000000E+00 -0.18153531309E+03  0.20495983083E+04  0.20415430820E+04 0.  0.
        4    1    3    3  502    0 -0.45974725147E+03 -0.40389124626E+03  0.72944872609E+03  0.95215163233E+03  0.12699999809E+01 0.  1.
       -4    1    3    3    0  502  0.45974725147E+03  0.40389124626E+03 -0.91098403919E+03  0.10974466760E+04  0.12699999809E+01 0. -1.
</event>
<event>
 5   0  0.8765057E-05  0.2049516E+04  0.7818609E-02  0.8583814E-01
        1   -1    0    0  501    0  0.00000000000E+00  0.00000000000E+00  0.17846305546E+04  0.17846305546E+04  0.50400001928E-02 0.  1.
       -1   -1    0    0    0  501  0.00000000000E+00  0.00000000000E+00 -0.58842953771E+03  0.58842953773E+03  0.50400001928E-02 0. -1.
    10030    2    1    2    0    0  0.00000000000E+00  0.00000000000E+00  0.11962010169E+04  0.23730600924E+04  0.20495163647E+04 0.  0.
        3    1    3    3  502    0 -0.32047310493E+02  0.74996745850E+03  0.14058304866E+04  0.15936867905E+04  0.10100000352E+00 0.  1.
       -3    1    3    3    0  502  0.32047310493E+02 -0.74996745850E+03 -0.20962946969E+03  0.77937330188E+03  0.10100000352E+00 0. -1.
</event>
<event>
 5   0  0.1807498E-04  0.1999646E+04  0.7818609E-02  0.8606786E-01
       -2   -1    0    0    0  501  0.00000000000E+00  0.00000000000E+00  0.15517504160E+04  0.15517504160E+04  0.25500000920E-02 0. -1.
        2   -1    0    0  501    0  0.00000000000E+00  0.00000000000E+00 -0.64420515145E+03  0.64420515146E+03  0.25500000920E-02 0.  1.
    10030    2    1    2    0    0  0.00000000000E+00  0.00000000000E+00  0.90754526458E+03  0.21959555675E+04  0.19996455804E+04 0.  0.
        5    1    3    3  502    0 -0.58888169218E+02  0.54428638785E+03 -0.46496395102E+03  0.71828201580E+03  0.46999998093E+01 0.  1.
       -5    1    3    3    0  502  0.58888169218E+02 -0.54428638785E+03  0.13725092156E+04  0.14776735517E+04  0.46999998093E+01 0. -1.
</event>
<event>
 5   0  0.8765057E-05  0.2001956E+04  0.7818609E-02  0.8605707E-01
        1   -1    0    0  501    0  0.00000000000E+00  0.00000000000E+00  0.10694386751E+04  0.10694386751E+04  0.50400001928E-02 0.  1.
       -1   -1    0    0    0  501  0.00000000000E+00  0.00000000000E+00 -0.93690002043E+03  0.93690002045E+03  0.50400001928E-02 0. -1.
    10030    2    1    2    0    0  0.00000000000E+00  0.00000000000E+00  0.13253865462E+03  0.20063386955E+04  0.20019561599E+04 0.  0.
        3    1    3    3  502    0 -0.97392102975E+03 -0.89475402259E+02 -0.14733826689E+03  0.98905843856E+03  0.10100000352E+00 0.  1.
       -3    1    3    3    0  502  0.97392102975E+03  0.89475402259E+02  0.27987692151E+03  0.10172802570E+04  0.10100000352E+00 0. -1.
</event>
<event>
 5   0  0.1834645E-04  0.2003985E+04  0.7818609E-02  0.8604760E-01
        2   -1    0    0  501    0  0.00000000000E+00  0.00000000000E+00  0.14304398867E+04  0.14304398867E+04  0.25500000920E-02 0.  1.
       -2   -1    0    0    0  501  0.00000000000E+00  0.00000000000E+00 -0.70187456970E+03  0.70187456970E+03  0.25500000920E-02 0. -1.
    10030    2    1    2    0    0  0.00000000000E+00  0.00000000000E+00  0.72856531702E+03  0.21323144564E+04  0.20039854091E+04 0.  0.
        1    1    3    3  502    0  0.12704660130E+03 -0.95409924745E+03  0.67984833490E+02  0.96491872740E+03  0.50400001928E-02 0. -1.
       -1    1    3    3    0  502 -0.12704660130E+03  0.95409924745E+03  0.66058048353E+03  0.11673957290E+04  0.50400001928E-02 0.  1.
</event>
<event>
 5   0  0.8765057E-05  0.1994294E+04  0.7818609E-02  0.8609293E-01
       -1   -1    0    0    0  501  0.00000000000E+00  0.00000000000E+00  0.12303506667E+04  0.12303506667E+04  0.50400001928E-02 0.  1.
        1   -1    0    0  501    0  0.00000000000E+00  0.00000000000E+00 -0.80814558352E+03  0.80814558354E+03  0.50400001928E-02 0. -1.
    10030    2    1    2    0    0  0.00000000000E+00  0.00000000000E+00  0.42220508317E+03  0.20384962502E+04  0.19942943188E+04 0.  0.
        3    1    3    3  502    0 -0.69662086202E+03 -0.65998919523E+03 -0.65894684546E+02  0.96187758206E+03  0.10100000352E+00 0.  1.
       -3    1    3    3    0  502  0.69662086202E+03  0.65998919523E+03  0.48809976771E+03  0.10766186682E+04  0.10100000352E+00 0. -1.
</event>
<event>
 5   0  0.1807498E-04  0.2078183E+04  0.7818609E-02  0.8570915E-01
       -2   -1    0    0    0  501  0.00000000000E+00  0.00000000000E+00  0.70350576702E+03  0.70350576702E+03  0.25500000920E-02 0.  1.
        2   -1    0    0  501    0  0.00000000000E+00  0.00000000000E+00 -0.15347582919E+04  0.15347582919E+04  0.25500000920E-02 0. -1.
    10030    2    1    2    0    0  0.00000000000E+00  0.00000000000E+00 -0.83125252488E+03  0.22382640589E+04  0.20781831578E+04 0.  0.
        5    1    3    3  502    0 -0.10977630876E+03 -0.23498361302E+03  0.66807128484E+03  0.71666552029E+03  0.46999998093E+01 0.  1.
       -5    1    3    3    0  502  0.10977630876E+03  0.23498361302E+03 -0.14993238097E+04  0.15215985386E+04  0.46999998093E+01 0. -1.
</event>
<event>
 5   0  0.1812865E-04  0.1987172E+04  0.7818609E-02  0.8612642E-01
        2   -1    0    0  501    0  0.00000000000E+00  0.00000000000E+00  0.11862270878E+04  0.11862270878E+04  0.25500000920E-02 0. -1.
       -2   -1    0    0    0  501  0.00000000000E+00  0.00000000000E+00 -0.83222977621E+03  0.83222977622E+03  0.25500000920E-02 0.  1.
    10030    2    1    2    0    0  0.00000000000E+00  0.00000000000E+00  0.35399731161E+03  0.20184568640E+04  0.19871723668E+04 0.  0.
        3    1    3    3  502    0 -0.57967188161E+02 -0.20544620524E+03 -0.80866234082E+03  0.83636303709E+03  0.10100000352E+00 0.  1.
       -3    1    3    3    0  502  0.57967188161E+02  0.20544620524E+03  0.11626596524E+04  0.11820938270E+04  0.10100000352E+00 0. -1.
</event>
<event>
 5   0  0.1812865E-04  0.2014532E+04  0.7818609E-02  0.8599856E-01
        2   -1    0    0  501    0  0.00000000000E+00  0.00000000000E+00  0.16829023510E+04  0.16829023510E+04  0.25500000920E-02 0. -1.
       -2   -1    0    0    0  501  0.00000000000E+00  0.00000000000E+00 -0.60287802161E+03  0.60287802161E+03  0.25500000920E-02 0.  1.
    10030    2    1    2    0    0  0.00000000000E+00  0.00000000000E+00  0.10800243294E+04  0.22857803726E+04  0.20145320449E+04 0.  0.
        3    1    3    3  502    0 -0.19407199717E+03 -0.11846669707E+03 -0.57337926792E+03  0.61681609373E+03  0.10100000352E+00 0.  1.
       -3    1    3    3    0  502  0.19407199717E+03  0.11846669707E+03  0.16534035973E+04  0.16689642789E+04  0.10100000352E+00 0. -1.
</event>
<event>
 5   0  0.8861350E-05  0.1996093E+04  0.7818609E-02  0.8608450E-01
       -1   -1    0    0    0  501  0.00000000000E+00  0.00000000000E+00  0.47105960310E+03  0.47105960313E+03  0.50400001928E-02 0.  1.
        1   -1    0    0  501    0  0.00000000000E+00  0.00000000000E+00 -0.21145871740E+04  0.21145871740E+04  0.50400001928E-02 0. -1.
    10030    2    1    2    0    0  0.00000000000E+00  0.00000000000E+00 -0.16435275709E+04  0.25856467771E+04  0.19960927784E+04 0.  0.
        1    1    3    3  502    0 -0.32293005271E+03 -0.20532241104E+02  0.40122547828E+03  0.51544861656E+03  0.50400001928E-02 0.  1.
       -1    1    3    3    0  502  0.32293005271E+03  0.20532241104E+02 -0.20447530492E+04  0.20701981606E+04  0.50400001928E-02 0. -1.
</event>
<event>
 5   0  0.8958919E-05  0.2022971E+04  0.7818609E-02  0.8595956E-01
       -1   -1    0    0    0  501  0.00000000000E+00  0.00000000000E+00  0.83792716839E+03  0.83792716841E+03  0.50400001928E-02 0. -1.
        1   -1    0    0  501    0  0.00000000000E+00  0.00000000000E+00 -0.12209922723E+04  0.12209922723E+04  0.50400001928E-02 0.  1.
    10030    2    1    2    0    0  0.00000000000E+00  0.00000000000E+00 -0.38306510389E+03  0.20589194407E+04  0.20229706843E+04 0.  0.
        4    1    3    3  502    0 -0.19092024459E+03 -0.98625758920E+03 -0.31172606169E+03  0.10518219063E+04  0.12699999809E+01 0. -1.
       -4    1    3    3    0  502  0.19092024459E+03  0.98625758920E+03 -0.71339042207E+02  0.10070975344E+04  0.12699999809E+01 0.  1.
</event>
<event>
 5   0  0.8861350E-05  0.1987837E+04  0.7818609E-02  0.8612328E-01
        1   -1    0    0  501    0  0.00000000000E+00  0.00000000000E+00  0.92582051874E+03  0.92582051876E+03  0.50400001928E-02 0.  1.
       -1   -1    0    0    0  501  0.00000000000E+00  0.00000000000E+00 -0.10670255643E+04  0.10670255643E+04  0.50400001928E-02 0. -1.
    10030    2    1    2    0    0  0.00000000000E+00  0.00000000000E+00 -0.14120504557E+03  0.19928460831E+04  0.19878371779E+04 0.  0.
        1    1    3    3  502    0 -0.42348732027E+03  0.74890904561E+03  0.42831390345E+03  0.96107183339E+03  0.50400001928E-02 0.  1.
       -1    1    3    3    0  502  0.42348732027E+03 -0.74890904561E+03 -0.56951894902E+03  0.10317742497E+04  0.50400001928E-02 0. -1.
</event>
<event>
 5   0  0.6531625E-05  0.2005739E+04  0.7818609E-02  0.8603942E-01
       -3   -1    0    0    0  501  0.00000000000E+00  0.00000000000E+00  0.13390573228E+04  0.13390573266E+04  0.10100000352E+00 0. -1.
        3   -1    0    0  501    0  0.00000000000E+00  0.00000000000E+00 -0.75108605822E+03  0.75108606501E+03  0.10100000352E+00 0.  1.
    10030    2    1    2    0    0  0.00000000000E+00  0.00000000000E+00  0.58797126459E+03  0.20901433916E+04  0.20057390632E+04 0.  0.
        4    1    3    3  502    0  0.33965081604E+03  0.81346173046E+03 -0.20432438396E+03  0.90489376754E+03  0.12699999809E+01 0.  1.
       -4    1    3    3    0  502 -0.33965081604E+03 -0.81346173046E+03  0.79229564855E+03  0.11852496241E+04  0.12699999809E+01 0. -1.
</event>
<event>
 5   0  0.8765057E-05  0.1998813E+04  0.7818609E-02  0.8607176E-01
        1   -1    0    0  501    0  0.00000000000E+00  0.00000000000E+00  0.10780934619E+04  0.10780934619E+04  0.50400001928E-02 0. -1.
       -1   -1    0    0    0  501  0.00000000000E+00  0.00000000000E+00 -0.92646295899E+03  0.92646295900E+03  0.50400001928E-02 0.  1.
    10030    2    1    2    0    0  0.00000000000E+00  0.00000000000E+00  0.15163050287E+03  0.20045564209E+04  0.19988133067E+04 0.  0.
        3    1    3    3  502    0  0.11678791134E+03  0.90125200713E+03 -0.34121491892E+03  0.97073283023E+03  0.10100000352E+00 0.  1.
       -3    1    3    3    0  502 -0.11678791134E+03 -0.90125200713E+03  0.49284542179E+03  0.10338235906E+04  0.10100000352E+00 0. -1.
</event>
<event>
 5   0  0.8958919E-05  0.2000418E+04  0.7818609E-02  0.8606425E-01
       -1   -1    0    0    0  501  0.00000000000E+00  0.00000000000E+00  0.21876255966E+04  0.21876255966E+04  0.50400001928E-02 0.  1.
        1   -1    0    0  501    0  0.00000000000E+00  0.00000000000E+00 -0.45730783910E+03  0.45730783913E+03  0.50400001928E-02 0. -1.
    10030    2    1    2    0    0  0.00000000000E+00  0.00000000000E+00  0.17303177575E+04  0.26449334357E+04  0.20004182906E+04 0.  0.
        4    1    3    3  502    0 -0.13420704550E+03  0.76593589416E+03  0.33389432619E+02  0.77832242171E+03  0.12699999809E+01 0. -1.
       -4    1    3    3    0  502  0.13420704550E+03 -0.76593589416E+03  0.16969283249E+04  0.18666110140E+04  0.12699999809E+01 0.  1.
</event>
<event>
 5   0  0.8577422E-05  0.2017121E+04  0.7818609E-02  0.8598658E-01
        1   -1    0    0  501    0  0.00000000000E+00  0.00000000000E+00  0.60848416211E+03  0.60848416213E+03  0.50400001928E-02 0. -1.
       -1   -1    0    0    0  501  0.00000000000E+00  0.00000000000E+00 -0.16716861024E+04  0.16716861024E+04  0.50400001928E-02 0.  1.
    10030    2    1    2    0    0  0.00000000000E+00  0.00000000000E+00 -0.10632019403E+04  0.22801702646E+04  0.20171212332E+04 0.  0.
        2    1    3    3  502    0 -0.41224282475E+02  0.96263595026E+03 -0.19469552800E+03  0.98299224963E+03  0.25500000920E-02 0. -1.
       -2    1    3    3    0  502  0.41224282475E+02 -0.96263595026E+03 -0.86850641232E+03  0.12971780149E+04  0.25500000920E-02 0.  1.
</event>
<event>
 5   0  0.1782172E-04  0.1950639E+04  0.7818609E-02  0.8630053E-01
       -2   -1    0    0    0  501  0.00000000000E+00  0.00000000000E+00  0.48886459710E+03  0.48886459711E+03  0.25500000920E-02 0. -1.
        2   -1    0    0  501    0  0.00000000000E+00  0.00000000000E+00 -0.19458307354E+04  0.19458307354E+04  0.25500000920E-02 0.  1.
    10030    2    1    2    0    0  0.00000000000E+00  0.00000000000E+00 -0.14569661383E+04  0.24346953325E+04  0.19506386221E+04 0.  0.
        2    1    3    3  502    0 -0.32433891279E+03 -0.66088508597E+03  0.70025573186E+02  0.73950551595E+03  0.25500000920E-02 0. -1.
       -2    1    3    3    0  502  0.32433891279E+03  0.66088508597E+03 -0.15269917114E+04  0.16951898165E+04  0.25500000920E-02 0.  1.
</event>
<event>
 5   0  0.8881384E-05  0.2008924E+04  0.7818609E-02  0.8602460E-01
       -1   -1    0    0    0  501  0.00000000000E+00  0.00000000000E+00  0.15475444074E+04  0.15475444074E+04  0.50400001928E-02 0. -1.
        1   -1    0    0  501    0  0.00000000000E+00  0.00000000000E+00 -0.65196440879E+03  0.65196440881E+03  0.50400001928E-02 0.  1.
    10030    2    1    2    0    0  0.00000000000E+00  0.00000000000E+00  0.89557999865E+03  0.21995088163E+04  0.20089239654E+04 0.  0.
        5    1    3    3  502    0  0.59450530462E+03 -0.27725493551E+03 -0.38504127336E+03  0.76064822926E+03  0.46999998093E+01 0.  1.
       -5    1    3    3    0  502 -0.59450530462E+03  0.27725493551E+03  0.12806212720E+04  0.14388605870E+04  0.46999998093E+01 0. -1.
</event>
<event>
 5   0  0.8765057E-05  0.1989884E+04  0.7818609E-02  0.8611365E-01
       -1   -1    0    0    0  501  0.00000000000E+00  0.00000000000E+00  0.76561724027E+03  0.76561724029E+03  0.50400001928E-02 0. -1.
        1   -1    0    0  501    0  0.00000000000E+00  0.00000000000E+00 -0.12929563112E+04  0.12929563112E+04  0.50400001928E-02 0.  1.
    10030    2    1    2    0    0  0.00000000000E+00  0.00000000000E+00 -0.52733907089E+03  0.20585735515E+04  0.19898840597E+04 0.  0.
        3    1    3    3  502    0  0.93057479369E+03 -0.32344434481E+03 -0.11986040005E+03  0.99244758881E+03  0.10100000352E+00 0. -1.
       -3    1    3    3    0  502 -0.93057479369E+03  0.32344434481E+03 -0.40747867084E+03  0.10661259626E+04  0.10100000352E+00 0.  1.
</event>
<event>
 5   0  0.1782172E-04  0.1981087E+04  0.7818609E-02  0.8615514E-01
       -2   -1    0    0    0  501  0.00000000000E+00  0.00000000000E+00  0.78246622291E+03  0.78246622291E+03  0.25500000920E-02 0. -1.
        2   -1    0    0  501    0  0.00000000000E+00  0.00000000000E+00 -0.12539542165E+04  0.12539542165E+04  0.25500000920E-02 0.  1.
    10030    2    1    2    0    0  0.00000000000E+00  0.00000000000E+00 -0.47148799357E+03  0.20364204394E+04  0.19810873978E+04 0.  0.
        2    1    3    3  502    0  0.17297143906E+03  0.32634495256E+03 -0.11805216829E+04  0.12369525417E+04  0.25500000920E-02 0.  1.
       -2    1    3    3    0  502 -0.17297143906E+03 -0.32634495256E+03  0.70903368931E+03  0.79946789765E+03  0.25500000920E-02 0. -1.
</event>
<event>
 5   0  0.8577422E-05  0.1969062E+04  0.7818609E-02  0.8621223E-01
       -1   -1    0    0    0  501  0.00000000000E+00  0.00000000000E+00  0.76408642598E+03  0.76408642600E+03  0.50400001928E-02 0.  1.
        1   -1    0    0  501    0  0.00000000000E+00  0.00000000000E+00 -0.12685760030E+04  0.12685760030E+04  0.50400001928E-02 0. -1.
    10030    2    1    2    0    0  0.00000000000E+00  0.00000000000E+00 -0.50448957702E+03  0.20326624290E+04  0.19690624208E+04 0.  0.
        2    1    3    3  502    0  0.57499912967E+03  0.77619865431E+03 -0.55854416687E+02  0.96758878970E+03  0.25500000920E-02 0.  1.
       -2    1    3    3    0  502 -0.57499912967E+03 -0.77619865431E+03 -0.44863516034E+03  0.10650736393E+04  0.25500000920E-02 0. -1.
</event>
<event>
 5   0  0.8881384E-05  0.1981312E+04  0.7818609E-02  0.8615408E-01
       -1   -1    0    0    0  501  0.00000000000E+00  0.00000000000E+00  0.83609040533E+03  0.83609040535E+03  0.50400001928E-02 0. -1.
        1   -1    0    0  501    0  0.00000000000E+00  0.00000000000E+00 -0.11737958320E+04  0.11737958320E+04  0.50400001928E-02 0.  1.
    10030    2    1    2    0    0  0.00000000000E+00  0.00000000000E+00 -0.33770542666E+03  0.20098862374E+04  0.19813121238E+04 0.  0.
        5    1    3    3  502    0 -0.14637666535E+03 -0.92933031618E+03  0.14593919187E+03  0.95205110286E+03  0.46999998093E+01 0. -1.
       -5    1    3    3    0  502  0.14637666535E+03  0.92933031618E+03 -0.48364461853E+03  0.10578351345E+04  0.46999998093E+01 0.  1.
</event>
<event>
 5   0  0.1834645E-04  0.1995106E+04  0.7818609E-02  0.8608912E-01
       -2   -1    0    0    0  501  0.00000000000E+00  0.00000000000E+00  0.10254042096E+04  0.10254042096E+04  0.25500000920E-02 0. -1.
        2   -1    0    0  501    0  0.00000000000E+00  0.00000000000E+00 -0.97045866217E+03  0.97045866217E+03  0.25500000920E-02 0.  1.
    10030    2    1    2    0    0  0.00000000000E+00  0.00000000000E+00  0.54945547429E+02  0.19958628718E+04  0.19951064106E+04 0.  0.
        1    1    3    3  502    0  0.48361932384E+02 -0.41672506376E+03  0.93286495804E+03  0.10228566299E+04  0.50400001928E-02 0. -1.
       -1    1    3    3    0  502 -0.48361932384E+02  0.41672506376E+03 -0.87791941061E+03  0.97300624192E+03  0.50400001928E-02 0.  1.
</event>
<event>
 5   0  0.1782172E-04  0.2017832E+04  0.7818609E-02  0.8598329E-01
       -2   -1    0    0    0  501  0.00000000000E+00  0.00000000000E+00  0.11808226159E+04  0.11808226160E+04  0.25500000920E-02 0. -1.
        2   -1    0    0  501    0  0.00000000000E+00  0.00000000000E+00 -0.86203625611E+03  0.86203625612E+03  0.25500000920E-02 0.  1.
    10030    2    1    2    0    0  0.00000000000E+00  0.00000000000E+00  0.31878635984E+03  0.20428588721E+04  0.20178324083E+04 0.  0.
        2    1    3    3  502    0 -0.56198489381E+03 -0.47416581032E+03 -0.54000903077E+03  0.91228832606E+03  0.25500000920E-02 0.  1.
       -2    1    3    3    0  502  0.56198489381E+03  0.47416581032E+03  0.85879539061E+03  0.11305705460E+04  0.25500000920E-02 0. -1.
</event>
<event>
 5   0  0.1893687E-04  0.1991011E+04  0.7818609E-02  0.8610835E-01
       -2   -1    0    0    0  501  0.00000000000E+00  0.00000000000E+00  0.43607281423E+03  0.43607281424E+03  0.25500000920E-02 0.  1.
        2   -1    0    0  501    0  0.00000000000E+00  0.00000000000E+00 -0.22726272117E+04  0.22726272117E+04  0.25500000920E-02 0. -1.
    10030    2    1    2    0    0  0.00000000000E+00  0.00000000000E+00 -0.18365543975E+04  0.27087000260E+04  0.19910107422E+04 0.  0.
        4    1    3    3  502    0  0.78471925156E+03  0.32330520804E+03 -0.16261357657E+04  0.18342926982E+04  0.12699999809E+01 0. -1.
       -4    1    3    3    0  502 -0.78471925156E+03 -0.32330520804E+03 -0.21041863178E+03  0.87440732774E+03  0.12699999809E+01 0.  1.
</event>
<event>
 5   0  0.1807498E-04  0.1997748E+04  0.7818609E-02  0.8607674E-01
       -2   -1    0    0    0  501  0.00000000000E+00  0.00000000000E+00  0.10164281769E+04  0.10164281769E+04  0.25500000920E-02 0.  1.
        2   -1    0    0  501    0  0.00000000000E+00  0.00000000000E+00 -0.98162252451E+03  0.98162252451E+03  0.25500000920E-02 0. -1.
    10030    2    1    2    0    0  0.00000000000E+00  0.00000000000E+00  0.34805652429E+02  0.19980507015E+04  0.19977475246E+04 0.  0.
        5    1    3    3  502    0 -0.81247468204E+02  0.74640784024E+02  0.10103043632E+04  0.10163215013E+04  0.46999998093E+01 0.  1.
       -5    1    3    3    0  502  0.81247468204E+02 -0.74640784024E+02 -0.97549871076E+03  0.98172920015E+03  0.46999998093E+01 0. -1.
</event>
<event>
 5   0  0.1893687E-04  0.1991433E+04  0.7818609E-02  0.8610636E-01
        2   -1    0    0  501    0  0.00000000000E+00  0.00000000000E+00  0.13677845834E+04  0.13677845834E+04  0.25500000920E-02 0.  1.
       -2   -1    0    0    0  501  0.00000000000E+00  0.00000000000E+00 -0.72485931857E+03  0.72485931857E+03  0.25500000920E-02 0. -1.
    10030    2    1    2    0    0  0.00000000000E+00  0.00000000000E+00  0.64292526488E+03  0.20926439020E+04  0.19914330530E+04 0.  0.
        4    1    3    3  502    0  0.81742185091E+03 -0.48691785781E+03  0.62995091691E+03  0.11410991426E+04  0.12699999809E+01 0.  1.
       -4    1    3    3    0  502 -0.81742185091E+03  0.48691785781E+03  0.12974347965E+02  0.95154475943E+03  0.12699999809E+01 0. -1.
</event>
<event>
 5   0  0.1834645E-04  0.2025464E+04  0.7818609E-02  0.8594807E-01
        2   -1    0    0  501    0  0.00000000000E+00  0.00000000000E+00  0.13003286385E+04  0.13003286385E+04  0.25500000920E-02 0. -1.
       -2   -1    0    0    0  501  0.00000000000E+00  0.00000000000E+00 -0.78874398674E+03  0.78874398675E+03  0.25500000920E-02 0.  1.
    10030    2    1    2    0    0  0.00000000000E+00  0.00000000000E+00  0.51158465172E+03  0.20890726252E+04  0.20254642869E+04 0.  0.
        1    1    3    3  502    0  0.31686992993E+03 -0.85594335611E+03  0.70841411397E+03  0.11553770546E+04  0.50400001928E-02 0. -1.
       -1    1    3    3    0  502 -0.31686992993E+03  0.85594335611E+03 -0.19682946226E+03  0.93369557062E+03  0.50400001928E-02 0.  1.
</event>
<event>
 5   0  0.8577422E-05  0.1983252E+04  0.7818609E-02  0.8614491E-01
        1   -1    0    0  501    0  0.00000000000E+00  0.00000000000E+00  0.88326919600E+03  0.88326919601E+03  0.50400001928E-02 0. -1.
       -1   -1    0    0    0  501  0.00000000000E+00  0.00000000000E+00 -0.11132755473E+04  0.11132755473E+04  0.50400001928E-02 0.  1.
    10030    2    1    2    0    0  0.00000000000E+00  0.00000000000E+00 -0.23000635126E+03  0.19965447433E+04  0.19832518726E+04 0.  0.
        2    1    3    3  502    0 -0.51962191769E+03 -0.22685743892E+03 -0.93399810158E+03  0.10926223907E+04  0.25500000920E-02 0.  1.
       -2    1    3    3    0  502  0.51962191769E+03  0.22685743892E+03  0.70399175032E+03  0.90392235257E+03  0.25500000920E-02 0. -1.
</event>
<event>
 5   0  0.1782172E-04  0.1990928E+04  0.7818609E-02  0.8610874E-01
       -2   -1    0    0    0  501  0.00000000000E+00  0.00000000000E+00  0.83168855727E+03  0.83168855727E+03  0.25500000920E-02 0.  1.
        2   -1    0    0  501    0  0.00000000000E+00  0.00000000000E+00 -0.11914903774E+04  0.11914903774E+04  0.25500000920E-02 0. -1.
    10030    2    1    2    0    0  0.00000000000E+00  0.00000000000E+00 -0.35980182017E+03  0.20231789347E+04  0.19909283393E+04 0.  0.
        2    1    3    3  502    0  0.63055795230E+03  0.37508731213E+02  0.60193753984E+03  0.87254744169E+03  0.25500000920E-02 0.  1.
       -2    1    3    3    0  502 -0.63055795230E+03 -0.37508731213E+02 -0.96173936002E+03  0.11506314930E+04  0.25500000920E-02 0. -1.
</event>
<event>
 5   0  0.1812865E-04  0.2008719E+04  0.7818609E-02  0.8602555E-01
        2   -1    0    0  501    0  0.00000000000E+00  0.00000000000E+00  0.17309568780E+04  0.17309568780E+04  0.25500000920E-02 0.  1.
       -2   -1    0    0    0  501  0.00000000000E+00  0.00000000000E+00 -0.58276295328E+03  0.58276295328E+03  0.25500000920E-02 0. -1.
    10030    2    1    2    0    0  0.00000000000E+00  0.00000000000E+00  0.11481939247E+04  0.23137198313E+04  0.20087185390E+04 0.  0.
        3    1    3    3  502    0 -0.79944792129E+03  0.54755065990E+03  0.87842842593E+03  0.13078857801E+04  0.10100000352E+00 0.  1.
       -3    1    3    3    0  502  0.79944792129E+03 -0.54755065990E+03  0.26976549876E+03  0.10058340512E+04  0.10100000352E+00 0. -1.
</event>
<event>
 5   0  0.1807498E-04  0.1987878E+04  0.7818609E-02  0.8612309E-01
       -2   -1    0    0    0  501  0.00000000000E+00  0.00000000000E+00  0.64581840939E+03  0.64581840939E+03  0.25500000920E-02 0. -1.
        2   -1    0    0  501    0  0.00000000000E+00  0.00000000000E+00 -0.15297100062E+04  0.15297100062E+04  0.25500000920E-02 0.  1.
    10030    2    1    2    0    0  0.00000000000E+00  0.00000000000E+00 -0.88389159677E+03  0.21755284155E+04  0.19878781482E+04 0.  0.
        5    1    3    3  502    0  0.26126998332E+03 -0.93538953870E+03 -0.67326834922E+03  0.11817478383E+04  0.46999998093E+01 0. -1.
       -5    1    3    3    0  502 -0.26126998332E+03  0.93538953870E+03 -0.21062324754E+03  0.99378057724E+03  0.46999998093E+01 0.  1.
</event>
<event>
 5   0  0.1834645E-04  0.1775040E+04  0.7818609E-02  0.8719687E-01
       -2   -1    0    0    0  501  0.00000000000E+00  0.00000000000E+00  0.72629639588E+03  0.72629639589E+03  0.25500000920E-02 0.  1.
        2   -1    0    0  501    0  0.00000000000E+00  0.00000000000E+00 -0.10845319141E+04  0.10845319141E+04  0.25500000920E-02 0. -1.
    10030    2    1    2    0    0  0.00000000000E+00  0.00000000000E+00 -0.35823551821E+03  0.18108283100E+04  0.17750398536E+04 0.  0.
        1    1    3    3  502    0  0.51900128857E+02 -0.21403011545E+03 -0.10562133871E+04  0.10789296700E+04  0.50400001928E-02 0. -1.
       -1    1    3    3    0  502 -0.51900128857E+02  0.21403011545E+03  0.69797786890E+03  0.73189863997E+03  0.50400001928E-02 0.  1.
</event>
<event>
 5   0  0.8861350E-05  0.2082354E+04  0.7818609E-02  0.8569057E-01
        1   -1    0    0  501    0  0.00000000000E+00  0.00000000000E+00  0.65468825246E+03  0.65468825248E+03  0.50400001928E-02 0. -1.
       -1   -1    0    0    0  501  0.00000000000E+00  0.00000000000E+00 -0.16558260471E+04  0.16558260471E+04  0.50400001928E-02 0.  1.
    10030    2    1    2    0    0  0.00000000000E+00  0.00000000000E+00 -0.10011377946E+04  0.23105142995E+04  0.20823543033E+04 0.  0.
        1    1    3    3  502    0  0.70499781181E+03 -0.75663042891E+03 -0.36678265541E+03  0.10972880374E+04  0.50400001928E-02 0.  1.
       -1    1    3    3    0  502 -0.70499781181E+03  0.75663042891E+03 -0.63435513918E+03  0.12132262622E+04  0.50400001928E-02 0. -1.
</event>
<event>
 5   0  0.1782172E-04  0.2011722E+04  0.7818609E-02  0.8601160E-01
        2   -1    0    0  501    0  0.00000000000E+00  0.00000000000E+00  0.91033991531E+03  0.91033991531E+03  0.25500000920E-02 0. -1.
       -2   -1    0    0    0  501  0.00000000000E+00  0.00000000000E+00 -0.11114046025E+04  0.11114046026E+04  0.25500000920E-02 0.  1.
    10030    2    1    2    0    0  0.00000000000E+00  0.00000000000E+00 -0.20106468724E+03  0.20217445179E+04  0.20117216227E+04 0.  0.
        2    1    3    3  502    0  0.47601441057E+03  0.35466292251E+03 -0.91660049347E+03  0.10920311224E+04  0.25500000920E-02 0.  1.
       -2    1    3    3    0  502 -0.47601441057E+03 -0.35466292251E+03  0.71553580623E+03  0.92971339545E+03  0.25500000920E-02 0. -1.
</event>
<event>
 5   0  0.8881384E-05  0.1964656E+04  0.7818609E-02  0.8623326E-01
       -1   -1    0    0    0  501  0.00000000000E+00  0.00000000000E+00  0.10219753187E+04  0.10219753187E+04  0.50400001928E-02 0.  1.
        1   -1    0    0  501    0  0.00000000000E+00  0.00000000000E+00 -0.94421890397E+03  0.94421890398E+03  0.50400001928E-02 0. -1.
    10030    2    1    2    0    0  0.00000000000E+00  0.00000000000E+00  0.77756414707E+02  0.19661942227E+04  0.19646561178E+04 0.  0.
        5    1    3    3  502    0  0.13493687217E+03 -0.96964583885E+03 -0.41964443613E+02  0.97990005449E+03  0.46999998093E+01 0.  1.
       -5    1    3    3    0  502 -0.13493687217E+03  0.96964583885E+03  0.11972085832E+03  0.98629416818E+03  0.46999998093E+01 0. -1.
</event>
<event>
 5   0  0.1807498E-04  0.1756180E+04  0.7818609E-02  0.8729956E-01
        2   -1    0    0  501    0  0.00000000000E+00  0.00000000000E+00  0.13219714743E+04  0.13219714743E+04  0.25500000920E-02 0.  1.
       -2   -1    0    0    0  501  0.00000000000E+00  0.00000000000E+00 -0.58325171489E+03  0.58325171489E+03  0.25500000920E-02 0. -1.
    10030    2    1    2    0    0  0.00000000000E+00  0.00000000000E+00  0.73871975939E+03  0.19052231892E+04  0.17561800926E+04 0.  0.
        5    1    3    3  502    0 -0.68381902151E+03 -0.49906613818E+03  0.11645634042E+03  0.85455230014E+03  0.46999998093E+01 0. -1.
       -5    1    3    3    0  502  0.68381902151E+03  0.49906613818E+03  0.62226341897E+03  0.10506708890E+04  0.46999998093E+01 0.  1.
</event>
<event>
 5   0  0.8958919E-05  0.1974525E+04  0.7818609E-02  0.8618624E-01
        1   -1    0    0  501    0  0.00000000000E+00  0.00000000000E+00  0.21583049259E+04  0.21583049259E+04  0.50400001928E-02 0. -1.
       -1   -1    0    0    0  501  0.00000000000E+00  0.00000000000E+00 -0.45159865021E+03  0.45159865024E+03  0.50400001928E-02 0.  1.
    10030    2    1    2    0    0  0.00000000000E+00  0.00000000000E+00  0.17067062757E+04  0.26099035762E+04  0.19745253519E+04 0.  0.
        4    1    3    3  502    0 -0.54696235225E+03 -0.23435379295E+03 -0.18792415157E+03  0.62402453052E+03  0.12699999809E+01 0.  1.
       -4    1    3    3    0  502  0.54696235225E+03  0.23435379295E+03  0.18946304273E+04  0.19858790457E+04  0.12699999809E+01 0. -1.
</event>
<event>
 5   0  0.1893687E-04  0.1989885E+04  0.7818609E-02  0.8611364E-01
        2   -1    0    0  501    0  0.00000000000E+00  0.00000000000E+00  0.14688651998E+04  0.14688651998E+04  0.25500000920E-02 0. -1.
       -2   -1    0    0    0  501  0.00000000000E+00  0.00000000000E+00 -0.67392904890E+03  0.67392904890E+03  0.25500000920E-02 0.  1.
    10030    2    1    2    0    0  0.00000000000E+00  0.00000000000E+00  0.79493615092E+03  0.21427942487E+04  0.19898853505E+04 0.  0.
        4    1    3    3  502    0 -0.61522347152E+03  0.10141964775E+03 -0.43743152296E+03  0.76166515939E+03  0.12699999809E+01 0.  1.
       -4    1    3    3    0  502  0.61522347152E+03 -0.10141964775E+03  0.12323676739E+04  0.13811290893E+04  0.12699999809E+01 0. -1.
</event>
<event>
 5   0  0.8861350E-05  0.2006438E+04  0.7818609E-02  0.8603617E-01
        1   -1    0    0  501    0  0.00000000000E+00  0.00000000000E+00  0.10997206198E+04  0.10997206199E+04  0.50400001928E-02 0.  1.
       -1   -1    0    0    0  501  0.00000000000E+00  0.00000000000E+00 -0.91518513753E+03  0.91518513754E+03  0.50400001928E-02 0. -1.
    10030    2    1    2    0    0  0.00000000000E+00  0.00000000000E+00  0.18453548232E+03  0.20149057574E+04  0.20064376060E+04 0.  0.
        1    1    3    3  502    0 -0.71274947538E+03  0.32636018780E+02 -0.61595411783E+03  0.94259026076E+03  0.50400001928E-02 0. -1.
       -1    1    3    3    0  502  0.71274947538E+03 -0.32636018780E+02  0.80048960015E+03  0.10723154966E+04  0.50400001928E-02 0.  1.
</event>
<event>
 5   0  0.1834645E-04  0.1987169E+04  0.7818609E-02  0.8612643E-01
       -2   -1    0    0    0  501  0.00000000000E+00  0.00000000000E+00  0.48532584466E+03  0.48532584466E+03  0.25500000920E-02 0.  1.
        2   -1    0    0  501    0  0.00000000000E+00  0.00000000000E+00 -0.20341183263E+04  0.20341183263E+04  0.25500000920E-02 0. -1.
    10030    2    1    2    0    0  0.00000000000E+00  0.00000000000E+00 -0.15487924816E+04  0.25194441710E+04  0.19871690364E+04 0.  0.
        1    1    3    3  502    0  0.84655274406E+03  0.15745050506E+03 -0.14585673188E+03  0.87333635918E+03  0.50400001928E-02 0.  1.
       -1    1    3    3    0  502 -0.84655274406E+03 -0.15745050506E+03 -0.14029357498E+04  0.16461078118E+04  0.50400001928E-02 0. -1.
</event>
<event>
 5   0  0.8958919E-05  0.1887284E+04  0.7818609E-02  0.8661212E-01
        1   -1    0    0  501    0  0.00000000000E+00  0.00000000000E+00  0.12702876071E+04  0.12702876071E+04  0.50400001928E-02 0. -1.
       -1   -1    0    0    0  501  0.00000000000E+00  0.00000000000E+00 -0.70099083248E+03  0.70099083249E+03  0.50400001928E-02 0.  1.
    10030    2    1    2    0    0  0.00000000000E+00  0.00000000000E+00  0.56929677462E+03  0.19712784396E+04  0.18872837277E+04 0.  0.
        4    1    3    3  502    0 -0.19781164105E+03  0.59998436062E+03  0.10168070913E+04  0.11970835192E+04  0.12699999809E+01 0. -1.
       -4    1    3    3    0  502  0.19781164105E+03 -0.59998436062E+03 -0.44751031663E+03  0.77419492036E+03  0.12699999809E+01 0.  1.
</event>
<event>
 5   0  0.1812865E-04  0.1995947E+04  0.7818609E-02  0.8608518E-01
        2   -1    0    0  501    0  0.00000000000E+00  0.00000000000E+00  0.14056410570E+04  0.14056410570E+04  0.25500000920E-02 0.  1.
       -2   -1    0    0    0  501  0.00000000000E+00  0.00000000000E+00 -0.70853857416E+03  0.70853857416E+03  0.25500000920E-02 0. -1.
    10030    2    1    2    0    0  0.00000000000E+00  0.00000000000E+00  0.69710248285E+03  0.21141796312E+04  0.19959468032E+04 0.  0.
        3    1    3    3  502    0 -0.57334225487E+03 -0.22999504050E+03 -0.48167113553E+03  0.78334293440E+03  0.10100000352E+00 0. -1.
       -3    1    3    3    0  502  0.57334225487E+03  0.22999504050E+03  0.11787736184E+04  0.13308366968E+04  0.10100000352E+00 0.  1.
</event>
<event>
 5   0  0.8765057E-05  0.1992873E+04  0.7818609E-02  0.8609960E-01
        1   -1    0    0  501    0  0.00000000000E+00  0.00000000000E+00  0.14562259948E+04  0.14562259948E+04  0.50400001928E-02 0.  1.
       -1   -1    0    0    0  501  0.00000000000E+00  0.00000000000E+00 -0.68182128038E+03  0.68182128040E+03  0.50400001928E-02 0. -1.
    10030    2    1    2    0    0  0.00000000000E+00  0.00000000000E+00  0.77440471442E+03  0.21380472752E+04  0.19928731744E+04 0.  0.
        3    1    3    3  502    0  0.87615412446E+03 -0.33581986827E+03  0.74698980282E+03  0.11993393221E+04  0.10100000352E+00 0.  1.
       -3    1    3    3    0  502 -0.87615412446E+03  0.33581986827E+03  0.27414911605E+02  0.93870795315E+03  0.10100000352E+00 0. -1.
</event>
<event>
 5   0  0.1834645E-04  0.2026468E+04  0.7818609E-02  0.8594345E-01
       -2   -1    0    0    0  501  0.00000000000E+00  0.00000000000E+00  0.65960231523E+03  0.65960231524E+03  0.25500000920E-02 0.  1.
        2   -1    0    0  501    0  0.00000000000E+00  0.00000000000E+00 -0.15564577848E+04  0.15564577848E+04  0.25500000920E-02 0. -1.
    10030    2    1    2    0    0  0.00000000000E+00  0.00000000000E+00 -0.89685546956E+03  0.22160601000E+04  0.20264680194E+04 0.  0.
        1    1    3    3  502    0 -0.94809161727E+03 -0.19942967943E+03 -0.77281698279E+03  0.12393127130E+04  0.50400001928E-02 0.  1.
       -1    1    3    3    0  502  0.94809161727E+03  0.19942967943E+03 -0.12403848677E+03  0.97674738700E+03  0.50400001928E-02 0. -1.
</event>
<event>
 5   0  0.8958919E-05  0.1990531E+04  0.7818609E-02  0.8611061E-01
        1   -1    0    0  501    0  0.00000000000E+00  0.00000000000E+00  0.74231875471E+03  0.74231875473E+03  0.50400001928E-02 0.  1.
       -1   -1    0    0    0  501  0.00000000000E+00  0.00000000000E+00 -0.13344037771E+04  0.13344037771E+04  0.50400001928E-02 0. -1.
    10030    2    1    2    0    0  0.00000000000E+00  0.00000000000E+00 -0.59208502235E+03  0.20767225318E+04  0.19905305324E+04 0.  0.
        4    1    3    3  502    0 -0.23540200781E+03  0.80280758807E+03  0.26640919446E+03  0.87800318936E+03  0.12699999809E+01 0.  1.
       -4    1    3    3    0  502  0.23540200781E+03 -0.80280758807E+03 -0.85849421680E+03  0.11987193424E+04  0.12699999809E+01 0. -1.
</event>
<event>
 5   0  0.1812865E-04  0.1988337E+04  0.7818609E-02  0.8612093E-01
        2   -1    0    0  501    0  0.00000000000E+00  0.00000000000E+00  0.63597250890E+03  0.63597250891E+03  0.25500000920E-02 0. -1.
       -2   -1    0    0    0  501  0.00000000000E+00  0.00000000000E+00 -0.15541101219E+04  0.15541101219E+04  0.25500000920E-02 0.  1.
    10030    2    1    2    0    0  0.00000000000E+00  0.00000000000E+00 -0.91813761301E+03  0.21900826308E+04  0.19883373088E+04 0.  0.
        3    1    3    3  502    0 -0.67653722607E+03 -0.52878847745E+03  0.92820259445E+02  0.86367556577E+03  0.10100000352E+00 0. -1.
       -3    1    3    3    0  502  0.67653722607E+03  0.52878847745E+03 -0.10109578725E+04  0.13264070651E+04  0.10100000352E+00 0.  1.
</event>
<event>
 5   0  0.8958919E-05  0.2054108E+04  0.7818609E-02  0.8581733E-01
        1   -1    0    0  501    0  0.00000000000E+00  0.00000000000E+00  0.15179322478E+04  0.15179322478E+04  0.50400001928E-02 0.  1.
       -1   -1    0    0    0  501  0.00000000000E+00  0.00000000000E+00 -0.69491895892E+03  0.69491895894E+03  0.50400001928E-02 0. -1.
    10030    2    1    2    0    0  0.00000000000E+00  0.00000000000E+00  0.82301328886E+03  0.22128512067E+04  0.20541079790E+04 0.  0.
        4    1    3    3  502    0  0.15109369526E+03 -0.41083982805E+03 -0.58939083001E+03  0.73416744171E+03  0.12699999809E+01 0. -1.
       -4    1    3    3    0  502 -0.15109369526E+03  0.41083982805E+03  0.14124041189E+04  0.14786837650E+04  0.12699999809E+01 0.  1.
</event>
<event>
 5   0  0.6531625E-05  0.2022207E+04  0.7818609E-02  0.8596308E-01
       -3   -1    0    0    0  501  0.00000000000E+00  0.00000000000E+00  0.12445892120E+04  0.12445892161E+04  0.10100000352E+00 0. -1.
        3   -1    0    0  501    0  0.00000000000E+00  0.00000000000E+00 -0.82141977617E+03  0.82141978238E+03  0.10100000352E+00 0.  1.
    10030    2    1    2    0    0  0.00000000000E+00  0.00000000000E+00  0.42316943588E+03  0.20660089985E+04  0.20222069158E+04 0.  0.
        4    1    3    3  502    0 -0.69391632209E+03 -0.72041203083E+03  0.36248378346E+03  0.10639123377E+04  0.12699999809E+01 0. -1.
       -4    1    3    3    0  502  0.69391632209E+03  0.72041203083E+03  0.60685652414E+02  0.10020966608E+04  0.12699999809E+01 0.  1.
</event>
<event>
 5   0  0.8958919E-05  0.1989962E+04  0.7818609E-02  0.8611328E-01
       -1   -1    0    0    0  501  0.00000000000E+00  0.00000000000E+00  0.66876764065E+03  0.66876764067E+03  0.50400001928E-02 0.  1.
        1   -1    0    0  501    0  0.00000000000E+00  0.00000000000E+00 -0.14803157007E+04  0.14803157007E+04  0.50400001928E-02 0. -1.
    10030    2    1    2    0    0  0.00000000000E+00  0.00000000000E+00 -0.81154806003E+03  0.21490833414E+04  0.19899620485E+04 0.  0.
        4    1    3    3  502    0  0.30123838550E+03 -0.88730243745E+03 -0.76709426129E+03  0.12109853009E+04  0.12699999809E+01 0.  1.
       -4    1    3    3    0  502 -0.30123838550E+03  0.88730243745E+03 -0.44453798743E+02  0.93809804046E+03  0.12699999809E+01 0. -1.
</event>
<event>
 5   0  0.8881384E-05  0.1921927E+04  0.7818609E-02  0.8644018E-01
       -1   -1    0    0    0  501  0.00000000000E+00  0.00000000000E+00  0.17149202377E+04  0.17149202377E+04  0.50400001928E-02 0. -1.
        1   -1    0    0  501    0  0.00000000000E+00  0.00000000000E+00 -0.53848029414E+03  0.53848029416E+03  0.50400001928E-02 0.  1.
    10030    2    1    2    0    0  0.00000000000E+00  0.00000000000E+00  0.11764399435E+04  0.22534005318E+04  0.19219269019E+04 0.  0.
        5    1    3    3  502    0 -0.49520243392E+03  0.80662699024E+03  0.39358965114E+03  0.10250889988E+04  0.46999998093E+01 0.  1.
       -5    1    3    3    0  502  0.49520243392E+03 -0.80662699024E+03  0.78285029240E+03  0.12283115331E+04  0.46999998093E+01 0. -1.
</event>
<event>
 5   0  0.1782172E-04  0.2000347E+04  0.7818609E-02  0.8606458E-01
        2   -1    0    0  501    0  0.00000000000E+00  0.00000000000E+00  0.14524250403E+04  0.14524250403E+04  0.25500000920E-02 0.  1.
       -2   -1    0    0    0  501  0.00000000000E+00  0.00000000000E+00 -0.68874286928E+03  0.68874286929E+03  0.25500000920E-02 0. -1.
    10030    2    1    2    0    0  0.00000000000E+00  0.00000000000E+00  0.76368217102E+03  0.21411679096E+04  0.20003473595E+04 0.  0.
        2    1    3    3  502    0 -0.90324183842E+03  0.33548216339E+03  0.66896583807E+03  0.11729916424E+04  0.25500000920E-02 0.  1.
       -2    1    3    3    0  502  0.90324183842E+03 -0.33548216339E+03  0.94716332942E+02  0.96817626719E+03  0.25500000920E-02 0. -1.
</event>
<event>
 5   0  0.1893687E-04  0.1685073E+04  0.7818609E-02  0.8769924E-01
        2   -1    0    0  501    0  0.00000000000E+00  0.00000000000E+00  0.21359768495E+04  0.21359768495E+04  0.25500000920E-02 0.  1.
       -2   -1    0    0    0  501  0.00000000000E+00  0.00000000000E+00 -0.33233883953E+03  0.33233883954E+03  0.25500000920E-02 0. -1.
    10030    2    1    2    0    0  0.00000000000E+00  0.00000000000E+00  0.18036380099E+04  0.24683156890E+04  0.16850733722E+04 0.  0.
        4    1    3    3  502    0 -0.28068394887E+03  0.71145343287E+03  0.14195362604E+04  0.16124621775E+04  0.12699999809E+01 0.  1.
       -4    1    3    3    0  502  0.28068394887E+03 -0.71145343287E+03  0.38410174951E+03  0.85585351152E+03  0.12699999809E+01 0. -1.
</event>
<event>
 5   0  0.1807498E-04  0.1975599E+04  0.7818609E-02  0.8618115E-01
       -2   -1    0    0    0  501  0.00000000000E+00  0.00000000000E+00  0.59408583625E+03  0.59408583625E+03  0.25500000920E-02 0.  1.
        2   -1    0    0  501    0  0.00000000000E+00  0.00000000000E+00 -0.16424351477E+04  0.16424351477E+04  0.25500000920E-02 0. -1.
    10030    2    1    2    0    0  0.00000000000E+00  0.00000000000E+00 -0.10483493114E+04  0.22365209840E+04  0.19755986011E+04 0.  0.
        5    1    3    3  502    0  0.11534586974E+03  0.58320317566E+03 -0.14172175872E+04  0.15368664201E+04  0.46999998093E+01 0. -1.
       -5    1    3    3    0  502 -0.11534586974E+03 -0.58320317566E+03  0.36886827580E+03  0.69965456381E+03  0.46999998093E+01 0.  1.
</event>
<event>
 5   0  0.1807498E-04  0.2044442E+04  0.7818609E-02  0.8586120E-01
       -2   -1    0    0    0  501  0.00000000000E+00  0.00000000000E+00  0.62106569958E+03  0.62106569958E+03  0.25500000920E-02 0. -1.
        2   -1    0    0  501    0  0.00000000000E+00  0.00000000000E+00 -0.16824883477E+04  0.16824883477E+04  0.25500000920E-02 0.  1.
    10030    2    1    2    0    0  0.00000000000E+00  0.00000000000E+00 -0.10614226482E+04  0.23035540473E+04  0.20444420292E+04 0.  0.
        5    1    3    3  502    0 -0.44929331044E+03  0.70704936631E+03  0.12930278808E+03  0.84765829566E+03  0.46999998093E+01 0. -1.
       -5    1    3    3    0  502  0.44929331044E+03 -0.70704936631E+03 -0.11907254362E+04  0.14558957517E+04  0.46999998093E+01 0.  1.
</event>
<event>
 5   0  0.8958919E-05  0.2005820E+04  0.7818609E-02  0.8603904E-01
       -1   -1    0    0    0  501  0.00000000000E+00  0.00000000000E+00  0.90475952189E+03  0.90475952190E+03  0.50400001928E-02 0. -1.
        1   -1    0    0  501    0  0.00000000000E+00  0.00000000000E+00 -0.11117083938E+04  0.11117083938E+04  0.50400001928E-02 0.  1.
    10030    2    1    2    0    0  0.00000000000E+00  0.00000000000E+00 -0.20694887187E+03  0.20164679157E+04  0.20058202859E+04 0.  0.
        4    1    3    3  502    0 -0.16391966314E+03  0.16562465146E+03 -0.10841144673E+04  0.11088764459E+04  0.12699999809E+01 0.  1.
       -4    1    3    3    0  502  0.16391966314E+03 -0.16562465146E+03  0.87716559548E+03  0.90759146973E+03  0.12699999809E+01 0. -1.
</event>
<event>
 5   0  0.8861350E-05  0.1941937E+04  0.7818609E-02  0.8634259E-01
       -1   -1    0    0    0  501  0.00000000000E+00  0.00000000000E+00  0.10490009420E+04  0.10490009420E+04  0.50400001928E-02 0.  1.
        1   -1    0    0  501    0  0.00000000000E+00  0.00000000000E+00 -0.89874092036E+03  0.89874092038E+03  0.50400001928E-02 0. -1.
    10030    2    1    2    0    0  0.00000000000E+00  0.00000000000E+00  0.15026002165E+03  0.19477418624E+04  0.19419372514E+04 0.  0.
        1    1    3    3  502    0  0.88129004245E+02  0.39317564674E+03  0.96118799512E+03  0.10422265457E+04  0.50400001928E-02 0.  1.
       -1    1    3    3    0  502 -0.88129004245E+02 -0.39317564674E+03 -0.81092797347E+03  0.90551531669E+03  0.50400001928E-02 0. -1.
</event>
<event>
 5   0  0.1812865E-04  0.1975706E+04  0.7818609E-02  0.8618064E-01
       -2   -1    0    0    0  501  0.00000000000E+00  0.00000000000E+00  0.81786198119E+03  0.81786198120E+03  0.25500000920E-02 0.  1.
        2   -1    0    0  501    0  0.00000000000E+00  0.00000000000E+00 -0.11931759723E+04  0.11931759723E+04  0.25500000920E-02 0. -1.
    10030    2    1    2    0    0  0.00000000000E+00  0.00000000000E+00 -0.37531399113E+03  0.20110379535E+04  0.19757057115E+04 0.  0.
        3    1    3    3  502    0 -0.58976615122E+03 -0.58200829688E+03  0.35982373545E+03  0.90334428739E+03  0.10100000352E+00 0.  1.
       -3    1    3    3    0  502  0.58976615122E+03  0.58200829688E+03 -0.73513772658E+03  0.11076936661E+04  0.10100000352E+00 0. -1.
</event>
<event>
 5   0  0.1834645E-04  0.1984457E+04  0.7818609E-02  0.8613922E-01
       -2   -1    0    0    0  501  0.00000000000E+00  0.00000000000E+00  0.80506182151E+03  0.80506182152E+03  0.25500000920E-02 0.  1.
        2   -1    0    0  501    0  0.00000000000E+00  0.00000000000E+00 -0.12229090492E+04  0.12229090493E+04  0.25500000920E-02 0. -1.
    10030    2    1    2    0    0  0.00000000000E+00  0.00000000000E+00 -0.41784722774E+03  0.20279708708E+04  0.19844569905E+04 0.  0.
        1    1    3    3  502    0 -0.35544390714E+03  0.77002798019E+03  0.31737782598E+03  0.90554522021E+03  0.50400001928E-02 0.  1.
       -1    1    3    3    0  502  0.35544390714E+03 -0.77002798019E+03 -0.73522505371E+03  0.11224256506E+04  0.50400001928E-02 0. -1.
</event>
<event>
 5   0  0.1807498E-04  0.1982738E+04  0.7818609E-02  0.8614734E-01
        2   -1    0    0  501    0  0.00000000000E+00  0.00000000000E+00  0.12487724147E+04  0.12487724147E+04  0.25500000920E-02 0.  1.
       -2   -1    0    0    0  501  0.00000000000E+00  0.00000000000E+00 -0.78702290839E+03  0.78702290839E+03  0.25500000920E-02 0. -1.
    10030    2    1    2    0    0  0.00000000000E+00  0.00000000000E+00  0.46174950632E+03  0.20357953231E+04  0.19827380036E+04 0.  0.
        5    1    3    3  502    0  0.83877382917E+03 -0.47811806767E+03  0.46195723040E+03  0.10703107006E+04  0.46999998093E+01 0.  1.
       -5    1    3    3    0  502 -0.83877382917E+03  0.47811806767E+03 -0.20772407163E+00  0.96548462250E+03  0.46999998093E+01 0. -1.
</event>
<event>
 5   0  0.8765057E-05  0.1992651E+04  0.7818609E-02  0.8610064E-01
       -1   -1    0    0    0  501  0.00000000000E+00  0.00000000000E+00  0.91140442153E+03  0.91140442154E+03  0.50400001928E-02 0.  1.
        1   -1    0    0  501    0  0.00000000000E+00  0.00000000000E+00 -0.10891587330E+04  0.10891587331E+04  0.50400001928E-02 0. -1.
    10030    2    1    2    0    0  0.00000000000E+00  0.00000000000E+00 -0.17775431151E+03  0.20005631546E+04  0.19926505816E+04 0.  0.
        3    1    3    3  502    0 -0.34490061029E+03 -0.40154294506E+03  0.75855450041E+03  0.92498546367E+03  0.10100000352E+00 0.  1.
       -3    1    3    3    0  502  0.34490061029E+03  0.40154294506E+03 -0.93630881193E+03  0.10755776909E+04  0.10100000352E+00 0. -1.
</event>
<event>
 5   0  0.1782172E-04  0.1705944E+04  0.7818609E-02  0.8757981E-01
        2   -1    0    0  501    0  0.00000000000E+00  0.00000000000E+00  0.12990156568E+04  0.12990156568E+04  0.25500000920E-02 0. -1.
       -2   -1    0    0    0  501  0.00000000000E+00  0.00000000000E+00 -0.56008673352E+03  0.56008673352E+03  0.25500000920E-02 0.  1.
    10030    2    1    2    0    0  0.00000000000E+00  0.00000000000E+00  0.73892892333E+03  0.18591023904E+04  0.17059442383E+04 0.  0.
        2    1    3    3  502    0  0.29775636114E+03  0.44844373685E+03 -0.35160441969E+03  0.64295124517E+03  0.25500000920E-02 0.  1.
       -2    1    3    3    0  502 -0.29775636114E+03 -0.44844373685E+03  0.10905333430E+04  0.12161511452E+04  0.25500000920E-02 0. -1.
</event>
<event>
 5   0  0.8861350E-05  0.2151947E+04  0.7818609E-02  0.8538699E-01
       -1   -1    0    0    0  501  0.00000000000E+00  0.00000000000E+00  0.59352195041E+03  0.59352195044E+03  0.50400001928E-02 0.  1.
        1   -1    0    0  501    0  0.00000000000E+00  0.00000000000E+00 -0.19505923289E+04  0.19505923289E+04  0.50400001928E-02 0. -1.
    10030    2    1    2    0    0  0.00000000000E+00  0.00000000000E+00 -0.13570703784E+04  0.25441142793E+04  0.21519473632E+04 0.  0.
        1    1    3    3  502    0 -0.38683805712E+03  0.19961314349E+03  0.48477170032E+03  0.65153103605E+03  0.50400001928E-02 0.  1.
       -1    1    3    3    0  502  0.38683805712E+03 -0.19961314349E+03 -0.18418420788E+04  0.18925832432E+04  0.50400001928E-02 0. -1.
</event>
<event>
 5   0  0.1812865E-04  0.2012589E+04  0.7818609E-02  0.8600757E-01
        2   -1    0    0  501    0  0.00000000000E+00  0.00000000000E+00  0.87996617395E+03  0.87996617396E+03  0.25500000920E-02 0.  1.
       -2   -1    0    0    0  501  0.00000000000E+00  0.00000000000E+00 -0.11507589609E+04  0.11507589609E+04  0.25500000920E-02 0. -1.
    10030    2    1    2    0    0  0.00000000000E+00  0.00000000000E+00 -0.27079278694E+03  0.20307251349E+04  0.20125893371E+04 0.  0.
        3    1    3    3  502    0  0.73158489463E+03 -0.12869499631E+03 -0.82037311882E+03  0.11067027263E+04  0.10100000352E+00 0. -1.
       -3    1    3    3    0  502 -0.73158489463E+03  0.12869499631E+03  0.54958033188E+03  0.92402240855E+03  0.10100000352E+00 0.  1.
</event>
<event>
 5   0  0.1782172E-04  0.1983312E+04  0.7818609E-02  0.8614463E-01
        2   -1    0    0  501    0  0.00000000000E+00  0.00000000000E+00  0.16351566885E+04  0.16351566885E+04  0.25500000920E-02 0.  1.
       -2   -1    0    0    0  501  0.00000000000E+00  0.00000000000E+00 -0.60139913192E+03  0.60139913193E+03  0.25500000920E-02 0. -1.
    10030    2    1    2    0    0  0.00000000000E+00  0.00000000000E+00  0.10337575565E+04  0.22365558204E+04  0.19833121923E+04 0.  0.
        2    1    3    3  502    0  0.35495321491E+03  0.57642419923E+03  0.13340631983E+04  0.14959883888E+04  0.25500000920E-02 0.  1.
       -2    1    3    3    0  502 -0.35495321491E+03 -0.57642419923E+03 -0.30030564180E+03  0.74056743160E+03  0.25500000920E-02 0. -1.
</event>
<event>
 5   0  0.8861350E-05  0.1994122E+04  0.7818609E-02  0.8609374E-01
        1   -1    0    0  501    0  0.00000000000E+00  0.00000000000E+00  0.59854861650E+03  0.59854861652E+03  0.50400001928E-02 0.  1.
       -1   -1    0    0    0  501  0.00000000000E+00  0.00000000000E+00 -0.16609028770E+04  0.16609028770E+04  0.50400001928E-02 0. -1.
    10030    2    1    2    0    0  0.00000000000E+00  0.00000000000E+00 -0.10623542605E+04  0.22594514936E+04  0.19941224829E+04 0.  0.
        1    1    3    3  502    0 -0.12405656248E+03 -0.94256137056E+03 -0.87169594738E+03  0.12898316916E+04  0.50400001928E-02 0. -1.
       -1    1    3    3    0  502  0.12405656248E+03  0.94256137056E+03 -0.19065831315E+03  0.96961980196E+03  0.50400001928E-02 0.  1.
</event>
<event>
 5   0  0.1807498E-04  0.1992436E+04  0.7818609E-02  0.8610165E-01
        2   -1    0    0  501    0  0.00000000000E+00  0.00000000000E+00  0.14056365337E+04  0.14056365337E+04  0.25500000920E-02 0.  1.
       -2   -1    0    0    0  501  0.00000000000E+00  0.00000000000E+00 -0.70605076301E+03  0.70605076301E+03  0.25500000920E-02 0. -1.
    10030    2    1    2    0    0  0.00000000000E+00  0.00000000000E+00  0.69958577065E+03  0.21116872967E+04  0.19924364453E+04 0.  0.
        5    1    3    3  502    0  0.17694982228E+03 -0.30509363451E+03  0.13372399462E+04  0.13829772699E+04  0.46999998093E+01 0.  1.
       -5    1    3    3    0  502 -0.17694982228E+03  0.30509363451E+03 -0.63765417558E+03  0.72871002672E+03  0.46999998093E+01 0. -1.
</event>
<event>
 5   0  0.1782172E-04  0.1964078E+04  0.7818609E-02  0.8623602E-01
       -2   -1    0    0    0  501  0.00000000000E+00  0.00000000000E+00  0.90550147851E+03  0.90550147852E+03  0.25500000920E-02 0. -1.
        2   -1    0    0  501    0  0.00000000000E+00  0.00000000000E+00 -0.10650458902E+04  0.10650458902E+04  0.25500000920E-02 0.  1.
    10030    2    1    2    0    0  0.00000000000E+00  0.00000000000E+00 -0.15954441167E+03  0.19705473687E+04  0.19640780313E+04 0.  0.
        2    1    3    3  502    0 -0.55207074211E+03 -0.55593926943E+03 -0.67379506720E+03  0.10333684571E+04  0.25500000920E-02 0.  1.
       -2    1    3    3    0  502  0.55207074211E+03  0.55593926943E+03  0.51425065553E+03  0.93717891158E+03  0.25500000920E-02 0. -1.
</event>
<event>
 5   0  0.1807498E-04  0.1975177E+04  0.7818609E-02  0.8618315E-01
        2   -1    0    0  501    0  0.00000000000E+00  0.00000000000E+00  0.10331813081E+04  0.10331813081E+04  0.25500000920E-02 0. -1.
       -2   -1    0    0    0  501  0.00000000000E+00  0.00000000000E+00 -0.94400719652E+03  0.94400719652E+03  0.25500000920E-02 0.  1.
    10030    2    1    2    0    0  0.00000000000E+00  0.00000000000E+00  0.89174111550E+02  0.19771885046E+04  0.19751765391E+04 0.  0.
        5    1    3    3  502    0  0.22704008007E+03 -0.73142538648E+03  0.66874300464E+03  0.10167446042E+04  0.46999998093E+01 0. -1.
       -5    1    3    3    0  502 -0.22704008007E+03  0.73142538648E+03 -0.57956889309E+03  0.96044390038E+03  0.46999998093E+01 0.  1.
</event>
<event>
 5   0  0.8861350E-05  0.1445725E+04  0.7818609E-02  0.8921369E-01
        1   -1    0    0  501    0  0.00000000000E+00  0.00000000000E+00  0.48051868110E+03  0.48051868113E+03  0.50400001928E-02 0. -1.
       -1   -1    0    0    0  501  0.00000000000E+00  0.00000000000E+00 -0.10874301612E+04  0.10874301612E+04  0.50400001928E-02 0.  1.
    10030    2    1    2    0    0  0.00000000000E+00  0.00000000000E+00 -0.60691148009E+03  0.15679488423E+04  0.14457254330E+04 0.  0.
        1    1    3    3  502    0  0.31642421851E+03  0.15385968180E+03  0.38138152793E+03  0.51889204813E+03  0.50400001928E-02 0. -1.
       -1    1    3    3    0  502 -0.31642421851E+03 -0.15385968180E+03 -0.98829300802E+03  0.10490567942E+04  0.50400001928E-02 0.  1.
</event>
<event>
 5   0  0.1893687E-04  0.2001263E+04  0.7818609E-02  0.8606031E-01
        2   -1    0    0  501    0  0.00000000000E+00  0.00000000000E+00  0.74565644196E+03  0.74565644196E+03  0.25500000920E-02 0.  1.
       -2   -1    0    0    0  501  0.00000000000E+00  0.00000000000E+00 -0.13427940931E+04  0.13427940931E+04  0.25500000920E-02 0. -1.
    10030    2    1    2    0    0  0.00000000000E+00  0.00000000000E+00 -0.59713765116E+03  0.20884505351E+04  0.20012626672E+04 0.  0.
        4    1    3    3  502    0  0.35763852489E+03 -0.83957540767E+03 -0.72690075625E+03  0.11666955481E+04  0.12699999809E+01 0. -1.
       -4    1    3    3    0  502 -0.35763852489E+03  0.83957540767E+03  0.12976310509E+03  0.92175498696E+03  0.12699999809E+01 0.  1.
</event>
<event>
 5   0  0.1812865E-04  0.1964852E+04  0.7818609E-02  0.8623232E-01
       -2   -1    0    0    0  501  0.00000000000E+00  0.00000000000E+00  0.65325084308E+03  0.65325084308E+03  0.25500000920E-02 0.  1.
        2   -1    0    0  501    0  0.00000000000E+00  0.00000000000E+00 -0.14774728261E+04  0.14774728261E+04  0.25500000920E-02 0. -1.
    10030    2    1    2    0    0  0.00000000000E+00  0.00000000000E+00 -0.82422198300E+03  0.21307236692E+04  0.19648515153E+04 0.  0.
        3    1    3    3  502    0 -0.42092974477E+03  0.49066382126E+03  0.39008661248E+03  0.75504993939E+03  0.10100000352E+00 0.  1.
       -3    1    3    3    0  502  0.42092974477E+03 -0.49066382126E+03 -0.12143085955E+04  0.13756737298E+04  0.10100000352E+00 0. -1.
</event>
<event>
 5   0  0.1807498E-04  0.2003072E+04  0.7818609E-02  0.8605186E-01
        2   -1    0    0  501    0  0.00000000000E+00  0.00000000000E+00  0.12027964563E+04  0.12027964563E+04  0.25500000920E-02 0.  1.
       -2   -1    0    0    0  501  0.00000000000E+00  0.00000000000E+00 -0.83395220246E+03  0.83395220247E+03  0.25500000920E-02 0. -1.
    10030    2    1    2    0    0  0.00000000000E+00  0.00000000000E+00  0.36884425379E+03  0.20367486587E+04  0.20030723939E+04 0.  0.
        5    1    3    3  502    0  0.57218459035E+03  0.66866564456E+03 -0.30167766359E+03  0.93034426550E+03  0.46999998093E+01 0. -1.
       -5    1    3    3    0  502 -0.57218459035E+03 -0.66866564456E+03  0.67052191738E+03  0.11064043932E+04  0.46999998093E+01 0.  1.
</event>
<event>
 5   0  0.1812865E-04  0.2008896E+04  0.7818609E-02  0.8602473E-01
        2   -1    0    0  501    0  0.00000000000E+00  0.00000000000E+00  0.16156430676E+04  0.16156430676E+04  0.25500000920E-02 0. -1.
       -2   -1    0    0    0  501  0.00000000000E+00  0.00000000000E+00 -0.62446724471E+03  0.62446724471E+03  0.25500000920E-02 0.  1.
    10030    2    1    2    0    0  0.00000000000E+00  0.00000000000E+00  0.99117582290E+03  0.22401103123E+04  0.20088963884E+04 0.  0.
        3    1    3    3  502    0  0.37959091405E+02  0.28794838202E+03  0.15677974159E+04  0.15944729257E+04  0.10100000352E+00 0. -1.
       -3    1    3    3    0  502 -0.37959091405E+02 -0.28794838202E+03 -0.57662159297E+03  0.64563738663E+03  0.10100000352E+00 0.  1.
</event>
<event>
 5   0  0.8765057E-05  0.1987043E+04  0.7818609E-02  0.8612702E-01
        1   -1    0    0  501    0  0.00000000000E+00  0.00000000000E+00  0.13358571433E+04  0.13358571433E+04  0.50400001928E-02 0. -1.
       -1   -1    0    0    0  501  0.00000000000E+00  0.00000000000E+00 -0.73891528064E+03  0.73891528066E+03  0.50400001928E-02 0.  1.
    10030    2    1    2    0    0  0.00000000000E+00  0.00000000000E+00  0.59694186263E+03  0.20747724239E+04  0.19870432868E+04 0.  0.
        3    1    3    3  502    0  0.83862143256E+02 -0.62275943498E+03  0.11020077859E+04  0.12685753203E+04  0.10100000352E+00 0. -1.
       -3    1    3    3    0  502 -0.83862143256E+02  0.62275943498E+03 -0.50506592324E+03  0.80619710365E+03  0.10100000352E+00 0.  1.
</event>
<event>
 5   0  0.8765057E-05  0.2032050E+04  0.7818609E-02  0.8591781E-01
        1   -1    0    0  501    0  0.00000000000E+00  0.00000000000E+00  0.23467070980E+04  0.23467070980E+04  0.50400001928E-02 0.  1.
       -1   -1    0    0    0  501  0.00000000000E+00  0.00000000000E+00 -0.43989593124E+03  0.43989593127E+03  0.50400001928E-02 0. -1.
    10030    2    1    2    0    0  0.00000000000E+00  0.00000000000E+00  0.19068111667E+04  0.27866030293E+04  0.20320501020E+04 0.  0.
        3    1    3    3  502    0 -0.47645771481E+02  0.60906488649E+03  0.20666965501E+04  0.21551020384E+04  0.10100000352E+00 0.  1.
       -3    1    3    3    0  502  0.47645771481E+02 -0.60906488649E+03 -0.15988538334E+03  0.63150099089E+03  0.10100000352E+00 0. -1.
</event>
<event>
 5   0  0.1893687E-04  0.1865572E+04  0.7818609E-02  0.8672186E-01
        2   -1    0    0  501    0  0.00000000000E+00  0.00000000000E+00  0.95391750007E+03  0.95391750007E+03  0.25500000920E-02 0. -1.
       -2   -1    0    0    0  501  0.00000000000E+00  0.00000000000E+00 -0.91212282359E+03  0.91212282360E+03  0.25500000920E-02 0.  1.
    10030    2    1    2    0    0  0.00000000000E+00  0.00000000000E+00  0.41794676476E+02  0.18660403237E+04  0.18655722164E+04 0.  0.
        4    1    3    3  502    0  0.48966225880E+03 -0.21874602478E+03 -0.74249096497E+03  0.91592215664E+03  0.12699999809E+01 0.  1.
       -4    1    3    3    0  502 -0.48966225880E+03  0.21874602478E+03  0.78428564145E+03  0.95011816704E+03  0.12699999809E+01 0. -1.
</event>
<event>
 5   0  0.8881384E-05  0.1985595E+04  0.7818609E-02  0.8613385E-01
       -1   -1    0    0    0  501  0.00000000000E+00  0.00000000000E+00  0.61022032051E+03  0.61022032053E+03  0.50400001928E-02 0.  1.
        1   -1    0    0  501    0  0.00000000000E+00  0.00000000000E+00 -0.16152312294E+04  0.16152312294E+04  0.50400001928E-02 0. -1.
    10030    2    1    2    0    0  0.00000000000E+00  0.00000000000E+00 -0.10050109089E+04  0.22254515500E+04  0.19855950429E+04 0.  0.
        5    1    3    3  502    0  0.74333669097E+03 -0.38347839496E+03  0.96906564863E+02  0.84203211806E+03  0.46999998093E+01 0. -1.
       -5    1    3    3    0  502 -0.74333669097E+03  0.38347839496E+03 -0.11019174738E+04  0.13834194319E+04  0.46999998093E+01 0.  1.
</event>
<event>
 5   0  0.8765057E-05  0.1956234E+04  0.7818609E-02  0.8627361E-01
        1   -1    0    0  501    0  0.00000000000E+00  0.00000000000E+00  0.17357057367E+04  0.17357057367E+04  0.50400001928E-02 0.  1.
       -1   -1    0    0    0  501  0.00000000000E+00  0.00000000000E+00 -0.55119503929E+03  0.55119503932E+03  0.50400001928E-02 0. -1.
    10030    2    1    2    0    0  0.00000000000E+00  0.00000000000E+00  0.11845106974E+04  0.22869007760E+04  0.19562335155E+04 0.  0.
        3    1    3    3  502    0  0.66800445778E+03  0.71332205913E+03  0.63980014991E+03  0.11680764349E+04  0.10100000352E+00 0.  1.
       -3    1    3    3    0  502 -0.66800445778E+03 -0.71332205913E+03  0.54471054752E+03  0.11188243412E+04  0.10100000352E+00 0. -1.
</event>
<event>
 5   0  0.6531625E-05  0.2019157E+04  0.7818609E-02  0.8597716E-01
       -3   -1    0    0    0  501  0.00000000000E+00  0.00000000000E+00  0.21607150101E+04  0.21607150125E+04  0.10100000352E+00 0. -1.
        3   -1    0    0  501    0  0.00000000000E+00  0.00000000000E+00 -0.47171838497E+03  0.47171839578E+03  0.10100000352E+00 0.  1.
    10030    2    1    2    0    0  0.00000000000E+00  0.00000000000E+00  0.16889966252E+04  0.26324334083E+04  0.20191572621E+04 0.  0.
        1    1    3    3  502    0  0.79138300895E+03 -0.47606615439E+03  0.13761942646E+04  0.16573583512E+04  0.50400001928E-02 0. -1.
       -1    1    3    3    0  502 -0.79138300895E+03  0.47606615439E+03  0.31280236056E+03  0.97507505711E+03  0.50400001928E-02 0.  1.
</event>
<event>
 5   0  0.8765057E-05  0.1951420E+04  0.7818609E-02  0.8629676E-01
        1   -1    0    0  501    0  0.00000000000E+00  0.00000000000E+00  0.10344167702E+04  0.10344167702E+04  0.50400001928E-02 0. -1.
       -1   -1    0    0    0  501  0.00000000000E+00  0.00000000000E+00 -0.92033536859E+03  0.92033536861E+03  0.50400001928E-02 0.  1.
    10030    2    1    2    0    0  0.00000000000E+00  0.00000000000E+00  0.11408140161E+03  0.19547521388E+04  0.19514203438E+04 0.  0.
        3    1    3    3  502    0  0.88447741636E+03  0.39607996095E+03 -0.56425349900E+02  0.97075407072E+03  0.10100000352E+00 0.  1.
       -3    1    3    3    0  502 -0.88447741636E+03 -0.39607996095E+03  0.17050675151E+03  0.98399806810E+03  0.10100000352E+00 0. -1.
</event>
<event>
 5   0  0.1834645E-04  0.1792897E+04  0.7818609E-02  0.8710086E-01
       -2   -1    0    0    0  501  0.00000000000E+00  0.00000000000E+00  0.15579387036E+04  0.15579387036E+04  0.25500000920E-02 0.  1.
        2   -1    0    0  501    0  0.00000000000E+00  0.00000000000E+00 -0.51582260788E+03  0.51582260788E+03  0.25500000920E-02 0. -1.
    10030    2    1    2    0    0  0.00000000000E+00  0.00000000000E+00  0.10421160957E+04  0.20737613115E+04  0.17928971025E+04 0.  0.
        1    1    3    3  502    0 -0.35116761181E+03  0.82075074193E+03  0.61551873839E+03  0.10843494775E+04  0.50400001928E-02 0. -1.
       -1    1    3    3    0  502  0.35116761181E+03 -0.82075074193E+03  0.42659735732E+03  0.98941183400E+03  0.50400001928E-02 0.  1.
</event>
<event>
 5   0  0.8577422E-05  0.1985727E+04  0.7818609E-02  0.8613323E-01
       -1   -1    0    0    0  501  0.00000000000E+00  0.00000000000E+00  0.59196061150E+03  0.59196061152E+03  0.50400001928E-02 0.  1.
        1   -1    0    0  501    0  0.00000000000E+00  0.00000000000E+00 -0.16652766511E+04  0.16652766511E+04  0.50400001928E-02 0. -1.
    10030    2    1    2    0    0  0.00000000000E+00  0.00000000000E+00 -0.10733160396E+04  0.22572372626E+04  0.19857272569E+04 0.  0.
        2    1    3    3  502    0  0.10562579139E+02  0.78376301410E+03 -0.12293946130E+04  0.14580147958E+04  0.25500000920E-02 0. -1.
       -2    1    3    3    0  502 -0.10562579139E+02 -0.78376301410E+03  0.15607857342E+03  0.79922246680E+03  0.25500000920E-02 0.  1.
</event>
<event>
 5   0  0.8765057E-05  0.1990499E+04  0.7818609E-02  0.8611075E-01
       -1   -1    0    0    0  501  0.00000000000E+00  0.00000000000E+00  0.69911874209E+03  0.69911874210E+03  0.50400001928E-02 0. -1.
        1   -1    0    0  501    0  0.00000000000E+00  0.00000000000E+00 -0.14168149203E+04  0.14168149203E+04  0.50400001928E-02 0.  1.
    10030    2    1    2    0    0  0.00000000000E+00  0.00000000000E+00 -0.71769617821E+03  0.21159336624E+04  0.19904992990E+04 0.  0.
        3    1    3    3  502    0  0.66606690028E+03 -0.70474486675E+03 -0.59704780284E+03  0.11387609635E+04  0.10100000352E+00 0.  1.
       -3    1    3    3    0  502 -0.66606690028E+03  0.70474486675E+03 -0.12064837537E+03  0.97717269894E+03  0.10100000352E+00 0. -1.
</event>
<event>
 5   0  0.8577422E-05  0.1976640E+04  0.7818609E-02  0.8617621E-01
       -1   -1    0    0    0  501  0.00000000000E+00  0.00000000000E+00  0.68502544340E+03  0.68502544342E+03  0.50400001928E-02 0. -1.
        1   -1    0    0  501    0  0.00000000000E+00  0.00000000000E+00 -0.14258978546E+04  0.14258978546E+04  0.50400001928E-02 0.  1.
    10030    2    1    2    0    0  0.00000000000E+00  0.00000000000E+00 -0.74087241117E+03  0.21109232980E+04  0.19766398864E+04 0.  0.
        2    1    3    3  502    0  0.44468849365E+03 -0.12200977312E+03  0.56310169272E+03  0.72781711815E+03  0.25500000920E-02 0. -1.
       -2    1    3    3    0  502 -0.44468849365E+03  0.12200977312E+03 -0.13039741039E+04  0.13831061799E+04  0.25500000920E-02 0.  1.
</event>
<event>
 5   0  0.8765057E-05  0.1950531E+04  0.7818609E-02  0.8630105E-01
        1   -1    0    0  501    0  0.00000000000E+00  0.00000000000E+00  0.15099733554E+04  0.15099733554E+04  0.50400001928E-02 0. -1.
       -1   -1    0    0    0  501  0.00000000000E+00  0.00000000000E+00 -0.62990680857E+03  0.62990680859E+03  0.50400001928E-02 0.  1.
    10030    2    1    2    0    0  0.00000000000E+00  0.00000000000E+00  0.88006654686E+03  0.21398801640E+04  0.19505306943E+04 0.  0.
        3    1    3    3  502    0  0.77191030511E+03 -0.55777716856E+03  0.67063224989E+03  0.11647783110E+04  0.10100000352E+00 0.  1.
       -3    1    3    3    0  502 -0.77191030511E+03  0.55777716856E+03  0.20943429697E+03  0.97510185306E+03  0.10100000352E+00 0. -1.
</event>
<event>
 5   0  0.1807498E-04  0.2019729E+04  0.7818609E-02  0.8597452E-01
        2   -1    0    0  501    0  0.00000000000E+00  0.00000000000E+00  0.85704211019E+03  0.85704211020E+03  0.25500000920E-02 0.  1.
       -2   -1    0    0    0  501  0.00000000000E+00  0.00000000000E+00 -0.11899371648E+04  0.11899371648E+04  0.25500000920E-02 0. -1.
    10030    2    1    2    0    0  0.00000000000E+00  0.00000000000E+00 -0.33289505465E+03  0.20469792750E+04  0.20197289509E+04 0.  0.
        5    1    3    3  502    0 -0.41965218576E+03 -0.91145120717E+03 -0.28179391737E+03  0.10422481288E+04  0.46999998093E+01 0. -1.
       -5    1    3    3    0  502  0.41965218576E+03  0.91145120717E+03 -0.51101137279E+02  0.10047311463E+04  0.46999998093E+01 0.  1.
</event>
<event>
 5   0  0.1834645E-04  0.2003530E+04  0.7818609E-02  0.8604972E-01
        2   -1    0    0  501    0  0.00000000000E+00  0.00000000000E+00  0.12492431988E+04  0.12492431989E+04  0.25500000920E-02 0. -1.
       -2   -1    0    0    0  501  0.00000000000E+00  0.00000000000E+00 -0.80331248557E+03  0.80331248558E+03  0.25500000920E-02 0.  1.
    10030    2    1    2    0    0  0.00000000000E+00  0.00000000000E+00  0.44593071328E+03  0.20525556844E+04  0.20035295447E+04 0.  0.
        1    1    3    3  502    0  0.34367181139E+03  0.75332142964E+03 -0.35468412016E+03  0.90077983737E+03  0.50400001928E-02 0.  1.
       -1    1    3    3    0  502 -0.34367181139E+03 -0.75332142964E+03  0.80061483344E+03  0.11517758471E+04  0.50400001928E-02 0. -1.
</event>
<event>
 5   0  0.8861350E-05  0.2010968E+04  0.7818609E-02  0.8601510E-01
       -1   -1    0    0    0  501  0.00000000000E+00  0.00000000000E+00  0.11118534165E+04  0.11118534165E+04  0.50400001928E-02 0.  1.
        1   -1    0    0  501    0  0.00000000000E+00  0.00000000000E+00 -0.90929097541E+03  0.90929097543E+03  0.50400001928E-02 0. -1.
    10030    2    1    2    0    0  0.00000000000E+00  0.00000000000E+00  0.20256244109E+03  0.20211443919E+04  0.20109682023E+04 0.  0.
        1    1    3    3  502    0  0.67087984555E+03 -0.70715934247E+03 -0.14663311483E+03  0.98572581035E+03  0.50400001928E-02 0.  1.
       -1    1    3    3    0  502 -0.67087984555E+03  0.70715934247E+03  0.34919555592E+03  0.10354185816E+04  0.50400001928E-02 0. -1.
</event>
<event>
 5   0  0.1782172E-04  0.1477217E+04  0.7818609E-02  0.8899746E-01
       -2   -1    0    0    0  501  0.00000000000E+00  0.00000000000E+00  0.92917319409E+03  0.92917319410E+03  0.25500000920E-02 0.  1.
        2   -1    0    0  501    0  0.00000000000E+00  0.00000000000E+00 -0.58712714759E+03  0.58712714759E+03  0.25500000920E-02 0. -1.
    10030    2    1    2    0    0  0.00000000000E+00  0.00000000000E+00  0.34204604651E+03  0.15163003417E+04  0.14772173937E+04 0.  0.
        2    1    3    3  502    0 -0.14270730890E+03 -0.38828232217E+03  0.79910599048E+03  0.89983271876E+03  0.25500000920E-02 0.  1.
       -2    1    3    3    0  502  0.14270730890E+03  0.38828232217E+03 -0.45705994398E+03  0.61646762293E+03  0.25500000920E-02 0. -1.
</event>
<event>
 5   0  0.1807498E-04  0.2004120E+04  0.7818609E-02  0.8604697E-01
        2   -1    0    0  501    0  0.00000000000E+00  0.00000000000E+00  0.18801330680E+04  0.18801330680E+04  0.25500000920E-02 0.  1.
       -2   -1    0    0    0  501  0.00000000000E+00  0.00000000000E+00 -0.53407101671E+03  0.53407101671E+03  0.25500000920E-02 0. -1.
    10030    2    1    2    0    0  0.00000000000E+00  0.00000000000E+00  0.13460620513E+04  0.24142040847E+04  0.20041203349E+04 0.  0.
        5    1    3    3  502    0 -0.64229106956E+02 -0.69473503742E+03  0.15394540055E+04  0.16901842726E+04  0.46999998093E+01 0.  1.
       -5    1    3    3    0  502  0.64229106956E+02  0.69473503742E+03 -0.19339195417E+03  0.72401981212E+03  0.46999998093E+01 0. -1.
</event>
<event>
 5   0  0.8577422E-05  0.1989689E+04  0.7818609E-02  0.8611457E-01
       -1   -1    0    0    0  501  0.00000000000E+00  0.00000000000E+00  0.11759948130E+04  0.11759948130E+04  0.50400001928E-02 0.  1.
        1   -1    0    0  501    0  0.00000000000E+00  0.00000000000E+00 -0.84159873451E+03  0.84159873453E+03  0.50400001928E-02 0. -1.
    10030    2    1    2    0    0  0.00000000000E+00  0.00000000000E+00  0.33439607848E+03  0.20175935475E+04  0.19896891681E+04 0.  0.
        2    1    3    3  502    0 -0.24628342573E+02  0.26423231339E+03  0.11394410393E+04  0.11699363883E+04  0.25500000920E-02 0.  1.
       -2    1    3    3    0  502  0.24628342573E+02 -0.26423231339E+03 -0.80504496079E+03  0.84765715923E+03  0.25500000920E-02 0. -1.
</event>
<event>
 5   0  0.1782172E-04  0.2075285E+04  0.7818609E-02  0.8572209E-01
       -2   -1    0    0    0  501  0.00000000000E+00  0.00000000000E+00  0.79310667058E+03  0.79310667058E+03  0.25500000920E-02 0.  1.
        2   -1    0    0  501    0  0.00000000000E+00  0.00000000000E+00 -0.13575756069E+04  0.13575756069E+04  0.25500000920E-02 0. -1.
    10030    2    1    2    0    0  0.00000000000E+00  0.00000000000E+00 -0.56446893629E+03  0.21506822775E+04  0.20752853005E+04 0.  0.
        2    1    3    3  502    0 -0.91320774358E+03 -0.33752539205E+03  0.89735422064E+02  0.97771377161E+03  0.25500000920E-02 0.  1.
       -2    1    3    3    0  502  0.91320774358E+03  0.33752539205E+03 -0.65420435836E+03  0.11729685058E+04  0.25500000920E-02 0. -1.
</event>
<event>
 5   0  0.1812865E-04  0.1981062E+04  0.7818609E-02  0.8615527E-01
       -2   -1    0    0    0  501  0.00000000000E+00  0.00000000000E+00  0.76835744725E+03  0.76835744725E+03  0.25500000920E-02 0. -1.
        2   -1    0    0  501    0  0.00000000000E+00  0.00000000000E+00 -0.12769463430E+04  0.12769463430E+04  0.25500000920E-02 0.  1.
    10030    2    1    2    0    0  0.00000000000E+00  0.00000000000E+00 -0.50858889574E+03  0.20453037902E+04  0.19810615663E+04 0.  0.
        3    1    3    3  502    0 -0.92217479350E+03  0.35808324340E+03 -0.30613491944E+03  0.10355426394E+04  0.10100000352E+00 0.  1.
       -3    1    3    3    0  502  0.92217479350E+03 -0.35808324340E+03 -0.20245397630E+03  0.10097611508E+04  0.10100000352E+00 0. -1.
</event>
<event>
 5   0  0.6531625E-05  0.2006998E+04  0.7818609E-02  0.8603356E-01
       -3   -1    0    0    0  501  0.00000000000E+00  0.00000000000E+00  0.56789827351E+03  0.56789828250E+03  0.10100000352E+00 0. -1.
        3   -1    0    0  501    0  0.00000000000E+00  0.00000000000E+00 -0.17732223472E+04  0.17732223501E+04  0.10100000352E+00 0.  1.
    10030    2    1    2    0    0  0.00000000000E+00  0.00000000000E+00 -0.12053240737E+04  0.23411206326E+04  0.20069976815E+04 0.  0.
        4    1    3    3  502    0 -0.79549421938E+03 -0.51946193691E+03 -0.22583957240E+03  0.97655357371E+03  0.12699999809E+01 0. -1.
       -4    1    3    3    0  502  0.79549421938E+03  0.51946193691E+03 -0.97948450130E+03  0.13645670589E+04  0.12699999809E+01 0.  1.
</event>
<event>
 5   0  0.8881384E-05  0.2130736E+04  0.7818609E-02  0.8547823E-01
        1   -1    0    0  501    0  0.00000000000E+00  0.00000000000E+00  0.93798653335E+03  0.93798653336E+03  0.50400001928E-02 0. -1.
       -1   -1    0    0    0  501  0.00000000000E+00  0.00000000000E+00 -0.12100482992E+04  0.12100482992E+04  0.50400001928E-02 0.  1.
    10030    2    1    2    0    0  0.00000000000E+00  0.00000000000E+00 -0.27206176583E+03  0.21480348326E+04  0.21307360319E+04 0.  0.
        5    1    3    3  502    0 -0.62636616710E+03  0.50773006049E+03 -0.83800480890E+03  0.11629267128E+04  0.46999998093E+01 0.  1.
       -5    1    3    3    0  502  0.62636616710E+03 -0.50773006049E+03  0.56594304307E+03  0.98510811976E+03  0.46999998093E+01 0. -1.
</event>
<event>
 5   0  0.1834645E-04  0.1979280E+04  0.7818609E-02  0.8616370E-01
       -2   -1    0    0    0  501  0.00000000000E+00  0.00000000000E+00  0.51783226256E+03  0.51783226256E+03  0.25500000920E-02 0.  1.
        2   -1    0    0  501    0  0.00000000000E+00  0.00000000000E+00 -0.18913206932E+04  0.18913206932E+04  0.25500000920E-02 0. -1.
    10030    2    1    2    0    0  0.00000000000E+00  0.00000000000E+00 -0.13734884306E+04  0.24091529558E+04  0.19792795394E+04 0.  0.
        1    1    3    3  502    0 -0.59506826208E+03  0.49242702658E+03 -0.14398241602E+04  0.16339168355E+04  0.50400001928E-02 0. -1.
       -1    1    3    3    0  502  0.59506826208E+03 -0.49242702658E+03  0.66335729602E+02  0.77523612022E+03  0.50400001928E-02 0.  1.
</event>
<event>
 5   0  0.8958919E-05  0.1922605E+04  0.7818609E-02  0.8643686E-01
       -1   -1    0    0    0  501  0.00000000000E+00  0.00000000000E+00  0.14293273505E+04  0.14293273505E+04  0.50400001928E-02 0.  1.
        1   -1    0    0  501    0  0.00000000000E+00  0.00000000000E+00 -0.64652960385E+03  0.64652960387E+03  0.50400001928E-02 0. -1.
    10030    2    1    2    0    0  0.00000000000E+00  0.00000000000E+00  0.78279774662E+03  0.20758569543E+04  0.19226049472E+04 0.  0.
        4    1    3    3  502    0 -0.81030864097E+03  0.26383054209E+03  0.87171136698E+03  0.12190524881E+04  0.12699999809E+01 0.  1.
       -4    1    3    3    0  502  0.81030864097E+03 -0.26383054209E+03 -0.88913620361E+02  0.85680446623E+03  0.12699999809E+01 0. -1.
</event>
<event>
 5   0  0.8577422E-05  0.2038922E+04  0.7818609E-02  0.8588637E-01
       -1   -1    0    0    0  501  0.00000000000E+00  0.00000000000E+00  0.85215362072E+03  0.85215362074E+03  0.50400001928E-02 0.  1.
        1   -1    0    0  501    0  0.00000000000E+00  0.00000000000E+00 -0.12196161071E+04  0.12196161071E+04  0.50400001928E-02 0. -1.
    10030    2    1    2    0    0  0.00000000000E+00  0.00000000000E+00 -0.36746248639E+03  0.20717697279E+04  0.20389215596E+04 0.  0.
        2    1    3    3  502    0  0.50902731164E+03 -0.77326401142E+03 -0.61752149931E+03  0.11128247110E+04  0.25500000920E-02 0.  1.
       -2    1    3    3    0  502 -0.50902731164E+03  0.77326401142E+03  0.25005901293E+03  0.95894501683E+03  0.25500000920E-02 0. -1.
</event>
<event>
 5   0  0.1893687E-04  0.2083783E+04  0.7818609E-02  0.8568421E-01
       -2   -1    0    0    0  501  0.00000000000E+00  0.00000000000E+00  0.64179101881E+03  0.64179101881E+03  0.25500000920E-02 0. -1.
        2   -1    0    0  501    0  0.00000000000E+00  0.00000000000E+00 -0.16914188934E+04  0.16914188935E+04  0.25500000920E-02 0.  1.
    10030    2    1    2    0    0  0.00000000000E+00  0.00000000000E+00 -0.10496278746E+04  0.23332099123E+04  0.20837825749E+04 0.  0.
        4    1    3    3  502    0 -0.24113598172E+03 -0.19317085310E+03 -0.16389424912E+04  0.16678116328E+04  0.12699999809E+01 0.  1.
       -4    1    3    3    0  502  0.24113598172E+03  0.19317085310E+03  0.58931461654E+03  0.66539827947E+03  0.12699999809E+01 0. -1.
</event>
<event>
 5   0  0.1782172E-04  0.2001722E+04  0.7818609E-02  0.8605816E-01
       -2   -1    0    0    0  501  0.00000000000E+00  0.00000000000E+00  0.45001081322E+03  0.45001081323E+03  0.25500000920E-02 0. -1.
        2   -1    0    0  501    0  0.00000000000E+00  0.00000000000E+00 -0.22259980793E+04  0.22259980793E+04  0.25500000920E-02 0.  1.
    10030    2    1    2    0    0  0.00000000000E+00  0.00000000000E+00 -0.17759872661E+04  0.26760088925E+04  0.20017224642E+04 0.  0.
        2    1    3    3  502    0  0.63638952393E+03 -0.36580437605E+03  0.21576245128E+02  0.73435005418E+03  0.25500000920E-02 0.  1.
       -2    1    3    3    0  502 -0.63638952393E+03  0.36580437605E+03 -0.17975635112E+04  0.19416588384E+04  0.25500000920E-02 0. -1.
</event>
<event>
 5   0  0.1812865E-04  0.1993097E+04  0.7818609E-02  0.8609855E-01
        2   -1    0    0  501    0  0.00000000000E+00  0.00000000000E+00  0.19278465558E+04  0.19278465558E+04  0.25500000920E-02 0.  1.
       -2   -1    0    0    0  501  0.00000000000E+00  0.00000000000E+00 -0.51513908432E+03  0.51513908432E+03  0.25500000920E-02 0. -1.
    10030    2    1    2    0    0  0.00000000000E+00  0.00000000000E+00  0.14127074715E+04  0.24429856401E+04  0.19930971973E+04 0.  0.
        3    1    3    3  502    0  0.21594119690E+03  0.13493290354E+03 -0.47459207524E+03  0.53858623920E+03  0.10100000352E+00 0. -1.
       -3    1    3    3    0  502 -0.21594119690E+03 -0.13493290354E+03  0.18872995467E+04  0.19043994009E+04  0.10100000352E+00 0.  1.
</event>
<event>
 5   0  0.6531625E-05  0.1986834E+04  0.7818609E-02  0.8612801E-01
       -4   -1    0    0    0  501  0.00000000000E+00  0.00000000000E+00  0.79539717795E+03  0.79539819185E+03  0.12699999809E+01 0. -1.
        4   -1    0    0  501    0  0.00000000000E+00  0.00000000000E+00 -0.12407336892E+04  0.12407343391E+04  0.12699999809E+01 0.  1.
    10030    2    1    2    0    0  0.00000000000E+00  0.00000000000E+00 -0.44533651120E+03  0.20361325310E+04  0.19868344359E+04 0.  0.
        5    1    3    3  502    0  0.66039252320E+03  0.73119251545E+03 -0.35268177036E+03  0.10465024130E+04  0.46999998093E+01 0.  1.
       -5    1    3    3    0  502 -0.66039252320E+03 -0.73119251545E+03 -0.92654740842E+02  0.98963011794E+03  0.46999998093E+01 0. -1.
</event>
<event>
 5   0  0.1893687E-04  0.1954318E+04  0.7818609E-02  0.8628281E-01
       -2   -1    0    0    0  501  0.00000000000E+00  0.00000000000E+00  0.11568787695E+04  0.11568787695E+04  0.25500000920E-02 0. -1.
        2   -1    0    0  501    0  0.00000000000E+00  0.00000000000E+00 -0.82535870523E+03  0.82535870524E+03  0.25500000920E-02 0.  1.
    10030    2    1    2    0    0  0.00000000000E+00  0.00000000000E+00  0.33152006431E+03  0.19822374748E+04  0.19543182580E+04 0.  0.
        4    1    3    3  502    0  0.59256014673E+03  0.10379421479E+03  0.94678493708E+03  0.11217415462E+04  0.12699999809E+01 0. -1.
       -4    1    3    3    0  502 -0.59256014673E+03 -0.10379421479E+03 -0.61526487277E+03  0.86049592857E+03  0.12699999809E+01 0.  1.
</event>
<event>
 5   0  0.1812865E-04  0.2009385E+04  0.7818609E-02  0.8602245E-01
        2   -1    0    0  501    0  0.00000000000E+00  0.00000000000E+00  0.83778612708E+03  0.83778612709E+03  0.25500000920E-02 0. -1.
       -2   -1    0    0    0  501  0.00000000000E+00  0.00000000000E+00 -0.12048507085E+04  0.12048507085E+04  0.25500000920E-02 0.  1.
    10030    2    1    2    0    0  0.00000000000E+00  0.00000000000E+00 -0.36706458139E+03  0.20426368356E+04  0.20093851883E+04 0.  0.
        3    1    3    3  502    0 -0.95658239803E+02  0.90163570317E+03 -0.62348719648E+03  0.11003789049E+04  0.10100000352E+00 0.  1.
       -3    1    3    3    0  502  0.95658239803E+02 -0.90163570317E+03  0.25642261509E+03  0.94225793062E+03  0.10100000352E+00 0. -1.
</event>
<event>
 5   0  0.8765057E-05  0.2025387E+04  0.7818609E-02  0.8594843E-01
       -1   -1    0    0    0  501  0.00000000000E+00  0.00000000000E+00  0.50086224690E+03  0.50086224693E+03  0.50400001928E-02 0. -1.
        1   -1    0    0  501    0  0.00000000000E+00  0.00000000000E+00 -0.20475643803E+04  0.20475643803E+04  0.50400001928E-02 0.  1.
    10030    2    1    2    0    0  0.00000000000E+00  0.00000000000E+00 -0.15467021334E+04  0.25484266272E+04  0.20253865767E+04 0.  0.
        3    1    3    3  502    0  0.30856714412E+03  0.90657888233E+03 -0.35899237846E+03  0.10227289427E+04  0.10100000352E+00 0. -1.
       -3    1    3    3    0  502 -0.30856714412E+03 -0.90657888233E+03 -0.11877097549E+04  0.15256976845E+04  0.10100000352E+00 0.  1.
</event>
<event>
 5   0  0.1812865E-04  0.1993798E+04  0.7818609E-02  0.8609526E-01
       -2   -1    0    0    0  501  0.00000000000E+00  0.00000000000E+00  0.66840790681E+03  0.66840790681E+03  0.25500000920E-02 0.  1.
        2   -1    0    0  501    0  0.00000000000E+00  0.00000000000E+00 -0.14868276010E+04  0.14868276010E+04  0.25500000920E-02 0. -1.
    10030    2    1    2    0    0  0.00000000000E+00  0.00000000000E+00 -0.81841969418E+03  0.21552355078E+04  0.19937977075E+04 0.  0.
        3    1    3    3  502    0 -0.44756197279E+03  0.75072051202E+03  0.10910856979E+03  0.88079378793E+03  0.10100000352E+00 0. -1.
       -3    1    3    3    0  502  0.44756197279E+03 -0.75072051202E+03 -0.92752826397E+03  0.12744417199E+04  0.10100000352E+00 0.  1.
</event>
<event>
 5   0  0.8577422E-05  0.2003465E+04  0.7818609E-02  0.8605003E-01
       -1   -1    0    0    0  501  0.00000000000E+00  0.00000000000E+00  0.54466143010E+03  0.54466143012E+03  0.50400001928E-02 0. -1.
        1   -1    0    0  501    0  0.00000000000E+00  0.00000000000E+00 -0.18423697138E+04  0.18423697138E+04  0.50400001928E-02 0.  1.
    10030    2    1    2    0    0  0.00000000000E+00  0.00000000000E+00 -0.12977082837E+04  0.23870311439E+04  0.20034647220E+04 0.  0.
        2    1    3    3  502    0  0.61897677489E+03 -0.27595293819E+03 -0.15277751579E+04  0.16713405413E+04  0.25500000920E-02 0.  1.
       -2    1    3    3    0  502 -0.61897677489E+03  0.27595293819E+03  0.23006687426E+03  0.71569060255E+03  0.25500000920E-02 0. -1.
</event>
<event>
 5   0  0.8861350E-05  0.1970925E+04  0.7818609E-02  0.8620336E-01
        1   -1    0    0  501    0  0.00000000000E+00  0.00000000000E+00  0.13543341041E+04  0.13543341041E+04  0.50400001928E-02 0.  1.
       -1   -1    0    0    0  501  0.00000000000E+00  0.00000000000E+00 -0.71705835879E+03  0.71705835881E+03  0.50400001928E-02 0. -1.
    10030    2    1    2    0    0  0.00000000000E+00  0.00000000000E+00  0.63727574530E+03  0.20713924629E+04  0.19709252548E+04 0.  0.
        1    1    3    3  502    0 -0.27609482303E+03  0.52634105772E+02 -0.67403974432E+03  0.73029328174E+03  0.50400001928E-02 0. -1.
       -1    1    3    3    0  502  0.27609482303E+03 -0.52634105772E+02  0.13113154896E+04  0.13410991812E+04  0.50400001928E-02 0.  1.
</event>
<event>
 5   0  0.1893687E-04  0.2042015E+04  0.7818609E-02  0.8587225E-01
       -2   -1    0    0    0  501  0.00000000000E+00  0.00000000000E+00  0.10972408702E+04  0.10972408702E+04  0.25500000920E-02 0.  1.
        2   -1    0    0  501    0  0.00000000000E+00  0.00000000000E+00 -0.95007064757E+03  0.95007064757E+03  0.25500000920E-02 0. -1.
    10030    2    1    2    0    0  0.00000000000E+00  0.00000000000E+00  0.14717022267E+03  0.20473115178E+04  0.20420150285E+04 0.  0.
        4    1    3    3  502    0 -0.85825710738E+03  0.50038172101E+03  0.30971159056E+03  0.10406296225E+04  0.12699999809E+01 0.  1.
       -4    1    3    3    0  502  0.85825710738E+03 -0.50038172101E+03 -0.16254136789E+03  0.10066818953E+04  0.12699999809E+01 0. -1.
</event>
<event>
 5   0  0.1893687E-04  0.1990718E+04  0.7818609E-02  0.8610973E-01
        2   -1    0    0  501    0  0.00000000000E+00  0.00000000000E+00  0.11893517417E+04  0.11893517417E+04  0.25500000920E-02 0. -1.
       -2   -1    0    0    0  501  0.00000000000E+00  0.00000000000E+00 -0.83300809707E+03  0.83300809708E+03  0.25500000920E-02 0.  1.
    10030    2    1    2    0    0  0.00000000000E+00  0.00000000000E+00  0.35634364465E+03  0.20223598388E+04  0.19907180927E+04 0.  0.
        4    1    3    3  502    0  0.52107522865E+03  0.50651105063E+03  0.86917823314E+03  0.11329365614E+04  0.12699999809E+01 0. -1.
       -4    1    3    3    0  502 -0.52107522865E+03 -0.50651105063E+03 -0.51283458849E+03  0.88942327739E+03  0.12699999809E+01 0.  1.
</event>
<event>
 5   0  0.1893687E-04  0.2064019E+04  0.7818609E-02  0.8577261E-01
        2   -1    0    0  501    0  0.00000000000E+00  0.00000000000E+00  0.13514883769E+04  0.13514883769E+04  0.25500000920E-02 0. -1.
       -2   -1    0    0    0  501  0.00000000000E+00  0.00000000000E+00 -0.78805273231E+03  0.78805273231E+03  0.25500000920E-02 0.  1.
    10030    2    1    2    0    0  0.00000000000E+00  0.00000000000E+00  0.56343564458E+03  0.21395411092E+04  0.20640194845E+04 0.  0.
        4    1    3    3  502    0  0.23048593355E+03 -0.80732436097E+03 -0.34036212812E+03  0.90594943598E+03  0.12699999809E+01 0.  1.
       -4    1    3    3    0  502 -0.23048593355E+03  0.80732436097E+03  0.90379777270E+03  0.12335916732E+04  0.12699999809E+01 0. -1.
</event>
<event>
 5   0  0.8861350E-05  0.1996874E+04  0.7818609E-02  0.8608083E-01
       -1   -1    0    0    0  501  0.00000000000E+00  0.00000000000E+00  0.64976880543E+03  0.64976880545E+03  0.50400001928E-02 0.  1.
        1   -1    0    0  501    0  0.00000000000E+00  0.00000000000E+00 -0.15342024338E+04  0.15342024338E+04  0.50400001928E-02 0. -1.
    10030    2    1    2    0    0  0.00000000000E+00  0.00000000000E+00 -0.88443362840E+03  0.21839712393E+04  0.19968744405E+04 0.  0.
        1    1    3    3  502    0  0.26797628886E+03 -0.89927072066E+03 -0.81532189049E+03  0.12430804099E+04  0.50400001928E-02 0.  1.
       -1    1    3    3    0  502 -0.26797628886E+03  0.89927072066E+03 -0.69111737911E+02  0.94089082936E+03  0.50400001928E-02 0. -1.
</event>
<event>
 5   0  0.1812865E-04  0.1991561E+04  0.7818609E-02  0.8610576E-01
       -2   -1    0    0    0  501  0.00000000000E+00  0.00000000000E+00  0.71157366286E+03  0.71157366286E+03  0.25500000920E-02 0. -1.
        2   -1    0    0  501    0  0.00000000000E+00  0.00000000000E+00 -0.13935015191E+04  0.13935015191E+04  0.25500000920E-02 0.  1.
    10030    2    1    2    0    0  0.00000000000E+00  0.00000000000E+00 -0.68192785627E+03  0.21050751820E+04  0.19915611767E+04 0.  0.
        3    1    3    3  502    0  0.32764137050E+03  0.77961355614E+03 -0.89670020874E+03  0.12325653894E+04  0.10100000352E+00 0.  1.
       -3    1    3    3    0  502 -0.32764137050E+03 -0.77961355614E+03  0.21477235247E+03  0.87250979259E+03  0.10100000352E+00 0. -1.
</event>
<event>
 5   0  0.1834645E-04  0.1989175E+04  0.7818609E-02  0.8611698E-01
        2   -1    0    0  501    0  0.00000000000E+00  0.00000000000E+00  0.81734244523E+03  0.81734244523E+03  0.25500000920E-02 0.  1.
       -2   -1    0    0    0  501  0.00000000000E+00  0.00000000000E+00 -0.12102696223E+04  0.12102696223E+04  0.25500000920E-02 0. -1.
    10030    2    1    2    0    0  0.00000000000E+00  0.00000000000E+00 -0.39292717706E+03  0.20276120675E+04  0.19891754397E+04 0.  0.
        1    1    3    3  502    0 -0.61539783354E+03  0.25960686236E+03  0.55472587484E+03  0.86823442270E+03  0.50400001928E-02 0.  1.
       -1    1    3    3    0  502  0.61539783354E+03 -0.25960686236E+03 -0.94765305191E+03  0.11593776448E+04  0.50400001928E-02 0. -1.
</event>
<event>
 5   0  0.8577422E-05  0.2042004E+04  0.7818609E-02  0.8587231E-01
        1   -1    0    0  501    0  0.00000000000E+00  0.00000000000E+00  0.10911384626E+04  0.10911384627E+04  0.50400001928E-02 0.  1.
       -1   -1    0    0    0  501  0.00000000000E+00  0.00000000000E+00 -0.95537348236E+03  0.95537348238E+03  0.50400001928E-02 0. -1.
    10030    2    1    2    0    0  0.00000000000E+00  0.00000000000E+00  0.13576498028E+03  0.20465119450E+04  0.20420036756E+04 0.  0.
        2    1    3    3  502    0 -0.31215630195E+03  0.90572454307E+03  0.42174308966E+03  0.10467309771E+04  0.25500000920E-02 0. -1.
       -2    1    3    3    0  502  0.31215630195E+03 -0.90572454307E+03 -0.28597810939E+03  0.99978096792E+03  0.25500000920E-02 0.  1.
</event>
<event>
 5   0  0.8861350E-05  0.1979451E+04  0.7818609E-02  0.8616289E-01
       -1   -1    0    0    0  501  0.00000000000E+00  0.00000000000E+00  0.12141200472E+04  0.12141200472E+04  0.50400001928E-02 0. -1.
        1   -1    0    0  501    0  0.00000000000E+00  0.00000000000E+00 -0.80680352020E+03  0.80680352022E+03  0.50400001928E-02 0.  1.
    10030    2    1    2    0    0  0.00000000000E+00  0.00000000000E+00  0.40731652698E+03  0.20209235674E+04  0.19794507602E+04 0.  0.
        1    1    3    3  502    0 -0.96695616656E+03  0.21052064261E+03  0.18806879603E+03  0.10073197313E+04  0.50400001928E-02 0. -1.
       -1    1    3    3    0  502  0.96695616656E+03 -0.21052064261E+03  0.21924773095E+03  0.10136038361E+04  0.50400001928E-02 0.  1.
</event>
<event>
 5   0  0.8577422E-05  0.1991584E+04  0.7818609E-02  0.8610565E-01
        1   -1    0    0  501    0  0.00000000000E+00  0.00000000000E+00  0.10433700446E+04  0.10433700446E+04  0.50400001928E-02 0.  1.
       -1   -1    0    0    0  501  0.00000000000E+00  0.00000000000E+00 -0.95038386124E+03  0.95038386126E+03  0.50400001928E-02 0. -1.
    10030    2    1    2    0    0  0.00000000000E+00  0.00000000000E+00  0.92986183323E+02  0.19937539058E+04  0.19915843459E+04 0.  0.
        2    1    3    3  502    0  0.28831225334E+03  0.45619296639E+03  0.88428352593E+03  0.10359504487E+04  0.25500000920E-02 0.  1.
       -2    1    3    3    0  502 -0.28831225334E+03 -0.45619296639E+03 -0.79129734260E+03  0.95780345710E+03  0.25500000920E-02 0. -1.
</event>
<event>
 5   0  0.1812865E-04  0.1957101E+04  0.7818609E-02  0.8626944E-01
        2   -1    0    0  501    0  0.00000000000E+00  0.00000000000E+00  0.23461536335E+04  0.23461536335E+04  0.25500000920E-02 0.  1.
       -2   -1    0    0    0  501  0.00000000000E+00  0.00000000000E+00 -0.40814080065E+03  0.40814080066E+03  0.25500000920E-02 0. -1.
    10030    2    1    2    0    0  0.00000000000E+00  0.00000000000E+00  0.19380128328E+04  0.27542944341E+04  0.19571009401E+04 0.  0.
        3    1    3    3  502    0 -0.10708102396E+03 -0.23766679339E+03  0.22963909787E+04  0.23111389806E+04  0.10100000352E+00 0.  1.
       -3    1    3    3    0  502  0.10708102396E+03  0.23766679339E+03 -0.35837814587E+03  0.44315545355E+03  0.10100000352E+00 0. -1.
</event>
<event>
 5   0  0.8577422E-05  0.2018568E+04  0.7818609E-02  0.8597988E-01
       -1   -1    0    0    0  501  0.00000000000E+00  0.00000000000E+00  0.12477159423E+04  0.12477159423E+04  0.50400001928E-02 0. -1.
        1   -1    0    0  501    0  0.00000000000E+00  0.00000000000E+00 -0.81641553044E+03  0.81641553046E+03  0.50400001928E-02 0.  1.
    10030    2    1    2    0    0  0.00000000000E+00  0.00000000000E+00  0.43130041186E+03  0.20641314728E+04  0.20185684758E+04 0.  0.
        2    1    3    3  502    0  0.32916541722E+03 -0.20152640259E+03  0.11692729145E+04  0.12313252663E+04  0.25500000920E-02 0. -1.
       -2    1    3    3    0  502 -0.32916541722E+03  0.20152640259E+03 -0.73797250265E+03  0.83280620646E+03  0.25500000920E-02 0.  1.
</event>
<event>
 5   0  0.1782172E-04  0.2053626E+04  0.7818609E-02  0.8581951E-01
       -2   -1    0    0    0  501  0.00000000000E+00  0.00000000000E+00  0.16877018047E+04  0.16877018047E+04  0.25500000920E-02 0. -1.
        2   -1    0    0  501    0  0.00000000000E+00  0.00000000000E+00 -0.62472219050E+03  0.62472219051E+03  0.25500000920E-02 0.  1.
    10030    2    1    2    0    0  0.00000000000E+00  0.00000000000E+00  0.10629796142E+04  0.23124239952E+04  0.20536258358E+04 0.  0.
        2    1    3    3  502    0  0.53940274793E+03 -0.87029603898E+03  0.61852357499E+03  0.11962198514E+04  0.25500000920E-02 0.  1.
       -2    1    3    3    0  502 -0.53940274793E+03  0.87029603898E+03  0.44445603921E+03  0.11162041438E+04  0.25500000920E-02 0. -1.
</event>
<event>
 5   0  0.8765057E-05  0.1963208E+04  0.7818609E-02  0.8624018E-01
       -1   -1    0    0    0  501  0.00000000000E+00  0.00000000000E+00  0.39894825377E+03  0.39894825380E+03  0.50400001928E-02 0.  1.
        1   -1    0    0  501    0  0.00000000000E+00  0.00000000000E+00 -0.24152162907E+04  0.24152162908E+04  0.50400001928E-02 0. -1.
    10030    2    1    2    0    0  0.00000000000E+00  0.00000000000E+00 -0.20162680370E+04  0.28141645446E+04  0.19632079072E+04 0.  0.
        3    1    3    3  502    0  0.39284252577E+03  0.34113418558E+03  0.18503602760E+03  0.55221021752E+03  0.10100000352E+00 0.  1.
       -3    1    3    3    0  502 -0.39284252577E+03 -0.34113418558E+03 -0.22013040646E+04  0.22619543270E+04  0.10100000352E+00 0. -1.
</event>
<event>
 5   0  0.8861350E-05  0.1992684E+04  0.7818609E-02  0.8610049E-01
       -1   -1    0    0    0  501  0.00000000000E+00  0.00000000000E+00  0.57992609406E+03  0.57992609408E+03  0.50400001928E-02 0. -1.
        1   -1    0    0  501    0  0.00000000000E+00  0.00000000000E+00 -0.17117655705E+04  0.17117655705E+04  0.50400001928E-02 0.  1.
    10030    2    1    2    0    0  0.00000000000E+00  0.00000000000E+00 -0.11318394765E+04  0.22916916646E+04  0.19926841408E+04 0.  0.
        1    1    3    3  502    0  0.93573935865E+03 -0.21514295796E+03 -0.87193507114E+03  0.12969831950E+04  0.50400001928E-02 0. -1.
       -1    1    3    3    0  502 -0.93573935865E+03  0.21514295796E+03 -0.25990440534E+03  0.99470846967E+03  0.50400001928E-02 0.  1.
</event>
<event>
 5   0  0.1893687E-04  0.2003725E+04  0.7818609E-02  0.8604881E-01
        2   -1    0    0  501    0  0.00000000000E+00  0.00000000000E+00  0.49246110884E+03  0.49246110885E+03  0.25500000920E-02 0. -1.
       -2   -1    0    0    0  501  0.00000000000E+00  0.00000000000E+00 -0.20381885149E+04  0.20381885149E+04  0.25500000920E-02 0.  1.
    10030    2    1    2    0    0  0.00000000000E+00  0.00000000000E+00 -0.15457274061E+04  0.25306496238E+04  0.20037251070E+04 0.  0.
        4    1    3    3  502    0  0.30072645745E+03  0.33165764800E+03 -0.19048236968E+04  0.19567289354E+04  0.12699999809E+01 0.  1.
       -4    1    3    3    0  502 -0.30072645745E+03 -0.33165764800E+03  0.35909629072E+03  0.57392068842E+03  0.12699999809E+01 0. -1.
</event>
<event>
 5   0  0.1807498E-04  0.1994989E+04  0.7818609E-02  0.8608967E-01
       -2   -1    0    0    0  501  0.00000000000E+00  0.00000000000E+00  0.10266453144E+04  0.10266453144E+04  0.25500000920E-02 0. -1.
        2   -1    0    0  501    0  0.00000000000E+00  0.00000000000E+00 -0.96917125516E+03  0.96917125517E+03  0.25500000920E-02 0.  1.
    10030    2    1    2    0    0  0.00000000000E+00  0.00000000000E+00  0.57474059253E+02  0.19958165696E+04  0.19949888501E+04 0.  0.
        5    1    3    3  502    0 -0.41771231537E+03 -0.89178515651E+03  0.18757536469E+03  0.10024823945E+04  0.46999998093E+01 0.  1.
       -5    1    3    3    0  502  0.41771231537E+03  0.89178515651E+03 -0.13010130543E+03  0.99333417512E+03  0.46999998093E+01 0. -1.
</event>
<event>
 5   0  0.8577422E-05  0.2009648E+04  0.7818609E-02  0.8602123E-01
        1   -1    0    0  501    0  0.00000000000E+00  0.00000000000E+00  0.68731180675E+03  0.68731180677E+03  0.50400001928E-02 0.  1.
       -1   -1    0    0    0  501  0.00000000000E+00  0.00000000000E+00 -0.14690154706E+04  0.14690154706E+04  0.50400001928E-02 0. -1.
    10030    2    1    2    0    0  0.00000000000E+00  0.00000000000E+00 -0.78170366383E+03  0.21563272774E+04  0.20096484043E+04 0.  0.
        2    1    3    3  502    0  0.52707796920E+03 -0.36993022882E+03  0.43681871190E+03  0.77811962248E+03  0.25500000920E-02 0.  1.
       -2    1    3    3    0  502 -0.52707796920E+03  0.36993022882E+03 -0.12185223757E+04  0.13782076549E+04  0.25500000920E-02 0. -1.
</event>
<event>
 5   0  0.8577422E-05  0.2005274E+04  0.7818609E-02  0.8604159E-01
       -1   -1    0    0    0  501  0.00000000000E+00  0.00000000000E+00  0.98557710717E+03  0.98557710718E+03  0.50400001928E-02 0.  1.
        1   -1    0    0  501    0  0.00000000000E+00  0.00000000000E+00 -0.10199921060E+04  0.10199921060E+04  0.50400001928E-02 0. -1.
    10030    2    1    2    0    0  0.00000000000E+00  0.00000000000E+00 -0.34414998829E+02  0.20055692132E+04  0.20052739156E+04 0.  0.
        2    1    3    3  502    0 -0.28366182054E+03 -0.81924721483E+03  0.48650427603E+03  0.99414105541E+03  0.25500000920E-02 0.  1.
       -2    1    3    3    0  502  0.28366182054E+03  0.81924721483E+03 -0.52091927486E+03  0.10114281578E+04  0.25500000920E-02 0. -1.
</event>
<event>
 5   0  0.8861350E-05  0.1883540E+04  0.7818609E-02  0.8663093E-01
       -1   -1    0    0    0  501  0.00000000000E+00  0.00000000000E+00  0.76868515044E+03  0.76868515046E+03  0.50400001928E-02 0.  1.
        1   -1    0    0  501    0  0.00000000000E+00  0.00000000000E+00 -0.11538285076E+04  0.11538285076E+04  0.50400001928E-02 0. -1.
    10030    2    1    2    0    0  0.00000000000E+00  0.00000000000E+00 -0.38514335714E+03  0.19225136580E+04  0.18835401137E+04 0.  0.
        1    1    3    3  502    0  0.13948823578E+03  0.66724505322E+03  0.47068778821E+03  0.82838392244E+03  0.50400001928E-02 0.  1.
       -1    1    3    3    0  502 -0.13948823578E+03 -0.66724505322E+03 -0.85583114535E+03  0.10941297356E+04  0.50400001928E-02 0. -1.
</event>
<event>
 5   0  0.8881384E-05  0.2083631E+04  0.7818609E-02  0.8568488E-01
       -1   -1    0    0    0  501  0.00000000000E+00  0.00000000000E+00  0.14912764596E+04  0.14912764596E+04  0.50400001928E-02 0. -1.
        1   -1    0    0  501    0  0.00000000000E+00  0.00000000000E+00 -0.72781921638E+03  0.72781921639E+03  0.50400001928E-02 0.  1.
    10030    2    1    2    0    0  0.00000000000E+00  0.00000000000E+00  0.76345724322E+03  0.22190956760E+04  0.20836311231E+04 0.  0.
        5    1    3    3  502    0  0.42154321485E+03  0.87319253601E+03  0.78754452148E+03  0.12491646610E+04  0.46999998093E+01 0.  1.
       -5    1    3    3    0  502 -0.42154321485E+03 -0.87319253601E+03 -0.24087278262E+02  0.96993101502E+03  0.46999998093E+01 0. -1.
</event>
<event>
 5   0  0.8765057E-05  0.1995713E+04  0.7818609E-02  0.8608627E-01
        1   -1    0    0  501    0  0.00000000000E+00  0.00000000000E+00  0.15090470531E+04  0.15090470531E+04  0.50400001928E-02 0. -1.
       -1   -1    0    0    0  501  0.00000000000E+00  0.00000000000E+00 -0.65983234885E+03  0.65983234887E+03  0.50400001928E-02 0.  1.
    10030    2    1    2    0    0  0.00000000000E+00  0.00000000000E+00  0.84921470421E+03  0.21688794019E+04  0.19957134680E+04 0.  0.
        3    1    3    3  502    0  0.93252387444E+02  0.88266135709E+03 -0.70953291469E+02  0.89040522170E+03  0.10100000352E+00 0.  1.
       -3    1    3    3    0  502 -0.93252387444E+02 -0.88266135709E+03  0.92016799568E+03  0.12784741802E+04  0.10100000352E+00 0. -1.
</event>
<event>
 5   0  0.1834645E-04  0.2018798E+04  0.7818609E-02  0.8597882E-01
       -2   -1    0    0    0  501  0.00000000000E+00  0.00000000000E+00  0.90946242153E+03  0.90946242153E+03  0.25500000920E-02 0. -1.
        2   -1    0    0  501    0  0.00000000000E+00  0.00000000000E+00 -0.11203169839E+04  0.11203169839E+04  0.25500000920E-02 0.  1.
    10030    2    1    2    0    0  0.00000000000E+00  0.00000000000E+00 -0.21085456242E+03  0.20297794055E+04  0.20187978572E+04 0.  0.
        1    1    3    3  502    0 -0.42820848476E+03 -0.23451544328E+02  0.81331226152E+03  0.91945055120E+03  0.50400001928E-02 0. -1.
       -1    1    3    3    0  502  0.42820848476E+03  0.23451544328E+02 -0.10241668239E+04  0.11103288543E+04  0.50400001928E-02 0.  1.
</event>
<event>
 5   0  0.8881384E-05  0.2001072E+04  0.7818609E-02  0.8606120E-01
       -1   -1    0    0    0  501  0.00000000000E+00  0.00000000000E+00  0.10891983264E+04  0.10891983264E+04  0.50400001928E-02 0.  1.
        1   -1    0    0  501    0  0.00000000000E+00  0.00000000000E+00 -0.91909062299E+03  0.91909062300E+03  0.50400001928E-02 0. -1.
    10030    2    1    2    0    0  0.00000000000E+00  0.00000000000E+00  0.17010770338E+03  0.20082889494E+04  0.20010716812E+04 0.  0.
        5    1    3    3  502    0  0.62748952388E+03 -0.77802596934E+03  0.12973821390E+03  0.10079293654E+04  0.46999998093E+01 0.  1.
       -5    1    3    3    0  502 -0.62748952388E+03  0.77802596934E+03  0.40369489487E+02  0.10003595840E+04  0.46999998093E+01 0. -1.
</event>
<event>
 5   0  0.8861350E-05  0.2013944E+04  0.7818609E-02  0.8600129E-01
       -1   -1    0    0    0  501  0.00000000000E+00  0.00000000000E+00  0.12127253372E+04  0.12127253372E+04  0.50400001928E-02 0. -1.
        1   -1    0    0  501    0  0.00000000000E+00  0.00000000000E+00 -0.83612705791E+03  0.83612705793E+03  0.50400001928E-02 0.  1.
    10030    2    1    2    0    0  0.00000000000E+00  0.00000000000E+00  0.37659827929E+03  0.20488523951E+04  0.20139438605E+04 0.  0.
        1    1    3    3  502    0 -0.80394565527E+03 -0.12256780098E+03 -0.41582989001E+03  0.91338161789E+03  0.50400001928E-02 0.  1.
       -1    1    3    3    0  502  0.80394565527E+03  0.12256780098E+03  0.79242816930E+03  0.11354707772E+04  0.50400001928E-02 0. -1.
</event>
<event>
 5   0  0.8765057E-05  0.2004194E+04  0.7818609E-02  0.8604662E-01
        1   -1    0    0  501    0  0.00000000000E+00  0.00000000000E+00  0.14515394855E+04  0.14515394856E+04  0.50400001928E-02 0. -1.
       -1   -1    0    0    0  501  0.00000000000E+00  0.00000000000E+00 -0.69181639956E+03  0.69181639958E+03  0.50400001928E-02 0.  1.
    10030    2    1    2    0    0  0.00000000000E+00  0.00000000000E+00  0.75972308599E+03  0.21433558851E+04  0.20041944224E+04 0.  0.
        3    1    3    3  502    0 -0.11829399205E+03  0.75563901556E+03  0.10722867283E+04  0.13171114715E+04  0.10100000352E+00 0. -1.
       -3    1    3    3    0  502  0.11829399205E+03 -0.75563901556E+03 -0.31256364232E+03  0.82624441365E+03  0.10100000352E+00 0.  1.
</event>
<event>
 5   0  0.8958919E-05  0.1956148E+04  0.7818609E-02  0.8627402E-01
       -1   -1    0    0    0  501  0.00000000000E+00  0.00000000000E+00  0.11035685742E+04  0.11035685742E+04  0.50400001928E-02 0. -1.
        1   -1    0    0  501    0  0.00000000000E+00  0.00000000000E+00 -0.86684996724E+03  0.86684996725E+03  0.50400001928E-02 0.  1.
    10030    2    1    2    0    0  0.00000000000E+00  0.00000000000E+00  0.23671860698E+03  0.19704185415E+04  0.19561476247E+04 0.  0.
        4    1    3    3  502    0  0.63224970875E+03  0.74509047298E+03  0.76495756947E+02  0.98017994311E+03  0.12699999809E+01 0. -1.
       -4    1    3    3    0  502 -0.63224970875E+03 -0.74509047298E+03  0.16022285003E+03  0.99023859837E+03  0.12699999809E+01 0.  1.
</event>
<event>
 5   0  0.8765057E-05  0.1977453E+04  0.7818609E-02  0.8617235E-01
       -1   -1    0    0    0  501  0.00000000000E+00  0.00000000000E+00  0.66412366669E+03  0.66412366671E+03  0.50400001928E-02 0.  1.
        1   -1    0    0  501    0  0.00000000000E+00  0.00000000000E+00 -0.14719846975E+04  0.14719846975E+04  0.50400001928E-02 0. -1.
    10030    2    1    2    0    0  0.00000000000E+00  0.00000000000E+00 -0.80786103083E+03  0.21361083642E+04  0.19774527804E+04 0.  0.
        3    1    3    3  502    0 -0.56718295701E+03 -0.47997382078E+03  0.30071594260E+03  0.80156189012E+03  0.10100000352E+00 0.  1.
       -3    1    3    3    0  502  0.56718295701E+03  0.47997382078E+03 -0.11085769734E+04  0.13345464741E+04  0.10100000352E+00 0. -1.
</event>
<event>
 5   0  0.1834645E-04  0.1996008E+04  0.7818609E-02  0.8608490E-01
       -2   -1    0    0    0  501  0.00000000000E+00  0.00000000000E+00  0.67267571213E+03  0.67267571213E+03  0.25500000920E-02 0. -1.
        2   -1    0    0  501    0  0.00000000000E+00  0.00000000000E+00 -0.14806712382E+04  0.14806712382E+04  0.25500000920E-02 0.  1.
    10030    2    1    2    0    0  0.00000000000E+00  0.00000000000E+00 -0.80799552612E+03  0.21533469504E+04  0.19960075948E+04 0.  0.
        1    1    3    3  502    0 -0.49952992176E+03 -0.51946407031E+03  0.34081376039E+03  0.79719952482E+03  0.50400001928E-02 0. -1.
       -1    1    3    3    0  502  0.49952992176E+03  0.51946407031E+03 -0.11488092865E+04  0.13561474256E+04  0.50400001928E-02 0.  1.
</event>
<event>
 5   0  0.1812865E-04  0.2018064E+04  0.7818609E-02  0.8598221E-01
        2   -1    0    0  501    0  0.00000000000E+00  0.00000000000E+00  0.74047319410E+03  0.74047319410E+03  0.25500000920E-02 0. -1.
       -2   -1    0    0    0  501  0.00000000000E+00  0.00000000000E+00 -0.13749937032E+04  0.13749937032E+04  0.25500000920E-02 0.  1.
    10030    2    1    2    0    0  0.00000000000E+00  0.00000000000E+00 -0.63452050914E+03  0.21154668973E+04  0.20180643987E+04 0.  0.
        3    1    3    3  502    0 -0.52330180351E+03  0.22123480793E+03  0.55686753234E+03  0.79554451577E+03  0.10100000352E+00 0. -1.
       -3    1    3    3    0  502  0.52330180351E+03 -0.22123480793E+03 -0.11913880415E+04  0.13199223816E+04  0.10100000352E+00 0.  1.
</event>
<event>
 5   0  0.8765057E-05  0.2020704E+04  0.7818609E-02  0.8597001E-01
        1   -1    0    0  501    0  0.00000000000E+00  0.00000000000E+00  0.74603293617E+03  0.74603293619E+03  0.50400001928E-02 0. -1.
       -1   -1    0    0    0  501  0.00000000000E+00  0.00000000000E+00 -0.13683195950E+04  0.13683195950E+04  0.50400001928E-02 0.  1.
    10030    2    1    2    0    0  0.00000000000E+00  0.00000000000E+00 -0.62228665878E+03  0.21143525312E+04  0.20207043179E+04 0.  0.
        3    1    3    3  502    0 -0.66617248109E+03  0.46438457991E+03  0.31785903526E+03  0.87205113905E+03  0.10100000352E+00 0. -1.
       -3    1    3    3    0  502  0.66617248109E+03 -0.46438457991E+03 -0.94014569404E+03  0.12423013921E+04  0.10100000352E+00 0.  1.
</event>
<event>
 5   0  0.6531625E-05  0.1505560E+04  0.7818609E-02  0.8880764E-01
        4   -1    0    0  501    0  0.00000000000E+00  0.00000000000E+00  0.48732830430E+03  0.48732995914E+03  0.12699999809E+01 0.  1.
       -4   -1    0    0    0  501  0.00000000000E+00  0.00000000000E+00 -0.11628215718E+04  0.11628222654E+04  0.12699999809E+01 0. -1.
    10030    2    1    2    0    0  0.00000000000E+00  0.00000000000E+00 -0.67549326755E+03  0.16501522245E+04  0.15055600983E+04 0.  0.
        2    1    3    3  502    0  0.47546863282E+03 -0.42615410496E+03 -0.77479002527E+03  0.10039807395E+04  0.25500000920E-02 0. -1.
       -2    1    3    3    0  502 -0.47546863282E+03  0.42615410496E+03  0.99296757729E+02  0.64617148504E+03  0.25500000920E-02 0.  1.
</event>
<event>
 5   0  0.8958919E-05  0.1956414E+04  0.7818609E-02  0.8627274E-01
       -1   -1    0    0    0  501  0.00000000000E+00  0.00000000000E+00  0.79375560559E+03  0.79375560561E+03  0.50400001928E-02 0. -1.
        1   -1    0    0  501    0  0.00000000000E+00  0.00000000000E+00 -0.12055203960E+04  0.12055203960E+04  0.50400001928E-02 0.  1.
    10030    2    1    2    0    0  0.00000000000E+00  0.00000000000E+00 -0.41176479036E+03  0.19992760016E+04  0.19564136290E+04 0.  0.
        4    1    3    3  502    0 -0.20536778908E+02  0.14242526446E+03  0.78287970051E+03  0.79599557387E+03  0.12699999809E+01 0. -1.
       -4    1    3    3    0  502  0.20536778908E+02 -0.14242526446E+03 -0.11946444909E+04  0.12032804277E+04  0.12699999809E+01 0.  1.
</event>
<event>
 5   0  0.8577422E-05  0.1710160E+04  0.7818609E-02  0.8755591E-01
        1   -1    0    0  501    0  0.00000000000E+00  0.00000000000E+00  0.13221044905E+04  0.13221044905E+04  0.50400001928E-02 0. -1.
       -1   -1    0    0    0  501  0.00000000000E+00  0.00000000000E+00 -0.55302844997E+03  0.55302845000E+03  0.50400001928E-02 0.  1.
    10030    2    1    2    0    0  0.00000000000E+00  0.00000000000E+00  0.76907604052E+03  0.18751329405E+04  0.17101595213E+04 0.  0.
        2    1    3    3  502    0  0.56055682070E+03 -0.59815393172E+03  0.65120566509E+03  0.10469388203E+04  0.25500000920E-02 0. -1.
       -2    1    3    3    0  502 -0.56055682070E+03  0.59815393172E+03  0.11787037542E+03  0.82819412016E+03  0.25500000920E-02 0.  1.
</event>
<event>
 5   0  0.8861350E-05  0.1938495E+04  0.7818609E-02  0.8635928E-01
        1   -1    0    0  501    0  0.00000000000E+00  0.00000000000E+00  0.79969896579E+03  0.79969896581E+03  0.50400001928E-02 0. -1.
       -1   -1    0    0    0  501  0.00000000000E+00  0.00000000000E+00 -0.11747434878E+04  0.11747434878E+04  0.50400001928E-02 0.  1.
    10030    2    1    2    0    0  0.00000000000E+00  0.00000000000E+00 -0.37504452197E+03  0.19744424536E+04  0.19384954498E+04 0.  0.
        1    1    3    3  502    0  0.16926064437E+03 -0.80154595826E+03 -0.71512012814E+03  0.10874382220E+04  0.50400001928E-02 0.  1.
       -1    1    3    3    0  502 -0.16926064437E+03  0.80154595826E+03  0.34007560617E+03  0.88700423160E+03  0.50400001928E-02 0. -1.
</event>
<event>
 5   0  0.8881384E-05  0.1882031E+04  0.7818609E-02  0.8663853E-01
        1   -1    0    0  501    0  0.00000000000E+00  0.00000000000E+00  0.14326516800E+04  0.14326516800E+04  0.50400001928E-02 0. -1.
       -1   -1    0    0    0  501  0.00000000000E+00  0.00000000000E+00 -0.61809191593E+03  0.61809191595E+03  0.50400001928E-02 0.  1.
    10030    2    1    2    0    0  0.00000000000E+00  0.00000000000E+00  0.81455976407E+03  0.20507435960E+04  0.18820312662E+04 0.  0.
        5    1    3    3  502    0  0.10895497596E+03 -0.75599579107E+03  0.10061751944E+04  0.12632543033E+04  0.46999998093E+01 0. -1.
       -5    1    3    3    0  502 -0.10895497596E+03  0.75599579107E+03 -0.19161543037E+03  0.78748929266E+03  0.46999998093E+01 0.  1.
</event>
<event>
 5   0  0.1807498E-04  0.1981237E+04  0.7818609E-02  0.8615444E-01
       -2   -1    0    0    0  501  0.00000000000E+00  0.00000000000E+00  0.85559536359E+03  0.85559536359E+03  0.25500000920E-02 0. -1.
        2   -1    0    0  501    0  0.00000000000E+00  0.00000000000E+00 -0.11469498455E+04  0.11469498455E+04  0.25500000920E-02 0.  1.
    10030    2    1    2    0    0  0.00000000000E+00  0.00000000000E+00 -0.29135448192E+03  0.20025452091E+04  0.19812369571E+04 0.  0.
        5    1    3    3  502    0  0.50965707855E+03  0.84518303729E+03 -0.59803647289E+02  0.98877867618E+03  0.46999998093E+01 0.  1.
       -5    1    3    3    0  502 -0.50965707855E+03 -0.84518303729E+03 -0.23155083464E+03  0.10137665329E+04  0.46999998093E+01 0. -1.
</event>
<event>
 5   0  0.1893687E-04  0.2000958E+04  0.7818609E-02  0.8606173E-01
        2   -1    0    0  501    0  0.00000000000E+00  0.00000000000E+00  0.79694187765E+03  0.79694187766E+03  0.25500000920E-02 0. -1.
       -2   -1    0    0    0  501  0.00000000000E+00  0.00000000000E+00 -0.12559991996E+04  0.12559991996E+04  0.25500000920E-02 0.  1.
    10030    2    1    2    0    0  0.00000000000E+00  0.00000000000E+00 -0.45905732199E+03  0.20529410773E+04  0.20009581310E+04 0.  0.
        4    1    3    3  502    0 -0.91283801312E+03  0.40463180289E+03 -0.29406440143E+03  0.10409013494E+04  0.12699999809E+01 0. -1.
       -4    1    3    3    0  502  0.91283801312E+03 -0.40463180289E+03 -0.16499292056E+03  0.10120397279E+04  0.12699999809E+01 0.  1.
</event>
<event>
 5   0  0.8881384E-05  0.2018269E+04  0.7818609E-02  0.8598127E-01
       -1   -1    0    0    0  501  0.00000000000E+00  0.00000000000E+00  0.10536318394E+04  0.10536318394E+04  0.50400001928E-02 0. -1.
        1   -1    0    0  501    0  0.00000000000E+00  0.00000000000E+00 -0.96651642147E+03  0.96651642148E+03  0.50400001928E-02 0.  1.
    10030    2    1    2    0    0  0.00000000000E+00  0.00000000000E+00  0.87115417938E+02  0.20201482609E+04  0.20182690356E+04 0.  0.
        5    1    3    3  502    0  0.40561611330E+03 -0.89160871805E+03 -0.19923741242E+03  0.99960400859E+03  0.46999998093E+01 0. -1.
       -5    1    3    3    0  502 -0.40561611330E+03  0.89160871805E+03  0.28635283036E+03  0.10205442523E+04  0.46999998093E+01 0.  1.
</event>
<event>
 5   0  0.6531625E-05  0.2040479E+04  0.7818609E-02  0.8587926E-01
        3   -1    0    0  501    0  0.00000000000E+00  0.00000000000E+00  0.15101427991E+04  0.15101428025E+04  0.10100000352E+00 0.  1.
       -3   -1    0    0    0  501  0.00000000000E+00  0.00000000000E+00 -0.68926512570E+03  0.68926513310E+03  0.10100000352E+00 0. -1.
    10030    2    1    2    0    0  0.00000000000E+00  0.00000000000E+00  0.82087767344E+03  0.21994079356E+04  0.20404791380E+04 0.  0.
        1    1    3    3  502    0 -0.49303748792E+03  0.88254892762E+03  0.55866393110E+03  0.11550255244E+04  0.50400001928E-02 0.  1.
       -1    1    3    3    0  502  0.49303748792E+03 -0.88254892762E+03  0.26221374235E+03  0.10443824112E+04  0.50400001928E-02 0. -1.
</event>
<event>
 5   0  0.1834645E-04  0.2003794E+04  0.7818609E-02  0.8604849E-01
        2   -1    0    0  501    0  0.00000000000E+00  0.00000000000E+00  0.87559107455E+03  0.87559107456E+03  0.25500000920E-02 0. -1.
       -2   -1    0    0    0  501  0.00000000000E+00  0.00000000000E+00 -0.11464225979E+04  0.11464225979E+04  0.25500000920E-02 0.  1.
    10030    2    1    2    0    0  0.00000000000E+00  0.00000000000E+00 -0.27083152334E+03  0.20220136725E+04  0.20037937962E+04 0.  0.
        1    1    3    3  502    0 -0.80880166773E+03  0.23027342426E+03 -0.68498825092E+03  0.10846173941E+04  0.50400001928E-02 0.  1.
       -1    1    3    3    0  502  0.80880166773E+03 -0.23027342426E+03  0.41415672759E+03  0.93739627836E+03  0.50400001928E-02 0. -1.
</event>
<event>
 5   0  0.1893687E-04  0.1996670E+04  0.7818609E-02  0.8608179E-01
        2   -1    0    0  501    0  0.00000000000E+00  0.00000000000E+00  0.13129701998E+04  0.13129701998E+04  0.25500000920E-02 0. -1.
       -2   -1    0    0    0  501  0.00000000000E+00  0.00000000000E+00 -0.75909798057E+03  0.75909798058E+03  0.25500000920E-02 0.  1.
    10030    2    1    2    0    0  0.00000000000E+00  0.00000000000E+00  0.55387221927E+03  0.20720681804E+04  0.19966702555E+04 0.  0.
        4    1    3    3  502    0  0.22309660980E+03  0.78399469995E+03 -0.32124301351E+03  0.87613838717E+03  0.12699999809E+01 0.  1.
       -4    1    3    3    0  502 -0.22309660980E+03 -0.78399469995E+03  0.87511523278E+03  0.11959297933E+04  0.12699999809E+01 0. -1.
</event>
<event>
 5   0  0.1893687E-04  0.2011639E+04  0.7818609E-02  0.8601198E-01
       -2   -1    0    0    0  501  0.00000000000E+00  0.00000000000E+00  0.17798603363E+04  0.17798603363E+04  0.25500000920E-02 0.  1.
        2   -1    0    0  501    0  0.00000000000E+00  0.00000000000E+00 -0.56840000175E+03  0.56840000176E+03  0.25500000920E-02 0. -1.
    10030    2    1    2    0    0  0.00000000000E+00  0.00000000000E+00  0.12114603345E+04  0.23482603380E+04  0.20116387531E+04 0.  0.
        4    1    3    3  502    0  0.93018046317E+03 -0.37611707451E+03  0.52342456789E+03  0.11316689617E+04  0.12699999809E+01 0. -1.
       -4    1    3    3    0  502 -0.93018046317E+03  0.37611707451E+03  0.68803576664E+03  0.12165913763E+04  0.12699999809E+01 0.  1.
</event>
<event>
 5   0  0.8958919E-05  0.2015059E+04  0.7818609E-02  0.8599612E-01
        1   -1    0    0  501    0  0.00000000000E+00  0.00000000000E+00  0.15034476663E+04  0.15034476663E+04  0.50400001928E-02 0.  1.
       -1   -1    0    0    0  501  0.00000000000E+00  0.00000000000E+00 -0.67519204009E+03  0.67519204010E+03  0.50400001928E-02 0. -1.
    10030    2    1    2    0    0  0.00000000000E+00  0.00000000000E+00  0.82825562623E+03  0.21786397064E+04  0.20150592021E+04 0.  0.
        4    1    3    3  502    0 -0.85265587430E+03  0.48545253101E+03  0.16656831203E+03  0.99520491122E+03  0.12699999809E+01 0.  1.
       -4    1    3    3    0  502  0.85265587430E+03 -0.48545253101E+03  0.66168731420E+03  0.11834347952E+04  0.12699999809E+01 0. -1.
</event>
<event>
 5   0  0.8765057E-05  0.2039433E+04  0.7818609E-02  0.8588403E-01
       -1   -1    0    0    0  501  0.00000000000E+00  0.00000000000E+00  0.97085893272E+03  0.97085893273E+03  0.50400001928E-02 0.  1.
        1   -1    0    0  501    0  0.00000000000E+00  0.00000000000E+00 -0.10710326664E+04  0.10710326664E+04  0.50400001928E-02 0. -1.
    10030    2    1    2    0    0  0.00000000000E+00  0.00000000000E+00 -0.10017373365E+03  0.20418915991E+04  0.20394328931E+04 0.  0.
        3    1    3    3  502    0 -0.48976522855E+03 -0.50814262568E+03  0.68683221507E+03  0.98479307927E+03  0.10100000352E+00 0.  1.
       -3    1    3    3    0  502  0.48976522855E+03  0.50814262568E+03 -0.78700594872E+03  0.10570985198E+04  0.10100000352E+00 0. -1.
</event>
<event>
 5   0  0.8765057E-05  0.2014424E+04  0.7818609E-02  0.8599907E-01
        1   -1    0    0  501    0  0.00000000000E+00  0.00000000000E+00  0.20253312114E+04  0.20253312114E+04  0.50400001928E-02 0. -1.
       -1   -1    0    0    0  501  0.00000000000E+00  0.00000000000E+00 -0.50089365249E+03  0.50089365252E+03  0.50400001928E-02 0.  1.
    10030    2    1    2    0    0  0.00000000000E+00  0.00000000000E+00  0.15244375589E+04  0.25262248639E+04  0.20144235384E+04 0.  0.
        3    1    3    3  502    0  0.50368359655E+02 -0.63140619096E+03 -0.21985752511E+03  0.67048347570E+03  0.10100000352E+00 0.  1.
       -3    1    3    3    0  502 -0.50368359655E+02  0.63140619096E+03  0.17442950840E+04  0.18557413882E+04  0.10100000352E+00 0. -1.
</event>
<event>
 5   0  0.1893687E-04  0.2001484E+04  0.7818609E-02  0.8605927E-01
        2   -1    0    0  501    0  0.00000000000E+00  0.00000000000E+00  0.10945519765E+04  0.10945519765E+04  0.25500000920E-02 0.  1.
       -2   -1    0    0    0  501  0.00000000000E+00  0.00000000000E+00 -0.91497191243E+03  0.91497191243E+03  0.25500000920E-02 0. -1.
    10030    2    1    2    0    0  0.00000000000E+00  0.00000000000E+00  0.17958006410E+03  0.20095238890E+04  0.20014837648E+04 0.  0.
        4    1    3    3  502    0 -0.46029594632E+03  0.83924877364E+03  0.38297649833E+03  0.10309624016E+04  0.12699999809E+01 0.  1.
       -4    1    3    3    0  502  0.46029594632E+03 -0.83924877364E+03 -0.20339643424E+03  0.97856148740E+03  0.12699999809E+01 0. -1.
</event>
<event>
 5   0  0.8958919E-05  0.1973573E+04  0.7818609E-02  0.8619077E-01
        1   -1    0    0  501    0  0.00000000000E+00  0.00000000000E+00  0.91056328781E+03  0.91056328782E+03  0.50400001928E-02 0.  1.
       -1   -1    0    0    0  501  0.00000000000E+00  0.00000000000E+00 -0.10693903823E+04  0.10693903823E+04  0.50400001928E-02 0. -1.
    10030    2    1    2    0    0  0.00000000000E+00  0.00000000000E+00 -0.15882709449E+03  0.19799536701E+04  0.19735730262E+04 0.  0.
        4    1    3    3  502    0  0.21901712313E+03  0.56103609893E+03 -0.86361586310E+03  0.10528836481E+04  0.12699999809E+01 0. -1.
       -4    1    3    3    0  502 -0.21901712313E+03 -0.56103609893E+03  0.70478876860E+03  0.92707002204E+03  0.12699999809E+01 0.  1.
</event>
<event>
 5   0  0.1834645E-04  0.1981888E+04  0.7818609E-02  0.8615136E-01
       -2   -1    0    0    0  501  0.00000000000E+00  0.00000000000E+00  0.12104689649E+04  0.12104689649E+04  0.25500000920E-02 0. -1.
        2   -1    0    0  501    0  0.00000000000E+00  0.00000000000E+00 -0.81123073025E+03  0.81123073025E+03  0.25500000920E-02 0.  1.
    10030    2    1    2    0    0  0.00000000000E+00  0.00000000000E+00  0.39923823467E+03  0.20216996952E+04  0.19818876077E+04 0.  0.
        1    1    3    3  502    0 -0.16528617304E+03 -0.89945166852E+03 -0.18967082764E+03  0.93397422121E+03  0.50400001928E-02 0.  1.
       -1    1    3    3    0  502  0.16528617304E+03  0.89945166852E+03  0.58890906231E+03  0.10877254740E+04  0.50400001928E-02 0. -1.
</event>
<event>
 5   0  0.8881384E-05  0.1990613E+04  0.7818609E-02  0.8611022E-01
        1   -1    0    0  501    0  0.00000000000E+00  0.00000000000E+00  0.13699639018E+04  0.13699639018E+04  0.50400001928E-02 0. -1.
       -1   -1    0    0    0  501  0.00000000000E+00  0.00000000000E+00 -0.72311041068E+03  0.72311041070E+03  0.50400001928E-02 0.  1.
    10030    2    1    2    0    0  0.00000000000E+00  0.00000000000E+00  0.64685349112E+03  0.20930743125E+04  0.19906131314E+04 0.  0.
        5    1    3    3  502    0 -0.21534499958E+03 -0.53073724243E+03  0.11793002791E+04  0.13110403226E+04  0.46999998093E+01 0. -1.
       -5    1    3    3    0  502  0.21534499958E+03  0.53073724243E+03 -0.53244678795E+03  0.78203398989E+03  0.46999998093E+01 0.  1.
</event>
<event>
 5   0  0.1812865E-04  0.2006061E+04  0.7818609E-02  0.8603792E-01
        2   -1    0    0  501    0  0.00000000000E+00  0.00000000000E+00  0.98079997750E+03  0.98079997751E+03  0.25500000920E-02 0. -1.
       -2   -1    0    0    0  501  0.00000000000E+00  0.00000000000E+00 -0.10257647898E+04  0.10257647898E+04  0.25500000920E-02 0.  1.
    10030    2    1    2    0    0  0.00000000000E+00  0.00000000000E+00 -0.44964812316E+02  0.20065647673E+04  0.20060608992E+04 0.  0.
        3    1    3    3  502    0 -0.40905311401E+03 -0.75752476982E+03  0.49233303131E+03  0.99174596087E+03  0.10100000352E+00 0. -1.
       -3    1    3    3    0  502  0.40905311401E+03  0.75752476982E+03 -0.53729784363E+03  0.10148188065E+04  0.10100000352E+00 0.  1.
</event>
<event>
 5   0  0.1834645E-04  0.2005489E+04  0.7818609E-02  0.8604059E-01
       -2   -1    0    0    0  501  0.00000000000E+00  0.00000000000E+00  0.85053139567E+03  0.85053139567E+03  0.25500000920E-02 0.  1.
        2   -1    0    0  501    0  0.00000000000E+00  0.00000000000E+00 -0.11821974470E+04  0.11821974470E+04  0.25500000920E-02 0. -1.
    10030    2    1    2    0    0  0.00000000000E+00  0.00000000000E+00 -0.33166605128E+03  0.20327288426E+04  0.20054885136E+04 0.  0.
        1    1    3    3  502    0  0.22419649246E+03  0.26576626910E+03  0.78747402208E+03  0.86082002329E+03  0.50400001928E-02 0.  1.
       -1    1    3    3    0  502 -0.22419649246E+03 -0.26576626910E+03 -0.11191400734E+04  0.11719088193E+04  0.50400001928E-02 0. -1.
</event>
<event>
 5   0  0.8881384E-05  0.2005398E+04  0.7818609E-02  0.8604101E-01
       -1   -1    0    0    0  501  0.00000000000E+00  0.00000000000E+00  0.60061312383E+03  0.60061312386E+03  0.50400001928E-02 0.  1.
        1   -1    0    0  501    0  0.00000000000E+00  0.00000000000E+00 -0.16739653343E+04  0.16739653343E+04  0.50400001928E-02 0. -1.
    10030    2    1    2    0    0  0.00000000000E+00  0.00000000000E+00 -0.10733522104E+04  0.22745784581E+04  0.20053982633E+04 0.  0.
        5    1    3    3  502    0 -0.72214100276E+03 -0.40462939848E+03 -0.11784635289E+04  0.14401426863E+04  0.46999998093E+01 0. -1.
       -5    1    3    3    0  502  0.72214100276E+03  0.40462939848E+03  0.10511131849E+03  0.83443577180E+03  0.46999998093E+01 0.  1.
</event>
<event>
 5   0  0.8577422E-05  0.1934720E+04  0.7818609E-02  0.8637764E-01
        1   -1    0    0  501    0  0.00000000000E+00  0.00000000000E+00  0.11988505873E+04  0.11988505873E+04  0.50400001928E-02 0.  1.
       -1   -1    0    0    0  501  0.00000000000E+00  0.00000000000E+00 -0.78056919136E+03  0.78056919138E+03  0.50400001928E-02 0. -1.
    10030    2    1    2    0    0  0.00000000000E+00  0.00000000000E+00  0.41828139594E+03  0.19794197787E+04  0.19347204796E+04 0.  0.
        2    1    3    3  502    0 -0.71186508504E+02 -0.16788985434E+03  0.11811061211E+04  0.11951009127E+04  0.25500000920E-02 0.  1.
       -2    1    3    3    0  502  0.71186508504E+02  0.16788985434E+03 -0.76282472518E+03  0.78431886599E+03  0.25500000920E-02 0. -1.
</event>
<event>
 5   0  0.1782172E-04  0.1999163E+04  0.7818609E-02  0.8607012E-01
       -2   -1    0    0    0  501  0.00000000000E+00  0.00000000000E+00  0.91500258998E+03  0.91500258998E+03  0.25500000920E-02 0.  1.
        2   -1    0    0  501    0  0.00000000000E+00  0.00000000000E+00 -0.10919783912E+04  0.10919783912E+04  0.25500000920E-02 0. -1.
    10030    2    1    2    0    0  0.00000000000E+00  0.00000000000E+00 -0.17697580120E+03  0.20069809812E+04  0.19991628809E+04 0.  0.
        2    1    3    3  502    0  0.84869245067E+03  0.26774506305E+03  0.36848090974E+03  0.96319493118E+03  0.25500000920E-02 0.  1.
       -2    1    3    3    0  502 -0.84869245067E+03 -0.26774506305E+03 -0.54545671094E+03  0.10437860500E+04  0.25500000920E-02 0. -1.
</event>
<event>
 5   0  0.1782172E-04  0.1968196E+04  0.7818609E-02  0.8621636E-01
       -2   -1    0    0    0  501  0.00000000000E+00  0.00000000000E+00  0.86805913736E+03  0.86805913736E+03  0.25500000920E-02 0. -1.
        2   -1    0    0  501    0  0.00000000000E+00  0.00000000000E+00 -0.11156481359E+04  0.11156481359E+04  0.25500000920E-02 0.  1.
    10030    2    1    2    0    0  0.00000000000E+00  0.00000000000E+00 -0.24758899853E+03  0.19837072733E+04  0.19681956797E+04 0.  0.
        2    1    3    3  502    0  0.97454323465E+03  0.12539614304E+03 -0.17890495190E+03  0.99873204150E+03  0.25500000920E-02 0.  1.
       -2    1    3    3    0  502 -0.97454323465E+03 -0.12539614304E+03 -0.68684046631E+02  0.98497523175E+03  0.25500000920E-02 0. -1.
</event>
<event>
 5   0  0.8765057E-05  0.1979466E+04  0.7818609E-02  0.8616282E-01
        1   -1    0    0  501    0  0.00000000000E+00  0.00000000000E+00  0.15052383485E+04  0.15052383486E+04  0.50400001928E-02 0.  1.
       -1   -1    0    0    0  501  0.00000000000E+00  0.00000000000E+00 -0.65077495256E+03  0.65077495258E+03  0.50400001928E-02 0. -1.
    10030    2    1    2    0    0  0.00000000000E+00  0.00000000000E+00  0.85446339599E+03  0.21560133011E+04  0.19794660036E+04 0.  0.
        3    1    3    3  502    0  0.36191613143E+03 -0.18052203506E+03  0.14111259985E+04  0.14679400823E+04  0.10100000352E+00 0.  1.
       -3    1    3    3    0  502 -0.36191613143E+03  0.18052203506E+03 -0.55666260248E+03  0.68807321888E+03  0.10100000352E+00 0. -1.
</event>
<event>
 5   0  0.8577422E-05  0.2008600E+04  0.7818609E-02  0.8602610E-01
       -1   -1    0    0    0  501  0.00000000000E+00  0.00000000000E+00  0.38520836156E+03  0.38520836159E+03  0.50400001928E-02 0.  1.
        1   -1    0    0  501    0  0.00000000000E+00  0.00000000000E+00 -0.26183714199E+04  0.26183714199E+04  0.50400001928E-02 0. -1.
    10030    2    1    2    0    0  0.00000000000E+00  0.00000000000E+00 -0.22331630583E+04  0.30035797815E+04  0.20086000743E+04 0.  0.
        2    1    3    3  502    0  0.40499245252E+03  0.30227642402E+03  0.18122247763E+03  0.53687196754E+03  0.25500000920E-02 0.  1.
       -2    1    3    3    0  502 -0.40499245252E+03 -0.30227642402E+03 -0.24143855360E+04  0.24667078139E+04  0.25500000920E-02 0. -1.
</event>
<event>
 5   0  0.1834645E-04  0.1880484E+04  0.7818609E-02  0.8664632E-01
        2   -1    0    0  501    0  0.00000000000E+00  0.00000000000E+00  0.90245575614E+03  0.90245575615E+03  0.25500000920E-02 0.  1.
       -2   -1    0    0    0  501  0.00000000000E+00  0.00000000000E+00 -0.97961064628E+03  0.97961064629E+03  0.25500000920E-02 0. -1.
    10030    2    1    2    0    0  0.00000000000E+00  0.00000000000E+00 -0.77154890139E+02  0.18820664024E+04  0.18804842637E+04 0.  0.
        1    1    3    3  502    0  0.53921103021E+03 -0.17226692692E+03 -0.78996260186E+03  0.97183606723E+03  0.50400001928E-02 0. -1.
       -1    1    3    3    0  502 -0.53921103021E+03  0.17226692692E+03  0.71280771172E+03  0.91023033520E+03  0.50400001928E-02 0.  1.
</event>
<event>
 5   0  0.8958919E-05  0.1984079E+04  0.7818609E-02  0.8614101E-01
        1   -1    0    0  501    0  0.00000000000E+00  0.00000000000E+00  0.11182520327E+04  0.11182520327E+04  0.50400001928E-02 0.  1.
       -1   -1    0    0    0  501  0.00000000000E+00  0.00000000000E+00 -0.88007213695E+03  0.88007213697E+03  0.50400001928E-02 0. -1.
    10030    2    1    2    0    0  0.00000000000E+00  0.00000000000E+00  0.23817989573E+03  0.19983241697E+04  0.19840790872E+04 0.  0.
        4    1    3    3  502    0  0.78774243091E+03 -0.11336635342E+03 -0.47740432975E+03  0.92806603995E+03  0.12699999809E+01 0. -1.
       -4    1    3    3    0  502 -0.78774243091E+03  0.11336635342E+03  0.71558422548E+03  0.10702581297E+04  0.12699999809E+01 0.  1.
</event>
<event>
 5   0  0.1834645E-04  0.2005527E+04  0.7818609E-02  0.8604041E-01
        2   -1    0    0  501    0  0.00000000000E+00  0.00000000000E+00  0.17328275364E+04  0.17328275364E+04  0.25500000920E-02 0. -1.
       -2   -1    0    0    0  501  0.00000000000E+00  0.00000000000E+00 -0.58028521986E+03  0.58028521987E+03  0.25500000920E-02 0.  1.
    10030    2    1    2    0    0  0.00000000000E+00  0.00000000000E+00  0.11525423166E+04  0.23131127563E+04  0.20055265722E+04 0.  0.
        1    1    3    3  502    0  0.10018879132E+04 -0.13099120807E+02  0.62216352238E+03  0.11794229209E+04  0.50400001928E-02 0. -1.
       -1    1    3    3    0  502 -0.10018879132E+04  0.13099120807E+02  0.53037879419E+03  0.11336898354E+04  0.50400001928E-02 0.  1.
</event>
<event>
 5   0  0.8861350E-05  0.1899043E+04  0.7818609E-02  0.8655333E-01
        1   -1    0    0  501    0  0.00000000000E+00  0.00000000000E+00  0.87799099455E+03  0.87799099457E+03  0.50400001928E-02 0. -1.
       -1   -1    0    0    0  501  0.00000000000E+00  0.00000000000E+00 -0.10268791964E+04  0.10268791964E+04  0.50400001928E-02 0.  1.
    10030    2    1    2    0    0  0.00000000000E+00  0.00000000000E+00 -0.14888820183E+03  0.19048701910E+04  0.18990425871E+04 0.  0.
        1    1    3    3  502    0  0.80629720056E+03  0.50092021418E+03 -0.98063127710E+02  0.95428120261E+03  0.50400001928E-02 0.  1.
       -1    1    3    3    0  502 -0.80629720056E+03 -0.50092021418E+03 -0.50825074120E+02  0.95058898836E+03  0.50400001928E-02 0. -1.
</event>
<event>
 5   0  0.1893687E-04  0.1991737E+04  0.7818609E-02  0.8610493E-01
        2   -1    0    0  501    0  0.00000000000E+00  0.00000000000E+00  0.20231383150E+04  0.20231383150E+04  0.25500000920E-02 0.  1.
       -2   -1    0    0    0  501  0.00000000000E+00  0.00000000000E+00 -0.49020592717E+03  0.49020592718E+03  0.25500000920E-02 0. -1.
    10030    2    1    2    0    0  0.00000000000E+00  0.00000000000E+00  0.15329323878E+04  0.25133442421E+04  0.19917373255E+04 0.  0.
        4    1    3    3  502    0  0.22651231726E+03  0.53050324665E+03  0.17908585524E+04  0.18814668459E+04  0.12699999809E+01 0.  1.
       -4    1    3    3    0  502 -0.22651231726E+03 -0.53050324665E+03 -0.25792616463E+03  0.63187739623E+03  0.12699999809E+01 0. -1.
</event>
<event>
 5   0  0.6531625E-05  0.2001994E+04  0.7818609E-02  0.8605689E-01
        3   -1    0    0  501    0  0.00000000000E+00  0.00000000000E+00  0.14084475452E+04  0.14084475488E+04  0.10100000352E+00 0.  1.
       -3   -1    0    0    0  501  0.00000000000E+00  0.00000000000E+00 -0.71141799683E+03  0.71141800400E+03  0.10100000352E+00 0. -1.
    10030    2    1    2    0    0  0.00000000000E+00  0.00000000000E+00  0.69702954834E+03  0.21198655528E+04  0.20019939487E+04 0.  0.
        1    1    3    3  502    0 -0.22525300876E+03  0.54541300208E+03  0.12046879146E+04  0.13414496757E+04  0.50400001928E-02 0.  1.
       -1    1    3    3    0  502  0.22525300876E+03 -0.54541300208E+03 -0.50765836629E+03  0.77841587707E+03  0.50400001928E-02 0. -1.
</event>
<event>
 5   0  0.1812865E-04  0.1983584E+04  0.7818609E-02  0.8614334E-01
        2   -1    0    0  501    0  0.00000000000E+00  0.00000000000E+00  0.11541607088E+04  0.11541607088E+04  0.25500000920E-02 0.  1.
       -2   -1    0    0    0  501  0.00000000000E+00  0.00000000000E+00 -0.85226579314E+03  0.85226579314E+03  0.25500000920E-02 0. -1.
    10030    2    1    2    0    0  0.00000000000E+00  0.00000000000E+00  0.30189491565E+03  0.20064265019E+04  0.19835843233E+04 0.  0.
        3    1    3    3  502    0  0.80425229128E+03  0.13857580449E+03  0.72102125016E+03  0.10889888223E+04  0.10100000352E+00 0.  1.
       -3    1    3    3    0  502 -0.80425229128E+03 -0.13857580449E+03 -0.41912633451E+03  0.91743767968E+03  0.10100000352E+00 0. -1.
</event>
<event>
 5   0  0.1782172E-04  0.2024285E+04  0.7818609E-02  0.8595350E-01
        2   -1    0    0  501    0  0.00000000000E+00  0.00000000000E+00  0.82060125472E+03  0.82060125472E+03  0.25500000920E-02 0. -1.
       -2   -1    0    0    0  501  0.00000000000E+00  0.00000000000E+00 -0.12483920577E+04  0.12483920577E+04  0.25500000920E-02 0.  1.
    10030    2    1    2    0    0  0.00000000000E+00  0.00000000000E+00 -0.42779080300E+03  0.20689933124E+04  0.20242846529E+04 0.  0.
        2    1    3    3  502    0 -0.99419088027E+03  0.18359081068E+03 -0.26302997309E+03  0.10446558567E+04  0.25500000920E-02 0. -1.
       -2    1    3    3    0  502  0.99419088027E+03 -0.18359081068E+03 -0.16476082991E+03  0.10243374558E+04  0.25500000920E-02 0.  1.
</event>
<event>
 5   0  0.1834645E-04  0.2003668E+04  0.7818609E-02  0.8604908E-01
        2   -1    0    0  501    0  0.00000000000E+00  0.00000000000E+00  0.17573831206E+04  0.17573831206E+04  0.25500000920E-02 0.  1.
       -2   -1    0    0    0  501  0.00000000000E+00  0.00000000000E+00 -0.57111712110E+03  0.57111712111E+03  0.25500000920E-02 0. -1.
    10030    2    1    2    0    0  0.00000000000E+00  0.00000000000E+00  0.11862659995E+04  0.23285002417E+04  0.20036682246E+04 0.  0.
        1    1    3    3  502    0  0.89533022510E+03  0.35656104856E+03  0.91122166034E+03  0.13263019670E+04  0.50400001928E-02 0.  1.
       -1    1    3    3    0  502 -0.89533022510E+03 -0.35656104856E+03  0.27504433916E+03  0.10021982747E+04  0.50400001928E-02 0. -1.
</event>
<event>
 5   0  0.8577422E-05  0.1735231E+04  0.7818609E-02  0.8741522E-01
        1   -1    0    0  501    0  0.00000000000E+00  0.00000000000E+00  0.14563250576E+04  0.14563250576E+04  0.50400001928E-02 0. -1.
       -1   -1    0    0    0  501  0.00000000000E+00  0.00000000000E+00 -0.51688805581E+03  0.51688805583E+03  0.50400001928E-02 0.  1.
    10030    2    1    2    0    0  0.00000000000E+00  0.00000000000E+00  0.93943700178E+03  0.19732131134E+04  0.17352314286E+04 0.  0.
        2    1    3    3  502    0  0.18612366006E+03 -0.61413468765E+03 -0.19427560729E+03  0.67048224660E+03  0.25500000920E-02 0.  1.
       -2    1    3    3    0  502 -0.18612366006E+03  0.61413468765E+03  0.11337126091E+04  0.13027308668E+04  0.25500000920E-02 0. -1.
</event>
<event>
 5   0  0.1782172E-04  0.1988124E+04  0.7818609E-02  0.8612193E-01
        2   -1    0    0  501    0  0.00000000000E+00  0.00000000000E+00  0.10526770354E+04  0.10526770354E+04  0.25500000920E-02 0. -1.
       -2   -1    0    0    0  501  0.00000000000E+00  0.00000000000E+00 -0.93871112808E+03  0.93871112808E+03  0.25500000920E-02 0.  1.
    10030    2    1    2    0    0  0.00000000000E+00  0.00000000000E+00  0.11396590734E+03  0.19913881635E+04  0.19881243899E+04 0.  0.
        2    1    3    3  502    0 -0.40460521346E+03 -0.85727814836E+03  0.35668719497E+03  0.10128459693E+04  0.25500000920E-02 0. -1.
       -2    1    3    3    0  502  0.40460521346E+03  0.85727814836E+03 -0.24272128763E+03  0.97854219423E+03  0.25500000920E-02 0.  1.
</event>
<event>
 5   0  0.8765057E-05  0.2027619E+04  0.7818609E-02  0.8593815E-01
       -1   -1    0    0    0  501  0.00000000000E+00  0.00000000000E+00  0.71098920774E+03  0.71098920775E+03  0.50400001928E-02 0.  1.
        1   -1    0    0  501    0  0.00000000000E+00  0.00000000000E+00 -0.14456057949E+04  0.14456057949E+04  0.50400001928E-02 0. -1.
    10030    2    1    2    0    0  0.00000000000E+00  0.00000000000E+00 -0.73461658718E+03  0.21565950027E+04  0.20276194109E+04 0.  0.
        3    1    3    3  502    0 -0.39269423309E+03 -0.42218121455E+03  0.51961971804E+03  0.77617678411E+03  0.10100000352E+00 0.  1.
       -3    1    3    3    0  502  0.39269423309E+03  0.42218121455E+03 -0.12542363052E+04  0.13804182186E+04  0.10100000352E+00 0. -1.
</event>
<event>
 5   0  0.8958919E-05  0.2030595E+04  0.7818609E-02  0.8592449E-01
        1   -1    0    0  501    0  0.00000000000E+00  0.00000000000E+00  0.24121067535E+04  0.24121067535E+04  0.50400001928E-02 0.  1.
       -1   -1    0    0    0  501  0.00000000000E+00  0.00000000000E+00 -0.42735636732E+03  0.42735636735E+03  0.50400001928E-02 0. -1.
    10030    2    1    2    0    0  0.00000000000E+00  0.00000000000E+00  0.19847503862E+04  0.28394631209E+04  0.20305951638E+04 0.  0.
        4    1    3    3  502    0 -0.66586874308E+03 -0.73102107510E+03  0.67028738098E+03  0.11945960745E+04  0.12699999809E+01 0.  1.
       -4    1    3    3    0  502  0.66586874308E+03  0.73102107510E+03  0.13144630052E+04  0.16448670464E+04  0.12699999809E+01 0. -1.
</event>
<event>
 5   0  0.8577422E-05  0.1974350E+04  0.7818609E-02  0.8618708E-01
        1   -1    0    0  501    0  0.00000000000E+00  0.00000000000E+00  0.57355063036E+03  0.57355063039E+03  0.50400001928E-02 0.  1.
       -1   -1    0    0    0  501  0.00000000000E+00  0.00000000000E+00 -0.16990899184E+04  0.16990899184E+04  0.50400001928E-02 0. -1.
    10030    2    1    2    0    0  0.00000000000E+00  0.00000000000E+00 -0.11255392880E+04  0.22726405488E+04  0.19743496081E+04 0.  0.
        2    1    3    3  502    0 -0.95358259869E+03  0.17368173018E+02 -0.85599701570E+03  0.12815429438E+04  0.25500000920E-02 0.  1.
       -2    1    3    3    0  502  0.95358259869E+03 -0.17368173018E+02 -0.26954227231E+03  0.99109760495E+03  0.25500000920E-02 0. -1.
</event>
<event>
 5   0  0.8881384E-05  0.1980658E+04  0.7818609E-02  0.8615717E-01
       -1   -1    0    0    0  501  0.00000000000E+00  0.00000000000E+00  0.13021312216E+04  0.13021312217E+04  0.50400001928E-02 0.  1.
        1   -1    0    0  501    0  0.00000000000E+00  0.00000000000E+00 -0.75318967006E+03  0.75318967007E+03  0.50400001928E-02 0. -1.
    10030    2    1    2    0    0  0.00000000000E+00  0.00000000000E+00  0.54894155158E+03  0.20553208917E+04  0.19806582595E+04 0.  0.
        5    1    3    3  502    0  0.45762884857E+03 -0.39424278662E+03 -0.53989120170E+03  0.81015809415E+03  0.46999998093E+01 0. -1.
       -5    1    3    3    0  502 -0.45762884857E+03  0.39424278662E+03  0.10888327533E+04  0.12451627976E+04  0.46999998093E+01 0.  1.
</event>
<event>
 5   0  0.1812865E-04  0.2406224E+04  0.7818609E-02  0.8437177E-01
       -2   -1    0    0    0  501  0.00000000000E+00  0.00000000000E+00  0.73571981984E+03  0.73571981985E+03  0.25500000920E-02 0. -1.
        2   -1    0    0  501    0  0.00000000000E+00  0.00000000000E+00 -0.19674314899E+04  0.19674314899E+04  0.25500000920E-02 0.  1.
    10030    2    1    2    0    0  0.00000000000E+00  0.00000000000E+00 -0.12317116700E+04  0.27031513097E+04  0.24062238809E+04 0.  0.
        3    1    3    3  502    0  0.62280071891E+03 -0.10210596056E+04 -0.46923225089E+03  0.12847654918E+04  0.10100000352E+00 0. -1.
       -3    1    3    3    0  502 -0.62280071891E+03  0.10210596056E+04 -0.76247941916E+03  0.14183858179E+04  0.10100000352E+00 0.  1.
</event>
<event>
 5   0  0.1893687E-04  0.2246375E+04  0.7818609E-02  0.8499370E-01
        2   -1    0    0  501    0  0.00000000000E+00  0.00000000000E+00  0.95443400149E+03  0.95443400149E+03  0.25500000920E-02 0. -1.
       -2   -1    0    0    0  501  0.00000000000E+00  0.00000000000E+00 -0.13217779551E+04  0.13217779551E+04  0.25500000920E-02 0.  1.
    10030    2    1    2    0    0  0.00000000000E+00  0.00000000000E+00 -0.36734395358E+03  0.22762119566E+04  0.22463746996E+04 0.  0.
        4    1    3    3  502    0  0.87922959237E+02  0.88607223152E+03 -0.87737739824E+03  0.12500588618E+04  0.12699999809E+01 0.  1.
       -4    1    3    3    0  502 -0.87922959237E+02 -0.88607223152E+03  0.51003344466E+03  0.10261530947E+04  0.12699999809E+01 0. -1.
</event>
<event>
 5   0  0.1807498E-04  0.2090013E+04  0.7818609E-02  0.8565656E-01
        2   -1    0    0  501    0  0.00000000000E+00  0.00000000000E+00  0.18446152415E+04  0.18446152415E+04  0.25500000920E-02 0.  1.
       -2   -1    0    0    0  501  0.00000000000E+00  0.00000000000E+00 -0.59201419127E+03  0.59201419128E+03  0.25500000920E-02 0. -1.
    10030    2    1    2    0    0  0.00000000000E+00  0.00000000000E+00  0.12526010503E+04  0.24366294328E+04  0.20900128233E+04 0.  0.
        5    1    3    3  502    0  0.80209412788E+03  0.24647858153E+03 -0.99815155213E+02  0.84503954721E+03  0.46999998093E+01 0. -1.
       -5    1    3    3    0  502 -0.80209412788E+03 -0.24647858153E+03  0.13524162055E+04  0.15915898856E+04  0.46999998093E+01 0.  1.
</event>
<event>
 5   0  0.8577422E-05  0.1949836E+04  0.7818609E-02  0.8630440E-01
       -1   -1    0    0    0  501  0.00000000000E+00  0.00000000000E+00  0.45499587952E+03  0.45499587955E+03  0.50400001928E-02 0.  1.
        1   -1    0    0  501    0  0.00000000000E+00  0.00000000000E+00 -0.20889521634E+04  0.20889521634E+04  0.50400001928E-02 0. -1.
    10030    2    1    2    0    0  0.00000000000E+00  0.00000000000E+00 -0.16339562839E+04  0.25439480430E+04  0.19498355079E+04 0.  0.
        2    1    3    3  502    0 -0.37327722358E+03  0.57118933588E+03  0.91519038545E+02  0.68845397631E+03  0.25500000920E-02 0.  1.
       -2    1    3    3    0  502  0.37327722358E+03 -0.57118933588E+03 -0.17254753224E+04  0.18554940667E+04  0.25500000920E-02 0. -1.
</event>
<event>
 5   0  0.8577422E-05  0.1992245E+04  0.7818609E-02  0.8610255E-01
       -1   -1    0    0    0  501  0.00000000000E+00  0.00000000000E+00  0.53753537855E+03  0.53753537858E+03  0.50400001928E-02 0. -1.
        1   -1    0    0  501    0  0.00000000000E+00  0.00000000000E+00 -0.18459440700E+04  0.18459440700E+04  0.50400001928E-02 0.  1.
    10030    2    1    2    0    0  0.00000000000E+00  0.00000000000E+00 -0.13084086914E+04  0.23834794486E+04  0.19922452103E+04 0.  0.
        2    1    3    3  502    0  0.94499427527E+03 -0.29438692586E+03 -0.52000499961E+03  0.11180711257E+04  0.25500000920E-02 0. -1.
       -2    1    3    3    0  502 -0.94499427527E+03  0.29438692586E+03 -0.78840369183E+03  0.12654083229E+04  0.25500000920E-02 0.  1.
</event>
<event>
 5   0  0.6531625E-05  0.2001946E+04  0.7818609E-02  0.8605711E-01
        3   -1    0    0  501    0  0.00000000000E+00  0.00000000000E+00  0.47869522885E+03  0.47869523951E+03  0.10100000352E+00 0. -1.
       -3   -1    0    0    0  501  0.00000000000E+00  0.00000000000E+00 -0.20930799900E+04  0.20930799925E+04  0.10100000352E+00 0.  1.
    10030    2    1    2    0    0  0.00000000000E+00  0.00000000000E+00 -0.16143847612E+04  0.25717752320E+04  0.20019464745E+04 0.  0.
        5    1    3    3  502    0 -0.54300261289E+03 -0.73087034064E+03 -0.27302101296E+03  0.95057133133E+03  0.46999998093E+01 0. -1.
       -5    1    3    3    0  502  0.54300261289E+03  0.73087034064E+03 -0.13413637482E+04  0.16212039006E+04  0.46999998093E+01 0.  1.
</event>
<event>
 5   0  0.6531625E-05  0.2002946E+04  0.7818609E-02  0.8605245E-01
       -3   -1    0    0    0  501  0.00000000000E+00  0.00000000000E+00  0.99655826311E+03  0.99655826823E+03  0.10100000352E+00 0.  1.
        3   -1    0    0  501    0  0.00000000000E+00  0.00000000000E+00 -0.10064117844E+04  0.10064117895E+04  0.10100000352E+00 0. -1.
    10030    2    1    2    0    0  0.00000000000E+00  0.00000000000E+00 -0.98535213164E+01  0.20029700577E+04  0.20029458206E+04 0.  0.
        1    1    3    3  502    0 -0.90670899268E+03  0.24353323181E+03  0.34367229065E+03  0.99977011147E+03  0.50400001928E-02 0.  1.
       -1    1    3    3    0  502  0.90670899268E+03 -0.24353323181E+03 -0.35352581196E+03  0.10031999462E+04  0.50400001928E-02 0. -1.
</event>
<event>
 5   0  0.8958919E-05  0.1985975E+04  0.7818609E-02  0.8613206E-01
       -1   -1    0    0    0  501  0.00000000000E+00  0.00000000000E+00  0.44303136233E+03  0.44303136235E+03  0.50400001928E-02 0. -1.
        1   -1    0    0  501    0  0.00000000000E+00  0.00000000000E+00 -0.22256300943E+04  0.22256300943E+04  0.50400001928E-02 0.  1.
    10030    2    1    2    0    0  0.00000000000E+00  0.00000000000E+00 -0.17825987320E+04  0.26686614567E+04  0.19859747559E+04 0.  0.
        4    1    3    3  502    0 -0.28922277156E+03  0.92864530045E+03 -0.62258077683E+03  0.11548334695E+04  0.12699999809E+01 0.  1.
       -4    1    3    3    0  502  0.28922277156E+03 -0.92864530045E+03 -0.11600179551E+04  0.15138279872E+04  0.12699999809E+01 0. -1.
</event>
<event>
 5   0  0.8861350E-05  0.2011036E+04  0.7818609E-02  0.8601478E-01
        1   -1    0    0  501    0  0.00000000000E+00  0.00000000000E+00  0.20411229011E+04  0.20411229011E+04  0.50400001928E-02 0.  1.
       -1   -1    0    0    0  501  0.00000000000E+00  0.00000000000E+00 -0.49534814231E+03  0.49534814233E+03  0.50400001928E-02 0. -1.
    10030    2    1    2    0    0  0.00000000000E+00  0.00000000000E+00  0.15457747588E+04  0.25364710434E+04  0.20110359890E+04 0.  0.
        1    1    3    3  502    0 -0.45465339724E+03 -0.67210049130E+03  0.23900157260E+02  0.81178814944E+03  0.50400001928E-02 0. -1.
       -1    1    3    3    0  502  0.45465339724E+03  0.67210049130E+03  0.15218746015E+04  0.17246828940E+04  0.50400001928E-02 0.  1.
</event>
<event>
 5   0  0.1893687E-04  0.1866021E+04  0.7818609E-02  0.8671957E-01
       -2   -1    0    0    0  501  0.00000000000E+00  0.00000000000E+00  0.73144377172E+03  0.73144377173E+03  0.25500000920E-02 0.  1.
        2   -1    0    0  501    0  0.00000000000E+00  0.00000000000E+00 -0.11901239537E+04  0.11901239537E+04  0.25500000920E-02 0. -1.
    10030    2    1    2    0    0  0.00000000000E+00  0.00000000000E+00 -0.45868018193E+03  0.19215677254E+04  0.18660211719E+04 0.  0.
        4    1    3    3  502    0  0.76181976465E+01  0.24003699764E+03 -0.11577491079E+04  0.11823960449E+04  0.12699999809E+01 0. -1.
       -4    1    3    3    0  502 -0.76181976465E+01 -0.24003699764E+03  0.69906892595E+03  0.73917168053E+03  0.12699999809E+01 0.  1.
</event>
<event>
 5   0  0.1807498E-04  0.2053231E+04  0.7818609E-02  0.8582130E-01
       -2   -1    0    0    0  501  0.00000000000E+00  0.00000000000E+00  0.10592436517E+04  0.10592436517E+04  0.25500000920E-02 0. -1.
        2   -1    0    0  501    0  0.00000000000E+00  0.00000000000E+00 -0.99499238130E+03  0.99499238130E+03  0.25500000920E-02 0.  1.
    10030    2    1    2    0    0  0.00000000000E+00  0.00000000000E+00  0.64251270386E+02  0.20542360330E+04  0.20532309791E+04 0.  0.
        5    1    3    3  502    0  0.77011914393E+02  0.78339452387E+03 -0.62719577421E+03  0.10064961223E+04  0.46999998093E+01 0.  1.
       -5    1    3    3    0  502 -0.77011914393E+02 -0.78339452387E+03  0.69144704460E+03  0.10477399107E+04  0.46999998093E+01 0. -1.
</event>
<event>
 5   0  0.8881384E-05  0.1985916E+04  0.7818609E-02  0.8613234E-01
        1   -1    0    0  501    0  0.00000000000E+00  0.00000000000E+00  0.16000384540E+04  0.16000384540E+04  0.50400001928E-02 0.  1.
       -1   -1    0    0    0  501  0.00000000000E+00  0.00000000000E+00 -0.61621374489E+03  0.61621374491E+03  0.50400001928E-02 0. -1.
    10030    2    1    2    0    0  0.00000000000E+00  0.00000000000E+00  0.98382470912E+03  0.22162521989E+04  0.19859160987E+04 0.  0.
        5    1    3    3  502    0 -0.48847509525E+03  0.76217601720E+03  0.36646084318E+02  0.90602716591E+03  0.46999998093E+01 0. -1.
       -5    1    3    3    0  502  0.48847509525E+03 -0.76217601720E+03  0.94717862481E+03  0.13102250330E+04  0.46999998093E+01 0.  1.
</event>
<event>
 5   0  0.1834645E-04  0.1994974E+04  0.7818609E-02  0.8608974E-01
       -2   -1    0    0    0  501  0.00000000000E+00  0.00000000000E+00  0.52537755867E+03  0.52537755867E+03  0.25500000920E-02 0.  1.
        2   -1    0    0  501    0  0.00000000000E+00  0.00000000000E+00 -0.18938379786E+04  0.18938379786E+04  0.25500000920E-02 0. -1.
    10030    2    1    2    0    0  0.00000000000E+00  0.00000000000E+00 -0.13684604199E+04  0.24192155372E+04  0.19949736577E+04 0.  0.
        1    1    3    3  502    0 -0.70345332652E+03 -0.40524132221E+03  0.18600474866E+02  0.81204254169E+03  0.50400001928E-02 0.  1.
       -1    1    3    3    0  502  0.70345332652E+03  0.40524132221E+03 -0.13870608948E+04  0.16071729955E+04  0.50400001928E-02 0. -1.
</event>
<event>
 5   0  0.1782172E-04  0.2004375E+04  0.7818609E-02  0.8604578E-01
        2   -1    0    0  501    0  0.00000000000E+00  0.00000000000E+00  0.12800182140E+04  0.12800182140E+04  0.25500000920E-02 0. -1.
       -2   -1    0    0    0  501  0.00000000000E+00  0.00000000000E+00 -0.78466079097E+03  0.78466079098E+03  0.25500000920E-02 0.  1.
    10030    2    1    2    0    0  0.00000000000E+00  0.00000000000E+00  0.49535742300E+03  0.20646790049E+04  0.20043753184E+04 0.  0.
        2    1    3    3  502    0 -0.22716753936E+03 -0.89759121333E+03 -0.14740329655E+03  0.93755149673E+03  0.25500000920E-02 0.  1.
       -2    1    3    3    0  502  0.22716753936E+03  0.89759121333E+03  0.64276071955E+03  0.11271275082E+04  0.25500000920E-02 0. -1.
</event>
<event>
 5   0  0.1782172E-04  0.2004162E+04  0.7818609E-02  0.8604677E-01
       -2   -1    0    0    0  501  0.00000000000E+00  0.00000000000E+00  0.10488234692E+04  0.10488234692E+04  0.25500000920E-02 0. -1.
        2   -1    0    0  501    0  0.00000000000E+00  0.00000000000E+00 -0.95742171065E+03  0.95742171065E+03  0.25500000920E-02 0.  1.
    10030    2    1    2    0    0  0.00000000000E+00  0.00000000000E+00  0.91401758521E+02  0.20062451798E+04  0.20041620294E+04 0.  0.
        2    1    3    3  502    0  0.80565651646E+03  0.89533991894E+02  0.63543765898E+03  0.10299901828E+04  0.25500000920E-02 0. -1.
       -2    1    3    3    0  502 -0.80565651646E+03 -0.89533991894E+02 -0.54403590046E+03  0.97625499702E+03  0.25500000920E-02 0.  1.
</event>
<event>
 5   0  0.8958919E-05  0.1994864E+04  0.7818609E-02  0.8609026E-01
       -1   -1    0    0    0  501  0.00000000000E+00  0.00000000000E+00  0.70029292829E+03  0.70029292831E+03  0.50400001928E-02 0. -1.
        1   -1    0    0  501    0  0.00000000000E+00  0.00000000000E+00 -0.14206487166E+04  0.14206487166E+04  0.50400001928E-02 0.  1.
    10030    2    1    2    0    0  0.00000000000E+00  0.00000000000E+00 -0.72035578835E+03  0.21209416450E+04  0.19948636544E+04 0.  0.
        4    1    3    3  502    0 -0.74944095997E+03 -0.13537638650E+03 -0.10449984907E+04  0.12930630213E+04  0.12699999809E+01 0.  1.
       -4    1    3    3    0  502  0.74944095997E+03  0.13537638650E+03  0.32464270234E+03  0.82787862370E+03  0.12699999809E+01 0. -1.
</event>
<event>
 5   0  0.8861350E-05  0.2008311E+04  0.7818609E-02  0.8602745E-01
       -1   -1    0    0    0  501  0.00000000000E+00  0.00000000000E+00  0.64012187121E+03  0.64012187123E+03  0.50400001928E-02 0.  1.
        1   -1    0    0  501    0  0.00000000000E+00  0.00000000000E+00 -0.15752128160E+04  0.15752128160E+04  0.50400001928E-02 0. -1.
    10030    2    1    2    0    0  0.00000000000E+00  0.00000000000E+00 -0.93509094483E+03  0.22153346873E+04  0.20083109076E+04 0.  0.
        1    1    3    3  502    0  0.67033331285E+03 -0.22027402583E+03 -0.12556604661E+04  0.14403300326E+04  0.50400001928E-02 0. -1.
       -1    1    3    3    0  502 -0.67033331285E+03  0.22027402583E+03  0.32056952124E+03  0.77500465466E+03  0.50400001928E-02 0.  1.
</event>
<event>
 5   0  0.1807498E-04  0.2044525E+04  0.7818609E-02  0.8586082E-01
        2   -1    0    0  501    0  0.00000000000E+00  0.00000000000E+00  0.13896884208E+04  0.13896884208E+04  0.25500000920E-02 0. -1.
       -2   -1    0    0    0  501  0.00000000000E+00  0.00000000000E+00 -0.75198210254E+03  0.75198210255E+03  0.25500000920E-02 0.  1.
    10030    2    1    2    0    0  0.00000000000E+00  0.00000000000E+00  0.63770631828E+03  0.21416705234E+04  0.20445251973E+04 0.  0.
        5    1    3    3  502    0 -0.62481649368E+03 -0.30359333166E+03 -0.46673701084E+03  0.83691701446E+03  0.46999998093E+01 0.  1.
       -5    1    3    3    0  502  0.62481649368E+03  0.30359333166E+03  0.11044433291E+04  0.13047535089E+04  0.46999998093E+01 0. -1.
</event>
<event>
 5   0  0.8881384E-05  0.1901725E+04  0.7818609E-02  0.8653998E-01
       -1   -1    0    0    0  501  0.00000000000E+00  0.00000000000E+00  0.12520826508E+04  0.12520826508E+04  0.50400001928E-02 0.  1.
        1   -1    0    0  501    0  0.00000000000E+00  0.00000000000E+00 -0.72210828338E+03  0.72210828339E+03  0.50400001928E-02 0. -1.
    10030    2    1    2    0    0  0.00000000000E+00  0.00000000000E+00  0.52997436744E+03  0.19741909342E+04  0.19017247473E+04 0.  0.
        5    1    3    3  502    0 -0.40662355563E+03 -0.77503213000E+02 -0.62365035232E+03  0.74853945519E+03  0.46999998093E+01 0. -1.
       -5    1    3    3    0  502  0.40662355563E+03  0.77503213000E+02  0.11536247198E+04  0.12256514790E+04  0.46999998093E+01 0.  1.
</event>
<event>
 5   0  0.1782172E-04  0.2012747E+04  0.7818609E-02  0.8600684E-01
       -2   -1    0    0    0  501  0.00000000000E+00  0.00000000000E+00  0.14832029884E+04  0.14832029884E+04  0.25500000920E-02 0.  1.
        2   -1    0    0  501    0  0.00000000000E+00  0.00000000000E+00 -0.68283841445E+03  0.68283841445E+03  0.25500000920E-02 0. -1.
    10030    2    1    2    0    0  0.00000000000E+00  0.00000000000E+00  0.80036457400E+03  0.21660414029E+04  0.20127473532E+04 0.  0.
        2    1    3    3  502    0 -0.61462951826E+03 -0.54739307236E+03  0.10234084161E+04  0.13133062882E+04  0.25500000920E-02 0.  1.
       -2    1    3    3    0  502  0.61462951826E+03  0.54739307236E+03 -0.22304384210E+03  0.85273511473E+03  0.25500000920E-02 0. -1.
</event>
<event>
 5   0  0.1893687E-04  0.2003247E+04  0.7818609E-02  0.8605104E-01
        2   -1    0    0  501    0  0.00000000000E+00  0.00000000000E+00  0.24258925115E+04  0.24258925115E+04  0.25500000920E-02 0. -1.
       -2   -1    0    0    0  501  0.00000000000E+00  0.00000000000E+00 -0.41355882084E+03  0.41355882084E+03  0.25500000920E-02 0.  1.
    10030    2    1    2    0    0  0.00000000000E+00  0.00000000000E+00  0.20123336907E+04  0.28394513324E+04  0.20032466114E+04 0.  0.
        4    1    3    3  502    0  0.68445261875E+03  0.59020842948E+03  0.16181698461E+04  0.18534553249E+04  0.12699999809E+01 0.  1.
       -4    1    3    3    0  502 -0.68445261875E+03 -0.59020842948E+03  0.39416384459E+03  0.98599600750E+03  0.12699999809E+01 0. -1.
</event>
<event>
 5   0  0.8958919E-05  0.1992910E+04  0.7818609E-02  0.8609943E-01
        1   -1    0    0  501    0  0.00000000000E+00  0.00000000000E+00  0.58855941550E+03  0.58855941552E+03  0.50400001928E-02 0.  1.
       -1   -1    0    0    0  501  0.00000000000E+00  0.00000000000E+00 -0.16870382652E+04  0.16870382652E+04  0.50400001928E-02 0. -1.
    10030    2    1    2    0    0  0.00000000000E+00  0.00000000000E+00 -0.10984788497E+04  0.22755976807E+04  0.19929096872E+04 0.  0.
        4    1    3    3  502    0 -0.77358294002E+03 -0.35751243233E+03  0.40416906001E+02  0.85315933070E+03  0.12699999809E+01 0.  1.
       -4    1    3    3    0  502  0.77358294002E+03  0.35751243233E+03 -0.11388957557E+04  0.14224383500E+04  0.12699999809E+01 0. -1.
</event>
<event>
 5   0  0.1807498E-04  0.2004577E+04  0.7818609E-02  0.8604484E-01
        2   -1    0    0  501    0  0.00000000000E+00  0.00000000000E+00  0.24681065743E+04  0.24681065743E+04  0.25500000920E-02 0.  1.
       -2   -1    0    0    0  501  0.00000000000E+00  0.00000000000E+00 -0.40702548723E+03  0.40702548724E+03  0.25500000920E-02 0. -1.
    10030    2    1    2    0    0  0.00000000000E+00  0.00000000000E+00  0.20610810871E+04  0.28751320615E+04  0.20045770436E+04 0.  0.
        5    1    3    3  502    0 -0.11280517555E+03  0.59388256062E+03 -0.11611400562E+03  0.61556970014E+03  0.46999998093E+01 0. -1.
       -5    1    3    3    0  502  0.11280517555E+03 -0.59388256062E+03  0.21771950927E+04  0.22595623614E+04  0.46999998093E+01 0.  1.
</event>
<event>
 5   0  0.1812865E-04  0.2042284E+04  0.7818609E-02  0.8587103E-01
       -2   -1    0    0    0  501  0.00000000000E+00  0.00000000000E+00  0.64709116419E+03  0.64709116419E+03  0.25500000920E-02 0.  1.
        2   -1    0    0  501    0  0.00000000000E+00  0.00000000000E+00 -0.16114129388E+04  0.16114129388E+04  0.25500000920E-02 0. -1.
    10030    2    1    2    0    0  0.00000000000E+00  0.00000000000E+00 -0.96432177460E+03  0.22585041030E+04  0.20422840885E+04 0.  0.
        3    1    3    3  502    0 -0.35020756044E+02  0.10042088304E+04 -0.28105869234E+03  0.10433867102E+04  0.10100000352E+00 0.  1.
       -3    1    3    3    0  502  0.35020756044E+02 -0.10042088304E+04 -0.68326308226E+03  0.12151173927E+04  0.10100000352E+00 0. -1.
</event>
<event>
 5   0  0.1893687E-04  0.2071045E+04  0.7818609E-02  0.8574107E-01
        2   -1    0    0  501    0  0.00000000000E+00  0.00000000000E+00  0.14157395057E+04  0.14157395057E+04  0.25500000920E-02 0. -1.
       -2   -1    0    0    0  501  0.00000000000E+00  0.00000000000E+00 -0.75741799347E+03  0.75741799347E+03  0.25500000920E-02 0.  1.
    10030    2    1    2    0    0  0.00000000000E+00  0.00000000000E+00  0.65832151221E+03  0.21731574992E+04  0.20710447370E+04 0.  0.
        4    1    3    3  502    0 -0.64786043649E+03 -0.79809979833E+03  0.46029671431E+03  0.11263041824E+04  0.12699999809E+01 0.  1.
       -4    1    3    3    0  502  0.64786043649E+03  0.79809979833E+03  0.19802479789E+03  0.10468533167E+04  0.12699999809E+01 0. -1.
</event>
<event>
 5   0  0.8577422E-05  0.2001826E+04  0.7818609E-02  0.8605767E-01
        1   -1    0    0  501    0  0.00000000000E+00  0.00000000000E+00  0.10553254344E+04  0.10553254345E+04  0.50400001928E-02 0.  1.
       -1   -1    0    0    0  501  0.00000000000E+00  0.00000000000E+00 -0.94930625830E+03  0.94930625831E+03  0.50400001928E-02 0. -1.
    10030    2    1    2    0    0  0.00000000000E+00  0.00000000000E+00  0.10601917615E+03  0.20046316928E+04  0.20018262057E+04 0.  0.
        2    1    3    3  502    0 -0.49785412002E+03  0.84957686803E+03  0.23266966242E+03  0.10118175484E+04  0.25500000920E-02 0.  1.
       -2    1    3    3    0  502  0.49785412002E+03 -0.84957686803E+03 -0.12665048627E+03  0.99281414434E+03  0.25500000920E-02 0. -1.
</event>
<event>
 5   0  0.1807498E-04  0.1983015E+04  0.7818609E-02  0.8614603E-01
       -2   -1    0    0    0  501  0.00000000000E+00  0.00000000000E+00  0.32320720853E+03  0.32320720854E+03  0.25500000920E-02 0.  1.
        2   -1    0    0  501    0  0.00000000000E+00  0.00000000000E+00 -0.30416625794E+04  0.30416625794E+04  0.25500000920E-02 0. -1.
    10030    2    1    2    0    0  0.00000000000E+00  0.00000000000E+00 -0.27184553709E+04  0.33648697879E+04  0.19830151503E+04 0.  0.
        5    1    3    3  502    0 -0.75828427525E+02  0.58146417528E+03 -0.25846536973E+01  0.58641223383E+03  0.46999998093E+01 0.  1.
       -5    1    3    3    0  502  0.75828427525E+02 -0.58146417528E+03 -0.27158707172E+04  0.27784575541E+04  0.46999998093E+01 0. -1.
</event>
<event>
 5   0  0.8881384E-05  0.1832672E+04  0.7818609E-02  0.8689116E-01
       -1   -1    0    0    0  501  0.00000000000E+00  0.00000000000E+00  0.59615871772E+03  0.59615871774E+03  0.50400001928E-02 0.  1.
        1   -1    0    0  501    0  0.00000000000E+00  0.00000000000E+00 -0.14084692401E+04  0.14084692401E+04  0.50400001928E-02 0. -1.
    10030    2    1    2    0    0  0.00000000000E+00  0.00000000000E+00 -0.81231052237E+03  0.20046279578E+04  0.18326715103E+04 0.  0.
        5    1    3    3  502    0  0.12769324444E+01  0.52494493610E+03 -0.12276780676E+04  0.13352094758E+04  0.46999998093E+01 0. -1.
       -5    1    3    3    0  502 -0.12769324444E+01 -0.52494493610E+03  0.41536754524E+03  0.66941848207E+03  0.46999998093E+01 0.  1.
</event>
<event>
 5   0  0.1893687E-04  0.1695471E+04  0.7818609E-02  0.8763951E-01
       -2   -1    0    0    0  501  0.00000000000E+00  0.00000000000E+00  0.51274373309E+03  0.51274373310E+03  0.25500000920E-02 0.  1.
        2   -1    0    0  501    0  0.00000000000E+00  0.00000000000E+00 -0.14015885649E+04  0.14015885649E+04  0.25500000920E-02 0. -1.
    10030    2    1    2    0    0  0.00000000000E+00  0.00000000000E+00 -0.88884483186E+03  0.19143322980E+04  0.16954713245E+04 0.  0.
        4    1    3    3  502    0 -0.38520494537E+03  0.83378819534E+02 -0.12918530879E+04  0.13506372166E+04  0.12699999809E+01 0. -1.
       -4    1    3    3    0  502  0.38520494537E+03 -0.83378819534E+02  0.40300825600E+03  0.56369508140E+03  0.12699999809E+01 0.  1.
</event>
<event>
 5   0  0.8861350E-05  0.2338648E+04  0.7818609E-02  0.8462837E-01
       -1   -1    0    0    0  501  0.00000000000E+00  0.00000000000E+00  0.17925792665E+04  0.17925792665E+04  0.50400001928E-02 0. -1.
        1   -1    0    0  501    0  0.00000000000E+00  0.00000000000E+00 -0.76276613898E+03  0.76276613899E+03  0.50400001928E-02 0.  1.
    10030    2    1    2    0    0  0.00000000000E+00  0.00000000000E+00  0.10298131275E+04  0.25553454055E+04  0.23386481274E+04 0.  0.
        1    1    3    3  502    0  0.10573824468E+04  0.16713126884E+03  0.10289539674E+04  0.14848356026E+04  0.50400001928E-02 0. -1.
       -1    1    3    3    0  502 -0.10573824468E+04 -0.16713126884E+03  0.85916005883E+00  0.10705098028E+04  0.50400001928E-02 0.  1.
</event>
<event>
 5   0  0.1807498E-04  0.1507956E+04  0.7818609E-02  0.8879180E-01
        2   -1    0    0  501    0  0.00000000000E+00  0.00000000000E+00  0.65048529031E+03  0.65048529031E+03  0.25500000920E-02 0.  1.
       -2   -1    0    0    0  501  0.00000000000E+00  0.00000000000E+00 -0.87393600163E+03  0.87393600163E+03  0.25500000920E-02 0. -1.
    10030    2    1    2    0    0  0.00000000000E+00  0.00000000000E+00 -0.22345071132E+03  0.15244212919E+04  0.15079555879E+04 0.  0.
        5    1    3    3  502    0  0.60644297062E+03 -0.41054092940E+02 -0.56269268053E+03  0.82831374362E+03  0.46999998093E+01 0. -1.
       -5    1    3    3    0  502 -0.60644297062E+03  0.41054092940E+02  0.33924196921E+03  0.69610754832E+03  0.46999998093E+01 0.  1.
</event>
<event>
 5   0  0.8881384E-05  0.2012666E+04  0.7818609E-02  0.8600721E-01
       -1   -1    0    0    0  501  0.00000000000E+00  0.00000000000E+00  0.84469311974E+03  0.84469311976E+03  0.50400001928E-02 0.  1.
        1   -1    0    0  501    0  0.00000000000E+00  0.00000000000E+00 -0.11989047309E+04  0.11989047309E+04  0.50400001928E-02 0. -1.
    10030    2    1    2    0    0  0.00000000000E+00  0.00000000000E+00 -0.35421161115E+03  0.20435978507E+04  0.20126664676E+04 0.  0.
        5    1    3    3  502    0  0.31999369122E+03 -0.62652198903E+03  0.55350709802E+03  0.89516365136E+03  0.46999998093E+01 0.  1.
       -5    1    3    3    0  502 -0.31999369122E+03  0.62652198903E+03 -0.90771870917E+03  0.11484341993E+04  0.46999998093E+01 0. -1.
</event>
<event>
 5   0  0.8881384E-05  0.2001336E+04  0.7818609E-02  0.8605996E-01
        1   -1    0    0  501    0  0.00000000000E+00  0.00000000000E+00  0.15930991891E+04  0.15930991891E+04  0.50400001928E-02 0.  1.
       -1   -1    0    0    0  501  0.00000000000E+00  0.00000000000E+00 -0.62854625761E+03  0.62854625763E+03  0.50400001928E-02 0. -1.
    10030    2    1    2    0    0  0.00000000000E+00  0.00000000000E+00  0.96455293148E+03  0.22216454467E+04  0.20013360871E+04 0.  0.
        5    1    3    3  502    0 -0.71091339192E+03 -0.12488882488E+03 -0.28706612701E+03  0.77680378518E+03  0.46999998093E+01 0. -1.
       -5    1    3    3    0  502  0.71091339192E+03  0.12488882488E+03  0.12516190585E+04  0.14448416616E+04  0.46999998093E+01 0.  1.
</event>
<event>
 5   0  0.1807498E-04  0.1968740E+04  0.7818609E-02  0.8621377E-01
        2   -1    0    0  501    0  0.00000000000E+00  0.00000000000E+00  0.11323981895E+04  0.11323981895E+04  0.25500000920E-02 0. -1.
       -2   -1    0    0    0  501  0.00000000000E+00  0.00000000000E+00 -0.85569236991E+03  0.85569236991E+03  0.25500000920E-02 0.  1.
    10030    2    1    2    0    0  0.00000000000E+00  0.00000000000E+00  0.27670581963E+03  0.19880905595E+04  0.19687401967E+04 0.  0.
        5    1    3    3  502    0 -0.29804660190E+03 -0.48930471279E+03  0.94666490069E+03  0.11065475150E+04  0.46999998093E+01 0. -1.
       -5    1    3    3    0  502  0.29804660190E+03  0.48930471279E+03 -0.66995908106E+03  0.88154304441E+03  0.46999998093E+01 0.  1.
</event>
<event>
 5   0  0.8958919E-05  0.2043367E+04  0.7818609E-02  0.8586610E-01
        1   -1    0    0  501    0  0.00000000000E+00  0.00000000000E+00  0.82647983669E+03  0.82647983670E+03  0.50400001928E-02 0.  1.
       -1   -1    0    0    0  501  0.00000000000E+00  0.00000000000E+00 -0.12629912443E+04  0.12629912443E+04  0.50400001928E-02 0. -1.
    10030    2    1    2    0    0  0.00000000000E+00  0.00000000000E+00 -0.43651140758E+03  0.20894710810E+04  0.20433666312E+04 0.  0.
        4    1    3    3  502    0  0.92126395788E+03 -0.43884409118E+03 -0.16688508701E+03  0.10340037048E+04  0.12699999809E+01 0.  1.
       -4    1    3    3    0  502 -0.92126395788E+03  0.43884409118E+03 -0.26962632057E+03  0.10554673761E+04  0.12699999809E+01 0. -1.
</event>
<event>
 5   0  0.8958919E-05  0.2002139E+04  0.7818609E-02  0.8605621E-01
        1   -1    0    0  501    0  0.00000000000E+00  0.00000000000E+00  0.86956082949E+03  0.86956082950E+03  0.50400001928E-02 0. -1.
       -1   -1    0    0    0  501  0.00000000000E+00  0.00000000000E+00 -0.11524670176E+04  0.11524670176E+04  0.50400001928E-02 0.  1.
    10030    2    1    2    0    0  0.00000000000E+00  0.00000000000E+00 -0.28290618811E+03  0.20220278471E+04  0.20021390319E+04 0.  0.
        4    1    3    3  502    0  0.89840718135E+03  0.14889210674E+03 -0.56131627534E+03  0.10697578683E+04  0.12699999809E+01 0.  1.
       -4    1    3    3    0  502 -0.89840718135E+03 -0.14889210674E+03  0.27841008723E+03  0.95226997880E+03  0.12699999809E+01 0. -1.
</event>
<event>
 5   0  0.8881384E-05  0.2019705E+04  0.7818609E-02  0.8597463E-01
       -1   -1    0    0    0  501  0.00000000000E+00  0.00000000000E+00  0.47202660085E+03  0.47202660088E+03  0.50400001928E-02 0. -1.
        1   -1    0    0  501    0  0.00000000000E+00  0.00000000000E+00 -0.21604764662E+04  0.21604764662E+04  0.50400001928E-02 0.  1.
    10030    2    1    2    0    0  0.00000000000E+00  0.00000000000E+00 -0.16884498653E+04  0.26325030671E+04  0.20197052880E+04 0.  0.
        5    1    3    3  502    0 -0.82320163451E+03  0.54656386098E+03 -0.11157201182E+04  0.14903846676E+04  0.46999998093E+01 0.  1.
       -5    1    3    3    0  502  0.82320163451E+03 -0.54656386098E+03 -0.57272974709E+03  0.11421183995E+04  0.46999998093E+01 0. -1.
</event>
<event>
 5   0  0.8958919E-05  0.1963759E+04  0.7818609E-02  0.8623755E-01
        1   -1    0    0  501    0  0.00000000000E+00  0.00000000000E+00  0.11491090490E+04  0.11491090490E+04  0.50400001928E-02 0.  1.
       -1   -1    0    0    0  501  0.00000000000E+00  0.00000000000E+00 -0.83898664734E+03  0.83898664735E+03  0.50400001928E-02 0. -1.
    10030    2    1    2    0    0  0.00000000000E+00  0.00000000000E+00  0.31012240167E+03  0.19880956964E+04  0.19637587922E+04 0.  0.
        4    1    3    3  502    0  0.51231692656E+03 -0.72178484626E+03  0.58535031401E+03  0.10611685071E+04  0.12699999809E+01 0.  1.
       -4    1    3    3    0  502 -0.51231692656E+03  0.72178484626E+03 -0.27522791233E+03  0.92692718924E+03  0.12699999809E+01 0. -1.
</event>
<event>
 5   0  0.8958919E-05  0.1976634E+04  0.7818609E-02  0.8617623E-01
       -1   -1    0    0    0  501  0.00000000000E+00  0.00000000000E+00  0.19730402435E+04  0.19730402435E+04  0.50400001928E-02 0.  1.
        1   -1    0    0  501    0  0.00000000000E+00  0.00000000000E+00 -0.49505876098E+03  0.49505876100E+03  0.50400001928E-02 0. -1.
    10030    2    1    2    0    0  0.00000000000E+00  0.00000000000E+00  0.14779814825E+04  0.24680990045E+04  0.19766343702E+04 0.  0.
        4    1    3    3  502    0  0.51916936156E+03 -0.44639858334E+03  0.16289114253E+04  0.17669642231E+04  0.12699999809E+01 0.  1.
       -4    1    3    3    0  502 -0.51916936156E+03  0.44639858334E+03 -0.15092994280E+03  0.70113478143E+03  0.12699999809E+01 0. -1.
</event>
<event>
 5   0  0.8958919E-05  0.1824280E+04  0.7818609E-02  0.8693493E-01
       -1   -1    0    0    0  501  0.00000000000E+00  0.00000000000E+00  0.69932458448E+03  0.69932458450E+03  0.50400001928E-02 0. -1.
        1   -1    0    0  501    0  0.00000000000E+00  0.00000000000E+00 -0.11897182380E+04  0.11897182380E+04  0.50400001928E-02 0.  1.
    10030    2    1    2    0    0  0.00000000000E+00  0.00000000000E+00 -0.49039365354E+03  0.18890428225E+04  0.18242798168E+04 0.  0.
        4    1    3    3  502    0 -0.25404104979E+03 -0.85940676299E+03 -0.69220332755E+02  0.89883808699E+03  0.12699999809E+01 0.  1.
       -4    1    3    3    0  502  0.25404104979E+03  0.85940676299E+03 -0.42117332078E+03  0.99020473554E+03  0.12699999809E+01 0. -1.
</event>
<event>
 5   0  0.8861350E-05  0.1985574E+04  0.7818609E-02  0.8613395E-01
        1   -1    0    0  501    0  0.00000000000E+00  0.00000000000E+00  0.14694233501E+04  0.14694233501E+04  0.50400001928E-02 0. -1.
       -1   -1    0    0    0  501  0.00000000000E+00  0.00000000000E+00 -0.67075718274E+03  0.67075718275E+03  0.50400001928E-02 0.  1.
    10030    2    1    2    0    0  0.00000000000E+00  0.00000000000E+00  0.79866616735E+03  0.21401805328E+04  0.19855742409E+04 0.  0.
        1    1    3    3  502    0 -0.62057156132E+03 -0.28994488113E+03 -0.37526794808E+03  0.78102697117E+03  0.50400001928E-02 0.  1.
       -1    1    3    3    0  502  0.62057156132E+03  0.28994488113E+03  0.11739341154E+04  0.13591535617E+04  0.50400001928E-02 0. -1.
</event>
<event>
 5   0  0.1782172E-04  0.1983412E+04  0.7818609E-02  0.8614416E-01
       -2   -1    0    0    0  501  0.00000000000E+00  0.00000000000E+00  0.59687911779E+03  0.59687911779E+03  0.25500000920E-02 0. -1.
        2   -1    0    0  501    0  0.00000000000E+00  0.00000000000E+00 -0.16477044384E+04  0.16477044384E+04  0.25500000920E-02 0.  1.
    10030    2    1    2    0    0  0.00000000000E+00  0.00000000000E+00 -0.10508253206E+04  0.22445835562E+04  0.19834115777E+04 0.  0.
        2    1    3    3  502    0  0.11813175456E+03  0.10831304549E+03  0.58212597668E+03  0.60378595545E+03  0.25500000920E-02 0. -1.
       -2    1    3    3    0  502 -0.11813175456E+03 -0.10831304549E+03 -0.16329512973E+04  0.16407976008E+04  0.25500000920E-02 0.  1.
</event>
<event>
 5   0  0.8861350E-05  0.1945941E+04  0.7818609E-02  0.8632321E-01
        1   -1    0    0  501    0  0.00000000000E+00  0.00000000000E+00  0.89732075706E+03  0.89732075707E+03  0.50400001928E-02 0. -1.
       -1   -1    0    0    0  501  0.00000000000E+00  0.00000000000E+00 -0.10549981315E+04  0.10549981316E+04  0.50400001928E-02 0.  1.
    10030    2    1    2    0    0  0.00000000000E+00  0.00000000000E+00 -0.15767737449E+03  0.19523188886E+04  0.19459411318E+04 0.  0.
        1    1    3    3  502    0 -0.33765212252E+03 -0.49894243862E+02 -0.99296339358E+03  0.10499879487E+04  0.50400001928E-02 0.  1.
       -1    1    3    3    0  502  0.33765212252E+03  0.49894243862E+02  0.83528601910E+03  0.90233093992E+03  0.50400001928E-02 0. -1.
</event>
<event>
 5   0  0.8861350E-05  0.1986616E+04  0.7818609E-02  0.8612904E-01
        1   -1    0    0  501    0  0.00000000000E+00  0.00000000000E+00  0.17431981343E+04  0.17431981343E+04  0.50400001928E-02 0.  1.
       -1   -1    0    0    0  501  0.00000000000E+00  0.00000000000E+00 -0.56600586289E+03  0.56600586292E+03  0.50400001928E-02 0. -1.
    10030    2    1    2    0    0  0.00000000000E+00  0.00000000000E+00  0.11771922714E+04  0.23092039972E+04  0.19866155786E+04 0.  0.
        1    1    3    3  502    0 -0.25308480795E+03 -0.95960042489E+03  0.53961769207E+03  0.11296336349E+04  0.50400001928E-02 0. -1.
       -1    1    3    3    0  502  0.25308480795E+03  0.95960042489E+03  0.63757457934E+03  0.11795703623E+04  0.50400001928E-02 0.  1.
</event>
<event>
 5   0  0.1807498E-04  0.1903619E+04  0.7818609E-02  0.8653057E-01
       -2   -1    0    0    0  501  0.00000000000E+00  0.00000000000E+00  0.60586390524E+03  0.60586390525E+03  0.25500000920E-02 0.  1.
        2   -1    0    0  501    0  0.00000000000E+00  0.00000000000E+00 -0.14952877265E+04  0.14952877265E+04  0.25500000920E-02 0. -1.
    10030    2    1    2    0    0  0.00000000000E+00  0.00000000000E+00 -0.88942382123E+03  0.21011516317E+04  0.19036185137E+04 0.  0.
        5    1    3    3  502    0  0.99023528733E+02 -0.76089471991E+03 -0.10663125223E+04  0.13137012291E+04  0.46999998093E+01 0. -1.
       -5    1    3    3    0  502 -0.99023528733E+02  0.76089471991E+03  0.17688870110E+03  0.78745040263E+03  0.46999998093E+01 0.  1.
</event>
<event>
 5   0  0.6531625E-05  0.1994292E+04  0.7818609E-02  0.8609294E-01
       -4   -1    0    0    0  501  0.00000000000E+00  0.00000000000E+00  0.14056714161E+04  0.14056719898E+04  0.12699999809E+01 0. -1.
        4   -1    0    0  501    0  0.00000000000E+00  0.00000000000E+00 -0.70734760416E+03  0.70734874426E+03  0.12699999809E+01 0.  1.
    10030    2    1    2    0    0  0.00000000000E+00  0.00000000000E+00  0.69832381194E+03  0.21130207341E+04  0.19942919737E+04 0.  0.
        4    1    3    3  502    0 -0.13602890712E+03  0.98668458335E+03  0.39939965008E+03  0.10731132391E+04  0.12699999809E+01 0. -1.
       -4    1    3    3    0  502  0.13602890712E+03 -0.98668458335E+03  0.29892416186E+03  0.10399074949E+04  0.12699999809E+01 0.  1.
</event>
<event>
 5   0  0.8765057E-05  0.2032699E+04  0.7818609E-02  0.8591484E-01
       -1   -1    0    0    0  501  0.00000000000E+00  0.00000000000E+00  0.11212819614E+04  0.11212819614E+04  0.50400001928E-02 0.  1.
        1   -1    0    0  501    0  0.00000000000E+00  0.00000000000E+00 -0.92123649585E+03  0.92123649586E+03  0.50400001928E-02 0. -1.
    10030    2    1    2    0    0  0.00000000000E+00  0.00000000000E+00  0.20004546557E+03  0.20425184573E+04  0.20326985660E+04 0.  0.
        3    1    3    3  502    0  0.98002303776E+03 -0.25144619836E+03  0.19690172465E+03  0.10307476144E+04  0.10100000352E+00 0.  1.
       -3    1    3    3    0  502 -0.98002303776E+03  0.25144619836E+03  0.31437409284E+01  0.10117708429E+04  0.10100000352E+00 0. -1.
</event>
<event>
 5   0  0.8958919E-05  0.2095860E+04  0.7818609E-02  0.8563069E-01
       -1   -1    0    0    0  501  0.00000000000E+00  0.00000000000E+00  0.76093861170E+03  0.76093861172E+03  0.50400001928E-02 0. -1.
        1   -1    0    0  501    0  0.00000000000E+00  0.00000000000E+00 -0.14431615211E+04  0.14431615212E+04  0.50400001928E-02 0.  1.
    10030    2    1    2    0    0  0.00000000000E+00  0.00000000000E+00 -0.68222290945E+03  0.22041001329E+04  0.20958600377E+04 0.  0.
        4    1    3    3  502    0  0.10050817790E+04 -0.25446643991E+03 -0.18088427988E+03  0.10524558362E+04  0.12699999809E+01 0. -1.
       -4    1    3    3    0  502 -0.10050817790E+04  0.25446643991E+03 -0.50133862957E+03  0.11516442966E+04  0.12699999809E+01 0.  1.
</event>
<event>
 5   0  0.8958919E-05  0.2011850E+04  0.7818609E-02  0.8601100E-01
       -1   -1    0    0    0  501  0.00000000000E+00  0.00000000000E+00  0.78803632689E+03  0.78803632690E+03  0.50400001928E-02 0.  1.
        1   -1    0    0  501    0  0.00000000000E+00  0.00000000000E+00 -0.12840592688E+04  0.12840592689E+04  0.50400001928E-02 0. -1.
    10030    2    1    2    0    0  0.00000000000E+00  0.00000000000E+00 -0.49602294196E+03  0.20720955958E+04  0.20118502427E+04 0.  0.
        4    1    3    3  502    0 -0.58167901175E+03  0.38287928647E+03  0.49962997400E+03  0.85707569359E+03  0.12699999809E+01 0.  1.
       -4    1    3    3    0  502  0.58167901175E+03 -0.38287928647E+03 -0.99565291595E+03  0.12150199022E+04  0.12699999809E+01 0. -1.
</event>
<event>
 5   0  0.1893687E-04  0.2029671E+04  0.7818609E-02  0.8592873E-01
        2   -1    0    0  501    0  0.00000000000E+00  0.00000000000E+00  0.20458802128E+04  0.20458802128E+04  0.25500000920E-02 0. -1.
       -2   -1    0    0    0  501  0.00000000000E+00  0.00000000000E+00 -0.50339736098E+03  0.50339736099E+03  0.25500000920E-02 0.  1.
    10030    2    1    2    0    0  0.00000000000E+00  0.00000000000E+00  0.15424828519E+04  0.25492775738E+04  0.20296706137E+04 0.  0.
        4    1    3    3  502    0 -0.56379460123E+02 -0.38600155582E+03 -0.40546435481E+03  0.56265335735E+03  0.12699999809E+01 0.  1.
       -4    1    3    3    0  502  0.56379460123E+02  0.38600155582E+03  0.19479472067E+04  0.19866242165E+04  0.12699999809E+01 0. -1.
</event>
<event>
 5   0  0.6531625E-05  0.1960827E+04  0.7818609E-02  0.8625157E-01
       -3   -1    0    0    0  501  0.00000000000E+00  0.00000000000E+00  0.61310433669E+03  0.61310434501E+03  0.10100000352E+00 0. -1.
        3   -1    0    0  501    0  0.00000000000E+00  0.00000000000E+00 -0.15677766548E+04  0.15677766580E+04  0.10100000352E+00 0.  1.
    10030    2    1    2    0    0  0.00000000000E+00  0.00000000000E+00 -0.95467231808E+03  0.21808810030E+04  0.19608270486E+04 0.  0.
        3    1    3    3  502    0 -0.67924678243E+03 -0.69986922492E+03 -0.58865619333E+03  0.11391704208E+04  0.10100000352E+00 0. -1.
       -3    1    3    3    0  502  0.67924678243E+03  0.69986922492E+03 -0.36601612475E+03  0.10417105823E+04  0.10100000352E+00 0.  1.
</event>
<event>
 5   0  0.8765057E-05  0.1995127E+04  0.7818609E-02  0.8608902E-01
        1   -1    0    0  501    0  0.00000000000E+00  0.00000000000E+00  0.14737012973E+04  0.14737012973E+04  0.50400001928E-02 0. -1.
       -1   -1    0    0    0  501  0.00000000000E+00  0.00000000000E+00 -0.67526095513E+03  0.67526095515E+03  0.50400001928E-02 0.  1.
    10030    2    1    2    0    0  0.00000000000E+00  0.00000000000E+00  0.79844034214E+03  0.21489622524E+04  0.19951270091E+04 0.  0.
        3    1    3    3  502    0 -0.10529991314E+03 -0.49232403009E+02  0.14663817157E+04  0.14709817292E+04  0.10100000352E+00 0. -1.
       -3    1    3    3    0  502  0.10529991314E+03  0.49232403009E+02 -0.66794137355E+03  0.67798052326E+03  0.10100000352E+00 0.  1.
</event>
<event>
 5   0  0.1782172E-04  0.1994963E+04  0.7818609E-02  0.8608979E-01
       -2   -1    0    0    0  501  0.00000000000E+00  0.00000000000E+00  0.15077534466E+04  0.15077534466E+04  0.25500000920E-02 0. -1.
        2   -1    0    0  501    0  0.00000000000E+00  0.00000000000E+00 -0.65990215595E+03  0.65990215595E+03  0.25500000920E-02 0.  1.
    10030    2    1    2    0    0  0.00000000000E+00  0.00000000000E+00  0.84785129069E+03  0.21676556026E+04  0.19949634083E+04 0.  0.
        2    1    3    3  502    0 -0.18821996729E+03  0.80473485294E+03 -0.18294234489E+03  0.84645900148E+03  0.25500000920E-02 0.  1.
       -2    1    3    3    0  502  0.18821996729E+03 -0.80473485294E+03  0.10307936356E+04  0.13211966011E+04  0.25500000920E-02 0. -1.
</event>
<event>
 5   0  0.1807498E-04  0.2079468E+04  0.7818609E-02  0.8570342E-01
        2   -1    0    0  501    0  0.00000000000E+00  0.00000000000E+00  0.10416581595E+04  0.10416581595E+04  0.25500000920E-02 0. -1.
       -2   -1    0    0    0  501  0.00000000000E+00  0.00000000000E+00 -0.10378130135E+04  0.10378130135E+04  0.25500000920E-02 0.  1.
    10030    2    1    2    0    0  0.00000000000E+00  0.00000000000E+00  0.38451459527E+01  0.20794711730E+04  0.20794676180E+04 0.  0.
        5    1    3    3  502    0  0.82749335788E+03  0.51721427058E+01  0.63140938781E+03  0.10408995693E+04  0.46999998093E+01 0. -1.
       -5    1    3    3    0  502 -0.82749335788E+03 -0.51721427058E+01 -0.62756424186E+03  0.10385716037E+04  0.46999998093E+01 0.  1.
</event>
<event>
 5   0  0.1812865E-04  0.1982206E+04  0.7818609E-02  0.8614985E-01
        2   -1    0    0  501    0  0.00000000000E+00  0.00000000000E+00  0.13304082833E+04  0.13304082833E+04  0.25500000920E-02 0. -1.
       -2   -1    0    0    0  501  0.00000000000E+00  0.00000000000E+00 -0.73833350698E+03  0.73833350698E+03  0.25500000920E-02 0.  1.
    10030    2    1    2    0    0  0.00000000000E+00  0.00000000000E+00  0.59207477635E+03  0.20687417903E+04  0.19822058557E+04 0.  0.
        3    1    3    3  502    0 -0.89598240258E+02 -0.53319861264E+03 -0.57086132056E+03  0.78626411765E+03  0.10100000352E+00 0.  1.
       -3    1    3    3    0  502  0.89598240258E+02  0.53319861264E+03  0.11629360969E+04  0.12824776727E+04  0.10100000352E+00 0. -1.
</event>
<event>
 5   0  0.8577422E-05  0.2003748E+04  0.7818609E-02  0.8604870E-01
       -1   -1    0    0    0  501  0.00000000000E+00  0.00000000000E+00  0.15597553067E+04  0.15597553068E+04  0.50400001928E-02 0. -1.
        1   -1    0    0  501    0  0.00000000000E+00  0.00000000000E+00 -0.64353137366E+03  0.64353137368E+03  0.50400001928E-02 0.  1.
    10030    2    1    2    0    0  0.00000000000E+00  0.00000000000E+00  0.91622393309E+03  0.22032866804E+04  0.20037479633E+04 0.  0.
        2    1    3    3  502    0  0.44417889052E+03 -0.21696117806E+03  0.14163176905E+04  0.15001076095E+04  0.25500000920E-02 0. -1.
       -2    1    3    3    0  502 -0.44417889052E+03  0.21696117806E+03 -0.50009375744E+03  0.70317907094E+03  0.25500000920E-02 0.  1.
</event>
<event>
 5   0  0.1812865E-04  0.2018206E+04  0.7818609E-02  0.8598156E-01
       -2   -1    0    0    0  501  0.00000000000E+00  0.00000000000E+00  0.51701418457E+03  0.51701418458E+03  0.25500000920E-02 0. -1.
        2   -1    0    0  501    0  0.00000000000E+00  0.00000000000E+00 -0.19695562441E+04  0.19695562441E+04  0.25500000920E-02 0.  1.
    10030    2    1    2    0    0  0.00000000000E+00  0.00000000000E+00 -0.14525420596E+04  0.24865704287E+04  0.20182056541E+04 0.  0.
        3    1    3    3  502    0 -0.55580930387E+03 -0.52534793403E+03  0.84814788695E+02  0.76948553764E+03  0.10100000352E+00 0. -1.
       -3    1    3    3    0  502  0.55580930387E+03  0.52534793403E+03 -0.15373568483E+04  0.17170848911E+04  0.10100000352E+00 0.  1.
</event>
<event>
 5   0  0.8881384E-05  0.1986014E+04  0.7818609E-02  0.8613188E-01
       -1   -1    0    0    0  501  0.00000000000E+00  0.00000000000E+00  0.10294613077E+04  0.10294613077E+04  0.50400001928E-02 0.  1.
        1   -1    0    0  501    0  0.00000000000E+00  0.00000000000E+00 -0.95784366706E+03  0.95784366707E+03  0.50400001928E-02 0. -1.
    10030    2    1    2    0    0  0.00000000000E+00  0.00000000000E+00  0.71617640601E+02  0.19873049747E+04  0.19860140926E+04 0.  0.
        5    1    3    3  502    0 -0.49855995568E+03  0.82757448139E+03 -0.19368573811E+03  0.98538206133E+03  0.46999998093E+01 0. -1.
       -5    1    3    3    0  502  0.49855995568E+03 -0.82757448139E+03  0.26530337871E+03  0.10019229134E+04  0.46999998093E+01 0.  1.
</event>
<event>
 5   0  0.8765057E-05  0.1974584E+04  0.7818609E-02  0.8618597E-01
       -1   -1    0    0    0  501  0.00000000000E+00  0.00000000000E+00  0.10949154701E+04  0.10949154701E+04  0.50400001928E-02 0.  1.
        1   -1    0    0  501    0  0.00000000000E+00  0.00000000000E+00 -0.89024681822E+03  0.89024681823E+03  0.50400001928E-02 0. -1.
    10030    2    1    2    0    0  0.00000000000E+00  0.00000000000E+00  0.20466865185E+03  0.19851622883E+04  0.19745835140E+04 0.  0.
        3    1    3    3  502    0  0.19237134023E+03 -0.91122294401E+03 -0.22715771169E+03  0.95861077734E+03  0.10100000352E+00 0. -1.
       -3    1    3    3    0  502 -0.19237134023E+03  0.91122294401E+03  0.43182636354E+03  0.10265515110E+04  0.10100000352E+00 0.  1.
</event>
<event>
 5   0  0.8958919E-05  0.1999673E+04  0.7818609E-02  0.8606774E-01
       -1   -1    0    0    0  501  0.00000000000E+00  0.00000000000E+00  0.52937947338E+03  0.52937947340E+03  0.50400001928E-02 0.  1.
        1   -1    0    0  501    0  0.00000000000E+00  0.00000000000E+00 -0.18883862332E+04  0.18883862332E+04  0.50400001928E-02 0. -1.
    10030    2    1    2    0    0  0.00000000000E+00  0.00000000000E+00 -0.13590067598E+04  0.24177657066E+04  0.19996728830E+04 0.  0.
        4    1    3    3  502    0 -0.83746091155E+03 -0.36415308162E+02 -0.13384295093E+04  0.15792599588E+04  0.12699999809E+01 0. -1.
       -4    1    3    3    0  502  0.83746091155E+03  0.36415308162E+02 -0.20577250512E+02  0.83850574785E+03  0.12699999809E+01 0.  1.
</event>
<event>
 5   0  0.1893687E-04  0.2052167E+04  0.7818609E-02  0.8582612E-01
       -2   -1    0    0    0  501  0.00000000000E+00  0.00000000000E+00  0.83236871789E+03  0.83236871790E+03  0.25500000920E-02 0.  1.
        2   -1    0    0  501    0  0.00000000000E+00  0.00000000000E+00 -0.12648809875E+04  0.12648809875E+04  0.25500000920E-02 0. -1.
    10030    2    1    2    0    0  0.00000000000E+00  0.00000000000E+00 -0.43251226959E+03  0.20972497054E+04  0.20521670164E+04 0.  0.
        4    1    3    3  502    0 -0.79664819270E+03  0.55547232228E+03  0.12214952375E+03  0.97883602447E+03  0.12699999809E+01 0.  1.
       -4    1    3    3    0  502  0.79664819270E+03 -0.55547232228E+03 -0.55466179334E+03  0.11184136809E+04  0.12699999809E+01 0. -1.
</event>
<event>
 5   0  0.8958919E-05  0.2003122E+04  0.7818609E-02  0.8605162E-01
        1   -1    0    0  501    0  0.00000000000E+00  0.00000000000E+00  0.94488104433E+03  0.94488104434E+03  0.50400001928E-02 0.  1.
       -1   -1    0    0    0  501  0.00000000000E+00  0.00000000000E+00 -0.10616413533E+04  0.10616413533E+04  0.50400001928E-02 0. -1.
    10030    2    1    2    0    0  0.00000000000E+00  0.00000000000E+00 -0.11676030894E+03  0.20065223976E+04  0.20031223533E+04 0.  0.
        4    1    3    3  502    0  0.75401465550E+02  0.97871914499E+03  0.14082074052E+03  0.99166962223E+03  0.12699999809E+01 0.  1.
       -4    1    3    3    0  502 -0.75401465550E+02 -0.97871914499E+03 -0.25758104946E+03  0.10148527754E+04  0.12699999809E+01 0. -1.
</event>
<event>
 5   0  0.1807498E-04  0.2045500E+04  0.7818609E-02  0.8585638E-01
       -2   -1    0    0    0  501  0.00000000000E+00  0.00000000000E+00  0.98536052284E+03  0.98536052285E+03  0.25500000920E-02 0.  1.
        2   -1    0    0  501    0  0.00000000000E+00  0.00000000000E+00 -0.10615583924E+04  0.10615583924E+04  0.25500000920E-02 0. -1.
    10030    2    1    2    0    0  0.00000000000E+00  0.00000000000E+00 -0.76197869595E+02  0.20469189153E+04  0.20455001663E+04 0.  0.
        5    1    3    3  502    0  0.49412398611E+03 -0.48028841173E+03  0.71817664535E+03  0.99530661407E+03  0.46999998093E+01 0.  1.
       -5    1    3    3    0  502 -0.49412398611E+03  0.48028841173E+03 -0.79437451494E+03  0.10516123012E+04  0.46999998093E+01 0. -1.
</event>
<event>
 5   0  0.8765057E-05  0.1971650E+04  0.7818609E-02  0.8619991E-01
        1   -1    0    0  501    0  0.00000000000E+00  0.00000000000E+00  0.15817284874E+04  0.15817284874E+04  0.50400001928E-02 0.  1.
       -1   -1    0    0    0  501  0.00000000000E+00  0.00000000000E+00 -0.61442337711E+03  0.61442337713E+03  0.50400001928E-02 0. -1.
    10030    2    1    2    0    0  0.00000000000E+00  0.00000000000E+00  0.96730511032E+03  0.21961518646E+04  0.19716500287E+04 0.  0.
        3    1    3    3  502    0  0.34233115255E+03 -0.42728222783E+03 -0.42950628879E+03  0.69587095251E+03  0.10100000352E+00 0. -1.
       -3    1    3    3    0  502 -0.34233115255E+03  0.42728222783E+03  0.13968113991E+04  0.15002809121E+04  0.10100000352E+00 0.  1.
</event>
<event>
 5   0  0.1782172E-04  0.1923673E+04  0.7818609E-02  0.8643162E-01
        2   -1    0    0  501    0  0.00000000000E+00  0.00000000000E+00  0.13897993655E+04  0.13897993655E+04  0.25500000920E-02 0. -1.
       -2   -1    0    0    0  501  0.00000000000E+00  0.00000000000E+00 -0.66565676516E+03  0.66565676516E+03  0.25500000920E-02 0.  1.
    10030    2    1    2    0    0  0.00000000000E+00  0.00000000000E+00  0.72414260033E+03  0.20554561307E+04  0.19236728930E+04 0.  0.
        2    1    3    3  502    0 -0.77314439235E+03 -0.42520682623E+03  0.77115181617E+03  0.11718482069E+04  0.25500000920E-02 0. -1.
       -2    1    3    3    0  502  0.77314439235E+03  0.42520682623E+03 -0.47009215836E+02  0.88360792373E+03  0.25500000920E-02 0.  1.
</event>
<event>
 5   0  0.1893687E-04  0.1990830E+04  0.7818609E-02  0.8610920E-01
       -2   -1    0    0    0  501  0.00000000000E+00  0.00000000000E+00  0.10914475794E+04  0.10914475794E+04  0.25500000920E-02 0. -1.
        2   -1    0    0  501    0  0.00000000000E+00  0.00000000000E+00 -0.90783164301E+03  0.90783164301E+03  0.25500000920E-02 0.  1.
    10030    2    1    2    0    0  0.00000000000E+00  0.00000000000E+00  0.18361593635E+03  0.19992792224E+04  0.19908296253E+04 0.  0.
        4    1    3    3  502    0 -0.31240799810E+03 -0.75048172579E+03  0.66872637449E+03  0.10526244130E+04  0.12699999809E+01 0. -1.
       -4    1    3    3    0  502  0.31240799810E+03  0.75048172579E+03 -0.48511043814E+03  0.94665480937E+03  0.12699999809E+01 0.  1.
</event>
<event>
 5   0  0.1782172E-04  0.1991229E+04  0.7818609E-02  0.8610733E-01
        2   -1    0    0  501    0  0.00000000000E+00  0.00000000000E+00  0.10714716710E+04  0.10714716710E+04  0.25500000920E-02 0.  1.
       -2   -1    0    0    0  501  0.00000000000E+00  0.00000000000E+00 -0.92512754239E+03  0.92512754239E+03  0.25500000920E-02 0. -1.
    10030    2    1    2    0    0  0.00000000000E+00  0.00000000000E+00  0.14634412864E+03  0.19965992134E+04  0.19912287199E+04 0.  0.
        2    1    3    3  502    0  0.71316002408E+03  0.60271196227E+03 -0.27328701716E+03  0.97290530021E+03  0.25500000920E-02 0. -1.
       -2    1    3    3    0  502 -0.71316002408E+03 -0.60271196227E+03  0.41963114581E+03  0.10236939132E+04  0.25500000920E-02 0.  1.
</event>
<event>
 5   0  0.8958919E-05  0.2036368E+04  0.7818609E-02  0.8589804E-01
        1   -1    0    0  501    0  0.00000000000E+00  0.00000000000E+00  0.56781678625E+03  0.56781678628E+03  0.50400001928E-02 0. -1.
       -1   -1    0    0    0  501  0.00000000000E+00  0.00000000000E+00 -0.18257617749E+04  0.18257617749E+04  0.50400001928E-02 0.  1.
    10030    2    1    2    0    0  0.00000000000E+00  0.00000000000E+00 -0.12579449887E+04  0.23935785612E+04  0.20363675341E+04 0.  0.
        4    1    3    3  502    0 -0.10072768630E+04  0.11234257133E+03 -0.74335101255E+03  0.12569009001E+04  0.12699999809E+01 0. -1.
       -4    1    3    3    0  502  0.10072768630E+04 -0.11234257133E+03 -0.51459397610E+03  0.11366776611E+04  0.12699999809E+01 0.  1.
</event>
<event>
 5   0  0.1807498E-04  0.1994000E+04  0.7818609E-02  0.8609431E-01
        2   -1    0    0  501    0  0.00000000000E+00  0.00000000000E+00  0.72103825547E+03  0.72103825548E+03  0.25500000920E-02 0. -1.
       -2   -1    0    0    0  501  0.00000000000E+00  0.00000000000E+00 -0.13785794803E+04  0.13785794803E+04  0.25500000920E-02 0.  1.
    10030    2    1    2    0    0  0.00000000000E+00  0.00000000000E+00 -0.65754122484E+03  0.20996177358E+04  0.19939995421E+04 0.  0.
        5    1    3    3  502    0 -0.79801719529E+03 -0.69590377054E+02 -0.95376916675E+03  0.12455408375E+04  0.46999998093E+01 0.  1.
       -5    1    3    3    0  502  0.79801719529E+03  0.69590377054E+02  0.29622794191E+03  0.85407689825E+03  0.46999998093E+01 0. -1.
</event>
<event>
 5   0  0.8577422E-05  0.1754904E+04  0.7818609E-02  0.8730656E-01
       -1   -1    0    0    0  501  0.00000000000E+00  0.00000000000E+00  0.58451338313E+03  0.58451338315E+03  0.50400001928E-02 0. -1.
        1   -1    0    0  501    0  0.00000000000E+00  0.00000000000E+00 -0.13172011693E+04  0.13172011693E+04  0.50400001928E-02 0.  1.
    10030    2    1    2    0    0  0.00000000000E+00  0.00000000000E+00 -0.73268778615E+03  0.19017145524E+04  0.17549036575E+04 0.  0.
        2    1    3    3  502    0 -0.49725126218E+03 -0.68735664615E+03 -0.60915025678E+03  0.10444050996E+04  0.25500000920E-02 0.  1.
       -2    1    3    3    0  502  0.49725126218E+03  0.68735664615E+03 -0.12353752937E+03  0.85730945283E+03  0.25500000920E-02 0. -1.
</event>
<event>
 5   0  0.8861350E-05  0.2006465E+04  0.7818609E-02  0.8603604E-01
        1   -1    0    0  501    0  0.00000000000E+00  0.00000000000E+00  0.85725446632E+03  0.85725446633E+03  0.50400001928E-02 0. -1.
       -1   -1    0    0    0  501  0.00000000000E+00  0.00000000000E+00 -0.11740686576E+04  0.11740686576E+04  0.50400001928E-02 0.  1.
    10030    2    1    2    0    0  0.00000000000E+00  0.00000000000E+00 -0.31681419127E+03  0.20313231239E+04  0.20064651510E+04 0.  0.
        1    1    3    3  502    0 -0.86530486576E+03 -0.21658608142E+03  0.30642559292E+03  0.94316418793E+03  0.50400001928E-02 0. -1.
       -1    1    3    3    0  502  0.86530486576E+03  0.21658608142E+03 -0.62323978420E+03  0.10881589360E+04  0.50400001928E-02 0.  1.
</event>
<event>
 5   0  0.8881384E-05  0.2027617E+04  0.7818609E-02  0.8593817E-01
       -1   -1    0    0    0  501  0.00000000000E+00  0.00000000000E+00  0.48765918732E+03  0.48765918734E+03  0.50400001928E-02 0. -1.
        1   -1    0    0  501    0  0.00000000000E+00  0.00000000000E+00 -0.21076345026E+04  0.21076345026E+04  0.50400001928E-02 0.  1.
    10030    2    1    2    0    0  0.00000000000E+00  0.00000000000E+00 -0.16199753153E+04  0.25952936899E+04  0.20276166588E+04 0.  0.
        5    1    3    3  502    0 -0.36508518391E+03  0.26107137183E+02 -0.20200976171E+04  0.20529942150E+04  0.46999998093E+01 0.  1.
       -5    1    3    3    0  502  0.36508518391E+03 -0.26107137183E+02  0.40012230183E+03  0.54229947496E+03  0.46999998093E+01 0. -1.
</event>
<event>
 5   0  0.8958919E-05  0.1998518E+04  0.7818609E-02  0.8607314E-01
        1   -1    0    0  501    0  0.00000000000E+00  0.00000000000E+00  0.17851144294E+04  0.17851144294E+04  0.50400001928E-02 0.  1.
       -1   -1    0    0    0  501  0.00000000000E+00  0.00000000000E+00 -0.55935845453E+03  0.55935845455E+03  0.50400001928E-02 0. -1.
    10030    2    1    2    0    0  0.00000000000E+00  0.00000000000E+00  0.12257559748E+04  0.23444728839E+04  0.19985182995E+04 0.  0.
        4    1    3    3  502    0  0.67660591321E+02 -0.53509886386E+01  0.17824063439E+04  0.17836985666E+04  0.12699999809E+01 0.  1.
       -4    1    3    3    0  502 -0.67660591321E+02  0.53509886386E+01 -0.55665036908E+03  0.56077431734E+03  0.12699999809E+01 0. -1.
</event>
<event>
 5   0  0.1834645E-04  0.1870885E+04  0.7818609E-02  0.8669486E-01
        2   -1    0    0  501    0  0.00000000000E+00  0.00000000000E+00  0.17323758067E+04  0.17323758067E+04  0.25500000920E-02 0.  1.
       -2   -1    0    0    0  501  0.00000000000E+00  0.00000000000E+00 -0.50511709588E+03  0.50511709589E+03  0.25500000920E-02 0. -1.
    10030    2    1    2    0    0  0.00000000000E+00  0.00000000000E+00  0.12272587108E+04  0.22374929026E+04  0.18708849633E+04 0.  0.
        1    1    3    3  502    0  0.83630272780E+03 -0.12404457327E+03  0.10924045705E+04  0.13813533416E+04  0.50400001928E-02 0.  1.
       -1    1    3    3    0  502 -0.83630272780E+03  0.12404457327E+03  0.13485414030E+03  0.85613956097E+03  0.50400001928E-02 0. -1.
</event>
<event>
 5   0  0.8861350E-05  0.2006813E+04  0.7818609E-02  0.8603442E-01
       -1   -1    0    0    0  501  0.00000000000E+00  0.00000000000E+00  0.16275337403E+04  0.16275337403E+04  0.50400001928E-02 0. -1.
        1   -1    0    0  501    0  0.00000000000E+00  0.00000000000E+00 -0.61861986476E+03  0.61861986478E+03  0.50400001928E-02 0.  1.
    10030    2    1    2    0    0  0.00000000000E+00  0.00000000000E+00  0.10089138755E+04  0.22461536051E+04  0.20068130978E+04 0.  0.
        1    1    3    3  502    0  0.33941054124E+03  0.89785404319E+03  0.17721182047E+03  0.97608679313E+03  0.50400001928E-02 0.  1.
       -1    1    3    3    0  502 -0.33941054124E+03 -0.89785404319E+03  0.83170205505E+03  0.12700668119E+04  0.50400001928E-02 0. -1.
</event>
<event>
 5   0  0.1812865E-04  0.1998225E+04  0.7818609E-02  0.8607451E-01
        2   -1    0    0  501    0  0.00000000000E+00  0.00000000000E+00  0.12893466800E+04  0.12893466800E+04  0.25500000920E-02 0. -1.
       -2   -1    0    0    0  501  0.00000000000E+00  0.00000000000E+00 -0.77421069128E+03  0.77421069128E+03  0.25500000920E-02 0.  1.
    10030    2    1    2    0    0  0.00000000000E+00  0.00000000000E+00  0.51513598872E+03  0.20635573713E+04  0.19982251970E+04 0.  0.
        3    1    3    3  502    0  0.77323891735E+03  0.40255731519E+03  0.76166196231E+03  0.11576181453E+04  0.10100000352E+00 0. -1.
       -3    1    3    3    0  502 -0.77323891735E+03 -0.40255731519E+03 -0.24652597359E+03  0.90593922598E+03  0.10100000352E+00 0.  1.
</event>
<event>
 5   0  0.1834645E-04  0.2008029E+04  0.7818609E-02  0.8602876E-01
        2   -1    0    0  501    0  0.00000000000E+00  0.00000000000E+00  0.17540732071E+04  0.17540732071E+04  0.25500000920E-02 0.  1.
       -2   -1    0    0    0  501  0.00000000000E+00  0.00000000000E+00 -0.57468809324E+03  0.57468809324E+03  0.25500000920E-02 0. -1.
    10030    2    1    2    0    0  0.00000000000E+00  0.00000000000E+00  0.11793851139E+04  0.23287613004E+04  0.20080288711E+04 0.  0.
        1    1    3    3  502    0  0.51431202996E+03 -0.23806142824E+03 -0.37144935654E+03  0.67761695100E+03  0.50400001928E-02 0. -1.
       -1    1    3    3    0  502 -0.51431202996E+03  0.23806142824E+03  0.15508344704E+04  0.16511443494E+04  0.50400001928E-02 0.  1.
</event>
<event>
 5   0  0.1834645E-04  0.2005890E+04  0.7818609E-02  0.8603872E-01
        2   -1    0    0  501    0  0.00000000000E+00  0.00000000000E+00  0.17173953174E+04  0.17173953174E+04  0.25500000920E-02 0.  1.
       -2   -1    0    0    0  501  0.00000000000E+00  0.00000000000E+00 -0.58571204771E+03  0.58571204771E+03  0.25500000920E-02 0. -1.
    10030    2    1    2    0    0  0.00000000000E+00  0.00000000000E+00  0.11316832697E+04  0.23031073651E+04  0.20058904537E+04 0.  0.
        1    1    3    3  502    0  0.81704603758E+03  0.54800383183E+03  0.34194307685E+03  0.10415361228E+04  0.50400001928E-02 0. -1.
       -1    1    3    3    0  502 -0.81704603758E+03 -0.54800383183E+03  0.78974019282E+03  0.12615712423E+04  0.50400001928E-02 0.  1.
</event>
<event>
 5   0  0.1807498E-04  0.2058259E+04  0.7818609E-02  0.8579857E-01
       -2   -1    0    0    0  501  0.00000000000E+00  0.00000000000E+00  0.58071367501E+03  0.58071367501E+03  0.25500000920E-02 0. -1.
        2   -1    0    0  501    0  0.00000000000E+00  0.00000000000E+00 -0.18238031769E+04  0.18238031769E+04  0.25500000920E-02 0.  1.
    10030    2    1    2    0    0  0.00000000000E+00  0.00000000000E+00 -0.12430895019E+04  0.24045168519E+04  0.20582589199E+04 0.  0.
        5    1    3    3  502    0 -0.97248871033E+03 -0.33175137872E+03 -0.68857385690E+03  0.12369111995E+04  0.46999998093E+01 0. -1.
       -5    1    3    3    0  502  0.97248871033E+03  0.33175137872E+03 -0.55451564495E+03  0.11676056524E+04  0.46999998093E+01 0.  1.
</event>
<event>
 5   0  0.8881384E-05  0.1986676E+04  0.7818609E-02  0.8612875E-01
       -1   -1    0    0    0  501  0.00000000000E+00  0.00000000000E+00  0.10590568220E+04  0.10590568220E+04  0.50400001928E-02 0. -1.
        1   -1    0    0  501    0  0.00000000000E+00  0.00000000000E+00 -0.93169739034E+03  0.93169739036E+03  0.50400001928E-02 0.  1.
    10030    2    1    2    0    0  0.00000000000E+00  0.00000000000E+00  0.12735943169E+03  0.19907542124E+04  0.19866760957E+04 0.  0.
        5    1    3    3  502    0 -0.87971750728E+03 -0.13026039607E+03  0.50711236392E+03  0.10237459172E+04  0.46999998093E+01 0. -1.
       -5    1    3    3    0  502  0.87971750728E+03  0.13026039607E+03 -0.37975293223E+03  0.96700829517E+03  0.46999998093E+01 0.  1.
</event>
<event>
 5   0  0.1812865E-04  0.1975444E+04  0.7818609E-02  0.8618188E-01
       -2   -1    0    0    0  501  0.00000000000E+00  0.00000000000E+00  0.57635306143E+03  0.57635306143E+03  0.25500000920E-02 0. -1.
        2   -1    0    0  501    0  0.00000000000E+00  0.00000000000E+00 -0.16927028360E+04  0.16927028360E+04  0.25500000920E-02 0.  1.
    10030    2    1    2    0    0  0.00000000000E+00  0.00000000000E+00 -0.11163497746E+04  0.22690558974E+04  0.19754437088E+04 0.  0.
        3    1    3    3  502    0 -0.47154947044E+03 -0.75787239607E+03 -0.10439588739E+04  0.13735281622E+04  0.10100000352E+00 0.  1.
       -3    1    3    3    0  502  0.47154947044E+03  0.75787239607E+03 -0.72390900638E+02  0.89552773519E+03  0.10100000352E+00 0. -1.
</event>
<event>
 5   0  0.8577422E-05  0.1975916E+04  0.7818609E-02  0.8617964E-01
       -1   -1    0    0    0  501  0.00000000000E+00  0.00000000000E+00  0.47022087733E+03  0.47022087736E+03  0.50400001928E-02 0.  1.
        1   -1    0    0  501    0  0.00000000000E+00  0.00000000000E+00 -0.20757494206E+04  0.20757494206E+04  0.50400001928E-02 0. -1.
    10030    2    1    2    0    0  0.00000000000E+00  0.00000000000E+00 -0.16055285432E+04  0.25459702979E+04  0.19759157003E+04 0.  0.
        2    1    3    3  502    0 -0.89271224526E+03 -0.33687582558E+03 -0.11328828738E+04  0.14811630837E+04  0.25500000920E-02 0. -1.
       -2    1    3    3    0  502  0.89271224526E+03  0.33687582558E+03 -0.47264566945E+03  0.10648072143E+04  0.25500000920E-02 0.  1.
</event>
<event>
 5   0  0.8861350E-05  0.1949773E+04  0.7818609E-02  0.8630470E-01
       -1   -1    0    0    0  501  0.00000000000E+00  0.00000000000E+00  0.41367676270E+03  0.41367676273E+03  0.50400001928E-02 0. -1.
        1   -1    0    0  501    0  0.00000000000E+00  0.00000000000E+00 -0.22974553334E+04  0.22974553334E+04  0.50400001928E-02 0.  1.
    10030    2    1    2    0    0  0.00000000000E+00  0.00000000000E+00 -0.18837785707E+04  0.27111320961E+04  0.19497732020E+04 0.  0.
        1    1    3    3  502    0 -0.77949161183E+03  0.36790399910E+03 -0.30857927929E+03  0.91552263604E+03  0.50400001928E-02 0. -1.
       -1    1    3    3    0  502  0.77949161183E+03 -0.36790399910E+03 -0.15751992914E+04  0.17956094600E+04  0.50400001928E-02 0.  1.
</event>
<event>
 5   0  0.8765057E-05  0.2009679E+04  0.7818609E-02  0.8602109E-01
        1   -1    0    0  501    0  0.00000000000E+00  0.00000000000E+00  0.11963003010E+04  0.11963003010E+04  0.50400001928E-02 0.  1.
       -1   -1    0    0    0  501  0.00000000000E+00  0.00000000000E+00 -0.84402050566E+03  0.84402050568E+03  0.50400001928E-02 0. -1.
    10030    2    1    2    0    0  0.00000000000E+00  0.00000000000E+00  0.35227979532E+03  0.20403208067E+04  0.20096785663E+04 0.  0.
        3    1    3    3  502    0  0.26367315121E+03 -0.95334166888E+03 -0.35276359082E+01  0.98913918268E+03  0.10100000352E+00 0. -1.
       -3    1    3    3    0  502 -0.26367315121E+03  0.95334166888E+03  0.35580743123E+03  0.10511816240E+04  0.10100000352E+00 0.  1.
</event>
<event>
 5   0  0.8765057E-05  0.1943404E+04  0.7818609E-02  0.8633548E-01
        1   -1    0    0  501    0  0.00000000000E+00  0.00000000000E+00  0.58425460940E+03  0.58425460942E+03  0.50400001928E-02 0.  1.
       -1   -1    0    0    0  501  0.00000000000E+00  0.00000000000E+00 -0.16160839266E+04  0.16160839266E+04  0.50400001928E-02 0. -1.
    10030    2    1    2    0    0  0.00000000000E+00  0.00000000000E+00 -0.10318293172E+04  0.22003385360E+04  0.19434036980E+04 0.  0.
        3    1    3    3  502    0  0.21567317946E+03 -0.78684356197E+03 -0.11134878806E+04  0.13803959511E+04  0.10100000352E+00 0. -1.
       -3    1    3    3    0  502 -0.21567317946E+03  0.78684356197E+03  0.81658563438E+02  0.81994258490E+03  0.10100000352E+00 0.  1.
</event>
<event>
 5   0  0.1782172E-04  0.1968553E+04  0.7818609E-02  0.8621466E-01
        2   -1    0    0  501    0  0.00000000000E+00  0.00000000000E+00  0.14775478370E+04  0.14775478371E+04  0.25500000920E-02 0.  1.
       -2   -1    0    0    0  501  0.00000000000E+00  0.00000000000E+00 -0.65568141321E+03  0.65568141322E+03  0.25500000920E-02 0. -1.
    10030    2    1    2    0    0  0.00000000000E+00  0.00000000000E+00  0.82186642383E+03  0.21332292503E+04  0.19685534322E+04 0.  0.
        2    1    3    3  502    0  0.29186276478E+03 -0.55355308676E+03 -0.41235498461E+03  0.74942746591E+03  0.25500000920E-02 0. -1.
       -2    1    3    3    0  502 -0.29186276478E+03  0.55355308676E+03  0.12342214084E+04  0.13838017844E+04  0.25500000920E-02 0.  1.
</event>
<event>
 5   0  0.8881384E-05  0.2029535E+04  0.7818609E-02  0.8592935E-01
        1   -1    0    0  501    0  0.00000000000E+00  0.00000000000E+00  0.18035497926E+04  0.18035497926E+04  0.50400001928E-02 0.  1.
       -1   -1    0    0    0  501  0.00000000000E+00  0.00000000000E+00 -0.57095906913E+03  0.57095906915E+03  0.50400001928E-02 0. -1.
    10030    2    1    2    0    0  0.00000000000E+00  0.00000000000E+00  0.12325907235E+04  0.23745088618E+04  0.20295350312E+04 0.  0.
        5    1    3    3  502    0 -0.95624085133E+03  0.18864968952E+03  0.28590222644E+03  0.10157496956E+04  0.46999998093E+01 0.  1.
       -5    1    3    3    0  502  0.95624085133E+03 -0.18864968952E+03  0.94668849704E+03  0.13587591661E+04  0.46999998093E+01 0. -1.
</event>
<event>
 5   0  0.1807498E-04  0.1904909E+04  0.7818609E-02  0.8652417E-01
       -2   -1    0    0    0  501  0.00000000000E+00  0.00000000000E+00  0.10199410849E+04  0.10199410850E+04  0.25500000920E-02 0. -1.
        2   -1    0    0  501    0  0.00000000000E+00  0.00000000000E+00 -0.88943352409E+03  0.88943352410E+03  0.25500000920E-02 0.  1.
    10030    2    1    2    0    0  0.00000000000E+00  0.00000000000E+00  0.13050756086E+03  0.19093746090E+04  0.19049092299E+04 0.  0.
        5    1    3    3  502    0 -0.71235696252E+03  0.17802271806E+03 -0.54280090418E+03  0.91312619159E+03  0.46999998093E+01 0.  1.
       -5    1    3    3    0  502  0.71235696252E+03 -0.17802271806E+03  0.67330846503E+03  0.99624841745E+03  0.46999998093E+01 0. -1.
</event>
<event>
 5   0  0.8577422E-05  0.1915367E+04  0.7818609E-02  0.8647245E-01
        1   -1    0    0  501    0  0.00000000000E+00  0.00000000000E+00  0.76025937139E+03  0.76025937141E+03  0.50400001928E-02 0.  1.
       -1   -1    0    0    0  501  0.00000000000E+00  0.00000000000E+00 -0.12063752117E+04  0.12063752117E+04  0.50400001928E-02 0. -1.
    10030    2    1    2    0    0  0.00000000000E+00  0.00000000000E+00 -0.44611584028E+03  0.19666345831E+04  0.19153673905E+04 0.  0.
        2    1    3    3  502    0 -0.78032170774E+03  0.49106874757E+03 -0.48904305398E+03  0.10436539614E+04  0.25500000920E-02 0. -1.
       -2    1    3    3    0  502  0.78032170774E+03 -0.49106874757E+03  0.42927213706E+02  0.92298062173E+03  0.25500000920E-02 0.  1.
</event>
<event>
 5   0  0.6531625E-05  0.1997333E+04  0.7818609E-02  0.8607868E-01
        4   -1    0    0  501    0  0.00000000000E+00  0.00000000000E+00  0.95062793036E+03  0.95062877869E+03  0.12699999809E+01 0. -1.
       -4   -1    0    0    0  501  0.00000000000E+00  0.00000000000E+00 -0.10491313923E+04  0.10491321610E+04  0.12699999809E+01 0.  1.
    10030    2    1    2    0    0  0.00000000000E+00  0.00000000000E+00 -0.98503461974E+02  0.19997609397E+04  0.19973334434E+04 0.  0.
        3    1    3    3  502    0 -0.99061953845E+03  0.63311980060E+02 -0.15892816388E+03  0.10052828698E+04  0.10100000352E+00 0. -1.
       -3    1    3    3    0  502  0.99061953845E+03 -0.63311980060E+02  0.60424701908E+02  0.99447806994E+03  0.10100000352E+00 0.  1.
</event>
<event>
 5   0  0.8861350E-05  0.1970590E+04  0.7818609E-02  0.8620496E-01
       -1   -1    0    0    0  501  0.00000000000E+00  0.00000000000E+00  0.77654606714E+03  0.77654606715E+03  0.50400001928E-02 0.  1.
        1   -1    0    0  501    0  0.00000000000E+00  0.00000000000E+00 -0.12501589877E+04  0.12501589877E+04  0.50400001928E-02 0. -1.
    10030    2    1    2    0    0  0.00000000000E+00  0.00000000000E+00 -0.47361292058E+03  0.20267050549E+04  0.19705898053E+04 0.  0.
        1    1    3    3  502    0 -0.11319435023E+03  0.15450879558E+03  0.75721481860E+03  0.78106351238E+03  0.50400001928E-02 0.  1.
       -1    1    3    3    0  502  0.11319435023E+03 -0.15450879558E+03 -0.12308277392E+04  0.12456415425E+04  0.50400001928E-02 0. -1.
</event>
<event>
 5   0  0.8577422E-05  0.1995210E+04  0.7818609E-02  0.8608864E-01
       -1   -1    0    0    0  501  0.00000000000E+00  0.00000000000E+00  0.66644565675E+03  0.66644565677E+03  0.50400001928E-02 0. -1.
        1   -1    0    0  501    0  0.00000000000E+00  0.00000000000E+00 -0.14933182968E+04  0.14933182968E+04  0.50400001928E-02 0.  1.
    10030    2    1    2    0    0  0.00000000000E+00  0.00000000000E+00 -0.82687264007E+03  0.21597639536E+04  0.19952097565E+04 0.  0.
        2    1    3    3  502    0 -0.73918738915E+03 -0.13552574842E+03 -0.11236339524E+04  0.13517834456E+04  0.25500000920E-02 0.  1.
       -2    1    3    3    0  502  0.73918738915E+03  0.13552574842E+03  0.29676131237E+03  0.80798050798E+03  0.25500000920E-02 0. -1.
</event>
<event>
 5   0  0.1834645E-04  0.2027870E+04  0.7818609E-02  0.8593700E-01
        2   -1    0    0  501    0  0.00000000000E+00  0.00000000000E+00  0.12908258357E+04  0.12908258357E+04  0.25500000920E-02 0.  1.
       -2   -1    0    0    0  501  0.00000000000E+00  0.00000000000E+00 -0.79643946370E+03  0.79643946370E+03  0.25500000920E-02 0. -1.
    10030    2    1    2    0    0  0.00000000000E+00  0.00000000000E+00  0.49438637204E+03  0.20872652994E+04  0.20278704459E+04 0.  0.
        1    1    3    3  502    0 -0.35840973146E+03  0.70148429893E+03  0.90426914338E+03  0.11992666263E+04  0.50400001928E-02 0.  1.
       -1    1    3    3    0  502  0.35840973146E+03 -0.70148429893E+03 -0.40988277134E+03  0.88799867315E+03  0.50400001928E-02 0. -1.
</event>
<event>
 5   0  0.1834645E-04  0.1938803E+04  0.7818609E-02  0.8635779E-01
       -2   -1    0    0    0  501  0.00000000000E+00  0.00000000000E+00  0.75503618820E+03  0.75503618821E+03  0.25500000920E-02 0. -1.
        2   -1    0    0  501    0  0.00000000000E+00  0.00000000000E+00 -0.12446283659E+04  0.12446283659E+04  0.25500000920E-02 0.  1.
    10030    2    1    2    0    0  0.00000000000E+00  0.00000000000E+00 -0.48959217766E+03  0.19996645541E+04  0.19388031949E+04 0.  0.
        1    1    3    3  502    0 -0.90790690743E+03  0.16263712510E+03  0.62886541997E+02  0.92450013748E+03  0.50400001928E-02 0. -1.
       -1    1    3    3    0  502  0.90790690743E+03 -0.16263712510E+03 -0.55247871966E+03  0.10751644166E+04  0.50400001928E-02 0.  1.
</event>
<event>
 5   0  0.6531625E-05  0.1988443E+04  0.7818609E-02  0.8612043E-01
        3   -1    0    0  501    0  0.00000000000E+00  0.00000000000E+00  0.37562457869E+03  0.37562459227E+03  0.10100000352E+00 0. -1.
       -3   -1    0    0    0  501  0.00000000000E+00  0.00000000000E+00 -0.26315528183E+04  0.26315528202E+04  0.10100000352E+00 0.  1.
    10030    2    1    2    0    0  0.00000000000E+00  0.00000000000E+00 -0.22559282396E+04  0.30071774125E+04  0.19884425483E+04 0.  0.
        3    1    3    3  502    0 -0.53054199975E+02  0.18342247275E+03 -0.26035634235E+04  0.26105556999E+04  0.10100000352E+00 0.  1.
       -3    1    3    3    0  502  0.53054199975E+02 -0.18342247275E+03  0.34763518391E+03  0.39662171264E+03  0.10100000352E+00 0. -1.
</event>
<event>
 5   0  0.8958919E-05  0.1992437E+04  0.7818609E-02  0.8610165E-01
        1   -1    0    0  501    0  0.00000000000E+00  0.00000000000E+00  0.21359326317E+04  0.21359326317E+04  0.50400001928E-02 0. -1.
       -1   -1    0    0    0  501  0.00000000000E+00  0.00000000000E+00 -0.46464532908E+03  0.46464532911E+03  0.50400001928E-02 0.  1.
    10030    2    1    2    0    0  0.00000000000E+00  0.00000000000E+00  0.16712873026E+04  0.26005779608E+04  0.19924368202E+04 0.  0.
        4    1    3    3  502    0  0.45538105071E+03 -0.13645504895E+02 -0.32070848193E+03  0.55714777612E+03  0.12699999809E+01 0.  1.
       -4    1    3    3    0  502 -0.45538105071E+03  0.13645504895E+02  0.19919957845E+04  0.20434301847E+04  0.12699999809E+01 0. -1.
</event>
<event>
 5   0  0.1807498E-04  0.2074678E+04  0.7818609E-02  0.8572481E-01
        2   -1    0    0  501    0  0.00000000000E+00  0.00000000000E+00  0.11814779664E+04  0.11814779664E+04  0.25500000920E-02 0.  1.
       -2   -1    0    0    0  501  0.00000000000E+00  0.00000000000E+00 -0.91078497862E+03  0.91078497862E+03  0.25500000920E-02 0. -1.
    10030    2    1    2    0    0  0.00000000000E+00  0.00000000000E+00  0.27069298773E+03  0.20922629450E+04  0.20746781768E+04 0.  0.
        5    1    3    3  502    0 -0.15477825842E+03  0.84751511390E+03 -0.44731534243E+03  0.97074779584E+03  0.46999998093E+01 0. -1.
       -5    1    3    3    0  502  0.15477825842E+03 -0.84751511390E+03  0.71800833016E+03  0.11215151491E+04  0.46999998093E+01 0.  1.
</event>
<event>
 5   0  0.8881384E-05  0.1994952E+04  0.7818609E-02  0.8608985E-01
        1   -1    0    0  501    0  0.00000000000E+00  0.00000000000E+00  0.73906835266E+03  0.73906835268E+03  0.50400001928E-02 0.  1.
       -1   -1    0    0    0  501  0.00000000000E+00  0.00000000000E+00 -0.13462328485E+04  0.13462328485E+04  0.50400001928E-02 0. -1.
    10030    2    1    2    0    0  0.00000000000E+00  0.00000000000E+00 -0.60716449581E+03  0.20853012012E+04  0.19949517224E+04 0.  0.
        5    1    3    3  502    0 -0.80621578678E+03 -0.20223012257E+03  0.27280257882E+03  0.87482812845E+03  0.46999998093E+01 0.  1.
       -5    1    3    3    0  502  0.80621578678E+03  0.20223012257E+03 -0.87996707463E+03  0.12104730727E+04  0.46999998093E+01 0. -1.
</event>
<event>
 5   0  0.8577422E-05  0.1966853E+04  0.7818609E-02  0.8622276E-01
       -1   -1    0    0    0  501  0.00000000000E+00  0.00000000000E+00  0.93108849721E+03  0.93108849722E+03  0.50400001928E-02 0.  1.
        1   -1    0    0  501    0  0.00000000000E+00  0.00000000000E+00 -0.10387068989E+04  0.10387068989E+04  0.50400001928E-02 0. -1.
    10030    2    1    2    0    0  0.00000000000E+00  0.00000000000E+00 -0.10761840167E+03  0.19697953961E+04  0.19668533708E+04 0.  0.
        2    1    3    3  502    0 -0.67680724399E+02 -0.36204174845E+03 -0.96702463980E+03  0.10347905885E+04  0.25500000920E-02 0. -1.
       -2    1    3    3    0  502  0.67680724399E+02  0.36204174845E+03  0.85940623813E+03  0.93500480760E+03  0.25500000920E-02 0.  1.
</event>
<event>
 5   0  0.1807498E-04  0.1995578E+04  0.7818609E-02  0.8608691E-01
       -2   -1    0    0    0  501  0.00000000000E+00  0.00000000000E+00  0.71986885855E+03  0.71986885856E+03  0.25500000920E-02 0. -1.
        2   -1    0    0  501    0  0.00000000000E+00  0.00000000000E+00 -0.13830057143E+04  0.13830057143E+04  0.25500000920E-02 0.  1.
    10030    2    1    2    0    0  0.00000000000E+00  0.00000000000E+00 -0.66313685573E+03  0.21028745728E+04  0.19955778561E+04 0.  0.
        5    1    3    3  502    0  0.69577192069E+03 -0.57868976250E+03  0.11123987436E+03  0.91179866554E+03  0.46999998093E+01 0. -1.
       -5    1    3    3    0  502 -0.69577192069E+03  0.57868976250E+03 -0.77437673009E+03  0.11910759073E+04  0.46999998093E+01 0.  1.
</event>
<event>
 5   0  0.1834645E-04  0.2012748E+04  0.7818609E-02  0.8600684E-01
        2   -1    0    0  501    0  0.00000000000E+00  0.00000000000E+00  0.68114309783E+03  0.68114309783E+03  0.25500000920E-02 0.  1.
       -2   -1    0    0    0  501  0.00000000000E+00  0.00000000000E+00 -0.14868952460E+04  0.14868952460E+04  0.25500000920E-02 0. -1.
    10030    2    1    2    0    0  0.00000000000E+00  0.00000000000E+00 -0.80575214819E+03  0.21680383439E+04  0.20127478074E+04 0.  0.
        1    1    3    3  502    0  0.81014917686E+02  0.55529071845E+03  0.49696769247E+03  0.74959194651E+03  0.50400001928E-02 0.  1.
       -1    1    3    3    0  502 -0.81014917686E+02 -0.55529071845E+03 -0.13027198407E+04  0.14184463973E+04  0.50400001928E-02 0. -1.
</event>
<event>
 5   0  0.8577422E-05  0.1990321E+04  0.7818609E-02  0.8611159E-01
       -1   -1    0    0    0  501  0.00000000000E+00  0.00000000000E+00  0.11944118251E+04  0.11944118251E+04  0.50400001928E-02 0. -1.
        1   -1    0    0  501    0  0.00000000000E+00  0.00000000000E+00 -0.82914839318E+03  0.82914839320E+03  0.50400001928E-02 0.  1.
    10030    2    1    2    0    0  0.00000000000E+00  0.00000000000E+00  0.36526343195E+03  0.20235602183E+04  0.19903212260E+04 0.  0.
        2    1    3    3  502    0  0.55652390972E+03 -0.57147292417E+03 -0.42232161504E+03  0.90258280046E+03  0.25500000920E-02 0.  1.
       -2    1    3    3    0  502 -0.55652390972E+03  0.57147292417E+03  0.78758504699E+03  0.11209774179E+04  0.25500000920E-02 0. -1.
</event>
<event>
 5   0  0.8881384E-05  0.1993787E+04  0.7818609E-02  0.8609531E-01
        1   -1    0    0  501    0  0.00000000000E+00  0.00000000000E+00  0.13905206465E+04  0.13905206465E+04  0.50400001928E-02 0.  1.
       -1   -1    0    0    0  501  0.00000000000E+00  0.00000000000E+00 -0.71469403299E+03  0.71469403301E+03  0.50400001928E-02 0. -1.
    10030    2    1    2    0    0  0.00000000000E+00  0.00000000000E+00  0.67582661348E+03  0.21052146795E+04  0.19937871590E+04 0.  0.
        5    1    3    3  502    0  0.67055481163E+03  0.72550979804E+03  0.47865361268E+03  0.10977885012E+04  0.46999998093E+01 0. -1.
       -5    1    3    3    0  502 -0.67055481163E+03 -0.72550979804E+03  0.19717300081E+03  0.10074261783E+04  0.46999998093E+01 0.  1.
</event>
<event>
 5   0  0.8765057E-05  0.2137557E+04  0.7818609E-02  0.8544877E-01
        1   -1    0    0  501    0  0.00000000000E+00  0.00000000000E+00  0.11122754528E+04  0.11122754528E+04  0.50400001928E-02 0. -1.
       -1   -1    0    0    0  501  0.00000000000E+00  0.00000000000E+00 -0.10269823473E+04  0.10269823473E+04  0.50400001928E-02 0.  1.
    10030    2    1    2    0    0  0.00000000000E+00  0.00000000000E+00  0.85293105511E+02  0.21392578000E+04  0.21375567878E+04 0.  0.
        3    1    3    3  502    0  0.66577068958E+03  0.45634411974E+03  0.74376572933E+03  0.10975828156E+04  0.10100000352E+00 0. -1.
       -3    1    3    3    0  502 -0.66577068958E+03 -0.45634411974E+03 -0.65847262382E+03  0.10416749845E+04  0.10100000352E+00 0.  1.
</event>
<event>
 5   0  0.8765057E-05  0.2010614E+04  0.7818609E-02  0.8601674E-01
       -1   -1    0    0    0  501  0.00000000000E+00  0.00000000000E+00  0.20475997312E+04  0.20475997312E+04  0.50400001928E-02 0.  1.
        1   -1    0    0  501    0  0.00000000000E+00  0.00000000000E+00 -0.49357391900E+03  0.49357391902E+03  0.50400001928E-02 0. -1.
    10030    2    1    2    0    0  0.00000000000E+00  0.00000000000E+00  0.15540258122E+04  0.25411736502E+04  0.20106136614E+04 0.  0.
        3    1    3    3  502    0  0.33367981927E+03  0.79629594399E+03  0.12613040521E+03  0.87254704258E+03  0.10100000352E+00 0. -1.
       -3    1    3    3    0  502 -0.33367981927E+03 -0.79629594399E+03  0.14278954069E+04  0.16686266076E+04  0.10100000352E+00 0.  1.
</event>
<event>
 5   0  0.8881384E-05  0.2002812E+04  0.7818609E-02  0.8605307E-01
        1   -1    0    0  501    0  0.00000000000E+00  0.00000000000E+00  0.11402433989E+04  0.11402433989E+04  0.50400001928E-02 0. -1.
       -1   -1    0    0    0  501  0.00000000000E+00  0.00000000000E+00 -0.87947367514E+03  0.87947367515E+03  0.50400001928E-02 0.  1.
    10030    2    1    2    0    0  0.00000000000E+00  0.00000000000E+00  0.26076972371E+03  0.20197170740E+04  0.20028120756E+04 0.  0.
        5    1    3    3  502    0  0.37567343575E+03  0.91954759553E+03  0.25831640423E+03  0.10263760351E+04  0.46999998093E+01 0. -1.
       -5    1    3    3    0  502 -0.37567343575E+03 -0.91954759553E+03  0.24533194864E+01  0.99334103890E+03  0.46999998093E+01 0.  1.
</event>
<event>
 5   0  0.8958919E-05  0.1989192E+04  0.7818609E-02  0.8611690E-01
        1   -1    0    0  501    0  0.00000000000E+00  0.00000000000E+00  0.11593243631E+04  0.11593243631E+04  0.50400001928E-02 0. -1.
       -1   -1    0    0    0  501  0.00000000000E+00  0.00000000000E+00 -0.85327421129E+03  0.85327421131E+03  0.50400001928E-02 0.  1.
    10030    2    1    2    0    0  0.00000000000E+00  0.00000000000E+00  0.30605015183E+03  0.20125985744E+04  0.19891923804E+04 0.  0.
        4    1    3    3  502    0  0.17975947887E+03  0.23128500850E+03  0.11146898770E+04  0.11525369235E+04  0.12699999809E+01 0. -1.
       -4    1    3    3    0  502 -0.17975947887E+03 -0.23128500850E+03 -0.80863972513E+03  0.86006165091E+03  0.12699999809E+01 0.  1.
</event>
<event>
 5   0  0.8881384E-05  0.2000333E+04  0.7818609E-02  0.8606465E-01
        1   -1    0    0  501    0  0.00000000000E+00  0.00000000000E+00  0.11267832156E+04  0.11267832156E+04  0.50400001928E-02 0.  1.
       -1   -1    0    0    0  501  0.00000000000E+00  0.00000000000E+00 -0.88777749303E+03  0.88777749304E+03  0.50400001928E-02 0. -1.
    10030    2    1    2    0    0  0.00000000000E+00  0.00000000000E+00  0.23900572257E+03  0.20145607087E+04  0.20003327507E+04 0.  0.
        5    1    3    3  502    0  0.27798423712E+03  0.15295028537E+03 -0.83573800443E+03  0.89395141251E+03  0.46999998093E+01 0. -1.
       -5    1    3    3    0  502 -0.27798423712E+03 -0.15295028537E+03  0.10747437270E+04  0.11206092961E+04  0.46999998093E+01 0.  1.
</event>
<event>
 5   0  0.1893687E-04  0.2012364E+04  0.7818609E-02  0.8600862E-01
       -2   -1    0    0    0  501  0.00000000000E+00  0.00000000000E+00  0.58903005468E+03  0.58903005469E+03  0.25500000920E-02 0. -1.
        2   -1    0    0  501    0  0.00000000000E+00  0.00000000000E+00 -0.17187610585E+04  0.17187610585E+04  0.25500000920E-02 0.  1.
    10030    2    1    2    0    0  0.00000000000E+00  0.00000000000E+00 -0.11297310038E+04  0.23077911132E+04  0.20123637050E+04 0.  0.
        4    1    3    3  502    0 -0.50063736516E+02  0.53058895809E+03 -0.15436021113E+04  0.16330156493E+04  0.12699999809E+01 0.  1.
       -4    1    3    3    0  502  0.50063736516E+02 -0.53058895809E+03  0.41387110744E+03  0.67477546387E+03  0.12699999809E+01 0. -1.
</event>
<event>
 5   0  0.8881384E-05  0.1946633E+04  0.7818609E-02  0.8631986E-01
        1   -1    0    0  501    0  0.00000000000E+00  0.00000000000E+00  0.81469695155E+03  0.81469695157E+03  0.50400001928E-02 0. -1.
       -1   -1    0    0    0  501  0.00000000000E+00  0.00000000000E+00 -0.11628186224E+04  0.11628186224E+04  0.50400001928E-02 0.  1.
    10030    2    1    2    0    0  0.00000000000E+00  0.00000000000E+00 -0.34812167086E+03  0.19775155740E+04  0.19466327717E+04 0.  0.
        5    1    3    3  502    0 -0.25126841672E+03 -0.46309131286E+03 -0.10054164491E+04  0.11351095574E+04  0.46999998093E+01 0.  1.
       -5    1    3    3    0  502  0.25126841672E+03  0.46309131286E+03  0.65729477821E+03  0.84240601657E+03  0.46999998093E+01 0. -1.
</event>
<event>
 5   0  0.1812865E-04  0.2014180E+04  0.7818609E-02  0.8600020E-01
        2   -1    0    0  501    0  0.00000000000E+00  0.00000000000E+00  0.11536179486E+04  0.11536179486E+04  0.25500000920E-02 0.  1.
       -2   -1    0    0    0  501  0.00000000000E+00  0.00000000000E+00 -0.87917306309E+03  0.87917306309E+03  0.25500000920E-02 0. -1.
    10030    2    1    2    0    0  0.00000000000E+00  0.00000000000E+00  0.27444488551E+03  0.20327910117E+04  0.20141795605E+04 0.  0.
        3    1    3    3  502    0  0.18160839509E+03  0.87251697066E+03  0.61055754733E+03  0.10802999593E+04  0.10100000352E+00 0.  1.
       -3    1    3    3    0  502 -0.18160839509E+03 -0.87251697066E+03 -0.33611266182E+03  0.95249105239E+03  0.10100000352E+00 0. -1.
</event>
<event>
 5   0  0.1812865E-04  0.1962195E+04  0.7818609E-02  0.8624503E-01
       -2   -1    0    0    0  501  0.00000000000E+00  0.00000000000E+00  0.52616328398E+03  0.52616328398E+03  0.25500000920E-02 0.  1.
        2   -1    0    0  501    0  0.00000000000E+00  0.00000000000E+00 -0.18293790287E+04  0.18293790287E+04  0.25500000920E-02 0. -1.
    10030    2    1    2    0    0  0.00000000000E+00  0.00000000000E+00 -0.13032157447E+04  0.23555423127E+04  0.19621947685E+04 0.  0.
        3    1    3    3  502    0  0.15370905494E+03  0.13800230375E+03 -0.18029770808E+04  0.18147720170E+04  0.10100000352E+00 0. -1.
       -3    1    3    3    0  502 -0.15370905494E+03 -0.13800230375E+03  0.49976133613E+03  0.54077029569E+03  0.10100000352E+00 0.  1.
</event>
<event>
 5   0  0.6531625E-05  0.1989458E+04  0.7818609E-02  0.8611565E-01
        4   -1    0    0  501    0  0.00000000000E+00  0.00000000000E+00  0.11770650483E+04  0.11770657334E+04  0.12699999809E+01 0.  1.
       -4   -1    0    0    0  501  0.00000000000E+00  0.00000000000E+00 -0.84063713366E+03  0.84063809300E+03  0.12699999809E+01 0. -1.
    10030    2    1    2    0    0  0.00000000000E+00  0.00000000000E+00  0.33642791459E+03  0.20177038264E+04  0.19894584663E+04 0.  0.
        5    1    3    3  502    0 -0.35071341687E+03  0.81523702046E+03 -0.28744508301E+03  0.93287623297E+03  0.46999998093E+01 0. -1.
       -5    1    3    3    0  502  0.35071341687E+03 -0.81523702046E+03  0.62387299760E+03  0.10848275934E+04  0.46999998093E+01 0.  1.
</event>
<event>
 5   0  0.1807498E-04  0.1989259E+04  0.7818609E-02  0.8611659E-01
        2   -1    0    0  501    0  0.00000000000E+00  0.00000000000E+00  0.12402715635E+04  0.12402715635E+04  0.25500000920E-02 0.  1.
       -2   -1    0    0    0  501  0.00000000000E+00  0.00000000000E+00 -0.79763838418E+03  0.79763838418E+03  0.25500000920E-02 0. -1.
    10030    2    1    2    0    0  0.00000000000E+00  0.00000000000E+00  0.44263317931E+03  0.20379099477E+04  0.19892593655E+04 0.  0.
        5    1    3    3  502    0 -0.19317835820E+03  0.57991309349E+03  0.10251391327E+04  0.11935448905E+04  0.46999998093E+01 0.  1.
       -5    1    3    3    0  502  0.19317835820E+03 -0.57991309349E+03 -0.58250595342E+03  0.84436505722E+03  0.46999998093E+01 0. -1.
</event>
<event>
 5   0  0.8881384E-05  0.2014958E+04  0.7818609E-02  0.8599659E-01
        1   -1    0    0  501    0  0.00000000000E+00  0.00000000000E+00  0.22632559430E+04  0.22632559430E+04  0.50400001928E-02 0.  1.
       -1   -1    0    0    0  501  0.00000000000E+00  0.00000000000E+00 -0.44847496920E+03  0.44847496923E+03  0.50400001928E-02 0. -1.
    10030    2    1    2    0    0  0.00000000000E+00  0.00000000000E+00  0.18147809738E+04  0.27117309123E+04  0.20149577061E+04 0.  0.
        5    1    3    3  502    0  0.46792725048E+03  0.47787549120E+03 -0.10658832115E+03  0.67727694264E+03  0.46999998093E+01 0. -1.
       -5    1    3    3    0  502 -0.46792725048E+03 -0.47787549120E+03  0.19213692950E+04  0.20344539696E+04  0.46999998093E+01 0.  1.
</event>
<event>
 5   0  0.8577422E-05  0.1620374E+04  0.7818609E-02  0.8808128E-01
       -1   -1    0    0    0  501  0.00000000000E+00  0.00000000000E+00  0.63576698990E+03  0.63576698992E+03  0.50400001928E-02 0. -1.
        1   -1    0    0  501    0  0.00000000000E+00  0.00000000000E+00 -0.10324581510E+04  0.10324581510E+04  0.50400001928E-02 0.  1.
    10030    2    1    2    0    0  0.00000000000E+00  0.00000000000E+00 -0.39669116105E+03  0.16682251409E+04  0.16203737974E+04 0.  0.
        2    1    3    3  502    0 -0.41137836142E+02 -0.30695594399E+03 -0.96911205813E+03  0.10173949353E+04  0.25500000920E-02 0.  1.
       -2    1    3    3    0  502  0.41137836142E+02  0.30695594399E+03  0.57242089708E+03  0.65083020561E+03  0.25500000920E-02 0. -1.
</event>
<event>
 5   0  0.1807498E-04  0.1994972E+04  0.7818609E-02  0.8608975E-01
       -2   -1    0    0    0  501  0.00000000000E+00  0.00000000000E+00  0.11433364135E+04  0.11433364135E+04  0.25500000920E-02 0. -1.
        2   -1    0    0  501    0  0.00000000000E+00  0.00000000000E+00 -0.87024126847E+03  0.87024126848E+03  0.25500000920E-02 0.  1.
    10030    2    1    2    0    0  0.00000000000E+00  0.00000000000E+00  0.27309514506E+03  0.20135776820E+04  0.19949722111E+04 0.  0.
        5    1    3    3  502    0  0.55468248029E+03  0.20366144294E+03  0.94766271672E+03  0.11167978116E+04  0.46999998093E+01 0. -1.
       -5    1    3    3    0  502 -0.55468248029E+03 -0.20366144294E+03 -0.67456757167E+03  0.89677987043E+03  0.46999998093E+01 0.  1.
</event>
<event>
 5   0  0.1834645E-04  0.2016951E+04  0.7818609E-02  0.8598736E-01
        2   -1    0    0  501    0  0.00000000000E+00  0.00000000000E+00  0.10200425138E+04  0.10200425138E+04  0.25500000920E-02 0.  1.
       -2   -1    0    0    0  501  0.00000000000E+00  0.00000000000E+00 -0.99703931057E+03  0.99703931057E+03  0.25500000920E-02 0. -1.
    10030    2    1    2    0    0  0.00000000000E+00  0.00000000000E+00  0.23003203262E+02  0.20170818244E+04  0.20169506536E+04 0.  0.
        1    1    3    3  502    0 -0.55494893669E+03  0.45601741609E+03 -0.69643021594E+03  0.10004675166E+04  0.50400001928E-02 0. -1.
       -1    1    3    3    0  502  0.55494893669E+03 -0.45601741609E+03  0.71943341920E+03  0.10166143078E+04  0.50400001928E-02 0.  1.
</event>
<event>
 5   0  0.8577422E-05  0.2005667E+04  0.7818609E-02  0.8603976E-01
        1   -1    0    0  501    0  0.00000000000E+00  0.00000000000E+00  0.12413430243E+04  0.12413430243E+04  0.50400001928E-02 0.  1.
       -1   -1    0    0    0  501  0.00000000000E+00  0.00000000000E+00 -0.81015094253E+03  0.81015094255E+03  0.50400001928E-02 0. -1.
    10030    2    1    2    0    0  0.00000000000E+00  0.00000000000E+00  0.43119208172E+03  0.20514939668E+04  0.20056671919E+04 0.  0.
        2    1    3    3  502    0  0.88687921461E+03  0.85022446510E+02  0.68643057431E+03  0.11247090695E+04  0.25500000920E-02 0. -1.
       -2    1    3    3    0  502 -0.88687921461E+03 -0.85022446510E+02 -0.25523849259E+03  0.92678489728E+03  0.25500000920E-02 0.  1.
</event>
<event>
 5   0  0.1834645E-04  0.2002416E+04  0.7818609E-02  0.8605492E-01
        2   -1    0    0  501    0  0.00000000000E+00  0.00000000000E+00  0.82561890701E+03  0.82561890702E+03  0.25500000920E-02 0.  1.
       -2   -1    0    0    0  501  0.00000000000E+00  0.00000000000E+00 -0.12141408162E+04  0.12141408162E+04  0.25500000920E-02 0. -1.
    10030    2    1    2    0    0  0.00000000000E+00  0.00000000000E+00 -0.38852190923E+03  0.20397597233E+04  0.20024161542E+04 0.  0.
        1    1    3    3  502    0  0.56159643547E+03 -0.36415347100E+03 -0.95274044992E+03  0.11643507512E+04  0.50400001928E-02 0. -1.
       -1    1    3    3    0  502 -0.56159643547E+03  0.36415347100E+03  0.56421854069E+03  0.87540897211E+03  0.50400001928E-02 0.  1.
</event>
<event>
 5   0  0.8958919E-05  0.2032624E+04  0.7818609E-02  0.8591518E-01
       -1   -1    0    0    0  501  0.00000000000E+00  0.00000000000E+00  0.72695191993E+03  0.72695191995E+03  0.50400001928E-02 0. -1.
        1   -1    0    0  501    0  0.00000000000E+00  0.00000000000E+00 -0.14208511858E+04  0.14208511858E+04  0.50400001928E-02 0.  1.
    10030    2    1    2    0    0  0.00000000000E+00  0.00000000000E+00 -0.69389926590E+03  0.21478031058E+04  0.20326244095E+04 0.  0.
        4    1    3    3  502    0 -0.36750668634E+02  0.45757767258E+03  0.61116120126E+03  0.76436088657E+03  0.12699999809E+01 0. -1.
       -4    1    3    3    0  502  0.36750668634E+02 -0.45757767258E+03 -0.13050604672E+04  0.13834422192E+04  0.12699999809E+01 0.  1.
</event>
<event>
 5   0  0.1812865E-04  0.1983644E+04  0.7818609E-02  0.8614306E-01
        2   -1    0    0  501    0  0.00000000000E+00  0.00000000000E+00  0.17943105436E+04  0.17943105436E+04  0.25500000920E-02 0. -1.
       -2   -1    0    0    0  501  0.00000000000E+00  0.00000000000E+00 -0.54823901744E+03  0.54823901745E+03  0.25500000920E-02 0.  1.
    10030    2    1    2    0    0  0.00000000000E+00  0.00000000000E+00  0.12460715262E+04  0.23425495611E+04  0.19836441712E+04 0.  0.
        3    1    3    3  502    0  0.30736742826E+03 -0.78531567954E+03  0.12395181754E+04  0.14992000433E+04  0.10100000352E+00 0. -1.
       -3    1    3    3    0  502 -0.30736742826E+03  0.78531567954E+03  0.65533507637E+01  0.84334951776E+03  0.10100000352E+00 0.  1.
</event>
<event>
 5   0  0.8958919E-05  0.1991929E+04  0.7818609E-02  0.8610403E-01
       -1   -1    0    0    0  501  0.00000000000E+00  0.00000000000E+00  0.92069347117E+03  0.92069347118E+03  0.50400001928E-02 0. -1.
        1   -1    0    0  501    0  0.00000000000E+00  0.00000000000E+00 -0.10773897781E+04  0.10773897781E+04  0.50400001928E-02 0.  1.
    10030    2    1    2    0    0  0.00000000000E+00  0.00000000000E+00 -0.15669630693E+03  0.19980832493E+04  0.19919294512E+04 0.  0.
        4    1    3    3  502    0  0.34895964876E+03  0.15341283333E+03 -0.10013189022E+04  0.10714240480E+04  0.12699999809E+01 0.  1.
       -4    1    3    3    0  502 -0.34895964876E+03 -0.15341283333E+03  0.84462259529E+03  0.92665920125E+03  0.12699999809E+01 0. -1.
</event>
<event>
 5   0  0.1812865E-04  0.1984587E+04  0.7818609E-02  0.8613861E-01
        2   -1    0    0  501    0  0.00000000000E+00  0.00000000000E+00  0.70445230546E+03  0.70445230546E+03  0.25500000920E-02 0. -1.
       -2   -1    0    0    0  501  0.00000000000E+00  0.00000000000E+00 -0.13977467397E+04  0.13977467397E+04  0.25500000920E-02 0.  1.
    10030    2    1    2    0    0  0.00000000000E+00  0.00000000000E+00 -0.69329443424E+03  0.21021990452E+04  0.19845865194E+04 0.  0.
        3    1    3    3  502    0  0.42429386537E+03 -0.15634233748E+03 -0.12822695112E+04  0.13596629436E+04  0.10100000352E+00 0.  1.
       -3    1    3    3    0  502 -0.42429386537E+03  0.15634233748E+03  0.58897507694E+03  0.74253610157E+03  0.10100000352E+00 0. -1.
</event>
<event>
 5   0  0.1893687E-04  0.2019980E+04  0.7818609E-02  0.8597336E-01
       -2   -1    0    0    0  501  0.00000000000E+00  0.00000000000E+00  0.56358603247E+03  0.56358603247E+03  0.25500000920E-02 0. -1.
        2   -1    0    0  501    0  0.00000000000E+00  0.00000000000E+00 -0.18099812102E+04  0.18099812102E+04  0.25500000920E-02 0.  1.
    10030    2    1    2    0    0  0.00000000000E+00  0.00000000000E+00 -0.12463951777E+04  0.23735672427E+04  0.20199803257E+04 0.  0.
        4    1    3    3  502    0 -0.37214999679E+02  0.30203296905E+03 -0.17548270686E+04  0.17810189567E+04  0.12699999809E+01 0.  1.
       -4    1    3    3    0  502  0.37214999679E+02 -0.30203296905E+03  0.50843189089E+03  0.59254828594E+03  0.12699999809E+01 0. -1.
</event>
<event>
 5   0  0.1782172E-04  0.1986410E+04  0.7818609E-02  0.8613001E-01
       -2   -1    0    0    0  501  0.00000000000E+00  0.00000000000E+00  0.10342564517E+04  0.10342564517E+04  0.25500000920E-02 0.  1.
        2   -1    0    0  501    0  0.00000000000E+00  0.00000000000E+00 -0.95378304692E+03  0.95378304692E+03  0.25500000920E-02 0. -1.
    10030    2    1    2    0    0  0.00000000000E+00  0.00000000000E+00  0.80473404745E+02  0.19880394986E+04  0.19864100984E+04 0.  0.
        2    1    3    3  502    0 -0.21087955487E+03 -0.40257093322E+03 -0.84362004618E+03  0.95824231031E+03  0.25500000920E-02 0. -1.
       -2    1    3    3    0  502  0.21087955487E+03  0.40257093322E+03  0.92409345093E+03  0.10297971883E+04  0.25500000920E-02 0.  1.
</event>
<event>
 5   0  0.1782172E-04  0.2027760E+04  0.7818609E-02  0.8593751E-01
        2   -1    0    0  501    0  0.00000000000E+00  0.00000000000E+00  0.16272358027E+04  0.16272358027E+04  0.25500000920E-02 0. -1.
       -2   -1    0    0    0  501  0.00000000000E+00  0.00000000000E+00 -0.63171695065E+03  0.63171695066E+03  0.25500000920E-02 0.  1.
    10030    2    1    2    0    0  0.00000000000E+00  0.00000000000E+00  0.99551885204E+03  0.22589527533E+04  0.20277597878E+04 0.  0.
        2    1    3    3  502    0 -0.92659861297E+03  0.77614769219E+02  0.94799668651E+03  0.13278956132E+04  0.25500000920E-02 0. -1.
       -2    1    3    3    0  502  0.92659861297E+03 -0.77614769219E+02  0.47522165534E+02  0.93105714013E+03  0.25500000920E-02 0.  1.
</event>
<event>
 5   0  0.8958919E-05  0.1969519E+04  0.7818609E-02  0.8621006E-01
       -1   -1    0    0    0  501  0.00000000000E+00  0.00000000000E+00  0.13174387071E+04  0.13174387071E+04  0.50400001928E-02 0.  1.
        1   -1    0    0  501    0  0.00000000000E+00  0.00000000000E+00 -0.73608804446E+03  0.73608804448E+03  0.50400001928E-02 0. -1.
    10030    2    1    2    0    0  0.00000000000E+00  0.00000000000E+00  0.58135066265E+03  0.20535267516E+04  0.19695186027E+04 0.  0.
        4    1    3    3  502    0  0.48037273771E+02  0.45039947956E+03  0.12023760807E+04  0.12848646323E+04  0.12699999809E+01 0.  1.
       -4    1    3    3    0  502 -0.48037273771E+02 -0.45039947956E+03 -0.62102541808E+03  0.76866211931E+03  0.12699999809E+01 0. -1.
</event>
<event>
 5   0  0.1782172E-04  0.2005709E+04  0.7818609E-02  0.8603956E-01
        2   -1    0    0  501    0  0.00000000000E+00  0.00000000000E+00  0.11603596456E+04  0.11603596456E+04  0.25500000920E-02 0.  1.
       -2   -1    0    0    0  501  0.00000000000E+00  0.00000000000E+00 -0.86672851977E+03  0.86672851977E+03  0.25500000920E-02 0. -1.
    10030    2    1    2    0    0  0.00000000000E+00  0.00000000000E+00  0.29363112588E+03  0.20270881654E+04  0.20057086509E+04 0.  0.
        2    1    3    3  502    0 -0.19508135798E+03 -0.91253421878E+03 -0.22444373078E+03  0.95976581777E+03  0.25500000920E-02 0. -1.
       -2    1    3    3    0  502  0.19508135798E+03  0.91253421878E+03  0.51807485665E+03  0.10673223476E+04  0.25500000920E-02 0.  1.
</event>
<event>
 5   0  0.1807498E-04  0.2153120E+04  0.7818609E-02  0.8538198E-01
       -2   -1    0    0    0  501  0.00000000000E+00  0.00000000000E+00  0.16944379769E+04  0.16944379769E+04  0.25500000920E-02 0. -1.
        2   -1    0    0  501    0  0.00000000000E+00  0.00000000000E+00 -0.68399146994E+03  0.68399146994E+03  0.25500000920E-02 0.  1.
    10030    2    1    2    0    0  0.00000000000E+00  0.00000000000E+00  0.10104465069E+04  0.23784294468E+04  0.21531197111E+04 0.  0.
        5    1    3    3  502    0 -0.40601934985E+03 -0.24849070150E+03  0.15718533679E+04  0.16423594130E+04  0.46999998093E+01 0. -1.
       -5    1    3    3    0  502  0.40601934985E+03  0.24849070150E+03 -0.56140686097E+03  0.73607003385E+03  0.46999998093E+01 0.  1.
</event>
<event>
 5   0  0.1807498E-04  0.1980377E+04  0.7818609E-02  0.8615850E-01
       -2   -1    0    0    0  501  0.00000000000E+00  0.00000000000E+00  0.30547338190E+03  0.30547338191E+03  0.25500000920E-02 0.  1.
        2   -1    0    0  501    0  0.00000000000E+00  0.00000000000E+00 -0.32096851809E+04  0.32096851809E+04  0.25500000920E-02 0. -1.
    10030    2    1    2    0    0  0.00000000000E+00  0.00000000000E+00 -0.29042117990E+04  0.35151585628E+04  0.19803771227E+04 0.  0.
        5    1    3    3  502    0  0.84794120830E+03  0.67158654537E+02 -0.23518315596E+04  0.25009294977E+04  0.46999998093E+01 0. -1.
       -5    1    3    3    0  502 -0.84794120830E+03 -0.67158654537E+02 -0.55238023933E+03  0.10142290651E+04  0.46999998093E+01 0.  1.
</event>
<event>
 5   0  0.1812865E-04  0.1992207E+04  0.7818609E-02  0.8610273E-01
       -2   -1    0    0    0  501  0.00000000000E+00  0.00000000000E+00  0.13486113503E+04  0.13486113503E+04  0.25500000920E-02 0. -1.
        2   -1    0    0  501    0  0.00000000000E+00  0.00000000000E+00 -0.73573606768E+03  0.73573606769E+03  0.25500000920E-02 0.  1.
    10030    2    1    2    0    0  0.00000000000E+00  0.00000000000E+00  0.61287528266E+03  0.20843474180E+04  0.19922068284E+04 0.  0.
        3    1    3    3  502    0  0.51418222585E+03 -0.68835905578E+03 -0.22085647788E+03  0.88712972280E+03  0.10100000352E+00 0.  1.
       -3    1    3    3    0  502 -0.51418222585E+03  0.68835905578E+03  0.83373176054E+03  0.11972176952E+04  0.10100000352E+00 0. -1.
</event>
<event>
 5   0  0.8881384E-05  0.2007319E+04  0.7818609E-02  0.8603206E-01
        1   -1    0    0  501    0  0.00000000000E+00  0.00000000000E+00  0.89263011591E+03  0.89263011592E+03  0.50400001928E-02 0. -1.
       -1   -1    0    0    0  501  0.00000000000E+00  0.00000000000E+00 -0.11284993678E+04  0.11284993678E+04  0.50400001928E-02 0.  1.
    10030    2    1    2    0    0  0.00000000000E+00  0.00000000000E+00 -0.23586925193E+03  0.20211294838E+04  0.20073191291E+04 0.  0.
        5    1    3    3  502    0 -0.72944052384E+03  0.27092445975E+03 -0.75619401579E+03  0.10850506994E+04  0.46999998093E+01 0.  1.
       -5    1    3    3    0  502  0.72944052384E+03 -0.27092445975E+03  0.52032476386E+03  0.93607878439E+03  0.46999998093E+01 0. -1.
</event>
<event>
 5   0  0.8861350E-05  0.1999180E+04  0.7818609E-02  0.8607004E-01
        1   -1    0    0  501    0  0.00000000000E+00  0.00000000000E+00  0.13072517140E+04  0.13072517140E+04  0.50400001928E-02 0. -1.
       -1   -1    0    0    0  501  0.00000000000E+00  0.00000000000E+00 -0.76433618254E+03  0.76433618255E+03  0.50400001928E-02 0.  1.
    10030    2    1    2    0    0  0.00000000000E+00  0.00000000000E+00  0.54291553149E+03  0.20715878966E+04  0.19991796165E+04 0.  0.
        1    1    3    3  502    0 -0.32014581135E+03  0.75316248301E+02 -0.70666595478E+03  0.77945022257E+03  0.50400001928E-02 0.  1.
       -1    1    3    3    0  502  0.32014581135E+03 -0.75316248301E+02  0.12495814863E+04  0.12921376740E+04  0.50400001928E-02 0. -1.
</event>
<event>
 5   0  0.1812865E-04  0.2039465E+04  0.7818609E-02  0.8588388E-01
       -2   -1    0    0    0  501  0.00000000000E+00  0.00000000000E+00  0.10907848909E+04  0.10907848909E+04  0.25500000920E-02 0. -1.
        2   -1    0    0  501    0  0.00000000000E+00  0.00000000000E+00 -0.95330859718E+03  0.95330859718E+03  0.25500000920E-02 0.  1.
    10030    2    1    2    0    0  0.00000000000E+00  0.00000000000E+00  0.13747629369E+03  0.20440934881E+04  0.20394652379E+04 0.  0.
        3    1    3    3  502    0  0.71172903252E+03 -0.65308258630E+03 -0.25877477311E+03  0.10000197366E+04  0.10100000352E+00 0.  1.
       -3    1    3    3    0  502 -0.71172903252E+03  0.65308258630E+03  0.39625106680E+03  0.10440737514E+04  0.10100000352E+00 0. -1.
</event>
<event>
 5   0  0.8577422E-05  0.2028829E+04  0.7818609E-02  0.8593260E-01
       -1   -1    0    0    0  501  0.00000000000E+00  0.00000000000E+00  0.10221669918E+04  0.10221669919E+04  0.50400001928E-02 0.  1.
        1   -1    0    0  501    0  0.00000000000E+00  0.00000000000E+00 -0.10067208706E+04  0.10067208706E+04  0.50400001928E-02 0. -1.
    10030    2    1    2    0    0  0.00000000000E+00  0.00000000000E+00  0.15446121242E+02  0.20288878625E+04  0.20288290652E+04 0.  0.
        2    1    3    3  502    0  0.26988181680E+02  0.65074777525E+03  0.78545750944E+03  0.10203648995E+04  0.25500000920E-02 0.  1.
       -2    1    3    3    0  502 -0.26988181680E+02 -0.65074777525E+03 -0.77001138820E+03  0.10085229630E+04  0.25500000920E-02 0. -1.
</event>
<event>
 5   0  0.1893687E-04  0.1913845E+04  0.7818609E-02  0.8647995E-01
        2   -1    0    0  501    0  0.00000000000E+00  0.00000000000E+00  0.14204784170E+04  0.14204784170E+04  0.25500000920E-02 0.  1.
       -2   -1    0    0    0  501  0.00000000000E+00  0.00000000000E+00 -0.64464250978E+03  0.64464250979E+03  0.25500000920E-02 0. -1.
    10030    2    1    2    0    0  0.00000000000E+00  0.00000000000E+00  0.77583590726E+03  0.20651209268E+04  0.19138451054E+04 0.  0.
        4    1    3    3  502    0 -0.80144446990E+02  0.91945386596E+03  0.11519402402E+03  0.93010204821E+03  0.12699999809E+01 0.  1.
       -4    1    3    3    0  502  0.80144446990E+02 -0.91945386596E+03  0.66064188324E+03  0.11350188786E+04  0.12699999809E+01 0. -1.
</event>
<event>
 5   0  0.8958919E-05  0.1995106E+04  0.7818609E-02  0.8608912E-01
        1   -1    0    0  501    0  0.00000000000E+00  0.00000000000E+00  0.82431722412E+03  0.82431722414E+03  0.50400001928E-02 0. -1.
       -1   -1    0    0    0  501  0.00000000000E+00  0.00000000000E+00 -0.12071956504E+04  0.12071956505E+04  0.50400001928E-02 0.  1.
    10030    2    1    2    0    0  0.00000000000E+00  0.00000000000E+00 -0.38287842632E+03  0.20315128746E+04  0.19951061802E+04 0.  0.
        4    1    3    3  502    0 -0.43454237436E+03 -0.74783295597E+03  0.31465088755E+03  0.92037383659E+03  0.12699999809E+01 0. -1.
       -4    1    3    3    0  502  0.43454237436E+03  0.74783295597E+03 -0.69752931388E+03  0.11111390380E+04  0.12699999809E+01 0.  1.
</event>
<event>
 5   0  0.1893687E-04  0.2014663E+04  0.7818609E-02  0.8599796E-01
       -2   -1    0    0    0  501  0.00000000000E+00  0.00000000000E+00  0.40209475478E+03  0.40209475479E+03  0.25500000920E-02 0. -1.
        2   -1    0    0  501    0  0.00000000000E+00  0.00000000000E+00 -0.25235752755E+04  0.25235752755E+04  0.25500000920E-02 0.  1.
    10030    2    1    2    0    0  0.00000000000E+00  0.00000000000E+00 -0.21214805207E+04  0.29256700303E+04  0.20146626334E+04 0.  0.
        4    1    3    3  502    0  0.57932161618E+03  0.61369492383E+03 -0.18594172668E+04  0.20419767823E+04  0.12699999809E+01 0.  1.
       -4    1    3    3    0  502 -0.57932161618E+03 -0.61369492383E+03 -0.26206325386E+03  0.88369324792E+03  0.12699999809E+01 0. -1.
</event>
<event>
 5   0  0.1834645E-04  0.2003368E+04  0.7818609E-02  0.8605048E-01
        2   -1    0    0  501    0  0.00000000000E+00  0.00000000000E+00  0.12327438056E+04  0.12327438056E+04  0.25500000920E-02 0.  1.
       -2   -1    0    0    0  501  0.00000000000E+00  0.00000000000E+00 -0.81393272673E+03  0.81393272674E+03  0.25500000920E-02 0. -1.
    10030    2    1    2    0    0  0.00000000000E+00  0.00000000000E+00  0.41881107884E+03  0.20466765323E+04  0.20033676917E+04 0.  0.
        1    1    3    3  502    0 -0.38625076728E+03  0.91117801783E+03  0.51350000393E+02  0.99099538746E+03  0.50400001928E-02 0.  1.
       -1    1    3    3    0  502  0.38625076728E+03 -0.91117801783E+03  0.36746107845E+03  0.10556811449E+04  0.50400001928E-02 0. -1.
</event>
<event>
 5   0  0.1782172E-04  0.2017102E+04  0.7818609E-02  0.8598666E-01
        2   -1    0    0  501    0  0.00000000000E+00  0.00000000000E+00  0.13222824584E+04  0.13222824584E+04  0.25500000920E-02 0.  1.
       -2   -1    0    0    0  501  0.00000000000E+00  0.00000000000E+00 -0.76925697709E+03  0.76925697710E+03  0.25500000920E-02 0. -1.
    10030    2    1    2    0    0  0.00000000000E+00  0.00000000000E+00  0.55302548135E+03  0.20915394355E+04  0.20171018882E+04 0.  0.
        2    1    3    3  502    0 -0.98472971781E+03 -0.21735649963E+03  0.29252750077E+03  0.10500041923E+04  0.25500000920E-02 0.  1.
       -2    1    3    3    0  502  0.98472971781E+03  0.21735649963E+03  0.26049798058E+03  0.10415352433E+04  0.25500000920E-02 0. -1.
</event>
<event>
 5   0  0.8765057E-05  0.2044584E+04  0.7818609E-02  0.8586055E-01
        1   -1    0    0  501    0  0.00000000000E+00  0.00000000000E+00  0.11792085584E+04  0.11792085584E+04  0.50400001928E-02 0. -1.
       -1   -1    0    0    0  501  0.00000000000E+00  0.00000000000E+00 -0.88625597043E+03  0.88625597045E+03  0.50400001928E-02 0.  1.
    10030    2    1    2    0    0  0.00000000000E+00  0.00000000000E+00  0.29295258800E+03  0.20654645289E+04  0.20445836988E+04 0.  0.
        3    1    3    3  502    0  0.11479885011E+03 -0.10110839421E+04  0.24551373764E+03  0.10467791169E+04  0.10100000352E+00 0. -1.
       -3    1    3    3    0  502 -0.11479885011E+03  0.10110839421E+04  0.47438850356E+02  0.10186854120E+04  0.10100000352E+00 0.  1.
</event>
<event>
 5   0  0.8861350E-05  0.2072251E+04  0.7818609E-02  0.8573567E-01
        1   -1    0    0  501    0  0.00000000000E+00  0.00000000000E+00  0.20081425155E+04  0.20081425155E+04  0.50400001928E-02 0.  1.
       -1   -1    0    0    0  501  0.00000000000E+00  0.00000000000E+00 -0.53460144502E+03  0.53460144504E+03  0.50400001928E-02 0. -1.
    10030    2    1    2    0    0  0.00000000000E+00  0.00000000000E+00  0.14735410705E+04  0.25427439606E+04  0.20722508445E+04 0.  0.
        1    1    3    3  502    0 -0.92420592289E+03 -0.11261219855E+03  0.17887968528E+03  0.94806963721E+03  0.50400001928E-02 0. -1.
       -1    1    3    3    0  502  0.92420592289E+03  0.11261219855E+03  0.12946613852E+04  0.15946743234E+04  0.50400001928E-02 0.  1.
</event>
<event>
 5   0  0.8577422E-05  0.1934239E+04  0.7818609E-02  0.8637999E-01
        1   -1    0    0  501    0  0.00000000000E+00  0.00000000000E+00  0.15154957917E+04  0.15154957917E+04  0.50400001928E-02 0.  1.
       -1   -1    0    0    0  501  0.00000000000E+00  0.00000000000E+00 -0.61717076126E+03  0.61717076128E+03  0.50400001928E-02 0. -1.
    10030    2    1    2    0    0  0.00000000000E+00  0.00000000000E+00  0.89832503041E+03  0.21326665530E+04  0.19342385494E+04 0.  0.
        2    1    3    3  502    0 -0.89315618345E+03 -0.36879391133E+03  0.40529708111E+03  0.10478562120E+04  0.25500000920E-02 0.  1.
       -2    1    3    3    0  502  0.89315618345E+03  0.36879391133E+03  0.49302794930E+03  0.10848103410E+04  0.25500000920E-02 0. -1.
</event>
<event>
 5   0  0.1782172E-04  0.1956975E+04  0.7818609E-02  0.8627005E-01
        2   -1    0    0  501    0  0.00000000000E+00  0.00000000000E+00  0.68852613571E+03  0.68852613572E+03  0.25500000920E-02 0.  1.
       -2   -1    0    0    0  501  0.00000000000E+00  0.00000000000E+00 -0.13905611141E+04  0.13905611141E+04  0.25500000920E-02 0. -1.
    10030    2    1    2    0    0  0.00000000000E+00  0.00000000000E+00 -0.70203497836E+03  0.20790872498E+04  0.19569748801E+04 0.  0.
        2    1    3    3  502    0  0.41812945151E+03  0.74502839566E+03  0.15575677116E+03  0.86842369863E+03  0.25500000920E-02 0.  1.
       -2    1    3    3    0  502 -0.41812945151E+03 -0.74502839566E+03 -0.85779174952E+03  0.12106635512E+04  0.25500000920E-02 0. -1.
</event>
<event>
 5   0  0.1807498E-04  0.1965442E+04  0.7818609E-02  0.8622950E-01
        2   -1    0    0  501    0  0.00000000000E+00  0.00000000000E+00  0.25434358834E+04  0.25434358834E+04  0.25500000920E-02 0.  1.
       -2   -1    0    0    0  501  0.00000000000E+00  0.00000000000E+00 -0.37969902411E+03  0.37969902412E+03  0.25500000920E-02 0. -1.
    10030    2    1    2    0    0  0.00000000000E+00  0.00000000000E+00  0.21637368592E+04  0.29231349075E+04  0.19654415512E+04 0.  0.
        5    1    3    3  502    0  0.24587566065E+03  0.74589142840E+03  0.20336205439E+03  0.81128729722E+03  0.46999998093E+01 0. -1.
       -5    1    3    3    0  502 -0.24587566065E+03 -0.74589142840E+03  0.19603748049E+04  0.21118476103E+04  0.46999998093E+01 0.  1.
</event>
<event>
 5   0  0.8861350E-05  0.1989510E+04  0.7818609E-02  0.8611541E-01
        1   -1    0    0  501    0  0.00000000000E+00  0.00000000000E+00  0.93995408420E+03  0.93995408421E+03  0.50400001928E-02 0.  1.
       -1   -1    0    0    0  501  0.00000000000E+00  0.00000000000E+00 -0.10527505011E+04  0.10527505012E+04  0.50400001928E-02 0. -1.
    10030    2    1    2    0    0  0.00000000000E+00  0.00000000000E+00 -0.11279641695E+03  0.19927045854E+04  0.19895096212E+04 0.  0.
        1    1    3    3  502    0  0.54144138566E+03 -0.72650789061E+03 -0.46762378698E+03  0.10196295874E+04  0.50400001928E-02 0. -1.
       -1    1    3    3    0  502 -0.54144138566E+03  0.72650789061E+03  0.35482737003E+03  0.97307499802E+03  0.50400001928E-02 0.  1.
</event>
<event>
 5   0  0.1834645E-04  0.2081038E+04  0.7818609E-02  0.8569643E-01
        2   -1    0    0  501    0  0.00000000000E+00  0.00000000000E+00  0.17136159991E+04  0.17136159991E+04  0.25500000920E-02 0.  1.
       -2   -1    0    0    0  501  0.00000000000E+00  0.00000000000E+00 -0.63180994381E+03  0.63180994381E+03  0.25500000920E-02 0. -1.
    10030    2    1    2    0    0  0.00000000000E+00  0.00000000000E+00  0.10818060553E+04  0.23454259430E+04  0.20810378451E+04 0.  0.
        1    1    3    3  502    0  0.31629118421E+03  0.33973112415E+03 -0.50865621960E+03  0.68861346174E+03  0.50400001928E-02 0. -1.
       -1    1    3    3    0  502 -0.31629118421E+03 -0.33973112415E+03  0.15904622749E+04  0.16568124812E+04  0.50400001928E-02 0.  1.
</event>
<event>
 5   0  0.8861350E-05  0.2011662E+04  0.7818609E-02  0.8601188E-01
       -1   -1    0    0    0  501  0.00000000000E+00  0.00000000000E+00  0.57817917511E+03  0.57817917513E+03  0.50400001928E-02 0. -1.
        1   -1    0    0  501    0  0.00000000000E+00  0.00000000000E+00 -0.17497962927E+04  0.17497962927E+04  0.50400001928E-02 0.  1.
    10030    2    1    2    0    0  0.00000000000E+00  0.00000000000E+00 -0.11716171176E+04  0.23279754678E+04  0.20116617779E+04 0.  0.
        1    1    3    3  502    0  0.41704715230E+03  0.88130564061E+03 -0.29983252713E+03  0.10200624999E+04  0.50400001928E-02 0. -1.
       -1    1    3    3    0  502 -0.41704715230E+03 -0.88130564061E+03 -0.87178459047E+03  0.13079129679E+04  0.50400001928E-02 0.  1.
</event>
<event>
 5   0  0.1807498E-04  0.1673555E+04  0.7818609E-02  0.8776592E-01
        2   -1    0    0  501    0  0.00000000000E+00  0.00000000000E+00  0.82230071915E+03  0.82230071915E+03  0.25500000920E-02 0.  1.
       -2   -1    0    0    0  501  0.00000000000E+00  0.00000000000E+00 -0.85150941845E+03  0.85150941846E+03  0.25500000920E-02 0. -1.
    10030    2    1    2    0    0  0.00000000000E+00  0.00000000000E+00 -0.29208699309E+02  0.16738101376E+04  0.16735552661E+04 0.  0.
        5    1    3    3  502    0  0.66802107975E+03  0.32368464789E+03  0.37165493599E+03  0.83016467987E+03  0.46999998093E+01 0.  1.
       -5    1    3    3    0  502 -0.66802107975E+03 -0.32368464789E+03 -0.40086363530E+03  0.84364545774E+03  0.46999998093E+01 0. -1.
</event>
<event>
 5   0  0.1834645E-04  0.1993199E+04  0.7818609E-02  0.8609807E-01
        2   -1    0    0  501    0  0.00000000000E+00  0.00000000000E+00  0.80649912353E+03  0.80649912353E+03  0.25500000920E-02 0. -1.
       -2   -1    0    0    0  501  0.00000000000E+00  0.00000000000E+00 -0.12315080888E+04  0.12315080888E+04  0.25500000920E-02 0.  1.
    10030    2    1    2    0    0  0.00000000000E+00  0.00000000000E+00 -0.42500896523E+03  0.20380072123E+04  0.19931986295E+04 0.  0.
        1    1    3    3  502    0 -0.63321881909E+03  0.35537411366E+03  0.48544881083E+03  0.87345141907E+03  0.50400001928E-02 0. -1.
       -1    1    3    3    0  502  0.63321881909E+03 -0.35537411366E+03 -0.91045777606E+03  0.11645557932E+04  0.50400001928E-02 0.  1.
</event>
<event>
 5   0  0.1807498E-04  0.1991501E+04  0.7818609E-02  0.8610604E-01
       -2   -1    0    0    0  501  0.00000000000E+00  0.00000000000E+00  0.52157943849E+03  0.52157943850E+03  0.25500000920E-02 0.  1.
        2   -1    0    0  501    0  0.00000000000E+00  0.00000000000E+00 -0.19009942416E+04  0.19009942416E+04  0.25500000920E-02 0. -1.
    10030    2    1    2    0    0  0.00000000000E+00  0.00000000000E+00 -0.13794148031E+04  0.24225736801E+04  0.19915014528E+04 0.  0.
        5    1    3    3  502    0 -0.50636906564E+03  0.78723396135E+03 -0.11028557941E+04  0.14465337650E+04  0.46999998093E+01 0. -1.
       -5    1    3    3    0  502  0.50636906564E+03 -0.78723396135E+03 -0.27655900901E+03  0.97603991516E+03  0.46999998093E+01 0.  1.
</event>
<event>
 5   0  0.1807498E-04  0.1984306E+04  0.7818609E-02  0.8613993E-01
       -2   -1    0    0    0  501  0.00000000000E+00  0.00000000000E+00  0.54586881079E+03  0.54586881080E+03  0.25500000920E-02 0. -1.
        2   -1    0    0  501    0  0.00000000000E+00  0.00000000000E+00 -0.18033046841E+04  0.18033046841E+04  0.25500000920E-02 0.  1.
    10030    2    1    2    0    0  0.00000000000E+00  0.00000000000E+00 -0.12574358733E+04  0.23491734949E+04  0.19843062096E+04 0.  0.
        5    1    3    3  502    0 -0.74774709473E+03  0.43572439405E+03 -0.12030679418E+04  0.14820175532E+04  0.46999998093E+01 0.  1.
       -5    1    3    3    0  502  0.74774709473E+03 -0.43572439405E+03 -0.54367931451E+02  0.86715594170E+03  0.46999998093E+01 0. -1.
</event>
<event>
 5   0  0.6531625E-05  0.1860941E+04  0.7818609E-02  0.8674546E-01
       -4   -1    0    0    0  501  0.00000000000E+00  0.00000000000E+00  0.85530573409E+03  0.85530667697E+03  0.12699999809E+01 0.  1.
        4   -1    0    0  501    0  0.00000000000E+00  0.00000000000E+00 -0.10122393545E+04  0.10122401512E+04  0.12699999809E+01 0. -1.
    10030    2    1    2    0    0  0.00000000000E+00  0.00000000000E+00 -0.15693362041E+03  0.18675468282E+04  0.18609414269E+04 0.  0.
        5    1    3    3  502    0  0.37413611020E+03  0.28252083797E+03  0.72810097454E+03  0.86599594224E+03  0.46999998093E+01 0.  1.
       -5    1    3    3    0  502 -0.37413611020E+03 -0.28252083797E+03 -0.88503459495E+03  0.10015508859E+04  0.46999998093E+01 0. -1.
</event>
<event>
 5   0  0.1834645E-04  0.2041969E+04  0.7818609E-02  0.8587246E-01
        2   -1    0    0  501    0  0.00000000000E+00  0.00000000000E+00  0.11827461296E+04  0.11827461296E+04  0.25500000920E-02 0. -1.
       -2   -1    0    0    0  501  0.00000000000E+00  0.00000000000E+00 -0.88134698332E+03  0.88134698332E+03  0.25500000920E-02 0.  1.
    10030    2    1    2    0    0  0.00000000000E+00  0.00000000000E+00  0.30139914629E+03  0.20640931129E+04  0.20419693762E+04 0.  0.
        1    1    3    3  502    0  0.51272230716E+02 -0.96383257768E+03  0.48718397755E+03  0.10811800532E+04  0.50400001928E-02 0. -1.
       -1    1    3    3    0  502 -0.51272230716E+02  0.96383257768E+03 -0.18578483127E+03  0.98291305973E+03  0.50400001928E-02 0.  1.
</event>
<event>
 5   0  0.8577422E-05  0.1948569E+04  0.7818609E-02  0.8631051E-01
       -1   -1    0    0    0  501  0.00000000000E+00  0.00000000000E+00  0.10757536049E+04  0.10757536049E+04  0.50400001928E-02 0. -1.
        1   -1    0    0  501    0  0.00000000000E+00  0.00000000000E+00 -0.88238629395E+03  0.88238629397E+03  0.50400001928E-02 0.  1.
    10030    2    1    2    0    0  0.00000000000E+00  0.00000000000E+00  0.19336731091E+03  0.19581398988E+04  0.19485689484E+04 0.  0.
        2    1    3    3  502    0  0.18738934869E+03 -0.76092690556E+03  0.67841016478E+03  0.10365157381E+04  0.25500000920E-02 0. -1.
       -2    1    3    3    0  502 -0.18738934869E+03  0.76092690556E+03 -0.48504285386E+03  0.92162416076E+03  0.25500000920E-02 0.  1.
</event>
<event>
 5   0  0.1893687E-04  0.2023863E+04  0.7818609E-02  0.8595545E-01
       -2   -1    0    0    0  501  0.00000000000E+00  0.00000000000E+00  0.41480283380E+03  0.41480283381E+03  0.25500000920E-02 0.  1.
        2   -1    0    0  501    0  0.00000000000E+00  0.00000000000E+00 -0.24686547703E+04  0.24686547703E+04  0.25500000920E-02 0. -1.
    10030    2    1    2    0    0  0.00000000000E+00  0.00000000000E+00 -0.20538519365E+04  0.28834576041E+04  0.20238626380E+04 0.  0.
        4    1    3    3  502    0 -0.68078228288E+03 -0.74855910589E+03 -0.10068716705E+04  0.14274443686E+04  0.12699999809E+01 0. -1.
       -4    1    3    3    0  502  0.68078228288E+03  0.74855910589E+03 -0.10469802660E+04  0.14560132355E+04  0.12699999809E+01 0.  1.
</event>
<event>
 5   0  0.8765057E-05  0.2001484E+04  0.7818609E-02  0.8605927E-01
        1   -1    0    0  501    0  0.00000000000E+00  0.00000000000E+00  0.22877324102E+04  0.22877324102E+04  0.50400001928E-02 0. -1.
       -1   -1    0    0    0  501  0.00000000000E+00  0.00000000000E+00 -0.43776305980E+03  0.43776305983E+03  0.50400001928E-02 0.  1.
    10030    2    1    2    0    0  0.00000000000E+00  0.00000000000E+00  0.18499693504E+04  0.27254954700E+04  0.20014841892E+04 0.  0.
        3    1    3    3  502    0 -0.77241882792E+03  0.49075635875E+03  0.14764665197E+04  0.17370739890E+04  0.10100000352E+00 0. -1.
       -3    1    3    3    0  502  0.77241882792E+03 -0.49075635875E+03  0.37350283071E+03  0.98842148101E+03  0.10100000352E+00 0.  1.
</event>
<event>
 5   0  0.1812865E-04  0.2006300E+04  0.7818609E-02  0.8603681E-01
        2   -1    0    0  501    0  0.00000000000E+00  0.00000000000E+00  0.18289060413E+04  0.18289060413E+04  0.25500000920E-02 0.  1.
       -2   -1    0    0    0  501  0.00000000000E+00  0.00000000000E+00 -0.55022495887E+03  0.55022495888E+03  0.25500000920E-02 0. -1.
    10030    2    1    2    0    0  0.00000000000E+00  0.00000000000E+00  0.12786810824E+04  0.23791310001E+04  0.20062998294E+04 0.  0.
        3    1    3    3  502    0  0.42590424240E+03  0.58780696527E+03  0.14603927231E+04  0.16308459056E+04  0.10100000352E+00 0.  1.
       -3    1    3    3    0  502 -0.42590424240E+03 -0.58780696527E+03 -0.18171164068E+03  0.74828509451E+03  0.10100000352E+00 0. -1.
</event>
<event>
 5   0  0.8958919E-05  0.1994633E+04  0.7818609E-02  0.8609134E-01
       -1   -1    0    0    0  501  0.00000000000E+00  0.00000000000E+00  0.96237165149E+03  0.96237165150E+03  0.50400001928E-02 0. -1.
        1   -1    0    0  501    0  0.00000000000E+00  0.00000000000E+00 -0.10335298316E+04  0.10335298316E+04  0.50400001928E-02 0.  1.
    10030    2    1    2    0    0  0.00000000000E+00  0.00000000000E+00 -0.71158180066E+02  0.19959014831E+04  0.19946326087E+04 0.  0.
        4    1    3    3  502    0 -0.43032561608E+03  0.50457903833E+03 -0.78094089510E+03  0.10245244928E+04  0.12699999809E+01 0.  1.
       -4    1    3    3    0  502  0.43032561608E+03 -0.50457903833E+03  0.70978271504E+03  0.97137699028E+03  0.12699999809E+01 0. -1.
</event>
<event>
 5   0  0.1834645E-04  0.1983685E+04  0.7818609E-02  0.8614287E-01
       -2   -1    0    0    0  501  0.00000000000E+00  0.00000000000E+00  0.64887376933E+03  0.64887376933E+03  0.25500000920E-02 0. -1.
        2   -1    0    0  501    0  0.00000000000E+00  0.00000000000E+00 -0.15160902367E+04  0.15160902367E+04  0.25500000920E-02 0.  1.
    10030    2    1    2    0    0  0.00000000000E+00  0.00000000000E+00 -0.86721646738E+03  0.21649640060E+04  0.19836846388E+04 0.  0.
        1    1    3    3  502    0 -0.62131398677E+03  0.54473521103E+03 -0.10323637313E+04  0.13223246175E+04  0.50400001928E-02 0. -1.
       -1    1    3    3    0  502  0.62131398677E+03 -0.54473521103E+03  0.16514726395E+03  0.84263938853E+03  0.50400001928E-02 0.  1.
</event>
<event>
 5   0  0.8881384E-05  0.1994523E+04  0.7818609E-02  0.8609186E-01
        1   -1    0    0  501    0  0.00000000000E+00  0.00000000000E+00  0.22854951698E+04  0.22854951698E+04  0.50400001928E-02 0. -1.
       -1   -1    0    0    0  501  0.00000000000E+00  0.00000000000E+00 -0.43514869341E+03  0.43514869344E+03  0.50400001928E-02 0.  1.
    10030    2    1    2    0    0  0.00000000000E+00  0.00000000000E+00  0.18503464764E+04  0.27206438632E+04  0.19945227369E+04 0.  0.
        5    1    3    3  502    0  0.11481117620E+03 -0.49570917424E+03 -0.24473892460E+03  0.56464893768E+03  0.46999998093E+01 0.  1.
       -5    1    3    3    0  502 -0.11481117620E+03  0.49570917424E+03  0.20950854010E+04  0.21559949255E+04  0.46999998093E+01 0. -1.
</event>
<event>
 5   0  0.8958919E-05  0.1913527E+04  0.7818609E-02  0.8648152E-01
       -1   -1    0    0    0  501  0.00000000000E+00  0.00000000000E+00  0.79175285961E+03  0.79175285962E+03  0.50400001928E-02 0.  1.
        1   -1    0    0  501    0  0.00000000000E+00  0.00000000000E+00 -0.11561643154E+04  0.11561643154E+04  0.50400001928E-02 0. -1.
    10030    2    1    2    0    0  0.00000000000E+00  0.00000000000E+00 -0.36441145575E+03  0.19479171750E+04  0.19135270083E+04 0.  0.
        4    1    3    3  502    0 -0.66042009558E+03 -0.69223112738E+03 -0.18983397521E+03  0.97538566086E+03  0.12699999809E+01 0.  1.
       -4    1    3    3    0  502  0.66042009558E+03  0.69223112738E+03 -0.17457748054E+03  0.97253151413E+03  0.12699999809E+01 0. -1.
</event>
<event>
 5   0  0.1812865E-04  0.1906568E+04  0.7818609E-02  0.8651594E-01
       -2   -1    0    0    0  501  0.00000000000E+00  0.00000000000E+00  0.71278553950E+03  0.71278553950E+03  0.25500000920E-02 0.  1.
        2   -1    0    0  501    0  0.00000000000E+00  0.00000000000E+00 -0.12749283389E+04  0.12749283389E+04  0.25500000920E-02 0. -1.
    10030    2    1    2    0    0  0.00000000000E+00  0.00000000000E+00 -0.56214279938E+03  0.19877138784E+04  0.19065681041E+04 0.  0.
        3    1    3    3  502    0  0.51454920751E+03 -0.16463843556E+03  0.53777646285E+03  0.76227963085E+03  0.10100000352E+00 0.  1.
       -3    1    3    3    0  502 -0.51454920751E+03  0.16463843556E+03 -0.10999192622E+04  0.12254342475E+04  0.10100000352E+00 0. -1.
</event>
<event>
 5   0  0.8881384E-05  0.1977434E+04  0.7818609E-02  0.8617244E-01
       -1   -1    0    0    0  501  0.00000000000E+00  0.00000000000E+00  0.10087512829E+04  0.10087512829E+04  0.50400001928E-02 0.  1.
        1   -1    0    0  501    0  0.00000000000E+00  0.00000000000E+00 -0.96908054128E+03  0.96908054129E+03  0.50400001928E-02 0. -1.
    10030    2    1    2    0    0  0.00000000000E+00  0.00000000000E+00  0.39670741591E+02  0.19778318242E+04  0.19774339324E+04 0.  0.
        5    1    3    3  502    0  0.82751774889E+03  0.29664632658E+01  0.56100313263E+03  0.99977048838E+03  0.46999998093E+01 0.  1.
       -5    1    3    3    0  502 -0.82751774889E+03 -0.29664632658E+01 -0.52133239103E+03  0.97806133579E+03  0.46999998093E+01 0. -1.
</event>
<event>
 5   0  0.8765057E-05  0.1990625E+04  0.7818609E-02  0.8611016E-01
       -1   -1    0    0    0  501  0.00000000000E+00  0.00000000000E+00  0.12342134576E+04  0.12342134576E+04  0.50400001928E-02 0. -1.
        1   -1    0    0  501    0  0.00000000000E+00  0.00000000000E+00 -0.80265462701E+03  0.80265462703E+03  0.50400001928E-02 0.  1.
    10030    2    1    2    0    0  0.00000000000E+00  0.00000000000E+00  0.43155883058E+03  0.20368680846E+04  0.19906251706E+04 0.  0.
        3    1    3    3  502    0  0.85335353964E+03 -0.22723204936E+03 -0.25401645387E+03  0.91889664103E+03  0.10100000352E+00 0.  1.
       -3    1    3    3    0  502 -0.85335353964E+03  0.22723204936E+03  0.68557528444E+03  0.11179714436E+04  0.10100000352E+00 0. -1.
</event>
<event>
 5   0  0.8577422E-05  0.1980684E+04  0.7818609E-02  0.8615705E-01
       -1   -1    0    0    0  501  0.00000000000E+00  0.00000000000E+00  0.15122002609E+04  0.15122002609E+04  0.50400001928E-02 0. -1.
        1   -1    0    0  501    0  0.00000000000E+00  0.00000000000E+00 -0.64857603701E+03  0.64857603703E+03  0.50400001928E-02 0.  1.
    10030    2    1    2    0    0  0.00000000000E+00  0.00000000000E+00  0.86362422391E+03  0.21607762979E+04  0.19806835713E+04 0.  0.
        2    1    3    3  502    0 -0.93524398219E+03 -0.23650224551E+03  0.67614568335E+03  0.11780439735E+04  0.25500000920E-02 0. -1.
       -2    1    3    3    0  502  0.93524398219E+03  0.23650224551E+03  0.18747854056E+03  0.98273232446E+03  0.25500000920E-02 0.  1.
</event>
<event>
 5   0  0.1782172E-04  0.2018073E+04  0.7818609E-02  0.8598217E-01
       -2   -1    0    0    0  501  0.00000000000E+00  0.00000000000E+00  0.22963778868E+04  0.22963778868E+04  0.25500000920E-02 0.  1.
        2   -1    0    0  501    0  0.00000000000E+00  0.00000000000E+00 -0.44337413947E+03  0.44337413948E+03  0.25500000920E-02 0. -1.
    10030    2    1    2    0    0  0.00000000000E+00  0.00000000000E+00  0.18530037474E+04  0.27397520263E+04  0.20180729119E+04 0.  0.
        2    1    3    3  502    0  0.11554326229E+03 -0.30586028548E+03  0.22224692894E+04  0.22463905498E+04  0.25500000920E-02 0.  1.
       -2    1    3    3    0  502 -0.11554326229E+03  0.30586028548E+03 -0.36946554209E+03  0.49336147650E+03  0.25500000920E-02 0. -1.
</event>
<event>
 5   0  0.8577422E-05  0.1873175E+04  0.7818609E-02  0.8668325E-01
        1   -1    0    0  501    0  0.00000000000E+00  0.00000000000E+00  0.21488021918E+04  0.21488021918E+04  0.50400001928E-02 0. -1.
       -1   -1    0    0    0  501  0.00000000000E+00  0.00000000000E+00 -0.40822585212E+03  0.40822585215E+03  0.50400001928E-02 0.  1.
    10030    2    1    2    0    0  0.00000000000E+00  0.00000000000E+00  0.17405763396E+04  0.25570280439E+04  0.18731754919E+04 0.  0.
        2    1    3    3  502    0  0.35599582699E+03 -0.15238431986E+03  0.20344052957E+04  0.20709318958E+04  0.25500000920E-02 0. -1.
       -2    1    3    3    0  502 -0.35599582699E+03  0.15238431986E+03 -0.29382895608E+03  0.48609614812E+03  0.25500000920E-02 0.  1.
</event>
<event>
 5   0  0.8577422E-05  0.1996132E+04  0.7818609E-02  0.8608431E-01
       -1   -1    0    0    0  501  0.00000000000E+00  0.00000000000E+00  0.73274926386E+03  0.73274926388E+03  0.50400001928E-02 0.  1.
        1   -1    0    0  501    0  0.00000000000E+00  0.00000000000E+00 -0.13594495412E+04  0.13594495412E+04  0.50400001928E-02 0. -1.
    10030    2    1    2    0    0  0.00000000000E+00  0.00000000000E+00 -0.62670027736E+03  0.20921988051E+04  0.19961319101E+04 0.  0.
        2    1    3    3  502    0 -0.98745313311E+03 -0.13805415943E+03 -0.36037598655E+03  0.10601855935E+04  0.25500000920E-02 0. -1.
       -2    1    3    3    0  502  0.98745313311E+03  0.13805415943E+03 -0.26632429081E+03  0.10320132116E+04  0.25500000920E-02 0.  1.
</event>
<event>
 5   0  0.8765057E-05  0.2405971E+04  0.7818609E-02  0.8437271E-01
        1   -1    0    0  501    0  0.00000000000E+00  0.00000000000E+00  0.14753604320E+04  0.14753604320E+04  0.50400001928E-02 0.  1.
       -1   -1    0    0    0  501  0.00000000000E+00  0.00000000000E+00 -0.98089556470E+03  0.98089556471E+03  0.50400001928E-02 0. -1.
    10030    2    1    2    0    0  0.00000000000E+00  0.00000000000E+00  0.49446486730E+03  0.24562559967E+04  0.24059713249E+04 0.  0.
        3    1    3    3  502    0 -0.28779079928E+03  0.11608120349E+04  0.11464755799E+03  0.12014375544E+04  0.10100000352E+00 0. -1.
       -3    1    3    3    0  502  0.28779079928E+03 -0.11608120349E+04  0.37981730932E+03  0.12548184423E+04  0.10100000352E+00 0.  1.
</event>
<event>
 5   0  0.1834645E-04  0.1975452E+04  0.7818609E-02  0.8618184E-01
        2   -1    0    0  501    0  0.00000000000E+00  0.00000000000E+00  0.12643545980E+04  0.12643545980E+04  0.25500000920E-02 0.  1.
       -2   -1    0    0    0  501  0.00000000000E+00  0.00000000000E+00 -0.77162146066E+03  0.77162146067E+03  0.25500000920E-02 0. -1.
    10030    2    1    2    0    0  0.00000000000E+00  0.00000000000E+00  0.49273313733E+03  0.20359760587E+04  0.19754524967E+04 0.  0.
        1    1    3    3  502    0 -0.57652930146E+03  0.77779352795E+03  0.44794608526E+03  0.10667729388E+04  0.50400001928E-02 0.  1.
       -1    1    3    3    0  502  0.57652930146E+03 -0.77779352795E+03  0.44787052063E+02  0.96920311989E+03  0.50400001928E-02 0. -1.
</event>
<event>
 5   0  0.1893687E-04  0.2002008E+04  0.7818609E-02  0.8605683E-01
        2   -1    0    0  501    0  0.00000000000E+00  0.00000000000E+00  0.94723437150E+03  0.94723437150E+03  0.25500000920E-02 0.  1.
       -2   -1    0    0    0  501  0.00000000000E+00  0.00000000000E+00 -0.10578256235E+04  0.10578256235E+04  0.25500000920E-02 0. -1.
    10030    2    1    2    0    0  0.00000000000E+00  0.00000000000E+00 -0.11059125203E+03  0.20050599950E+04  0.20020077819E+04 0.  0.
        4    1    3    3  502    0 -0.37475668204E+03 -0.24030033332E+03  0.84263153960E+03  0.95300385380E+03  0.12699999809E+01 0.  1.
       -4    1    3    3    0  502  0.37475668204E+03  0.24030033332E+03 -0.95322279163E+03  0.10520561412E+04  0.12699999809E+01 0. -1.
</event>
<event>
 5   0  0.8861350E-05  0.1995844E+04  0.7818609E-02  0.8608566E-01
        1   -1    0    0  501    0  0.00000000000E+00  0.00000000000E+00  0.11719930364E+04  0.11719930364E+04  0.50400001928E-02 0.  1.
       -1   -1    0    0    0  501  0.00000000000E+00  0.00000000000E+00 -0.84970503371E+03  0.84970503372E+03  0.50400001928E-02 0. -1.
    10030    2    1    2    0    0  0.00000000000E+00  0.00000000000E+00  0.32228800269E+03  0.20216980701E+04  0.19958440646E+04 0.  0.
        1    1    3    3  502    0  0.28125004912E+03 -0.95407803471E+03  0.24269714768E+03  0.10238497897E+04  0.50400001928E-02 0.  1.
       -1    1    3    3    0  502 -0.28125004912E+03  0.95407803471E+03  0.79590855010E+02  0.99784828039E+03  0.50400001928E-02 0. -1.
</event>
<event>
 5   0  0.1834645E-04  0.1973135E+04  0.7818609E-02  0.8619285E-01
       -2   -1    0    0    0  501  0.00000000000E+00  0.00000000000E+00  0.86585646413E+03  0.86585646414E+03  0.25500000920E-02 0.  1.
        2   -1    0    0  501    0  0.00000000000E+00  0.00000000000E+00 -0.11241071076E+04  0.11241071076E+04  0.25500000920E-02 0. -1.
    10030    2    1    2    0    0  0.00000000000E+00  0.00000000000E+00 -0.25825064346E+03  0.19899635717E+04  0.19731349731E+04 0.  0.
        1    1    3    3  502    0 -0.60162485342E+03  0.38208428936E+03 -0.81712722638E+03  0.10842683121E+04  0.50400001928E-02 0. -1.
       -1    1    3    3    0  502  0.60162485342E+03 -0.38208428936E+03  0.55887658292E+03  0.90569525967E+03  0.50400001928E-02 0.  1.
</event>
<event>
 5   0  0.1893687E-04  0.1989347E+04  0.7818609E-02  0.8611617E-01
       -2   -1    0    0    0  501  0.00000000000E+00  0.00000000000E+00  0.11631154377E+04  0.11631154377E+04  0.25500000920E-02 0. -1.
        2   -1    0    0  501    0  0.00000000000E+00  0.00000000000E+00 -0.85062545512E+03  0.85062545512E+03  0.25500000920E-02 0.  1.
    10030    2    1    2    0    0  0.00000000000E+00  0.00000000000E+00  0.31248998257E+03  0.20137408928E+04  0.19893472282E+04 0.  0.
        4    1    3    3  502    0 -0.95683344055E+03  0.23319654718E+02  0.43030446834E+03  0.10493986791E+04  0.12699999809E+01 0. -1.
       -4    1    3    3    0  502  0.95683344055E+03 -0.23319654718E+02 -0.11781448576E+03  0.96434221375E+03  0.12699999809E+01 0.  1.
</event>
<event>
 5   0  0.1807498E-04  0.1976076E+04  0.7818609E-02  0.8617888E-01
        2   -1    0    0  501    0  0.00000000000E+00  0.00000000000E+00  0.23026814086E+04  0.23026814086E+04  0.25500000920E-02 0. -1.
       -2   -1    0    0    0  501  0.00000000000E+00  0.00000000000E+00 -0.42394874265E+03  0.42394874266E+03  0.25500000920E-02 0.  1.
    10030    2    1    2    0    0  0.00000000000E+00  0.00000000000E+00  0.18787326660E+04  0.27266301513E+04  0.19760757960E+04 0.  0.
        5    1    3    3  502    0  0.59198091629E+03  0.78513464710E+03  0.80616554591E+03  0.12715356058E+04  0.46999998093E+01 0.  1.
       -5    1    3    3    0  502 -0.59198091629E+03 -0.78513464710E+03  0.10725671200E+04  0.14550945455E+04  0.46999998093E+01 0. -1.
</event>
<event>
 5   0  0.1834645E-04  0.1963882E+04  0.7818609E-02  0.8623695E-01
       -2   -1    0    0    0  501  0.00000000000E+00  0.00000000000E+00  0.88328796387E+03  0.88328796388E+03  0.25500000920E-02 0. -1.
        2   -1    0    0  501    0  0.00000000000E+00  0.00000000000E+00 -0.10916129815E+04  0.10916129815E+04  0.25500000920E-02 0.  1.
    10030    2    1    2    0    0  0.00000000000E+00  0.00000000000E+00 -0.20832501760E+03  0.19749009454E+04  0.19638824891E+04 0.  0.
        1    1    3    3  502    0 -0.75432859225E+03  0.39400243365E+03 -0.59676703775E+03  0.10394135078E+04  0.50400001928E-02 0.  1.
       -1    1    3    3    0  502  0.75432859225E+03 -0.39400243365E+03  0.38844202015E+03  0.93548743757E+03  0.50400001928E-02 0. -1.
</event>
<event>
 5   0  0.1807498E-04  0.1988000E+04  0.7818609E-02  0.8612252E-01
       -2   -1    0    0    0  501  0.00000000000E+00  0.00000000000E+00  0.53507617859E+03  0.53507617860E+03  0.25500000920E-02 0. -1.
        2   -1    0    0  501    0  0.00000000000E+00  0.00000000000E+00 -0.18465330841E+04  0.18465330841E+04  0.25500000920E-02 0.  1.
    10030    2    1    2    0    0  0.00000000000E+00  0.00000000000E+00 -0.13114569055E+04  0.23816092627E+04  0.19879998655E+04 0.  0.
        5    1    3    3  502    0 -0.35635203900E+03 -0.43090213663E+03 -0.16402352625E+04  0.17329331301E+04  0.46999998093E+01 0.  1.
       -5    1    3    3    0  502  0.35635203900E+03  0.43090213663E+03  0.32877835695E+03  0.64867613264E+03  0.46999998093E+01 0. -1.
</event>
<event>
 5   0  0.1834645E-04  0.2015991E+04  0.7818609E-02  0.8599181E-01
        2   -1    0    0  501    0  0.00000000000E+00  0.00000000000E+00  0.73832739748E+03  0.73832739748E+03  0.25500000920E-02 0. -1.
       -2   -1    0    0    0  501  0.00000000000E+00  0.00000000000E+00 -0.13761579316E+04  0.13761579316E+04  0.25500000920E-02 0.  1.
    10030    2    1    2    0    0  0.00000000000E+00  0.00000000000E+00 -0.63783053416E+03  0.21144853291E+04  0.20159911748E+04 0.  0.
        1    1    3    3  502    0 -0.68754568734E+02 -0.31237277141E+03 -0.13215206258E+04  0.13596766908E+04  0.50400001928E-02 0.  1.
       -1    1    3    3    0  502  0.68754568734E+02  0.31237277141E+03  0.68369009165E+03  0.75480863832E+03  0.50400001928E-02 0. -1.
</event>
<event>
 5   0  0.8958919E-05  0.1993530E+04  0.7818609E-02  0.8609651E-01
        1   -1    0    0  501    0  0.00000000000E+00  0.00000000000E+00  0.13651355982E+04  0.13651355982E+04  0.50400001928E-02 0.  1.
       -1   -1    0    0    0  501  0.00000000000E+00  0.00000000000E+00 -0.72779648901E+03  0.72779648902E+03  0.50400001928E-02 0. -1.
    10030    2    1    2    0    0  0.00000000000E+00  0.00000000000E+00  0.63733910915E+03  0.20929320872E+04  0.19935304316E+04 0.  0.
        4    1    3    3  502    0  0.44617259890E+03  0.23640083120E+03 -0.58359146952E+03  0.77170976228E+03  0.12699999809E+01 0. -1.
       -4    1    3    3    0  502 -0.44617259890E+03 -0.23640083120E+03  0.12209305787E+04  0.13212223249E+04  0.12699999809E+01 0.  1.
</event>
<event>
 5   0  0.8765057E-05  0.1968201E+04  0.7818609E-02  0.8621634E-01
        1   -1    0    0  501    0  0.00000000000E+00  0.00000000000E+00  0.13166531395E+04  0.13166531395E+04  0.50400001928E-02 0. -1.
       -1   -1    0    0    0  501  0.00000000000E+00  0.00000000000E+00 -0.73554189331E+03  0.73554189332E+03  0.50400001928E-02 0.  1.
    10030    2    1    2    0    0  0.00000000000E+00  0.00000000000E+00  0.58111124620E+03  0.20521950328E+04  0.19682007449E+04 0.  0.
        3    1    3    3  502    0 -0.40023655703E+03 -0.80635214819E+03 -0.12397902835E+03  0.90871552102E+03  0.10100000352E+00 0.  1.
       -3    1    3    3    0  502  0.40023655703E+03  0.80635214819E+03  0.70509027456E+03  0.11434795118E+04  0.10100000352E+00 0. -1.
</event>
<event>
 5   0  0.1834645E-04  0.2010230E+04  0.7818609E-02  0.8601853E-01
        2   -1    0    0  501    0  0.00000000000E+00  0.00000000000E+00  0.66293666404E+03  0.66293666405E+03  0.25500000920E-02 0.  1.
       -2   -1    0    0    0  501  0.00000000000E+00  0.00000000000E+00 -0.15239109559E+04  0.15239109559E+04  0.25500000920E-02 0. -1.
    10030    2    1    2    0    0  0.00000000000E+00  0.00000000000E+00 -0.86097429189E+03  0.21868476200E+04  0.20102302808E+04 0.  0.
        1    1    3    3  502    0 -0.77167633743E+03 -0.58949320225E+03 -0.14833529111E+03  0.98233902695E+03  0.50400001928E-02 0. -1.
       -1    1    3    3    0  502  0.77167633743E+03  0.58949320225E+03 -0.71263900078E+03  0.12045085930E+04  0.50400001928E-02 0.  1.
</event>
<event>
 5   0  0.8577422E-05  0.2006707E+04  0.7818609E-02  0.8603491E-01
        1   -1    0    0  501    0  0.00000000000E+00  0.00000000000E+00  0.80089874134E+03  0.80089874135E+03  0.50400001928E-02 0.  1.
       -1   -1    0    0    0  501  0.00000000000E+00  0.00000000000E+00 -0.12569862451E+04  0.12569862451E+04  0.50400001928E-02 0. -1.
    10030    2    1    2    0    0  0.00000000000E+00  0.00000000000E+00 -0.45608750375E+03  0.20578849864E+04  0.20067074541E+04 0.  0.
        2    1    3    3  502    0 -0.33401511594E+03 -0.79447463653E+03  0.29883208220E+03  0.91217139789E+03  0.25500000920E-02 0.  1.
       -2    1    3    3    0  502  0.33401511594E+03  0.79447463653E+03 -0.75491958594E+03  0.11457135886E+04  0.25500000920E-02 0. -1.
</event>
<event>
 5   0  0.1782172E-04  0.1979815E+04  0.7818609E-02  0.8616116E-01
        2   -1    0    0  501    0  0.00000000000E+00  0.00000000000E+00  0.10832866038E+04  0.10832866038E+04  0.25500000920E-02 0.  1.
       -2   -1    0    0    0  501  0.00000000000E+00  0.00000000000E+00 -0.90457806744E+03  0.90457806745E+03  0.25500000920E-02 0. -1.
    10030    2    1    2    0    0  0.00000000000E+00  0.00000000000E+00  0.17870853636E+03  0.19878646713E+04  0.19798154485E+04 0.  0.
        2    1    3    3  502    0 -0.34537878347E+03  0.73814344117E+03  0.65357757115E+03  0.10446558693E+04  0.25500000920E-02 0.  1.
       -2    1    3    3    0  502  0.34537878347E+03 -0.73814344117E+03 -0.47486903479E+03  0.94320880192E+03  0.25500000920E-02 0. -1.
</event>
<event>
 5   0  0.8958919E-05  0.2004094E+04  0.7818609E-02  0.8604709E-01
       -1   -1    0    0    0  501  0.00000000000E+00  0.00000000000E+00  0.74643886325E+03  0.74643886327E+03  0.50400001928E-02 0. -1.
        1   -1    0    0  501    0  0.00000000000E+00  0.00000000000E+00 -0.13451843053E+04  0.13451843053E+04  0.50400001928E-02 0.  1.
    10030    2    1    2    0    0  0.00000000000E+00  0.00000000000E+00 -0.59874544204E+03  0.20916231686E+04  0.20040936542E+04 0.  0.
        4    1    3    3  502    0 -0.24445805028E+03 -0.66297666676E+03 -0.10408953851E+04  0.12580789382E+04  0.12699999809E+01 0.  1.
       -4    1    3    3    0  502  0.24445805028E+03  0.66297666676E+03  0.44214994306E+03  0.83354423042E+03  0.12699999809E+01 0. -1.
</event>
<event>
 5   0  0.1807498E-04  0.2014039E+04  0.7818609E-02  0.8600085E-01
        2   -1    0    0  501    0  0.00000000000E+00  0.00000000000E+00  0.11944976600E+04  0.11944976600E+04  0.25500000920E-02 0. -1.
       -2   -1    0    0    0  501  0.00000000000E+00  0.00000000000E+00 -0.84896613416E+03  0.84896613416E+03  0.25500000920E-02 0.  1.
    10030    2    1    2    0    0  0.00000000000E+00  0.00000000000E+00  0.34553152586E+03  0.20434637942E+04  0.20140387888E+04 0.  0.
        5    1    3    3  502    0  0.52747921471E+03 -0.46295640130E+03 -0.55993649592E+03  0.89783847151E+03  0.46999998093E+01 0.  1.
       -5    1    3    3    0  502 -0.52747921471E+03  0.46295640130E+03  0.90546802179E+03  0.11456253227E+04  0.46999998093E+01 0. -1.
</event>
<event>
 5   0  0.8958919E-05  0.2007025E+04  0.7818609E-02  0.8603343E-01
       -1   -1    0    0    0  501  0.00000000000E+00  0.00000000000E+00  0.36581018137E+03  0.36581018141E+03  0.50400001928E-02 0.  1.
        1   -1    0    0  501    0  0.00000000000E+00  0.00000000000E+00 -0.27528951285E+04  0.27528951285E+04  0.50400001928E-02 0. -1.
    10030    2    1    2    0    0  0.00000000000E+00  0.00000000000E+00 -0.23870849471E+04  0.31187053099E+04  0.20070247296E+04 0.  0.
        4    1    3    3  502    0 -0.36031583361E+03 -0.46346763755E+03  0.71146252935E+02  0.59134858858E+03  0.12699999809E+01 0.  1.
       -4    1    3    3    0  502  0.36031583361E+03  0.46346763755E+03 -0.24582312001E+04  0.25273567213E+04  0.12699999809E+01 0. -1.
</event>
<event>
 5   0  0.1834645E-04  0.1988018E+04  0.7818609E-02  0.8612243E-01
        2   -1    0    0  501    0  0.00000000000E+00  0.00000000000E+00  0.16871793618E+04  0.16871793618E+04  0.25500000920E-02 0.  1.
       -2   -1    0    0    0  501  0.00000000000E+00  0.00000000000E+00 -0.58562478601E+03  0.58562478602E+03  0.25500000920E-02 0. -1.
    10030    2    1    2    0    0  0.00000000000E+00  0.00000000000E+00  0.11015545758E+04  0.22728041478E+04  0.19880181616E+04 0.  0.
        1    1    3    3  502    0 -0.34050371055E+03 -0.44335821994E+02 -0.51566567447E+03  0.61953170206E+03  0.50400001928E-02 0. -1.
       -1    1    3    3    0  502  0.34050371055E+03  0.44335821994E+02  0.16172202503E+04  0.16532724458E+04  0.50400001928E-02 0.  1.
</event>
<event>
 5   0  0.8577422E-05  0.2003974E+04  0.7818609E-02  0.8604765E-01
       -1   -1    0    0    0  501  0.00000000000E+00  0.00000000000E+00  0.15638290813E+04  0.15638290813E+04  0.50400001928E-02 0. -1.
        1   -1    0    0  501    0  0.00000000000E+00  0.00000000000E+00 -0.64199967362E+03  0.64199967364E+03  0.50400001928E-02 0.  1.
    10030    2    1    2    0    0  0.00000000000E+00  0.00000000000E+00  0.92182940769E+03  0.22058287550E+04  0.20039738120E+04 0.  0.
        2    1    3    3  502    0 -0.28938731145E+03 -0.10778235860E+03  0.15101427044E+04  0.15413932141E+04  0.25500000920E-02 0. -1.
       -2    1    3    3    0  502  0.28938731145E+03  0.10778235860E+03 -0.58831329671E+03  0.66443554085E+03  0.25500000920E-02 0.  1.
</event>
<event>
 5   0  0.8577422E-05  0.1993566E+04  0.7818609E-02  0.8609635E-01
        1   -1    0    0  501    0  0.00000000000E+00  0.00000000000E+00  0.80897704605E+03  0.80897704607E+03  0.50400001928E-02 0. -1.
       -1   -1    0    0    0  501  0.00000000000E+00  0.00000000000E+00 -0.12281888417E+04  0.12281888417E+04  0.50400001928E-02 0.  1.
    10030    2    1    2    0    0  0.00000000000E+00  0.00000000000E+00 -0.41921179561E+03  0.20371658877E+04  0.19935662328E+04 0.  0.
        2    1    3    3  502    0  0.39980481589E+03 -0.67166490286E+03  0.42246764559E+03  0.88851367132E+03  0.25500000920E-02 0. -1.
       -2    1    3    3    0  502 -0.39980481589E+03  0.67166490286E+03 -0.84167944120E+03  0.11486522164E+04  0.25500000920E-02 0.  1.
</event>
<event>
 5   0  0.8765057E-05  0.2030554E+04  0.7818609E-02  0.8592468E-01
        1   -1    0    0  501    0  0.00000000000E+00  0.00000000000E+00  0.86634368240E+03  0.86634368241E+03  0.50400001928E-02 0. -1.
       -1   -1    0    0    0  501  0.00000000000E+00  0.00000000000E+00 -0.11898133004E+04  0.11898133004E+04  0.50400001928E-02 0.  1.
    10030    2    1    2    0    0  0.00000000000E+00  0.00000000000E+00 -0.32346961796E+03  0.20561569828E+04  0.20305538516E+04 0.  0.
        3    1    3    3  502    0  0.37504519782E+03 -0.43437852170E+03  0.68634777274E+03  0.89466020135E+03  0.10100000352E+00 0. -1.
       -3    1    3    3    0  502 -0.37504519782E+03  0.43437852170E+03 -0.10098173907E+04  0.11614967814E+04  0.10100000352E+00 0.  1.
</event>
<event>
 5   0  0.8881384E-05  0.1993674E+04  0.7818609E-02  0.8609584E-01
        1   -1    0    0  501    0  0.00000000000E+00  0.00000000000E+00  0.15291886200E+04  0.15291886200E+04  0.50400001928E-02 0. -1.
       -1   -1    0    0    0  501  0.00000000000E+00  0.00000000000E+00 -0.64981150316E+03  0.64981150318E+03  0.50400001928E-02 0.  1.
    10030    2    1    2    0    0  0.00000000000E+00  0.00000000000E+00  0.87937711683E+03  0.21790001232E+04  0.19936743524E+04 0.  0.
        5    1    3    3  502    0  0.68720977443E+03 -0.19419909383E+03  0.11998176464E+04  0.13962646729E+04  0.46999998093E+01 0. -1.
       -5    1    3    3    0  502 -0.68720977443E+03  0.19419909383E+03 -0.32044052960E+03  0.78273545028E+03  0.46999998093E+01 0.  1.
</event>
<event>
 5   0  0.8958919E-05  0.1999670E+04  0.7818609E-02  0.8606775E-01
        1   -1    0    0  501    0  0.00000000000E+00  0.00000000000E+00  0.94400909585E+03  0.94400909586E+03  0.50400001928E-02 0. -1.
       -1   -1    0    0    0  501  0.00000000000E+00  0.00000000000E+00 -0.10589622245E+04  0.10589622246E+04  0.50400001928E-02 0.  1.
    10030    2    1    2    0    0  0.00000000000E+00  0.00000000000E+00 -0.11495312869E+03  0.20029713204E+04  0.19996699449E+04 0.  0.
        4    1    3    3  502    0 -0.60998991607E+03  0.22427564930E+03  0.70356798387E+03  0.95780832394E+03  0.12699999809E+01 0. -1.
       -4    1    3    3    0  502  0.60998991607E+03 -0.22427564930E+03 -0.81852111257E+03  0.10451629965E+04  0.12699999809E+01 0.  1.
</event>
<event>
 5   0  0.1893687E-04  0.1978370E+04  0.7818609E-02  0.8616801E-01
       -2   -1    0    0    0  501  0.00000000000E+00  0.00000000000E+00  0.13234379060E+04  0.13234379060E+04  0.25500000920E-02 0. -1.
        2   -1    0    0  501    0  0.00000000000E+00  0.00000000000E+00 -0.73935260302E+03  0.73935260302E+03  0.25500000920E-02 0.  1.
    10030    2    1    2    0    0  0.00000000000E+00  0.00000000000E+00  0.58408530302E+03  0.20627905091E+04  0.19783702998E+04 0.  0.
        4    1    3    3  502    0  0.95062288728E+03 -0.26704436281E+03  0.23045365191E+03  0.10139561451E+04  0.12699999809E+01 0.  1.
       -4    1    3    3    0  502 -0.95062288728E+03  0.26704436281E+03  0.35363165111E+03  0.10488343640E+04  0.12699999809E+01 0. -1.
</event>
<event>
 5   0  0.1834645E-04  0.2006154E+04  0.7818609E-02  0.8603749E-01
        2   -1    0    0  501    0  0.00000000000E+00  0.00000000000E+00  0.21987585870E+04  0.21987585870E+04  0.25500000920E-02 0.  1.
       -2   -1    0    0    0  501  0.00000000000E+00  0.00000000000E+00 -0.45760525085E+03  0.45760525086E+03  0.25500000920E-02 0. -1.
    10030    2    1    2    0    0  0.00000000000E+00  0.00000000000E+00  0.17411533362E+04  0.26563638379E+04  0.20061540068E+04 0.  0.
        1    1    3    3  502    0  0.92387315785E+03 -0.38160540386E+03  0.75980037427E+03  0.12555719433E+04  0.50400001928E-02 0. -1.
       -1    1    3    3    0  502 -0.92387315785E+03  0.38160540386E+03  0.98135296191E+03  0.14007918946E+04  0.50400001928E-02 0.  1.
</event>
<event>
 5   0  0.1807498E-04  0.2098359E+04  0.7818609E-02  0.8561966E-01
       -2   -1    0    0    0  501  0.00000000000E+00  0.00000000000E+00  0.88348215553E+03  0.88348215554E+03  0.25500000920E-02 0.  1.
        2   -1    0    0  501    0  0.00000000000E+00  0.00000000000E+00 -0.12459538503E+04  0.12459538503E+04  0.25500000920E-02 0. -1.
    10030    2    1    2    0    0  0.00000000000E+00  0.00000000000E+00 -0.36247169479E+03  0.21294360059E+04  0.20983593528E+04 0.  0.
        5    1    3    3  502    0 -0.24180234615E+03  0.63356597922E+03 -0.99364284651E+03  0.12030055781E+04  0.46999998093E+01 0. -1.
       -5    1    3    3    0  502  0.24180234615E+03 -0.63356597922E+03  0.63117115172E+03  0.92643042771E+03  0.46999998093E+01 0.  1.
</event>
<event>
 5   0  0.1782172E-04  0.1755543E+04  0.7818609E-02  0.8730305E-01
       -2   -1    0    0    0  501  0.00000000000E+00  0.00000000000E+00  0.64043858739E+03  0.64043858739E+03  0.25500000920E-02 0.  1.
        2   -1    0    0  501    0  0.00000000000E+00  0.00000000000E+00 -0.12030551865E+04  0.12030551865E+04  0.25500000920E-02 0. -1.
    10030    2    1    2    0    0  0.00000000000E+00  0.00000000000E+00 -0.56261659907E+03  0.18434937739E+04  0.17555431800E+04 0.  0.
        2    1    3    3  502    0 -0.87754061422E+03  0.18818163286E+02 -0.27378624237E+03  0.91945122731E+03  0.25500000920E-02 0.  1.
       -2    1    3    3    0  502  0.87754061422E+03 -0.18818163286E+02 -0.28883035670E+03  0.92404254655E+03  0.25500000920E-02 0. -1.
</event>
<event>
 5   0  0.8577422E-05  0.1774379E+04  0.7818609E-02  0.8720044E-01
        1   -1    0    0  501    0  0.00000000000E+00  0.00000000000E+00  0.26330264464E+04  0.26330264464E+04  0.50400001928E-02 0.  1.
       -1   -1    0    0    0  501  0.00000000000E+00  0.00000000000E+00 -0.29893546175E+03  0.29893546179E+03  0.50400001928E-02 0. -1.
    10030    2    1    2    0    0  0.00000000000E+00  0.00000000000E+00  0.23340909847E+04  0.29319619082E+04  0.17743787382E+04 0.  0.
        2    1    3    3  502    0 -0.53496347922E+03 -0.63371020931E+03  0.64626687808E+03  0.10513968952E+04  0.25500000920E-02 0. -1.
       -2    1    3    3    0  502  0.53496347922E+03  0.63371020931E+03  0.16878241066E+04  0.18805650130E+04  0.25500000920E-02 0.  1.
</event>
<event>
 5   0  0.8861350E-05  0.2022842E+04  0.7818609E-02  0.8596015E-01
       -1   -1    0    0    0  501  0.00000000000E+00  0.00000000000E+00  0.73187471273E+03  0.73187471275E+03  0.50400001928E-02 0.  1.
        1   -1    0    0  501    0  0.00000000000E+00  0.00000000000E+00 -0.13977429871E+04  0.13977429871E+04  0.50400001928E-02 0. -1.
    10030    2    1    2    0    0  0.00000000000E+00  0.00000000000E+00 -0.66586827441E+03  0.21296176999E+04  0.20228423045E+04 0.  0.
        1    1    3    3  502    0 -0.16181474525E+03  0.74412735403E+03  0.36783096823E+03  0.84570039140E+03  0.50400001928E-02 0.  1.
       -1    1    3    3    0  502  0.16181474525E+03 -0.74412735403E+03 -0.10336992426E+04  0.12839173085E+04  0.50400001928E-02 0. -1.
</event>
<event>
 5   0  0.1807498E-04  0.1996958E+04  0.7818609E-02  0.8608044E-01
        2   -1    0    0  501    0  0.00000000000E+00  0.00000000000E+00  0.18187178440E+04  0.18187178440E+04  0.25500000920E-02 0.  1.
       -2   -1    0    0    0  501  0.00000000000E+00  0.00000000000E+00 -0.54816629750E+03  0.54816629751E+03  0.25500000920E-02 0. -1.
    10030    2    1    2    0    0  0.00000000000E+00  0.00000000000E+00  0.12705515465E+04  0.23668841415E+04  0.19969575126E+04 0.  0.
        5    1    3    3  502    0 -0.37852434691E+03  0.62894849482E+03  0.14374694632E+04  0.16140624021E+04  0.46999998093E+01 0.  1.
       -5    1    3    3    0  502  0.37852434691E+03 -0.62894849482E+03 -0.16691791672E+03  0.75282173936E+03  0.46999998093E+01 0. -1.
</event>
<event>
 5   0  0.1834645E-04  0.1999992E+04  0.7818609E-02  0.8606624E-01
        2   -1    0    0  501    0  0.00000000000E+00  0.00000000000E+00  0.20011480065E+04  0.20011480065E+04  0.25500000920E-02 0.  1.
       -2   -1    0    0    0  501  0.00000000000E+00  0.00000000000E+00 -0.49970909738E+03  0.49970909739E+03  0.25500000920E-02 0. -1.
    10030    2    1    2    0    0  0.00000000000E+00  0.00000000000E+00  0.15014389091E+04  0.25008571039E+04  0.19999918641E+04 0.  0.
        1    1    3    3  502    0  0.89758582825E+03  0.21919360786E+03  0.12289767420E+04  0.15375597514E+04  0.50400001928E-02 0.  1.
       -1    1    3    3    0  502 -0.89758582825E+03 -0.21919360786E+03  0.27246216718E+03  0.96329735252E+03  0.50400001928E-02 0. -1.
</event>
<event>
 5   0  0.8881384E-05  0.1978373E+04  0.7818609E-02  0.8616799E-01
       -1   -1    0    0    0  501  0.00000000000E+00  0.00000000000E+00  0.18447979411E+04  0.18447979411E+04  0.50400001928E-02 0. -1.
        1   -1    0    0  501    0  0.00000000000E+00  0.00000000000E+00 -0.53040468470E+03  0.53040468472E+03  0.50400001928E-02 0.  1.
    10030    2    1    2    0    0  0.00000000000E+00  0.00000000000E+00  0.13143932564E+04  0.23752026258E+04  0.19783725335E+04 0.  0.
        5    1    3    3  502    0 -0.35017430371E+03 -0.52447219410E+03 -0.25775107015E+03  0.68128615833E+03  0.46999998093E+01 0.  1.
       -5    1    3    3    0  502  0.35017430371E+03  0.52447219410E+03  0.15721443265E+04  0.16939164675E+04  0.46999998093E+01 0. -1.
</event>
<event>
 5   0  0.8765057E-05  0.1915255E+04  0.7818609E-02  0.8647300E-01
        1   -1    0    0  501    0  0.00000000000E+00  0.00000000000E+00  0.12018700291E+04  0.12018700291E+04  0.50400001928E-02 0. -1.
       -1   -1    0    0    0  501  0.00000000000E+00  0.00000000000E+00 -0.76301948865E+03  0.76301948867E+03  0.50400001928E-02 0.  1.
    10030    2    1    2    0    0  0.00000000000E+00  0.00000000000E+00  0.43885054044E+03  0.19648895178E+04  0.19152548186E+04 0.  0.
        3    1    3    3  502    0 -0.83633463114E+03  0.20601106458E+03  0.64878537659E+03  0.10783406925E+04  0.10100000352E+00 0.  1.
       -3    1    3    3    0  502  0.83633463114E+03 -0.20601106458E+03 -0.20993483615E+03  0.88654882528E+03  0.10100000352E+00 0. -1.
</event>
<event>
 5   0  0.1807498E-04  0.1993767E+04  0.7818609E-02  0.8609540E-01
       -2   -1    0    0    0  501  0.00000000000E+00  0.00000000000E+00  0.72712885774E+03  0.72712885774E+03  0.25500000920E-02 0.  1.
        2   -1    0    0  501    0  0.00000000000E+00  0.00000000000E+00 -0.13667131400E+04  0.13667131400E+04  0.25500000920E-02 0. -1.
    10030    2    1    2    0    0  0.00000000000E+00  0.00000000000E+00 -0.63958428227E+03  0.20938419978E+04  0.19937668513E+04 0.  0.
        5    1    3    3  502    0 -0.78680636392E+03 -0.56795924179E+03 -0.55953218018E+03  0.11201519117E+04  0.46999998093E+01 0. -1.
       -5    1    3    3    0  502  0.78680636392E+03  0.56795924179E+03 -0.80052102089E+02  0.97369008605E+03  0.46999998093E+01 0.  1.
</event>
<event>
 5   0  0.8765057E-05  0.1714994E+04  0.7818609E-02  0.8752858E-01
        1   -1    0    0  501    0  0.00000000000E+00  0.00000000000E+00  0.75288448087E+03  0.75288448088E+03  0.50400001928E-02 0. -1.
       -1   -1    0    0    0  501  0.00000000000E+00  0.00000000000E+00 -0.97664563973E+03  0.97664563975E+03  0.50400001928E-02 0.  1.
    10030    2    1    2    0    0  0.00000000000E+00  0.00000000000E+00 -0.22376115887E+03  0.17295301206E+04  0.17149942804E+04 0.  0.
        3    1    3    3  502    0 -0.19830381604E+03 -0.38278183713E+03  0.63565439682E+03  0.76805133987E+03  0.10100000352E+00 0. -1.
       -3    1    3    3    0  502  0.19830381604E+03  0.38278183713E+03 -0.85941555568E+03  0.96147878075E+03  0.10100000352E+00 0.  1.
</event>
<event>
 5   0  0.1807498E-04  0.2004248E+04  0.7818609E-02  0.8604637E-01
        2   -1    0    0  501    0  0.00000000000E+00  0.00000000000E+00  0.12745577806E+04  0.12745577806E+04  0.25500000920E-02 0. -1.
       -2   -1    0    0    0  501  0.00000000000E+00  0.00000000000E+00 -0.78792192830E+03  0.78792192831E+03  0.25500000920E-02 0.  1.
    10030    2    1    2    0    0  0.00000000000E+00  0.00000000000E+00  0.48663585226E+03  0.20624797089E+04  0.20042475139E+04 0.  0.
        5    1    3    3  502    0  0.40678163584E+03 -0.65077608509E+03  0.90643879006E+03  0.11877012176E+04  0.46999998093E+01 0. -1.
       -5    1    3    3    0  502 -0.40678163584E+03  0.65077608509E+03 -0.41980293780E+03  0.87477849126E+03  0.46999998093E+01 0.  1.
</event>
<event>
 5   0  0.8577422E-05  0.2018103E+04  0.7818609E-02  0.8598204E-01
       -1   -1    0    0    0  501  0.00000000000E+00  0.00000000000E+00  0.93347978827E+03  0.93347978829E+03  0.50400001928E-02 0. -1.
        1   -1    0    0  501    0  0.00000000000E+00  0.00000000000E+00 -0.10907409975E+04  0.10907409975E+04  0.50400001928E-02 0.  1.
    10030    2    1    2    0    0  0.00000000000E+00  0.00000000000E+00 -0.15726120925E+03  0.20242207858E+04  0.20181027481E+04 0.  0.
        2    1    3    3  502    0 -0.26750242853E+02 -0.61276903421E+03 -0.88229817043E+03  0.10745471262E+04  0.25500000920E-02 0.  1.
       -2    1    3    3    0  502  0.26750242853E+02  0.61276903421E+03  0.72503696118E+03  0.94967365967E+03  0.25500000920E-02 0. -1.
</event>
<event>
 5   0  0.1834645E-04  0.1986054E+04  0.7818609E-02  0.8613169E-01
        2   -1    0    0  501    0  0.00000000000E+00  0.00000000000E+00  0.88765687730E+03  0.88765687730E+03  0.25500000920E-02 0. -1.
       -2   -1    0    0    0  501  0.00000000000E+00  0.00000000000E+00 -0.11109051651E+04  0.11109051652E+04  0.25500000920E-02 0.  1.
    10030    2    1    2    0    0  0.00000000000E+00  0.00000000000E+00 -0.22324828785E+03  0.19985620425E+04  0.19860539871E+04 0.  0.
        1    1    3    3  502    0 -0.17959767308E+02  0.28408982536E+03 -0.10689689741E+04  0.11062207057E+04  0.50400001928E-02 0.  1.
       -1    1    3    3    0  502  0.17959767308E+02 -0.28408982536E+03  0.84572068624E+03  0.89234133676E+03  0.50400001928E-02 0. -1.
</event>
<event>
 5   0  0.8577422E-05  0.1996332E+04  0.7818609E-02  0.8608337E-01
        1   -1    0    0  501    0  0.00000000000E+00  0.00000000000E+00  0.11387875067E+04  0.11387875067E+04  0.50400001928E-02 0.  1.
       -1   -1    0    0    0  501  0.00000000000E+00  0.00000000000E+00 -0.87490925422E+03  0.87490925424E+03  0.50400001928E-02 0. -1.
    10030    2    1    2    0    0  0.00000000000E+00  0.00000000000E+00  0.26387825245E+03  0.20136967609E+04  0.19963323653E+04 0.  0.
        2    1    3    3  502    0  0.96119466594E+02  0.13627025603E+03  0.11246370950E+04  0.11369332126E+04  0.25500000920E-02 0.  1.
       -2    1    3    3    0  502 -0.96119466594E+02 -0.13627025603E+03 -0.86075884256E+03  0.87676354828E+03  0.25500000920E-02 0. -1.
</event>
<event>
 5   0  0.1893687E-04  0.1975500E+04  0.7818609E-02  0.8618161E-01
        2   -1    0    0  501    0  0.00000000000E+00  0.00000000000E+00  0.15185859137E+04  0.15185859137E+04  0.25500000920E-02 0.  1.
       -2   -1    0    0    0  501  0.00000000000E+00  0.00000000000E+00 -0.64247300943E+03  0.64247300943E+03  0.25500000920E-02 0. -1.
    10030    2    1    2    0    0  0.00000000000E+00  0.00000000000E+00  0.87611290428E+03  0.21610589231E+04  0.19755004045E+04 0.  0.
        4    1    3    3  502    0  0.33266923634E+03  0.49705021929E+03 -0.42185949077E+03  0.73191173249E+03  0.12699999809E+01 0. -1.
       -4    1    3    3    0  502 -0.33266923634E+03 -0.49705021929E+03  0.12979723951E+04  0.14291471906E+04  0.12699999809E+01 0.  1.
</event>
<event>
 5   0  0.8958919E-05  0.2004943E+04  0.7818609E-02  0.8604313E-01
       -1   -1    0    0    0  501  0.00000000000E+00  0.00000000000E+00  0.54823721368E+03  0.54823721371E+03  0.50400001928E-02 0.  1.
        1   -1    0    0  501    0  0.00000000000E+00  0.00000000000E+00 -0.18330543638E+04  0.18330543638E+04  0.50400001928E-02 0. -1.
    10030    2    1    2    0    0  0.00000000000E+00  0.00000000000E+00 -0.12848171501E+04  0.23812915775E+04  0.20049425099E+04 0.  0.
        4    1    3    3  502    0  0.37402570560E+03 -0.89215154946E+03 -0.33015723431E+03  0.10221717214E+04  0.12699999809E+01 0. -1.
       -4    1    3    3    0  502 -0.37402570560E+03  0.89215154946E+03 -0.95465991579E+03  0.13591198561E+04  0.12699999809E+01 0.  1.
</event>
<event>
 5   0  0.8577422E-05  0.2005922E+04  0.7818609E-02  0.8603857E-01
       -1   -1    0    0    0  501  0.00000000000E+00  0.00000000000E+00  0.14241712147E+04  0.14241712147E+04  0.50400001928E-02 0. -1.
        1   -1    0    0  501    0  0.00000000000E+00  0.00000000000E+00 -0.70632709102E+03  0.70632709104E+03  0.50400001928E-02 0.  1.
    10030    2    1    2    0    0  0.00000000000E+00  0.00000000000E+00  0.71784412366E+03  0.21304983057E+04  0.20059219439E+04 0.  0.
        2    1    3    3  502    0 -0.88597543427E+03 -0.16278964207E+03 -0.10946204552E+03  0.90743312542E+03  0.25500000920E-02 0.  1.
       -2    1    3    3    0  502  0.88597543427E+03  0.16278964207E+03  0.82730616918E+03  0.12230651803E+04  0.25500000920E-02 0. -1.
</event>
<event>
 5   0  0.8881384E-05  0.2022834E+04  0.7818609E-02  0.8596019E-01
       -1   -1    0    0    0  501  0.00000000000E+00  0.00000000000E+00  0.11683957529E+04  0.11683957529E+04  0.50400001928E-02 0.  1.
        1   -1    0    0  501    0  0.00000000000E+00  0.00000000000E+00 -0.87552858170E+03  0.87552858172E+03  0.50400001928E-02 0. -1.
    10030    2    1    2    0    0  0.00000000000E+00  0.00000000000E+00  0.29286717117E+03  0.20439243346E+04  0.20228335338E+04 0.  0.
        5    1    3    3  502    0  0.20024186188E+03  0.71740083938E+03  0.83780524159E+03  0.11210265298E+04  0.46999998093E+01 0.  1.
       -5    1    3    3    0  502 -0.20024186188E+03 -0.71740083938E+03 -0.54493807042E+03  0.92289780484E+03  0.46999998093E+01 0. -1.
</event>
<event>
 5   0  0.8577422E-05  0.1945897E+04  0.7818609E-02  0.8632342E-01
       -1   -1    0    0    0  501  0.00000000000E+00  0.00000000000E+00  0.95638440468E+03  0.95638440469E+03  0.50400001928E-02 0. -1.
        1   -1    0    0  501    0  0.00000000000E+00  0.00000000000E+00 -0.98979971650E+03  0.98979971652E+03  0.50400001928E-02 0.  1.
    10030    2    1    2    0    0  0.00000000000E+00  0.00000000000E+00 -0.33415311822E+02  0.19461841212E+04  0.19458972354E+04 0.  0.
        2    1    3    3  502    0  0.35461206763E+03  0.24640776111E+03 -0.88870918640E+03  0.98806402689E+03  0.25500000920E-02 0.  1.
       -2    1    3    3    0  502 -0.35461206763E+03 -0.24640776111E+03  0.85529387457E+03  0.95812009432E+03  0.25500000920E-02 0. -1.
</event>
<event>
 5   0  0.8765057E-05  0.1975425E+04  0.7818609E-02  0.8618197E-01
       -1   -1    0    0    0  501  0.00000000000E+00  0.00000000000E+00  0.64154810427E+03  0.64154810429E+03  0.50400001928E-02 0.  1.
        1   -1    0    0  501    0  0.00000000000E+00  0.00000000000E+00 -0.15206594935E+04  0.15206594935E+04  0.50400001928E-02 0. -1.
    10030    2    1    2    0    0  0.00000000000E+00  0.00000000000E+00 -0.87911138922E+03  0.21622075978E+04  0.19754252356E+04 0.  0.
        3    1    3    3  502    0 -0.38196004960E+03  0.90669009545E+03 -0.53495021976E+03  0.11198893501E+04  0.10100000352E+00 0.  1.
       -3    1    3    3    0  502  0.38196004960E+03 -0.90669009545E+03 -0.34416116945E+03  0.10423182477E+04  0.10100000352E+00 0. -1.
</event>
<event>
 5   0  0.8881384E-05  0.1992574E+04  0.7818609E-02  0.8610100E-01
       -1   -1    0    0    0  501  0.00000000000E+00  0.00000000000E+00  0.89804947102E+03  0.89804947103E+03  0.50400001928E-02 0.  1.
        1   -1    0    0  501    0  0.00000000000E+00  0.00000000000E+00 -0.11052710564E+04  0.11052710564E+04  0.50400001928E-02 0. -1.
    10030    2    1    2    0    0  0.00000000000E+00  0.00000000000E+00 -0.20722158541E+03  0.20033205275E+04  0.19925743023E+04 0.  0.
        5    1    3    3  502    0 -0.80150922000E+03 -0.58974987541E+03 -0.15228731741E+03  0.10066953175E+04  0.46999998093E+01 0.  1.
       -5    1    3    3    0  502  0.80150922000E+03  0.58974987541E+03 -0.54934268002E+02  0.99662520995E+03  0.46999998093E+01 0. -1.
</event>
<event>
 5   0  0.8881384E-05  0.1989720E+04  0.7818609E-02  0.8611442E-01
        1   -1    0    0  501    0  0.00000000000E+00  0.00000000000E+00  0.20284672419E+04  0.20284672419E+04  0.50400001928E-02 0.  1.
       -1   -1    0    0    0  501  0.00000000000E+00  0.00000000000E+00 -0.48792827101E+03  0.48792827103E+03  0.50400001928E-02 0. -1.
    10030    2    1    2    0    0  0.00000000000E+00  0.00000000000E+00  0.15405389709E+04  0.25163955129E+04  0.19897200951E+04 0.  0.
        5    1    3    3  502    0 -0.83355154418E+02  0.56172487463E+03 -0.26279740683E+03  0.62575353261E+03  0.46999998093E+01 0. -1.
       -5    1    3    3    0  502  0.83355154418E+02 -0.56172487463E+03  0.18033363777E+04  0.18906419803E+04  0.46999998093E+01 0.  1.
</event>
<event>
 5   0  0.8881384E-05  0.1982414E+04  0.7818609E-02  0.8614887E-01
       -1   -1    0    0    0  501  0.00000000000E+00  0.00000000000E+00  0.70039042486E+03  0.70039042487E+03  0.50400001928E-02 0.  1.
        1   -1    0    0  501    0  0.00000000000E+00  0.00000000000E+00 -0.14027769308E+04  0.14027769308E+04  0.50400001928E-02 0. -1.
    10030    2    1    2    0    0  0.00000000000E+00  0.00000000000E+00 -0.70238650597E+03  0.21031673557E+04  0.19824142156E+04 0.  0.
        5    1    3    3  502    0 -0.99023610955E+02  0.24720907105E+03 -0.13641012962E+04  0.13898605817E+04  0.46999998093E+01 0. -1.
       -5    1    3    3    0  502  0.99023610955E+02 -0.24720907105E+03  0.66171479018E+03  0.71330677403E+03  0.46999998093E+01 0.  1.
</event>
<event>
 5   0  0.1893687E-04  0.2009282E+04  0.7818609E-02  0.8602293E-01
        2   -1    0    0  501    0  0.00000000000E+00  0.00000000000E+00  0.15246459328E+04  0.15246459328E+04  0.25500000920E-02 0.  1.
       -2   -1    0    0    0  501  0.00000000000E+00  0.00000000000E+00 -0.66199210599E+03  0.66199210599E+03  0.25500000920E-02 0. -1.
    10030    2    1    2    0    0  0.00000000000E+00  0.00000000000E+00  0.86265382686E+03  0.21866380388E+04  0.20092820329E+04 0.  0.
        4    1    3    3  502    0 -0.77471940816E+03  0.11719755235E+03  0.11156188801E+04  0.13632800616E+04  0.12699999809E+01 0.  1.
       -4    1    3    3    0  502  0.77471940816E+03 -0.11719755235E+03 -0.25296505328E+03  0.82335797727E+03  0.12699999809E+01 0. -1.
</event>
<event>
 5   0  0.8958919E-05  0.1740080E+04  0.7818609E-02  0.8738830E-01
        1   -1    0    0  501    0  0.00000000000E+00  0.00000000000E+00  0.23002062237E+04  0.23002062237E+04  0.50400001928E-02 0.  1.
       -1   -1    0    0    0  501  0.00000000000E+00  0.00000000000E+00 -0.32908781314E+03  0.32908781318E+03  0.50400001928E-02 0. -1.
    10030    2    1    2    0    0  0.00000000000E+00  0.00000000000E+00  0.19711184105E+04  0.26292940369E+04  0.17400802694E+04 0.  0.
        4    1    3    3  502    0 -0.70818870001E+03 -0.27645519580E+03  0.34625445805E+03  0.83537564767E+03  0.12699999809E+01 0. -1.
       -4    1    3    3    0  502  0.70818870001E+03  0.27645519580E+03  0.16248639525E+04  0.17939183892E+04  0.12699999809E+01 0.  1.
</event>
<event>
 5   0  0.1812865E-04  0.1970889E+04  0.7818609E-02  0.8620353E-01
        2   -1    0    0  501    0  0.00000000000E+00  0.00000000000E+00  0.24399231200E+04  0.24399231200E+04  0.25500000920E-02 0.  1.
       -2   -1    0    0    0  501  0.00000000000E+00  0.00000000000E+00 -0.39800472491E+03  0.39800472492E+03  0.25500000920E-02 0. -1.
    10030    2    1    2    0    0  0.00000000000E+00  0.00000000000E+00  0.20419183951E+04  0.28379278449E+04  0.19708890686E+04 0.  0.
        3    1    3    3  502    0 -0.31265634406E+03 -0.58846257497E+02  0.23639401466E+04  0.23852525859E+04  0.10100000352E+00 0.  1.
       -3    1    3    3    0  502  0.31265634406E+03  0.58846257497E+02 -0.32202175151E+03  0.45267525904E+03  0.10100000352E+00 0. -1.
</event>
<event>
 5   0  0.1834645E-04  0.1999295E+04  0.7818609E-02  0.8606950E-01
        2   -1    0    0  501    0  0.00000000000E+00  0.00000000000E+00  0.11526666870E+04  0.11526666870E+04  0.25500000920E-02 0. -1.
       -2   -1    0    0    0  501  0.00000000000E+00  0.00000000000E+00 -0.86694200096E+03  0.86694200096E+03  0.25500000920E-02 0.  1.
    10030    2    1    2    0    0  0.00000000000E+00  0.00000000000E+00  0.28572468606E+03  0.20196086880E+04  0.19992950398E+04 0.  0.
        1    1    3    3  502    0  0.33065425158E+03  0.19201522212E+03 -0.79015249913E+03  0.87780581653E+03  0.50400001928E-02 0.  1.
       -1    1    3    3    0  502 -0.33065425158E+03 -0.19201522212E+03  0.10758771852E+04  0.11418028715E+04  0.50400001928E-02 0. -1.
</event>
<event>
 5   0  0.8958919E-05  0.2109825E+04  0.7818609E-02  0.8556927E-01
        1   -1    0    0  501    0  0.00000000000E+00  0.00000000000E+00  0.18110525129E+04  0.18110525129E+04  0.50400001928E-02 0. -1.
       -1   -1    0    0    0  501  0.00000000000E+00  0.00000000000E+00 -0.61447191331E+03  0.61447191333E+03  0.50400001928E-02 0.  1.
    10030    2    1    2    0    0  0.00000000000E+00  0.00000000000E+00  0.11965805996E+04  0.24255244262E+04  0.21098254930E+04 0.  0.
        4    1    3    3  502    0  0.10470922995E+04  0.49389292235E+02  0.73430552375E+03  0.12798624148E+04  0.12699999809E+01 0. -1.
       -4    1    3    3    0  502 -0.10470922995E+04 -0.49389292235E+02  0.46227507583E+03  0.11456620114E+04  0.12699999809E+01 0.  1.
</event>
<event>
 5   0  0.1834645E-04  0.2023765E+04  0.7818609E-02  0.8595590E-01
        2   -1    0    0  501    0  0.00000000000E+00  0.00000000000E+00  0.91979866696E+03  0.91979866696E+03  0.25500000920E-02 0.  1.
       -2   -1    0    0    0  501  0.00000000000E+00  0.00000000000E+00 -0.11131846414E+04  0.11131846414E+04  0.25500000920E-02 0. -1.
    10030    2    1    2    0    0  0.00000000000E+00  0.00000000000E+00 -0.19338597440E+03  0.20329833083E+04  0.20237645606E+04 0.  0.
        1    1    3    3  502    0  0.10113663689E+04 -0.32197411476E+02 -0.94008041475E+02  0.10162362508E+04  0.50400001928E-02 0.  1.
       -1    1    3    3    0  502 -0.10113663689E+04  0.32197411476E+02 -0.99377932928E+02  0.10167470576E+04  0.50400001928E-02 0. -1.
</event>
<event>
 5   0  0.1812865E-04  0.1954421E+04  0.7818609E-02  0.8628232E-01
       -2   -1    0    0    0  501  0.00000000000E+00  0.00000000000E+00  0.11350629131E+04  0.11350629131E+04  0.25500000920E-02 0.  1.
        2   -1    0    0  501    0  0.00000000000E+00  0.00000000000E+00 -0.84131091853E+03  0.84131091853E+03  0.25500000920E-02 0. -1.
    10030    2    1    2    0    0  0.00000000000E+00  0.00000000000E+00  0.29375199460E+03  0.19763738317E+04  0.19544214715E+04 0.  0.
        3    1    3    3  502    0 -0.95278222859E+03 -0.93591925238E+02  0.34500367646E+03  0.10176349889E+04  0.10100000352E+00 0. -1.
       -3    1    3    3    0  502  0.95278222859E+03  0.93591925238E+02 -0.51251681862E+02  0.95873884279E+03  0.10100000352E+00 0.  1.
</event>
<event>
 5   0  0.8577422E-05  0.2007853E+04  0.7818609E-02  0.8602958E-01
       -1   -1    0    0    0  501  0.00000000000E+00  0.00000000000E+00  0.70125350767E+03  0.70125350769E+03  0.50400001928E-02 0.  1.
        1   -1    0    0  501    0  0.00000000000E+00  0.00000000000E+00 -0.14372381847E+04  0.14372381847E+04  0.50400001928E-02 0. -1.
    10030    2    1    2    0    0  0.00000000000E+00  0.00000000000E+00 -0.73598467700E+03  0.21384916924E+04  0.20078529014E+04 0.  0.
        2    1    3    3  502    0  0.58770318682E+03 -0.11446387634E+03  0.49027427994E+03  0.77386425448E+03  0.25500000920E-02 0.  1.
       -2    1    3    3    0  502 -0.58770318682E+03  0.11446387634E+03 -0.12262589569E+04  0.13646274379E+04  0.25500000920E-02 0. -1.
</event>
<event>
 5   0  0.1812865E-04  0.1995768E+04  0.7818609E-02  0.8608602E-01
       -2   -1    0    0    0  501  0.00000000000E+00  0.00000000000E+00  0.71563065603E+03  0.71563065604E+03  0.25500000920E-02 0.  1.
        2   -1    0    0  501    0  0.00000000000E+00  0.00000000000E+00 -0.13914609303E+04  0.13914609303E+04  0.25500000920E-02 0. -1.
    10030    2    1    2    0    0  0.00000000000E+00  0.00000000000E+00 -0.67583027431E+03  0.21070915864E+04  0.19957676202E+04 0.  0.
        3    1    3    3  502    0 -0.74678974866E+03  0.56984745619E+03 -0.69337141431E+03  0.11675551295E+04  0.10100000352E+00 0. -1.
       -3    1    3    3    0  502  0.74678974866E+03 -0.56984745619E+03  0.17541140000E+02  0.93953645689E+03  0.10100000352E+00 0.  1.
</event>
<event>
 5   0  0.8958919E-05  0.1988053E+04  0.7818609E-02  0.8612227E-01
        1   -1    0    0  501    0  0.00000000000E+00  0.00000000000E+00  0.16216791984E+04  0.16216791984E+04  0.50400001928E-02 0. -1.
       -1   -1    0    0    0  501  0.00000000000E+00  0.00000000000E+00 -0.60929952804E+03  0.60929952806E+03  0.50400001928E-02 0.  1.
    10030    2    1    2    0    0  0.00000000000E+00  0.00000000000E+00  0.10123796703E+04  0.22309787264E+04  0.19880526857E+04 0.  0.
        4    1    3    3  502    0  0.71527027453E+03 -0.68924227173E+03  0.46389815681E+03  0.10962981290E+04  0.12699999809E+01 0.  1.
       -4    1    3    3    0  502 -0.71527027453E+03  0.68924227173E+03  0.54848151353E+03  0.11346805975E+04  0.12699999809E+01 0. -1.
</event>
<event>
 5   0  0.8577422E-05  0.2011348E+04  0.7818609E-02  0.8601334E-01
        1   -1    0    0  501    0  0.00000000000E+00  0.00000000000E+00  0.10573463434E+04  0.10573463434E+04  0.50400001928E-02 0.  1.
       -1   -1    0    0    0  501  0.00000000000E+00  0.00000000000E+00 -0.95652657626E+03  0.95652657627E+03  0.50400001928E-02 0. -1.
    10030    2    1    2    0    0  0.00000000000E+00  0.00000000000E+00  0.10081976716E+03  0.20138729197E+04  0.20113476853E+04 0.  0.
        2    1    3    3  502    0  0.92293161838E+03  0.39525261167E+03  0.10838316949E+03  0.10098387548E+04  0.25500000920E-02 0. -1.
       -2    1    3    3    0  502 -0.92293161838E+03 -0.39525261167E+03 -0.75634023379E+01  0.10040341649E+04  0.25500000920E-02 0.  1.
</event>
<event>
 5   0  0.8861350E-05  0.1993973E+04  0.7818609E-02  0.8609444E-01
        1   -1    0    0  501    0  0.00000000000E+00  0.00000000000E+00  0.13219756784E+04  0.13219756785E+04  0.50400001928E-02 0.  1.
       -1   -1    0    0    0  501  0.00000000000E+00  0.00000000000E+00 -0.75189160660E+03  0.75189160662E+03  0.50400001928E-02 0. -1.
    10030    2    1    2    0    0  0.00000000000E+00  0.00000000000E+00  0.57008407184E+03  0.20738672851E+04  0.19939733366E+04 0.  0.
        1    1    3    3  502    0 -0.69491440451E+03  0.37525701717E+03  0.91791153707E+03  0.12109027411E+04  0.50400001928E-02 0.  1.
       -1    1    3    3    0  502  0.69491440451E+03 -0.37525701717E+03 -0.34782746523E+03  0.86296454395E+03  0.50400001928E-02 0. -1.
</event>
<event>
 5   0  0.1834645E-04  0.1929105E+04  0.7818609E-02  0.8640503E-01
       -2   -1    0    0    0  501  0.00000000000E+00  0.00000000000E+00  0.90838779306E+03  0.90838779307E+03  0.25500000920E-02 0.  1.
        2   -1    0    0  501    0  0.00000000000E+00  0.00000000000E+00 -0.10241900461E+04  0.10241900461E+04  0.25500000920E-02 0. -1.
    10030    2    1    2    0    0  0.00000000000E+00  0.00000000000E+00 -0.11580225299E+03  0.19325778391E+04  0.19291052181E+04 0.  0.
        1    1    3    3  502    0 -0.70326708792E+01 -0.38321704078E+02 -0.10234014085E+04  0.10241427900E+04  0.50400001928E-02 0. -1.
       -1    1    3    3    0  502  0.70326708792E+01  0.38321704078E+02  0.90759915546E+03  0.90843504913E+03  0.50400001928E-02 0.  1.
</event>
<event>
 5   0  0.8861350E-05  0.2004685E+04  0.7818609E-02  0.8604433E-01
        1   -1    0    0  501    0  0.00000000000E+00  0.00000000000E+00  0.12025053124E+04  0.12025053124E+04  0.50400001928E-02 0. -1.
       -1   -1    0    0    0  501  0.00000000000E+00  0.00000000000E+00 -0.83549807637E+03  0.83549807638E+03  0.50400001928E-02 0.  1.
    10030    2    1    2    0    0  0.00000000000E+00  0.00000000000E+00  0.36700723600E+03  0.20380033888E+04  0.20046853871E+04 0.  0.
        1    1    3    3  502    0  0.49714794310E+03  0.60719307032E+03 -0.45043979800E+03  0.90484004864E+03  0.50400001928E-02 0.  1.
       -1    1    3    3    0  502 -0.49714794310E+03 -0.60719307032E+03  0.81744703400E+03  0.11331633401E+04  0.50400001928E-02 0. -1.
</event>
<event>
 5   0  0.8958919E-05  0.1999355E+04  0.7818609E-02  0.8606922E-01
        1   -1    0    0  501    0  0.00000000000E+00  0.00000000000E+00  0.68250557301E+03  0.68250557303E+03  0.50400001928E-02 0.  1.
       -1   -1    0    0    0  501  0.00000000000E+00  0.00000000000E+00 -0.14642444585E+04  0.14642444585E+04  0.50400001928E-02 0. -1.
    10030    2    1    2    0    0  0.00000000000E+00  0.00000000000E+00 -0.78173888548E+03  0.21467500315E+04  0.19993548992E+04 0.  0.
        4    1    3    3  502    0  0.41046217428E+03 -0.60916663667E+03  0.33719771870E+03  0.80824940590E+03  0.12699999809E+01 0.  1.
       -4    1    3    3    0  502 -0.41046217428E+03  0.60916663667E+03 -0.11189366042E+04  0.13385006256E+04  0.12699999809E+01 0. -1.
</event>
<event>
 5   0  0.1782172E-04  0.1961185E+04  0.7818609E-02  0.8624986E-01
       -2   -1    0    0    0  501  0.00000000000E+00  0.00000000000E+00  0.94788681824E+03  0.94788681825E+03  0.25500000920E-02 0.  1.
        2   -1    0    0  501    0  0.00000000000E+00  0.00000000000E+00 -0.10144263443E+04  0.10144263443E+04  0.25500000920E-02 0. -1.
    10030    2    1    2    0    0  0.00000000000E+00  0.00000000000E+00 -0.66539526070E+02  0.19623131626E+04  0.19611847030E+04 0.  0.
        2    1    3    3  502    0  0.40587157303E+02  0.48446518286E+03  0.81881141472E+03  0.95226359986E+03  0.25500000920E-02 0.  1.
       -2    1    3    3    0  502 -0.40587157303E+02 -0.48446518286E+03 -0.88535094079E+03  0.10100495627E+04  0.25500000920E-02 0. -1.
</event>
<event>
 5   0  0.1782172E-04  0.2017246E+04  0.7818609E-02  0.8598600E-01
       -2   -1    0    0    0  501  0.00000000000E+00  0.00000000000E+00  0.64520501271E+03  0.64520501271E+03  0.25500000920E-02 0. -1.
        2   -1    0    0  501    0  0.00000000000E+00  0.00000000000E+00 -0.15767399128E+04  0.15767399128E+04  0.25500000920E-02 0.  1.
    10030    2    1    2    0    0  0.00000000000E+00  0.00000000000E+00 -0.93153490014E+03  0.22219449256E+04  0.20172461382E+04 0.  0.
        2    1    3    3  502    0  0.32936603220E+03  0.94398168044E+03 -0.61246258014E+03  0.11724733721E+04  0.25500000920E-02 0. -1.
       -2    1    3    3    0  502 -0.32936603220E+03 -0.94398168044E+03 -0.31907232000E+03  0.10494715535E+04  0.25500000920E-02 0.  1.
</event>
<event>
 5   0  0.1807498E-04  0.1856152E+04  0.7818609E-02  0.8676996E-01
        2   -1    0    0  501    0  0.00000000000E+00  0.00000000000E+00  0.10867217420E+04  0.10867217420E+04  0.25500000920E-02 0. -1.
       -2   -1    0    0    0  501  0.00000000000E+00  0.00000000000E+00 -0.79258984481E+03  0.79258984481E+03  0.25500000920E-02 0.  1.
    10030    2    1    2    0    0  0.00000000000E+00  0.00000000000E+00  0.29413189715E+03  0.18793115868E+04  0.18561515206E+04 0.  0.
        5    1    3    3  502    0  0.43120565103E+03 -0.73416841771E+03 -0.22681244799E+03  0.88113991829E+03  0.46999998093E+01 0. -1.
       -5    1    3    3    0  502 -0.43120565103E+03  0.73416841771E+03  0.52094434514E+03  0.99817166849E+03  0.46999998093E+01 0.  1.
</event>
<event>
 5   0  0.1834645E-04  0.2016141E+04  0.7818609E-02  0.8599111E-01
       -2   -1    0    0    0  501  0.00000000000E+00  0.00000000000E+00  0.84768184736E+03  0.84768184736E+03  0.25500000920E-02 0. -1.
        2   -1    0    0  501    0  0.00000000000E+00  0.00000000000E+00 -0.11988054996E+04  0.11988054996E+04  0.25500000920E-02 0.  1.
    10030    2    1    2    0    0  0.00000000000E+00  0.00000000000E+00 -0.35112365224E+03  0.20464873470E+04  0.20161405313E+04 0.  0.
        1    1    3    3  502    0  0.94051140472E+03 -0.21934344484E+03  0.11780822223E+03  0.97290905353E+03  0.50400001928E-02 0. -1.
       -1    1    3    3    0  502 -0.94051140472E+03  0.21934344484E+03 -0.46893187448E+03  0.10735782934E+04  0.50400001928E-02 0.  1.
</event>
<event>
 5   0  0.8765057E-05  0.1860970E+04  0.7818609E-02  0.8674532E-01
       -1   -1    0    0    0  501  0.00000000000E+00  0.00000000000E+00  0.52200672624E+03  0.52200672626E+03  0.50400001928E-02 0. -1.
        1   -1    0    0  501    0  0.00000000000E+00  0.00000000000E+00 -0.16586039128E+04  0.16586039128E+04  0.50400001928E-02 0.  1.
    10030    2    1    2    0    0  0.00000000000E+00  0.00000000000E+00 -0.11365971865E+04  0.21806106390E+04  0.18609700682E+04 0.  0.
        3    1    3    3  502    0  0.70362334545E+03 -0.41278704112E+03 -0.10927492309E+04  0.13636641249E+04  0.10100000352E+00 0.  1.
       -3    1    3    3    0  502 -0.70362334545E+03  0.41278704112E+03 -0.43847955600E+02  0.81694651415E+03  0.10100000352E+00 0. -1.
</event>
<event>
 5   0  0.1893687E-04  0.2046777E+04  0.7818609E-02  0.8585058E-01
       -2   -1    0    0    0  501  0.00000000000E+00  0.00000000000E+00  0.47058936197E+03  0.47058936198E+03  0.25500000920E-02 0. -1.
        2   -1    0    0  501    0  0.00000000000E+00  0.00000000000E+00 -0.22255574641E+04  0.22255574641E+04  0.25500000920E-02 0.  1.
    10030    2    1    2    0    0  0.00000000000E+00  0.00000000000E+00 -0.17549681022E+04  0.26961468261E+04  0.20467766533E+04 0.  0.
        4    1    3    3  502    0 -0.78748333537E+03 -0.30048407752E+03 -0.16420667616E+04  0.18457533819E+04  0.12699999809E+01 0.  1.
       -4    1    3    3    0  502  0.78748333537E+03  0.30048407752E+03 -0.11290134053E+03  0.85039344420E+03  0.12699999809E+01 0. -1.
</event>
<event>
 5   0  0.1807498E-04  0.2027577E+04  0.7818609E-02  0.8593835E-01
       -2   -1    0    0    0  501  0.00000000000E+00  0.00000000000E+00  0.90624651694E+03  0.90624651694E+03  0.25500000920E-02 0.  1.
        2   -1    0    0  501    0  0.00000000000E+00  0.00000000000E+00 -0.11340921327E+04  0.11340921327E+04  0.25500000920E-02 0. -1.
    10030    2    1    2    0    0  0.00000000000E+00  0.00000000000E+00 -0.22784561574E+03  0.20403386496E+04  0.20275769235E+04 0.  0.
        5    1    3    3  502    0  0.34094034399E+03  0.75920607689E+03  0.46860828281E+03  0.95511779277E+03  0.46999998093E+01 0.  1.
       -5    1    3    3    0  502 -0.34094034399E+03 -0.75920607689E+03 -0.69645389855E+03  0.10852208569E+04  0.46999998093E+01 0. -1.
</event>
<event>
 5   0  0.1812865E-04  0.2033843E+04  0.7818609E-02  0.8590959E-01
        2   -1    0    0  501    0  0.00000000000E+00  0.00000000000E+00  0.24401603516E+04  0.24401603516E+04  0.25500000920E-02 0. -1.
       -2   -1    0    0    0  501  0.00000000000E+00  0.00000000000E+00 -0.42379584651E+03  0.42379584652E+03  0.25500000920E-02 0.  1.
    10030    2    1    2    0    0  0.00000000000E+00  0.00000000000E+00  0.20163645051E+04  0.28639561981E+04  0.20338434766E+04 0.  0.
        3    1    3    3  502    0 -0.44287731136E+03 -0.90776679001E+03  0.84187175587E+03  0.13148874178E+04  0.10100000352E+00 0. -1.
       -3    1    3    3    0  502  0.44287731136E+03  0.90776679001E+03  0.11744927492E+04  0.15490687803E+04  0.10100000352E+00 0.  1.
</event>
<event>
 5   0  0.8861350E-05  0.2010314E+04  0.7818609E-02  0.8601814E-01
        1   -1    0    0  501    0  0.00000000000E+00  0.00000000000E+00  0.66701275721E+03  0.66701275723E+03  0.50400001928E-02 0. -1.
       -1   -1    0    0    0  501  0.00000000000E+00  0.00000000000E+00 -0.15147245500E+04  0.15147245500E+04  0.50400001928E-02 0.  1.
    10030    2    1    2    0    0  0.00000000000E+00  0.00000000000E+00 -0.84771179282E+03  0.21817373073E+04  0.20103140039E+04 0.  0.
        1    1    3    3  502    0  0.96992801622E+03 -0.95083908904E+02 -0.15682763418E+03  0.98711509625E+03  0.50400001928E-02 0. -1.
       -1    1    3    3    0  502 -0.96992801622E+03  0.95083908904E+02 -0.69088415865E+03  0.11946222110E+04  0.50400001928E-02 0.  1.
</event>
<event>
 5   0  0.8577422E-05  0.1984130E+04  0.7818609E-02  0.8614076E-01
       -1   -1    0    0    0  501  0.00000000000E+00  0.00000000000E+00  0.72964645657E+03  0.72964645659E+03  0.50400001928E-02 0.  1.
        1   -1    0    0  501    0  0.00000000000E+00  0.00000000000E+00 -0.13488631241E+04  0.13488631241E+04  0.50400001928E-02 0. -1.
    10030    2    1    2    0    0  0.00000000000E+00  0.00000000000E+00 -0.61921666753E+03  0.20785095807E+04  0.19841302366E+04 0.  0.
        2    1    3    3  502    0 -0.30773494842E+03  0.76728064855E+03 -0.88412302604E+03  0.12104106400E+04  0.25500000920E-02 0. -1.
       -2    1    3    3    0  502  0.30773494842E+03 -0.76728064855E+03  0.26490635852E+03  0.86809894074E+03  0.25500000920E-02 0.  1.
</event>
<event>
 5   0  0.8577422E-05  0.2019653E+04  0.7818609E-02  0.8597487E-01
        1   -1    0    0  501    0  0.00000000000E+00  0.00000000000E+00  0.16825008950E+04  0.16825008950E+04  0.50400001928E-02 0.  1.
       -1   -1    0    0    0  501  0.00000000000E+00  0.00000000000E+00 -0.60609157060E+03  0.60609157062E+03  0.50400001928E-02 0. -1.
    10030    2    1    2    0    0  0.00000000000E+00  0.00000000000E+00  0.10764093244E+04  0.22885924656E+04  0.20196530494E+04 0.  0.
        2    1    3    3  502    0 -0.57660433348E+03  0.28770628732E+03 -0.34282517643E+03  0.72991545178E+03  0.25500000920E-02 0. -1.
       -2    1    3    3    0  502  0.57660433348E+03 -0.28770628732E+03  0.14192345008E+04  0.15586770138E+04  0.25500000920E-02 0.  1.
</event>
<event>
 5   0  0.1782172E-04  0.2017522E+04  0.7818609E-02  0.8598472E-01
       -2   -1    0    0    0  501  0.00000000000E+00  0.00000000000E+00  0.41560580077E+03  0.41560580078E+03  0.25500000920E-02 0.  1.
        2   -1    0    0  501    0  0.00000000000E+00  0.00000000000E+00 -0.24484700288E+04  0.24484700288E+04  0.25500000920E-02 0. -1.
    10030    2    1    2    0    0  0.00000000000E+00  0.00000000000E+00 -0.20328642280E+04  0.28640758296E+04  0.20175215954E+04 0.  0.
        2    1    3    3  502    0 -0.65223236315E+03  0.21857354546E+03  0.31015032427E+02  0.68858070156E+03  0.25500000920E-02 0.  1.
       -2    1    3    3    0  502  0.65223236315E+03 -0.21857354546E+03 -0.20638792605E+04  0.21754951280E+04  0.25500000920E-02 0. -1.
</event>
<event>
 5   0  0.1893687E-04  0.1846327E+04  0.7818609E-02  0.8682044E-01
        2   -1    0    0  501    0  0.00000000000E+00  0.00000000000E+00  0.66749964573E+03  0.66749964574E+03  0.25500000920E-02 0. -1.
       -2   -1    0    0    0  501  0.00000000000E+00  0.00000000000E+00 -0.12767503476E+04  0.12767503476E+04  0.25500000920E-02 0.  1.
    10030    2    1    2    0    0  0.00000000000E+00  0.00000000000E+00 -0.60925070191E+03  0.19442499934E+04  0.18463265201E+04 0.  0.
        4    1    3    3  502    0 -0.83753322189E+02 -0.91394001294E+03 -0.19970235845E+03  0.93924629948E+03  0.12699999809E+01 0. -1.
       -4    1    3    3    0  502  0.83753322189E+02  0.91394001294E+03 -0.40954834346E+03  0.10050036939E+04  0.12699999809E+01 0.  1.
</event>
<event>
 5   0  0.1807498E-04  0.2029358E+04  0.7818609E-02  0.8593016E-01
       -2   -1    0    0    0  501  0.00000000000E+00  0.00000000000E+00  0.54135254490E+03  0.54135254491E+03  0.25500000920E-02 0.  1.
        2   -1    0    0  501    0  0.00000000000E+00  0.00000000000E+00 -0.19018547878E+04  0.19018547878E+04  0.25500000920E-02 0. -1.
    10030    2    1    2    0    0  0.00000000000E+00  0.00000000000E+00 -0.13605022429E+04  0.24432073327E+04  0.20293584498E+04 0.  0.
        5    1    3    3  502    0 -0.32626867379E+03  0.68113068792E+01  0.47643402838E+03  0.57750248034E+03  0.46999998093E+01 0.  1.
       -5    1    3    3    0  502  0.32626867379E+03 -0.68113068792E+01 -0.18369362713E+04  0.18657048524E+04  0.46999998093E+01 0. -1.
</event>
<event>
 5   0  0.8861350E-05  0.1999073E+04  0.7818609E-02  0.8607054E-01
        1   -1    0    0  501    0  0.00000000000E+00  0.00000000000E+00  0.11799289985E+04  0.11799289985E+04  0.50400001928E-02 0.  1.
       -1   -1    0    0    0  501  0.00000000000E+00  0.00000000000E+00 -0.84672289261E+03  0.84672289263E+03  0.50400001928E-02 0. -1.
    10030    2    1    2    0    0  0.00000000000E+00  0.00000000000E+00  0.33320610586E+03  0.20266518911E+04  0.19990726797E+04 0.  0.
        1    1    3    3  502    0  0.33980496078E+03 -0.45673341543E+03  0.99952150524E+03  0.11502678226E+04  0.50400001928E-02 0.  1.
       -1    1    3    3    0  502 -0.33980496078E+03  0.45673341543E+03 -0.66631539938E+03  0.87638406855E+03  0.50400001928E-02 0. -1.
</event>
<event>
 5   0  0.8958919E-05  0.2052722E+04  0.7818609E-02  0.8582361E-01
        1   -1    0    0  501    0  0.00000000000E+00  0.00000000000E+00  0.15459489700E+04  0.15459489700E+04  0.50400001928E-02 0.  1.
       -1   -1    0    0    0  501  0.00000000000E+00  0.00000000000E+00 -0.68140437371E+03  0.68140437373E+03  0.50400001928E-02 0. -1.
    10030    2    1    2    0    0  0.00000000000E+00  0.00000000000E+00  0.86454459626E+03  0.22273533437E+04  0.20527215005E+04 0.  0.
        4    1    3    3  502    0 -0.58552267577E+03 -0.32243490720E+03 -0.41284150593E+03  0.78564673686E+03  0.12699999809E+01 0. -1.
       -4    1    3    3    0  502  0.58552267577E+03  0.32243490720E+03  0.12773861022E+04  0.14417066068E+04  0.12699999809E+01 0.  1.
</event>
<event>
 5   0  0.1782172E-04  0.1831709E+04  0.7818609E-02  0.8689617E-01
       -2   -1    0    0    0  501  0.00000000000E+00  0.00000000000E+00  0.65362345442E+03  0.65362345442E+03  0.25500000920E-02 0. -1.
        2   -1    0    0  501    0  0.00000000000E+00  0.00000000000E+00 -0.12832909587E+04  0.12832909587E+04  0.25500000920E-02 0.  1.
    10030    2    1    2    0    0  0.00000000000E+00  0.00000000000E+00 -0.62966750425E+03  0.19369144131E+04  0.18317085679E+04 0.  0.
        2    1    3    3  502    0 -0.14323845390E+03  0.89665102709E+03 -0.18843255751E+03  0.92736570338E+03  0.25500000920E-02 0. -1.
       -2    1    3    3    0  502  0.14323845390E+03 -0.89665102709E+03 -0.44123494674E+03  0.10095487097E+04  0.25500000920E-02 0.  1.
</event>
<event>
 5   0  0.1834645E-04  0.1931344E+04  0.7818609E-02  0.8639410E-01
        2   -1    0    0  501    0  0.00000000000E+00  0.00000000000E+00  0.20315191969E+04  0.20315191969E+04  0.25500000920E-02 0. -1.
       -2   -1    0    0    0  501  0.00000000000E+00  0.00000000000E+00 -0.45902699518E+03  0.45902699519E+03  0.25500000920E-02 0.  1.
    10030    2    1    2    0    0  0.00000000000E+00  0.00000000000E+00  0.15724922017E+04  0.24905461921E+04  0.19313437318E+04 0.  0.
        1    1    3    3  502    0 -0.58322185651E+03 -0.10807387845E+03  0.17689187450E+04  0.18657173483E+04  0.50400001928E-02 0. -1.
       -1    1    3    3    0  502  0.58322185651E+03  0.10807387845E+03 -0.19642654331E+03  0.62482884381E+03  0.50400001928E-02 0.  1.
</event>
<event>
 5   0  0.1834645E-04  0.2078377E+04  0.7818609E-02  0.8570829E-01
       -2   -1    0    0    0  501  0.00000000000E+00  0.00000000000E+00  0.47038975131E+03  0.47038975132E+03  0.25500000920E-02 0.  1.
        2   -1    0    0  501    0  0.00000000000E+00  0.00000000000E+00 -0.22957830647E+04  0.22957830647E+04  0.25500000920E-02 0. -1.
    10030    2    1    2    0    0  0.00000000000E+00  0.00000000000E+00 -0.18253933134E+04  0.27661728160E+04  0.20783770831E+04 0.  0.
        1    1    3    3  502    0  0.56906149346E+03  0.86921618409E+03 -0.88162389606E+03  0.13625815396E+04  0.50400001928E-02 0. -1.
       -1    1    3    3    0  502 -0.56906149346E+03 -0.86921618409E+03 -0.94376941730E+03  0.14035912764E+04  0.50400001928E-02 0.  1.
</event>
<event>
 5   0  0.8577422E-05  0.2013372E+04  0.7818609E-02  0.8600394E-01
       -1   -1    0    0    0  501  0.00000000000E+00  0.00000000000E+00  0.11077719318E+04  0.11077719318E+04  0.50400001928E-02 0.  1.
        1   -1    0    0  501    0  0.00000000000E+00  0.00000000000E+00 -0.91482424050E+03  0.91482424051E+03  0.50400001928E-02 0. -1.
    10030    2    1    2    0    0  0.00000000000E+00  0.00000000000E+00  0.19294769126E+03  0.20225961723E+04  0.20133719141E+04 0.  0.
        2    1    3    3  502    0  0.78085782030E+03 -0.48317979213E+03 -0.31798751662E+03  0.97176010814E+03  0.25500000920E-02 0. -1.
       -2    1    3    3    0  502 -0.78085782030E+03  0.48317979213E+03  0.51093520788E+03  0.10508360641E+04  0.25500000920E-02 0.  1.
</event>
<event>
 5   0  0.1807498E-04  0.2120658E+04  0.7818609E-02  0.8552198E-01
       -2   -1    0    0    0  501  0.00000000000E+00  0.00000000000E+00  0.59490053918E+03  0.59490053918E+03  0.25500000920E-02 0.  1.
        2   -1    0    0  501    0  0.00000000000E+00  0.00000000000E+00 -0.18898912058E+04  0.18898912058E+04  0.25500000920E-02 0. -1.
    10030    2    1    2    0    0  0.00000000000E+00  0.00000000000E+00 -0.12949906666E+04  0.24847917450E+04  0.21206577256E+04 0.  0.
        5    1    3    3  502    0  0.92953615360E+02 -0.59897573669E+03  0.37186569342E+03  0.71113886948E+03  0.46999998093E+01 0.  1.
       -5    1    3    3    0  502 -0.92953615360E+02  0.59897573669E+03 -0.16668563600E+04  0.17736528755E+04  0.46999998093E+01 0. -1.
</event>
<event>
 5   0  0.8958919E-05  0.1929372E+04  0.7818609E-02  0.8640373E-01
        1   -1    0    0  501    0  0.00000000000E+00  0.00000000000E+00  0.94845603674E+03  0.94845603675E+03  0.50400001928E-02 0.  1.
       -1   -1    0    0    0  501  0.00000000000E+00  0.00000000000E+00 -0.98119355736E+03  0.98119355737E+03  0.50400001928E-02 0. -1.
    10030    2    1    2    0    0  0.00000000000E+00  0.00000000000E+00 -0.32737520621E+02  0.19296495941E+04  0.19293718695E+04 0.  0.
        4    1    3    3  502    0 -0.47103140855E+03 -0.39012535031E+03 -0.76249823976E+03  0.97748327625E+03  0.12699999809E+01 0. -1.
       -4    1    3    3    0  502  0.47103140855E+03  0.39012535031E+03  0.72976071914E+03  0.95216631788E+03  0.12699999809E+01 0.  1.
</event>
<event>
 5   0  0.8861350E-05  0.2078273E+04  0.7818609E-02  0.8570875E-01
        1   -1    0    0  501    0  0.00000000000E+00  0.00000000000E+00  0.91118681633E+03  0.91118681635E+03  0.50400001928E-02 0. -1.
       -1   -1    0    0    0  501  0.00000000000E+00  0.00000000000E+00 -0.11850526405E+04  0.11850526405E+04  0.50400001928E-02 0.  1.
    10030    2    1    2    0    0  0.00000000000E+00  0.00000000000E+00 -0.27386582413E+03  0.20962394568E+04  0.20782726892E+04 0.  0.
        1    1    3    3  502    0  0.32780196413E+03 -0.11213870030E+03  0.85121761389E+03  0.91902156776E+03  0.50400001928E-02 0. -1.
       -1    1    3    3    0  502 -0.32780196413E+03  0.11213870030E+03 -0.11250834380E+04  0.11772178891E+04  0.50400001928E-02 0.  1.
</event>
<event>
 5   0  0.8861350E-05  0.1931659E+04  0.7818609E-02  0.8639256E-01
        1   -1    0    0  501    0  0.00000000000E+00  0.00000000000E+00  0.22021258516E+04  0.22021258516E+04  0.50400001928E-02 0. -1.
       -1   -1    0    0    0  501  0.00000000000E+00  0.00000000000E+00 -0.42360263285E+03  0.42360263288E+03  0.50400001928E-02 0.  1.
    10030    2    1    2    0    0  0.00000000000E+00  0.00000000000E+00  0.17785232187E+04  0.26257284844E+04  0.19316586744E+04 0.  0.
        1    1    3    3  502    0 -0.95165912405E+03 -0.12591069419E+03  0.74465143574E+03  0.12149133105E+04  0.50400001928E-02 0. -1.
       -1    1    3    3    0  502  0.95165912405E+03  0.12591069419E+03  0.10338717830E+04  0.14108151739E+04  0.50400001928E-02 0.  1.
</event>
<event>
 5   0  0.8577422E-05  0.2006291E+04  0.7818609E-02  0.8603685E-01
       -1   -1    0    0    0  501  0.00000000000E+00  0.00000000000E+00  0.14337031194E+04  0.14337031194E+04  0.50400001928E-02 0. -1.
        1   -1    0    0  501    0  0.00000000000E+00  0.00000000000E+00 -0.70188927597E+03  0.70188927599E+03  0.50400001928E-02 0.  1.
    10030    2    1    2    0    0  0.00000000000E+00  0.00000000000E+00  0.73181384340E+03  0.21355923954E+04  0.20062909504E+04 0.  0.
        2    1    3    3  502    0  0.83581096562E+02  0.80524123132E+03 -0.26463959120E+03  0.85172375425E+03  0.25500000920E-02 0.  1.
       -2    1    3    3    0  502 -0.83581096562E+02 -0.80524123132E+03  0.99645343459E+03  0.12838686411E+04  0.25500000920E-02 0. -1.
</event>
<event>
 5   0  0.8765057E-05  0.2017895E+04  0.7818609E-02  0.8598300E-01
       -1   -1    0    0    0  501  0.00000000000E+00  0.00000000000E+00  0.72318767564E+03  0.72318767565E+03  0.50400001928E-02 0.  1.
        1   -1    0    0  501    0  0.00000000000E+00  0.00000000000E+00 -0.14076219497E+04  0.14076219497E+04  0.50400001928E-02 0. -1.
    10030    2    1    2    0    0  0.00000000000E+00  0.00000000000E+00 -0.68443427406E+03  0.21308096254E+04  0.20178947901E+04 0.  0.
        3    1    3    3  502    0  0.48676728116E+03 -0.58297994027E+03  0.35915346937E+03  0.84011857588E+03  0.10100000352E+00 0.  1.
       -3    1    3    3    0  502 -0.48676728116E+03  0.58297994027E+03 -0.10435877434E+04  0.12906910495E+04  0.10100000352E+00 0. -1.
</event>
<event>
 5   0  0.1812865E-04  0.2020235E+04  0.7818609E-02  0.8597218E-01
        2   -1    0    0  501    0  0.00000000000E+00  0.00000000000E+00  0.11881372265E+04  0.11881372265E+04  0.25500000920E-02 0.  1.
       -2   -1    0    0    0  501  0.00000000000E+00  0.00000000000E+00 -0.85877071730E+03  0.85877071730E+03  0.25500000920E-02 0. -1.
    10030    2    1    2    0    0  0.00000000000E+00  0.00000000000E+00  0.32936650924E+03  0.20469079438E+04  0.20202350935E+04 0.  0.
        3    1    3    3  502    0  0.72899270582E+03 -0.49616339167E+03  0.66386329118E+03  0.11037766785E+04  0.10100000352E+00 0.  1.
       -3    1    3    3    0  502 -0.72899270582E+03  0.49616339167E+03 -0.33449678194E+03  0.94313126536E+03  0.10100000352E+00 0. -1.
</event>
<event>
 5   0  0.8765057E-05  0.2014583E+04  0.7818609E-02  0.8599833E-01
       -1   -1    0    0    0  501  0.00000000000E+00  0.00000000000E+00  0.10519407518E+04  0.10519407518E+04  0.50400001928E-02 0.  1.
        1   -1    0    0  501    0  0.00000000000E+00  0.00000000000E+00 -0.96453784393E+03  0.96453784394E+03  0.50400001928E-02 0. -1.
    10030    2    1    2    0    0  0.00000000000E+00  0.00000000000E+00  0.87402907828E+02  0.20164785957E+04  0.20145834951E+04 0.  0.
        3    1    3    3  502    0 -0.79348965523E+03 -0.61392793471E+03 -0.46401626455E+02  0.10043338405E+04  0.10100000352E+00 0.  1.
       -3    1    3    3    0  502  0.79348965523E+03  0.61392793471E+03  0.13380453428E+03  0.10121447552E+04  0.10100000352E+00 0. -1.
</event>
<event>
 5   0  0.1893687E-04  0.2014078E+04  0.7818609E-02  0.8600067E-01
        2   -1    0    0  501    0  0.00000000000E+00  0.00000000000E+00  0.14505590970E+04  0.14505590970E+04  0.25500000920E-02 0. -1.
       -2   -1    0    0    0  501  0.00000000000E+00  0.00000000000E+00 -0.69912876600E+03  0.69912876601E+03  0.25500000920E-02 0.  1.
    10030    2    1    2    0    0  0.00000000000E+00  0.00000000000E+00  0.75143033100E+03  0.21496878630E+04  0.20140780437E+04 0.  0.
        4    1    3    3  502    0  0.49714889409E+03  0.14878976754E+03 -0.54542952517E+03  0.75285483173E+03  0.12699999809E+01 0.  1.
       -4    1    3    3    0  502 -0.49714889409E+03 -0.14878976754E+03  0.12968598562E+04  0.13968330313E+04  0.12699999809E+01 0. -1.
</event>
<event>
 5   0  0.1812865E-04  0.1507799E+04  0.7818609E-02  0.8879283E-01
        2   -1    0    0  501    0  0.00000000000E+00  0.00000000000E+00  0.99004548333E+03  0.99004548333E+03  0.25500000920E-02 0.  1.
       -2   -1    0    0    0  501  0.00000000000E+00  0.00000000000E+00 -0.57407895598E+03  0.57407895598E+03  0.25500000920E-02 0. -1.
    10030    2    1    2    0    0  0.00000000000E+00  0.00000000000E+00  0.41596652735E+03  0.15641244393E+04  0.15077987630E+04 0.  0.
        3    1    3    3  502    0 -0.51419150193E+03 -0.46723328944E+03  0.51160171321E+03  0.86280714565E+03  0.10100000352E+00 0. -1.
       -3    1    3    3    0  502  0.51419150193E+03  0.46723328944E+03 -0.95635185867E+02  0.70131729367E+03  0.10100000352E+00 0.  1.
</event>
<event>
 5   0  0.1782172E-04  0.2010530E+04  0.7818609E-02  0.8601713E-01
        2   -1    0    0  501    0  0.00000000000E+00  0.00000000000E+00  0.15595126931E+04  0.15595126931E+04  0.25500000920E-02 0.  1.
       -2   -1    0    0    0  501  0.00000000000E+00  0.00000000000E+00 -0.64799580962E+03  0.64799580962E+03  0.25500000920E-02 0. -1.
    10030    2    1    2    0    0  0.00000000000E+00  0.00000000000E+00  0.91151688347E+03  0.22075085027E+04  0.20105299701E+04 0.  0.
        2    1    3    3  502    0 -0.53953578250E+03 -0.66116408104E+03 -0.12763741308E+03  0.86286042433E+03  0.25500000920E-02 0. -1.
       -2    1    3    3    0  502  0.53953578250E+03  0.66116408104E+03  0.10391542966E+04  0.13446480784E+04  0.25500000920E-02 0.  1.
</event>
<event>
 5   0  0.8881384E-05  0.1994391E+04  0.7818609E-02  0.8609248E-01
       -1   -1    0    0    0  501  0.00000000000E+00  0.00000000000E+00  0.82778388335E+03  0.82778388337E+03  0.50400001928E-02 0. -1.
        1   -1    0    0  501    0  0.00000000000E+00  0.00000000000E+00 -0.12012782275E+04  0.12012782275E+04  0.50400001928E-02 0.  1.
    10030    2    1    2    0    0  0.00000000000E+00  0.00000000000E+00 -0.37349434416E+03  0.20290621109E+04  0.19943908907E+04 0.  0.
        5    1    3    3  502    0  0.43889713796E+02  0.44435989446E+02 -0.11992750614E+04  0.12009094999E+04  0.46999998093E+01 0.  1.
       -5    1    3    3    0  502 -0.43889713796E+02 -0.44435989446E+02  0.82578071722E+03  0.82815261097E+03  0.46999998093E+01 0. -1.
</event>
<event>
 5   0  0.8861350E-05  0.1976355E+04  0.7818609E-02  0.8617756E-01
        1   -1    0    0  501    0  0.00000000000E+00  0.00000000000E+00  0.17764828663E+04  0.17764828663E+04  0.50400001928E-02 0. -1.
       -1   -1    0    0    0  501  0.00000000000E+00  0.00000000000E+00 -0.54967850495E+03  0.54967850497E+03  0.50400001928E-02 0.  1.
    10030    2    1    2    0    0  0.00000000000E+00  0.00000000000E+00  0.12268043613E+04  0.23261613713E+04  0.19763546706E+04 0.  0.
        1    1    3    3  502    0  0.75391429235E+03 -0.46578376934E+03  0.11279973473E+04  0.14344752684E+04  0.50400001928E-02 0. -1.
       -1    1    3    3    0  502 -0.75391429235E+03  0.46578376934E+03  0.98807013986E+02  0.89168610286E+03  0.50400001928E-02 0.  1.
</event>
<event>
 5   0  0.1893687E-04  0.1997668E+04  0.7818609E-02  0.8607712E-01
        2   -1    0    0  501    0  0.00000000000E+00  0.00000000000E+00  0.14727734120E+04  0.14727734120E+04  0.25500000920E-02 0.  1.
       -2   -1    0    0    0  501  0.00000000000E+00  0.00000000000E+00 -0.67740844169E+03  0.67740844170E+03  0.25500000920E-02 0. -1.
    10030    2    1    2    0    0  0.00000000000E+00  0.00000000000E+00  0.79536497026E+03  0.21501818537E+04  0.19976677822E+04 0.  0.
        4    1    3    3  502    0  0.87982723084E+03 -0.47090083062E+03  0.35171380419E+03  0.10580868402E+04  0.12699999809E+01 0. -1.
       -4    1    3    3    0  502 -0.87982723084E+03  0.47090083062E+03  0.44365116607E+03  0.10920950135E+04  0.12699999809E+01 0.  1.
</event>
<event>
 5   0  0.1893687E-04  0.1873612E+04  0.7818609E-02  0.8668104E-01
       -2   -1    0    0    0  501  0.00000000000E+00  0.00000000000E+00  0.91887535074E+03  0.91887535074E+03  0.25500000920E-02 0. -1.
        2   -1    0    0  501    0  0.00000000000E+00  0.00000000000E+00 -0.95508642907E+03  0.95508642907E+03  0.25500000920E-02 0.  1.
    10030    2    1    2    0    0  0.00000000000E+00  0.00000000000E+00 -0.36211078328E+02  0.18739617798E+04  0.18736118888E+04 0.  0.
        4    1    3    3  502    0 -0.89895116059E+03 -0.14929466234E+03  0.19919450787E+03  0.93278194140E+03  0.12699999809E+01 0. -1.
       -4    1    3    3    0  502  0.89895116059E+03  0.14929466234E+03 -0.23540558620E+03  0.94117983842E+03  0.12699999809E+01 0.  1.
</event>
<event>
 5   0  0.1807498E-04  0.2005762E+04  0.7818609E-02  0.8603932E-01
       -2   -1    0    0    0  501  0.00000000000E+00  0.00000000000E+00  0.74084326266E+03  0.74084326266E+03  0.25500000920E-02 0.  1.
        2   -1    0    0  501    0  0.00000000000E+00  0.00000000000E+00 -0.13576015866E+04  0.13576015866E+04  0.25500000920E-02 0. -1.
    10030    2    1    2    0    0  0.00000000000E+00  0.00000000000E+00 -0.61675832390E+03  0.20984448492E+04  0.20057616895E+04 0.  0.
        5    1    3    3  502    0 -0.53630203256E+03 -0.36861813603E+03 -0.11066908558E+04  0.12838558878E+04  0.46999998093E+01 0. -1.
       -5    1    3    3    0  502  0.53630203256E+03  0.36861813603E+03  0.48993253187E+03  0.81458896145E+03  0.46999998093E+01 0.  1.
</event>
<event>
 5   0  0.1812865E-04  0.1994185E+04  0.7818609E-02  0.8609344E-01
       -2   -1    0    0    0  501  0.00000000000E+00  0.00000000000E+00  0.73731888149E+03  0.73731888150E+03  0.25500000920E-02 0.  1.
        2   -1    0    0  501    0  0.00000000000E+00  0.00000000000E+00 -0.13483898850E+04  0.13483898850E+04  0.25500000920E-02 0. -1.
    10030    2    1    2    0    0  0.00000000000E+00  0.00000000000E+00 -0.61107100353E+03  0.20857087665E+04  0.19941848679E+04 0.  0.
        3    1    3    3  502    0 -0.55171141491E+03 -0.83015160626E+03 -0.27874471370E+03  0.10350052175E+04  0.10100000352E+00 0.  1.
       -3    1    3    3    0  502  0.55171141491E+03  0.83015160626E+03 -0.33232628983E+03  0.10507035490E+04  0.10100000352E+00 0. -1.
</event>
<event>
 5   0  0.1893687E-04  0.1972941E+04  0.7818609E-02  0.8619377E-01
       -2   -1    0    0    0  501  0.00000000000E+00  0.00000000000E+00  0.70027267813E+03  0.70027267814E+03  0.25500000920E-02 0. -1.
        2   -1    0    0  501    0  0.00000000000E+00  0.00000000000E+00 -0.13896362661E+04  0.13896362661E+04  0.25500000920E-02 0.  1.
    10030    2    1    2    0    0  0.00000000000E+00  0.00000000000E+00 -0.68936358795E+03  0.20899089442E+04  0.19729412659E+04 0.  0.
        4    1    3    3  502    0 -0.66634345055E+03 -0.27513120942E+03 -0.10579611831E+04  0.12802321096E+04  0.12699999809E+01 0.  1.
       -4    1    3    3    0  502  0.66634345055E+03  0.27513120942E+03  0.36859759519E+03  0.80967683464E+03  0.12699999809E+01 0. -1.
</event>
<event>
 5   0  0.8881384E-05  0.2013807E+04  0.7818609E-02  0.8600192E-01
       -1   -1    0    0    0  501  0.00000000000E+00  0.00000000000E+00  0.13663662517E+04  0.13663662517E+04  0.50400001928E-02 0.  1.
        1   -1    0    0  501    0  0.00000000000E+00  0.00000000000E+00 -0.74200812470E+03  0.74200812472E+03  0.50400001928E-02 0. -1.
    10030    2    1    2    0    0  0.00000000000E+00  0.00000000000E+00  0.62435812696E+03  0.21083743764E+04  0.20138072004E+04 0.  0.
        5    1    3    3  502    0  0.71652239862E+03 -0.35518376239E+03  0.95268630072E+03  0.12438621830E+04  0.46999998093E+01 0.  1.
       -5    1    3    3    0  502 -0.71652239862E+03  0.35518376239E+03 -0.32832817376E+03  0.86451219336E+03  0.46999998093E+01 0. -1.
</event>
<event>
 5   0  0.8577422E-05  0.2021199E+04  0.7818609E-02  0.8596773E-01
       -1   -1    0    0    0  501  0.00000000000E+00  0.00000000000E+00  0.36902601508E+03  0.36902601512E+03  0.50400001928E-02 0. -1.
        1   -1    0    0  501    0  0.00000000000E+00  0.00000000000E+00 -0.27675871344E+04  0.27675871344E+04  0.50400001928E-02 0.  1.
    10030    2    1    2    0    0  0.00000000000E+00  0.00000000000E+00 -0.23985611193E+04  0.31366131495E+04  0.20211992991E+04 0.  0.
        2    1    3    3  502    0 -0.45484198360E+03 -0.88896431226E+03 -0.14405575773E+04  0.17528105751E+04  0.25500000920E-02 0.  1.
       -2    1    3    3    0  502  0.45484198360E+03  0.88896431226E+03 -0.95800354196E+03  0.13838025744E+04  0.25500000920E-02 0. -1.
</event>
<event>
 5   0  0.1893687E-04  0.2014213E+04  0.7818609E-02  0.8600005E-01
       -2   -1    0    0    0  501  0.00000000000E+00  0.00000000000E+00  0.70359892012E+03  0.70359892012E+03  0.25500000920E-02 0. -1.
        2   -1    0    0  501    0  0.00000000000E+00  0.00000000000E+00 -0.14415358618E+04  0.14415358618E+04  0.25500000920E-02 0.  1.
    10030    2    1    2    0    0  0.00000000000E+00  0.00000000000E+00 -0.73793694171E+03  0.21451347819E+04  0.20142125764E+04 0.  0.
        4    1    3    3  502    0  0.53287954230E+03  0.11819029165E+02 -0.12790046266E+04  0.13856243155E+04  0.12699999809E+01 0.  1.
       -4    1    3    3    0  502 -0.53287954230E+03 -0.11819029165E+02  0.54106768489E+03  0.75951046641E+03  0.12699999809E+01 0. -1.
</event>
<event>
 5   0  0.1812865E-04  0.1973276E+04  0.7818609E-02  0.8619218E-01
       -2   -1    0    0    0  501  0.00000000000E+00  0.00000000000E+00  0.55510426242E+03  0.55510426242E+03  0.25500000920E-02 0.  1.
        2   -1    0    0  501    0  0.00000000000E+00  0.00000000000E+00 -0.17536426316E+04  0.17536426316E+04  0.25500000920E-02 0. -1.
    10030    2    1    2    0    0  0.00000000000E+00  0.00000000000E+00 -0.11985383691E+04  0.23087468940E+04  0.19732759559E+04 0.  0.
        3    1    3    3  502    0 -0.87235731790E+03  0.44894286958E+03 -0.72140749874E+03  0.12177790357E+04  0.10100000352E+00 0.  1.
       -3    1    3    3    0  502  0.87235731790E+03 -0.44894286958E+03 -0.47713087040E+03  0.10909678583E+04  0.10100000352E+00 0. -1.
</event>
<event>
 5   0  0.6531625E-05  0.2005244E+04  0.7818609E-02  0.8604173E-01
       -3   -1    0    0    0  501  0.00000000000E+00  0.00000000000E+00  0.13452223228E+04  0.13452223266E+04  0.10100000352E+00 0. -1.
        3   -1    0    0  501    0  0.00000000000E+00  0.00000000000E+00 -0.74727478585E+03  0.74727479267E+03  0.10100000352E+00 0.  1.
    10030    2    1    2    0    0  0.00000000000E+00  0.00000000000E+00  0.59794753697E+03  0.20924971193E+04  0.20052438598E+04 0.  0.
        1    1    3    3  502    0 -0.15481405577E+03  0.87498907867E+03  0.78359233465E+03  0.11847321328E+04  0.50400001928E-02 0. -1.
       -1    1    3    3    0  502  0.15481405577E+03 -0.87498907867E+03 -0.18564479769E+03  0.90776498643E+03  0.50400001928E-02 0.  1.
</event>
<event>
 5   0  0.1782172E-04  0.2025229E+04  0.7818609E-02  0.8594915E-01
        2   -1    0    0  501    0  0.00000000000E+00  0.00000000000E+00  0.94201474594E+03  0.94201474594E+03  0.25500000920E-02 0. -1.
       -2   -1    0    0    0  501  0.00000000000E+00  0.00000000000E+00 -0.10885058209E+04  0.10885058209E+04  0.25500000920E-02 0.  1.
    10030    2    1    2    0    0  0.00000000000E+00  0.00000000000E+00 -0.14649107492E+03  0.20305205668E+04  0.20252294036E+04 0.  0.
        2    1    3    3  502    0 -0.25237576463E+03  0.76533718338E+03  0.54150727681E+03  0.97090919332E+03  0.25500000920E-02 0. -1.
       -2    1    3    3    0  502  0.25237576463E+03 -0.76533718338E+03 -0.68799835173E+03  0.10596113735E+04  0.25500000920E-02 0.  1.
</event>
<event>
 5   0  0.1893687E-04  0.1994056E+04  0.7818609E-02  0.8609405E-01
       -2   -1    0    0    0  501  0.00000000000E+00  0.00000000000E+00  0.44990578538E+03  0.44990578539E+03  0.25500000920E-02 0. -1.
        2   -1    0    0  501    0  0.00000000000E+00  0.00000000000E+00 -0.22094962020E+04  0.22094962020E+04  0.25500000920E-02 0.  1.
    10030    2    1    2    0    0  0.00000000000E+00  0.00000000000E+00 -0.17595904166E+04  0.26594019873E+04  0.19940562921E+04 0.  0.
        4    1    3    3  502    0  0.10682825667E+03 -0.64937369272E+02  0.43941020674E+03  0.45685017352E+03  0.12699999809E+01 0. -1.
       -4    1    3    3    0  502 -0.10682825667E+03  0.64937369272E+02 -0.21990006233E+04  0.22025518138E+04  0.12699999809E+01 0.  1.
</event>
<event>
 5   0  0.8861350E-05  0.1953207E+04  0.7818609E-02  0.8628816E-01
        1   -1    0    0  501    0  0.00000000000E+00  0.00000000000E+00  0.73521903613E+03  0.73521903615E+03  0.50400001928E-02 0.  1.
       -1   -1    0    0    0  501  0.00000000000E+00  0.00000000000E+00 -0.12972388319E+04  0.12972388319E+04  0.50400001928E-02 0. -1.
    10030    2    1    2    0    0  0.00000000000E+00  0.00000000000E+00 -0.56201979578E+03  0.20324578681E+04  0.19532072943E+04 0.  0.
        1    1    3    3  502    0 -0.14791423951E+03 -0.64421833069E+03 -0.10291090684E+04  0.12230949900E+04  0.50400001928E-02 0. -1.
       -1    1    3    3    0  502  0.14791423951E+03  0.64421833069E+03  0.46708927260E+03  0.80936287810E+03  0.50400001928E-02 0.  1.
</event>
<event>
 5   0  0.1782172E-04  0.1965586E+04  0.7818609E-02  0.8622882E-01
       -2   -1    0    0    0  501  0.00000000000E+00  0.00000000000E+00  0.63822828235E+03  0.63822828236E+03  0.25500000920E-02 0. -1.
        2   -1    0    0  501    0  0.00000000000E+00  0.00000000000E+00 -0.15133796608E+04  0.15133796608E+04  0.25500000920E-02 0.  1.
    10030    2    1    2    0    0  0.00000000000E+00  0.00000000000E+00 -0.87515137844E+03  0.21516079432E+04  0.19655856140E+04 0.  0.
        2    1    3    3  502    0 -0.58689858887E+03 -0.85880482588E+02  0.42020302769E+03  0.72690851928E+03  0.25500000920E-02 0. -1.
       -2    1    3    3    0  502  0.58689858887E+03  0.85880482588E+02 -0.12953544061E+04  0.14246994239E+04  0.25500000920E-02 0.  1.
</event>
<event>
 5   0  0.8881384E-05  0.1998141E+04  0.7818609E-02  0.8607490E-01
       -1   -1    0    0    0  501  0.00000000000E+00  0.00000000000E+00  0.46862462363E+03  0.46862462366E+03  0.50400001928E-02 0.  1.
        1   -1    0    0  501    0  0.00000000000E+00  0.00000000000E+00 -0.21299399301E+04  0.21299399301E+04  0.50400001928E-02 0. -1.
    10030    2    1    2    0    0  0.00000000000E+00  0.00000000000E+00 -0.16613153064E+04  0.25985645537E+04  0.19981414346E+04 0.  0.
        5    1    3    3  502    0 -0.87468841259E+03  0.38686449319E+03 -0.45514163175E+03  0.10592072272E+04  0.46999998093E+01 0.  1.
       -5    1    3    3    0  502  0.87468841259E+03 -0.38686449319E+03 -0.12061736747E+04  0.15393573265E+04  0.46999998093E+01 0. -1.
</event>
<event>
 5   0  0.8765057E-05  0.1916137E+04  0.7818609E-02  0.8646865E-01
        1   -1    0    0  501    0  0.00000000000E+00  0.00000000000E+00  0.14540627277E+04  0.14540627277E+04  0.50400001928E-02 0.  1.
       -1   -1    0    0    0  501  0.00000000000E+00  0.00000000000E+00 -0.63126264426E+03  0.63126264428E+03  0.50400001928E-02 0. -1.
    10030    2    1    2    0    0  0.00000000000E+00  0.00000000000E+00  0.82280008342E+03  0.20853253720E+04  0.19161372419E+04 0.  0.
        3    1    3    3  502    0 -0.42227741793E+03  0.55978537603E+03  0.11218981052E+04  0.13230016076E+04  0.10100000352E+00 0.  1.
       -3    1    3    3    0  502  0.42227741793E+03 -0.55978537603E+03 -0.29909802180E+03  0.76232376439E+03  0.10100000352E+00 0. -1.
</event>
<event>
 5   0  0.1807498E-04  0.1991106E+04  0.7818609E-02  0.8610790E-01
        2   -1    0    0  501    0  0.00000000000E+00  0.00000000000E+00  0.16239912118E+04  0.16239912118E+04  0.25500000920E-02 0.  1.
       -2   -1    0    0    0  501  0.00000000000E+00  0.00000000000E+00 -0.61030258340E+03  0.61030258341E+03  0.25500000920E-02 0. -1.
    10030    2    1    2    0    0  0.00000000000E+00  0.00000000000E+00  0.10136886284E+04  0.22342937953E+04  0.19911062574E+04 0.  0.
        5    1    3    3  502    0 -0.17205661465E+01  0.85919360466E+03  0.10711434420E+04  0.13731667685E+04  0.46999998093E+01 0.  1.
       -5    1    3    3    0  502  0.17205661465E+01 -0.85919360466E+03 -0.57454813594E+02  0.86112702678E+03  0.46999998093E+01 0. -1.
</event>
<event>
 5   0  0.8881384E-05  0.1978236E+04  0.7818609E-02  0.8616864E-01
        1   -1    0    0  501    0  0.00000000000E+00  0.00000000000E+00  0.76522861666E+03  0.76522861667E+03  0.50400001928E-02 0.  1.
       -1   -1    0    0    0  501  0.00000000000E+00  0.00000000000E+00 -0.12785126674E+04  0.12785126674E+04  0.50400001928E-02 0. -1.
    10030    2    1    2    0    0  0.00000000000E+00  0.00000000000E+00 -0.51328405078E+03  0.20437412841E+04  0.19782360627E+04 0.  0.
        5    1    3    3  502    0 -0.33666327387E+03 -0.39396374993E+03  0.61374124883E+03  0.80327455253E+03  0.46999998093E+01 0.  1.
       -5    1    3    3    0  502  0.33666327387E+03  0.39396374993E+03 -0.11270252996E+04  0.12404667316E+04  0.46999998093E+01 0. -1.
</event>
<event>
 5   0  0.1812865E-04  0.1964550E+04  0.7818609E-02  0.8623376E-01
        2   -1    0    0  501    0  0.00000000000E+00  0.00000000000E+00  0.66887151380E+03  0.66887151381E+03  0.25500000920E-02 0.  1.
       -2   -1    0    0    0  501  0.00000000000E+00  0.00000000000E+00 -0.14425250978E+04  0.14425250978E+04  0.25500000920E-02 0. -1.
    10030    2    1    2    0    0  0.00000000000E+00  0.00000000000E+00 -0.77365358395E+03  0.21113966116E+04  0.19645497661E+04 0.  0.
        3    1    3    3  502    0 -0.56346724871E+03  0.27509514171E+03 -0.11994468935E+04  0.13534568844E+04  0.10100000352E+00 0. -1.
       -3    1    3    3    0  502  0.56346724871E+03 -0.27509514171E+03  0.42579330956E+03  0.75793972717E+03  0.10100000352E+00 0.  1.
</event>
<event>
 5   0  0.8861350E-05  0.1858003E+04  0.7818609E-02  0.8676048E-01
       -1   -1    0    0    0  501  0.00000000000E+00  0.00000000000E+00  0.10666461896E+04  0.10666461896E+04  0.50400001928E-02 0.  1.
        1   -1    0    0  501    0  0.00000000000E+00  0.00000000000E+00 -0.80911893299E+03  0.80911893301E+03  0.50400001928E-02 0. -1.
    10030    2    1    2    0    0  0.00000000000E+00  0.00000000000E+00  0.25752725663E+03  0.18757651226E+04  0.18580028276E+04 0.  0.
        1    1    3    3  502    0  0.17653814799E+03  0.20494850310E+03 -0.76848127634E+03  0.81469815191E+03  0.50400001928E-02 0. -1.
       -1    1    3    3    0  502 -0.17653814799E+03 -0.20494850310E+03  0.10260085330E+04  0.10610669707E+04  0.50400001928E-02 0.  1.
</event>
<event>
 5   0  0.8881384E-05  0.1981929E+04  0.7818609E-02  0.8615116E-01
        1   -1    0    0  501    0  0.00000000000E+00  0.00000000000E+00  0.14425633773E+04  0.14425633773E+04  0.50400001928E-02 0. -1.
       -1   -1    0    0    0  501  0.00000000000E+00  0.00000000000E+00 -0.68074020411E+03  0.68074020413E+03  0.50400001928E-02 0.  1.
    10030    2    1    2    0    0  0.00000000000E+00  0.00000000000E+00  0.76182317322E+03  0.21233035815E+04  0.19819292499E+04 0.  0.
        5    1    3    3  502    0  0.41683941302E+03  0.78550752795E+03 -0.87557665749E+02  0.89356902786E+03  0.46999998093E+01 0. -1.
       -5    1    3    3    0  502 -0.41683941302E+03 -0.78550752795E+03  0.84938083897E+03  0.12297345536E+04  0.46999998093E+01 0.  1.
</event>
<event>
 5   0  0.1812865E-04  0.1990570E+04  0.7818609E-02  0.8611042E-01
        2   -1    0    0  501    0  0.00000000000E+00  0.00000000000E+00  0.12267224717E+04  0.12267224717E+04  0.25500000920E-02 0.  1.
       -2   -1    0    0    0  501  0.00000000000E+00  0.00000000000E+00 -0.80751153147E+03  0.80751153147E+03  0.25500000920E-02 0. -1.
    10030    2    1    2    0    0  0.00000000000E+00  0.00000000000E+00  0.41921094022E+03  0.20342340032E+04  0.19905703121E+04 0.  0.
        3    1    3    3  502    0  0.67529786258E+01 -0.60169650896E+03  0.10197805391E+04  0.11840762855E+04  0.10100000352E+00 0.  1.
       -3    1    3    3    0  502 -0.67529786258E+01  0.60169650896E+03 -0.60056959891E+03  0.85015771770E+03  0.10100000352E+00 0. -1.
</event>
<event>
 5   0  0.1807498E-04  0.1997040E+04  0.7818609E-02  0.8608006E-01
        2   -1    0    0  501    0  0.00000000000E+00  0.00000000000E+00  0.14223568730E+04  0.14223568730E+04  0.25500000920E-02 0.  1.
       -2   -1    0    0    0  501  0.00000000000E+00  0.00000000000E+00 -0.70097889356E+03  0.70097889357E+03  0.25500000920E-02 0. -1.
    10030    2    1    2    0    0  0.00000000000E+00  0.00000000000E+00  0.72137797947E+03  0.21233357666E+04  0.19970399567E+04 0.  0.
        5    1    3    3  502    0  0.87292928983E+03 -0.26247959806E+03  0.79404172223E+03  0.12088943010E+04  0.46999998093E+01 0. -1.
       -5    1    3    3    0  502 -0.87292928983E+03  0.26247959806E+03 -0.72663742765E+02  0.91444146557E+03  0.46999998093E+01 0.  1.
</event>
<event>
 5   0  0.1807498E-04  0.2016161E+04  0.7818609E-02  0.8599102E-01
        2   -1    0    0  501    0  0.00000000000E+00  0.00000000000E+00  0.10115626047E+04  0.10115626047E+04  0.25500000920E-02 0. -1.
       -2   -1    0    0    0  501  0.00000000000E+00  0.00000000000E+00 -0.10046100933E+04  0.10046100933E+04  0.25500000920E-02 0.  1.
    10030    2    1    2    0    0  0.00000000000E+00  0.00000000000E+00  0.69525113962E+01  0.20161726979E+04  0.20161607105E+04 0.  0.
        5    1    3    3  502    0 -0.19940539631E+03 -0.52721268041E+03 -0.83228477243E+03  0.10052043349E+04  0.46999998093E+01 0.  1.
       -5    1    3    3    0  502  0.19940539631E+03  0.52721268041E+03  0.83923728383E+03  0.10109683630E+04  0.46999998093E+01 0. -1.
</event>
<event>
 5   0  0.8958919E-05  0.1985998E+04  0.7818609E-02  0.8613195E-01
        1   -1    0    0  501    0  0.00000000000E+00  0.00000000000E+00  0.13180059041E+04  0.13180059041E+04  0.50400001928E-02 0. -1.
       -1   -1    0    0    0  501  0.00000000000E+00  0.00000000000E+00 -0.74813588239E+03  0.74813588241E+03  0.50400001928E-02 0.  1.
    10030    2    1    2    0    0  0.00000000000E+00  0.00000000000E+00  0.56987002174E+03  0.20661417866E+04  0.19859984996E+04 0.  0.
        4    1    3    3  502    0 -0.70094617258E+03 -0.29259510035E+03  0.95036204269E+03  0.12166047241E+04  0.12699999809E+01 0. -1.
       -4    1    3    3    0  502  0.70094617258E+03  0.29259510035E+03 -0.38049202095E+03  0.84953706247E+03  0.12699999809E+01 0.  1.
</event>
<event>
 5   0  0.6531625E-05  0.2013318E+04  0.7818609E-02  0.8600419E-01
       -3   -1    0    0    0  501  0.00000000000E+00  0.00000000000E+00  0.48257136665E+03  0.48257137722E+03  0.10100000352E+00 0. -1.
        3   -1    0    0  501    0  0.00000000000E+00  0.00000000000E+00 -0.20999225622E+04  0.20999225647E+04  0.10100000352E+00 0.  1.
    10030    2    1    2    0    0  0.00000000000E+00  0.00000000000E+00 -0.16173511956E+04  0.25824939419E+04  0.20133181740E+04 0.  0.
        2    1    3    3  502    0 -0.67852487520E+03  0.22857751952E+03  0.98985785939E+02  0.72280140738E+03  0.25500000920E-02 0. -1.
       -2    1    3    3    0  502  0.67852487520E+03 -0.22857751952E+03 -0.17163369815E+04  0.18596925345E+04  0.25500000920E-02 0.  1.
</event>
<event>
 5   0  0.8958919E-05  0.1974363E+04  0.7818609E-02  0.8618702E-01
       -1   -1    0    0    0  501  0.00000000000E+00  0.00000000000E+00  0.71203996031E+03  0.71203996032E+03  0.50400001928E-02 0. -1.
        1   -1    0    0  501    0  0.00000000000E+00  0.00000000000E+00 -0.13686409760E+04  0.13686409760E+04  0.50400001928E-02 0.  1.
    10030    2    1    2    0    0  0.00000000000E+00  0.00000000000E+00 -0.65660101567E+03  0.20806809363E+04  0.19743627491E+04 0.  0.
        4    1    3    3  502    0  0.48511869534E+03 -0.74938742794E+02  0.57430747382E+03  0.75550423634E+03  0.12699999809E+01 0. -1.
       -4    1    3    3    0  502 -0.48511869534E+03  0.74938742794E+02 -0.12309084895E+04  0.13251767000E+04  0.12699999809E+01 0.  1.
</event>
<event>
 5   0  0.8765057E-05  0.2105641E+04  0.7818609E-02  0.8558763E-01
       -1   -1    0    0    0  501  0.00000000000E+00  0.00000000000E+00  0.11361142184E+04  0.11361142184E+04  0.50400001928E-02 0. -1.
        1   -1    0    0  501    0  0.00000000000E+00  0.00000000000E+00 -0.97563332244E+03  0.97563332245E+03  0.50400001928E-02 0.  1.
    10030    2    1    2    0    0  0.00000000000E+00  0.00000000000E+00  0.16048089597E+03  0.21117475409E+04  0.21056408902E+04 0.  0.
        3    1    3    3  502    0  0.49465940868E+03  0.14533783405E+03  0.10008458895E+04  0.11258345888E+04  0.10100000352E+00 0. -1.
       -3    1    3    3    0  502 -0.49465940868E+03 -0.14533783405E+03 -0.84036499351E+03  0.98591295210E+03  0.10100000352E+00 0.  1.
</event>
<event>
 5   0  0.8958919E-05  0.1991293E+04  0.7818609E-02  0.8610702E-01
       -1   -1    0    0    0  501  0.00000000000E+00  0.00000000000E+00  0.61097812284E+03  0.61097812286E+03  0.50400001928E-02 0.  1.
        1   -1    0    0  501    0  0.00000000000E+00  0.00000000000E+00 -0.16225000699E+04  0.16225000699E+04  0.50400001928E-02 0. -1.
    10030    2    1    2    0    0  0.00000000000E+00  0.00000000000E+00 -0.10115219471E+04  0.22334781928E+04  0.19912930945E+04 0.  0.
        4    1    3    3  502    0  0.14828530877E+03 -0.68821414571E+03 -0.12954364020E+04  0.14743759113E+04  0.12699999809E+01 0. -1.
       -4    1    3    3    0  502 -0.14828530877E+03  0.68821414571E+03  0.28391445495E+03  0.75910228150E+03  0.12699999809E+01 0.  1.
</event>
<event>
 5   0  0.1812865E-04  0.1814199E+04  0.7818609E-02  0.8698785E-01
       -2   -1    0    0    0  501  0.00000000000E+00  0.00000000000E+00  0.85783961564E+03  0.85783961564E+03  0.25500000920E-02 0.  1.
        2   -1    0    0  501    0  0.00000000000E+00  0.00000000000E+00 -0.95918771276E+03  0.95918771276E+03  0.25500000920E-02 0. -1.
    10030    2    1    2    0    0  0.00000000000E+00  0.00000000000E+00 -0.10134809712E+03  0.18170273284E+04  0.18141986869E+04 0.  0.
        3    1    3    3  502    0  0.21593353170E+03  0.62837392754E+03  0.56782269742E+03  0.87401585159E+03  0.10100000352E+00 0.  1.
       -3    1    3    3    0  502 -0.21593353170E+03 -0.62837392754E+03 -0.66917079454E+03  0.94301147681E+03  0.10100000352E+00 0. -1.
</event>
<event>
 5   0  0.1807498E-04  0.1941945E+04  0.7818609E-02  0.8634255E-01
       -2   -1    0    0    0  501  0.00000000000E+00  0.00000000000E+00  0.13575401330E+04  0.13575401330E+04  0.25500000920E-02 0.  1.
        2   -1    0    0  501    0  0.00000000000E+00  0.00000000000E+00 -0.69448242379E+03  0.69448242379E+03  0.25500000920E-02 0. -1.
    10030    2    1    2    0    0  0.00000000000E+00  0.00000000000E+00  0.66305770920E+03  0.20520225568E+04  0.19419451712E+04 0.  0.
        5    1    3    3  502    0  0.27123156144E+03  0.63623551636E+03 -0.38857129172E+03  0.79332964834E+03  0.46999998093E+01 0. -1.
       -5    1    3    3    0  502 -0.27123156144E+03 -0.63623551636E+03  0.10516290009E+04  0.12586929084E+04  0.46999998093E+01 0.  1.
</event>
<event>
 5   0  0.1807498E-04  0.2024939E+04  0.7818609E-02  0.8595049E-01
        2   -1    0    0  501    0  0.00000000000E+00  0.00000000000E+00  0.12577651730E+04  0.12577651730E+04  0.25500000920E-02 0. -1.
       -2   -1    0    0    0  501  0.00000000000E+00  0.00000000000E+00 -0.81501269073E+03  0.81501269073E+03  0.25500000920E-02 0.  1.
    10030    2    1    2    0    0  0.00000000000E+00  0.00000000000E+00  0.44275248226E+03  0.20727778637E+04  0.20249390884E+04 0.  0.
        5    1    3    3  502    0 -0.75146009964E+03  0.67722176394E+03  0.17854406783E+03  0.10272398323E+04  0.46999998093E+01 0.  1.
       -5    1    3    3    0  502  0.75146009964E+03 -0.67722176394E+03  0.26420841443E+03  0.10455380314E+04  0.46999998093E+01 0. -1.
</event>
<event>
 5   0  0.8861350E-05  0.2024092E+04  0.7818609E-02  0.8595439E-01
        1   -1    0    0  501    0  0.00000000000E+00  0.00000000000E+00  0.12252043232E+04  0.12252043232E+04  0.50400001928E-02 0.  1.
       -1   -1    0    0    0  501  0.00000000000E+00  0.00000000000E+00 -0.83597273263E+03  0.83597273265E+03  0.50400001928E-02 0. -1.
    10030    2    1    2    0    0  0.00000000000E+00  0.00000000000E+00  0.38923159060E+03  0.20611770559E+04  0.20240922965E+04 0.  0.
        1    1    3    3  502    0 -0.11470352838E+02 -0.58765039596E+03 -0.64435572516E+03  0.87215758750E+03  0.50400001928E-02 0. -1.
       -1    1    3    3    0  502  0.11470352838E+02  0.58765039596E+03  0.10335873158E+04  0.11890194684E+04  0.50400001928E-02 0.  1.
</event>
<event>
 5   0  0.1834645E-04  0.2046229E+04  0.7818609E-02  0.8585307E-01
        2   -1    0    0  501    0  0.00000000000E+00  0.00000000000E+00  0.76503462082E+03  0.76503462083E+03  0.25500000920E-02 0.  1.
       -2   -1    0    0    0  501  0.00000000000E+00  0.00000000000E+00 -0.13682562357E+04  0.13682562357E+04  0.25500000920E-02 0. -1.
    10030    2    1    2    0    0  0.00000000000E+00  0.00000000000E+00 -0.60322161486E+03  0.21332908565E+04  0.20462291079E+04 0.  0.
        1    1    3    3  502    0 -0.23310341847E+03  0.14655901024E+03 -0.13289018374E+04  0.13571281593E+04  0.50400001928E-02 0. -1.
       -1    1    3    3    0  502  0.23310341847E+03 -0.14655901024E+03  0.72568022255E+03  0.77616269725E+03  0.50400001928E-02 0.  1.
</event>
<event>
 5   0  0.1834645E-04  0.2026415E+04  0.7818609E-02  0.8594369E-01
       -2   -1    0    0    0  501  0.00000000000E+00  0.00000000000E+00  0.84405675686E+03  0.84405675686E+03  0.25500000920E-02 0. -1.
        2   -1    0    0  501    0  0.00000000000E+00  0.00000000000E+00 -0.12162563917E+04  0.12162563917E+04  0.25500000920E-02 0.  1.
    10030    2    1    2    0    0  0.00000000000E+00  0.00000000000E+00 -0.37219963483E+03  0.20603131486E+04  0.20264149876E+04 0.  0.
        1    1    3    3  502    0  0.68100436826E+03  0.67849843440E+03  0.13935222565E+03  0.97136302065E+03  0.50400001928E-02 0. -1.
       -1    1    3    3    0  502 -0.68100436826E+03 -0.67849843440E+03 -0.51155186049E+03  0.10889501279E+04  0.50400001928E-02 0.  1.
</event>
<event>
 5   0  0.8765057E-05  0.2012099E+04  0.7818609E-02  0.8600985E-01
       -1   -1    0    0    0  501  0.00000000000E+00  0.00000000000E+00  0.95244178055E+03  0.95244178056E+03  0.50400001928E-02 0.  1.
        1   -1    0    0  501    0  0.00000000000E+00  0.00000000000E+00 -0.10626750193E+04  0.10626750193E+04  0.50400001928E-02 0. -1.
    10030    2    1    2    0    0  0.00000000000E+00  0.00000000000E+00 -0.11023323879E+03  0.20151167999E+04  0.20120994882E+04 0.  0.
        3    1    3    3  502    0 -0.56942332803E+03  0.19369172153E+03  0.75255207444E+03  0.96337637736E+03  0.10100000352E+00 0.  1.
       -3    1    3    3    0  502  0.56942332803E+03 -0.19369172153E+03 -0.86278531323E+03  0.10517404226E+04  0.10100000352E+00 0. -1.
</event>
<event>
 5   0  0.1893687E-04  0.2021066E+04  0.7818609E-02  0.8596834E-01
        2   -1    0    0  501    0  0.00000000000E+00  0.00000000000E+00  0.99487783262E+03  0.99487783263E+03  0.25500000920E-02 0.  1.
       -2   -1    0    0    0  501  0.00000000000E+00  0.00000000000E+00 -0.10264350022E+04  0.10264350022E+04  0.25500000920E-02 0. -1.
    10030    2    1    2    0    0  0.00000000000E+00  0.00000000000E+00 -0.31557169583E+02  0.20213128348E+04  0.20210664812E+04 0.  0.
        4    1    3    3  502    0  0.79788755911E+03 -0.42420714841E+03 -0.46816054420E+03  0.10177191016E+04  0.12699999809E+01 0. -1.
       -4    1    3    3    0  502 -0.79788755911E+03  0.42420714841E+03  0.43660337461E+03  0.10035937332E+04  0.12699999809E+01 0.  1.
</event>
<event>
 5   0  0.8577422E-05  0.2034225E+04  0.7818609E-02  0.8590784E-01
        1   -1    0    0  501    0  0.00000000000E+00  0.00000000000E+00  0.14855378571E+04  0.14855378571E+04  0.50400001928E-02 0. -1.
       -1   -1    0    0    0  501  0.00000000000E+00  0.00000000000E+00 -0.69639278131E+03  0.69639278133E+03  0.50400001928E-02 0.  1.
    10030    2    1    2    0    0  0.00000000000E+00  0.00000000000E+00  0.78914507574E+03  0.21819306384E+04  0.20342250023E+04 0.  0.
        2    1    3    3  502    0  0.41669032508E+03 -0.43959419666E+03 -0.48185176822E+03  0.77398644129E+03  0.25500000920E-02 0.  1.
       -2    1    3    3    0  502 -0.41669032508E+03  0.43959419666E+03  0.12709968440E+04  0.14079441971E+04  0.25500000920E-02 0. -1.
</event>
<event>
 5   0  0.1782172E-04  0.2179583E+04  0.7818609E-02  0.8526975E-01
       -2   -1    0    0    0  501  0.00000000000E+00  0.00000000000E+00  0.14212842631E+04  0.14212842632E+04  0.25500000920E-02 0. -1.
        2   -1    0    0  501    0  0.00000000000E+00  0.00000000000E+00 -0.83561411533E+03  0.83561411534E+03  0.25500000920E-02 0.  1.
    10030    2    1    2    0    0  0.00000000000E+00  0.00000000000E+00  0.58567014782E+03  0.22568983785E+04  0.21795827052E+04 0.  0.
        2    1    3    3  502    0 -0.52755806462E+03  0.79798389945E+03  0.83341665985E+03  0.12687313129E+04  0.25500000920E-02 0. -1.
       -2    1    3    3    0  502  0.52755806462E+03 -0.79798389945E+03 -0.24774651204E+03  0.98816706561E+03  0.25500000920E-02 0.  1.
</event>
<event>
 5   0  0.8861350E-05  0.1979659E+04  0.7818609E-02  0.8616190E-01
        1   -1    0    0  501    0  0.00000000000E+00  0.00000000000E+00  0.87664869957E+03  0.87664869958E+03  0.50400001928E-02 0.  1.
       -1   -1    0    0    0  501  0.00000000000E+00  0.00000000000E+00 -0.11176230908E+04  0.11176230908E+04  0.50400001928E-02 0. -1.
    10030    2    1    2    0    0  0.00000000000E+00  0.00000000000E+00 -0.24097439121E+03  0.19942717904E+04  0.19796593941E+04 0.  0.
        1    1    3    3  502    0 -0.79072179218E+03 -0.37257140259E+03  0.34738954198E+03  0.94060081679E+03  0.50400001928E-02 0.  1.
       -1    1    3    3    0  502  0.79072179218E+03  0.37257140259E+03 -0.58836393319E+03  0.10536709736E+04  0.50400001928E-02 0. -1.
</event>
<event>
 5   0  0.1782172E-04  0.1993510E+04  0.7818609E-02  0.8609661E-01
        2   -1    0    0  501    0  0.00000000000E+00  0.00000000000E+00  0.18203145938E+04  0.18203145938E+04  0.25500000920E-02 0. -1.
       -2   -1    0    0    0  501  0.00000000000E+00  0.00000000000E+00 -0.54579585893E+03  0.54579585894E+03  0.25500000920E-02 0.  1.
    10030    2    1    2    0    0  0.00000000000E+00  0.00000000000E+00  0.12745187348E+04  0.23661104527E+04  0.19935096360E+04 0.  0.
        2    1    3    3  502    0  0.42232420064E+03 -0.88627151833E+03  0.43276238549E+03  0.10729017741E+04  0.25500000920E-02 0. -1.
       -2    1    3    3    0  502 -0.42232420064E+03  0.88627151833E+03  0.84175634933E+03  0.12932086786E+04  0.25500000920E-02 0.  1.
</event>
<event>
 5   0  0.1807498E-04  0.1890524E+04  0.7818609E-02  0.8659588E-01
       -2   -1    0    0    0  501  0.00000000000E+00  0.00000000000E+00  0.79150568003E+03  0.79150568004E+03  0.25500000920E-02 0. -1.
        2   -1    0    0  501    0  0.00000000000E+00  0.00000000000E+00 -0.11288861221E+04  0.11288861221E+04  0.25500000920E-02 0.  1.
    10030    2    1    2    0    0  0.00000000000E+00  0.00000000000E+00 -0.33738044204E+03  0.19203918021E+04  0.18905235018E+04 0.  0.
        5    1    3    3  502    0  0.22056193602E+03 -0.30898004369E+02  0.76446111275E+03  0.79625695426E+03  0.46999998093E+01 0. -1.
       -5    1    3    3    0  502 -0.22056193602E+03  0.30898004369E+02 -0.11018415548E+04  0.11241348479E+04  0.46999998093E+01 0.  1.
</event>
<event>
 5   0  0.1807498E-04  0.1998973E+04  0.7818609E-02  0.8607101E-01
       -2   -1    0    0    0  501  0.00000000000E+00  0.00000000000E+00  0.82131426187E+03  0.82131426188E+03  0.25500000920E-02 0. -1.
        2   -1    0    0  501    0  0.00000000000E+00  0.00000000000E+00 -0.12163103714E+04  0.12163103714E+04  0.25500000920E-02 0.  1.
    10030    2    1    2    0    0  0.00000000000E+00  0.00000000000E+00 -0.39499610955E+03  0.20376246333E+04  0.19989727911E+04 0.  0.
        5    1    3    3  502    0 -0.85187622155E+03  0.24829264252E+03  0.27140600082E+03  0.92791467305E+03  0.46999998093E+01 0. -1.
       -5    1    3    3    0  502  0.85187622155E+03 -0.24829264252E+03 -0.66640211038E+03  0.11097099603E+04  0.46999998093E+01 0.  1.
</event>
<event>
 5   0  0.1807498E-04  0.2012520E+04  0.7818609E-02  0.8600790E-01
        2   -1    0    0  501    0  0.00000000000E+00  0.00000000000E+00  0.16640386365E+04  0.16640386365E+04  0.25500000920E-02 0. -1.
       -2   -1    0    0    0  501  0.00000000000E+00  0.00000000000E+00 -0.60849482077E+03  0.60849482077E+03  0.25500000920E-02 0.  1.
    10030    2    1    2    0    0  0.00000000000E+00  0.00000000000E+00  0.10555438158E+04  0.22725334573E+04  0.20125197061E+04 0.  0.
        5    1    3    3  502    0 -0.16683968675E+02 -0.11378451992E+02 -0.60825357613E+03  0.60860687381E+03  0.46999998093E+01 0.  1.
       -5    1    3    3    0  502  0.16683968675E+02  0.11378451992E+02  0.16637973919E+04  0.16639265835E+04  0.46999998093E+01 0. -1.
</event>
<event>
 5   0  0.8765057E-05  0.2006756E+04  0.7818609E-02  0.8603468E-01
        1   -1    0    0  501    0  0.00000000000E+00  0.00000000000E+00  0.67119788842E+03  0.67119788844E+03  0.50400001928E-02 0.  1.
       -1   -1    0    0    0  501  0.00000000000E+00  0.00000000000E+00 -0.14999565349E+04  0.14999565349E+04  0.50400001928E-02 0. -1.
    10030    2    1    2    0    0  0.00000000000E+00  0.00000000000E+00 -0.82875864649E+03  0.21711544234E+04  0.20067562473E+04 0.  0.
        3    1    3    3  502    0  0.97488532887E+03  0.15658690363E+03 -0.22130305574E+03  0.10118774212E+04  0.10100000352E+00 0.  1.
       -3    1    3    3    0  502 -0.97488532887E+03 -0.15658690363E+03 -0.60745559076E+03  0.11592770022E+04  0.10100000352E+00 0. -1.
</event>
<event>
 5   0  0.8765057E-05  0.2016766E+04  0.7818609E-02  0.8598822E-01
       -1   -1    0    0    0  501  0.00000000000E+00  0.00000000000E+00  0.91711379679E+03  0.91711379681E+03  0.50400001928E-02 0.  1.
        1   -1    0    0  501    0  0.00000000000E+00  0.00000000000E+00 -0.11087353805E+04  0.11087353806E+04  0.50400001928E-02 0. -1.
    10030    2    1    2    0    0  0.00000000000E+00  0.00000000000E+00 -0.19162158376E+03  0.20258491774E+04  0.20167662378E+04 0.  0.
        3    1    3    3  502    0  0.93457533325E+03 -0.21569407955E+03  0.21684898061E+03  0.98335063942E+03  0.10100000352E+00 0.  1.
       -3    1    3    3    0  502 -0.93457533325E+03  0.21569407955E+03 -0.40847056437E+03  0.10424985379E+04  0.10100000352E+00 0. -1.
</event>
<event>
 5   0  0.8765057E-05  0.2090697E+04  0.7818609E-02  0.8565353E-01
        1   -1    0    0  501    0  0.00000000000E+00  0.00000000000E+00  0.79563296897E+03  0.79563296898E+03  0.50400001928E-02 0.  1.
       -1   -1    0    0    0  501  0.00000000000E+00  0.00000000000E+00 -0.13734389283E+04  0.13734389283E+04  0.50400001928E-02 0. -1.
    10030    2    1    2    0    0  0.00000000000E+00  0.00000000000E+00 -0.57780595928E+03  0.21690718972E+04  0.20906968142E+04 0.  0.
        3    1    3    3  502    0 -0.28923013827E+03  0.20798020035E+03 -0.13085180798E+04  0.13561450556E+04  0.10100000352E+00 0. -1.
       -3    1    3    3    0  502  0.28923013827E+03 -0.20798020035E+03  0.73071212048E+03  0.81292684162E+03  0.10100000352E+00 0.  1.
</event>
<event>
 5   0  0.1834645E-04  0.1455886E+04  0.7818609E-02  0.8914330E-01
        2   -1    0    0  501    0  0.00000000000E+00  0.00000000000E+00  0.16642067149E+04  0.16642067149E+04  0.25500000920E-02 0.  1.
       -2   -1    0    0    0  501  0.00000000000E+00  0.00000000000E+00 -0.31841049772E+03  0.31841049773E+03  0.25500000920E-02 0. -1.
    10030    2    1    2    0    0  0.00000000000E+00  0.00000000000E+00  0.13457962172E+04  0.19826172127E+04  0.14558858313E+04 0.  0.
        1    1    3    3  502    0  0.38576693829E+03  0.60922803510E+03  0.80857247140E+03  0.10834040663E+04  0.50400001928E-02 0.  1.
       -1    1    3    3    0  502 -0.38576693829E+03 -0.60922803510E+03  0.53722374582E+03  0.89921314632E+03  0.50400001928E-02 0. -1.
</event>
<event>
 5   0  0.8881384E-05  0.1981225E+04  0.7818609E-02  0.8615449E-01
        1   -1    0    0  501    0  0.00000000000E+00  0.00000000000E+00  0.12554975258E+04  0.12554975258E+04  0.50400001928E-02 0. -1.
       -1   -1    0    0    0  501  0.00000000000E+00  0.00000000000E+00 -0.78161257626E+03  0.78161257628E+03  0.50400001928E-02 0.  1.
    10030    2    1    2    0    0  0.00000000000E+00  0.00000000000E+00  0.47388494956E+03  0.20371101021E+04  0.19812245261E+04 0.  0.
        5    1    3    3  502    0 -0.16358755256E+03  0.39237544823E+02  0.12406911842E+04  0.12520531845E+04  0.46999998093E+01 0. -1.
       -5    1    3    3    0  502  0.16358755256E+03 -0.39237544823E+02 -0.76680623468E+03  0.78505691756E+03  0.46999998093E+01 0.  1.
</event>
<event>
 5   0  0.1834645E-04  0.2000697E+04  0.7818609E-02  0.8606295E-01
        2   -1    0    0  501    0  0.00000000000E+00  0.00000000000E+00  0.13345814576E+04  0.13345814576E+04  0.25500000920E-02 0.  1.
       -2   -1    0    0    0  501  0.00000000000E+00  0.00000000000E+00 -0.74982113342E+03  0.74982113343E+03  0.25500000920E-02 0. -1.
    10030    2    1    2    0    0  0.00000000000E+00  0.00000000000E+00  0.58476032420E+03  0.20844025911E+04  0.20006972597E+04 0.  0.
        1    1    3    3  502    0 -0.98143126637E+03 -0.18847830104E+03  0.24618570761E+03  0.10292418585E+04  0.50400001928E-02 0. -1.
       -1    1    3    3    0  502  0.98143126637E+03  0.18847830104E+03  0.33857461659E+03  0.10551607326E+04  0.50400001928E-02 0.  1.
</event>
<event>
 5   0  0.1812865E-04  0.1583511E+04  0.7818609E-02  0.8830742E-01
        2   -1    0    0  501    0  0.00000000000E+00  0.00000000000E+00  0.12261711386E+04  0.12261711386E+04  0.25500000920E-02 0.  1.
       -2   -1    0    0    0  501  0.00000000000E+00  0.00000000000E+00 -0.51124735547E+03  0.51124735547E+03  0.25500000920E-02 0. -1.
    10030    2    1    2    0    0  0.00000000000E+00  0.00000000000E+00  0.71492378313E+03  0.17374184941E+04  0.15835109750E+04 0.  0.
        3    1    3    3  502    0 -0.59042902080E+02 -0.55585499432E+03 -0.25776543085E+03  0.61555167658E+03  0.10100000352E+00 0. -1.
       -3    1    3    3    0  502  0.59042902080E+02  0.55585499432E+03  0.97268921398E+03  0.11218668175E+04  0.10100000352E+00 0.  1.
</event>
<event>
 5   0  0.1782172E-04  0.1675013E+04  0.7818609E-02  0.8775745E-01
       -2   -1    0    0    0  501  0.00000000000E+00  0.00000000000E+00  0.56678665988E+03  0.56678665988E+03  0.25500000920E-02 0.  1.
        2   -1    0    0  501    0  0.00000000000E+00  0.00000000000E+00 -0.12375328358E+04  0.12375328359E+04  0.25500000920E-02 0. -1.
    10030    2    1    2    0    0  0.00000000000E+00  0.00000000000E+00 -0.67074617597E+03  0.18043194957E+04  0.16750129582E+04 0.  0.
        2    1    3    3  502    0  0.10953886881E+03  0.15043515017E+03  0.54423462598E+03  0.57517025854E+03  0.25500000920E-02 0.  1.
       -2    1    3    3    0  502 -0.10953886881E+03 -0.15043515017E+03 -0.12149808019E+04  0.12291492372E+04  0.25500000920E-02 0. -1.
</event>
<event>
 5   0  0.8577422E-05  0.1966813E+04  0.7818609E-02  0.8622296E-01
       -1   -1    0    0    0  501  0.00000000000E+00  0.00000000000E+00  0.74413976314E+03  0.74413976316E+03  0.50400001928E-02 0. -1.
        1   -1    0    0  501    0  0.00000000000E+00  0.00000000000E+00 -0.12996059240E+04  0.12996059240E+04  0.50400001928E-02 0.  1.
    10030    2    1    2    0    0  0.00000000000E+00  0.00000000000E+00 -0.55546616085E+03  0.20437456872E+04  0.19668131019E+04 0.  0.
        2    1    3    3  502    0  0.33642360727E+03  0.69037846284E+03 -0.91599455812E+03  0.11953448440E+04  0.25500000920E-02 0.  1.
       -2    1    3    3    0  502 -0.33642360727E+03 -0.69037846284E+03  0.36052839727E+03  0.84840084320E+03  0.25500000920E-02 0. -1.
</event>
<event>
 5   0  0.1807498E-04  0.1955863E+04  0.7818609E-02  0.8627539E-01
       -2   -1    0    0    0  501  0.00000000000E+00  0.00000000000E+00  0.10461405205E+04  0.10461405205E+04  0.25500000920E-02 0. -1.
        2   -1    0    0  501    0  0.00000000000E+00  0.00000000000E+00 -0.91416996780E+03  0.91416996780E+03  0.25500000920E-02 0.  1.
    10030    2    1    2    0    0  0.00000000000E+00  0.00000000000E+00  0.13197055268E+03  0.19603104883E+04  0.19558632324E+04 0.  0.
        5    1    3    3  502    0  0.65613388902E+03 -0.16232941386E+02  0.79258399413E+03  0.10290707782E+04  0.46999998093E+01 0. -1.
       -5    1    3    3    0  502 -0.65613388902E+03  0.16232941386E+02 -0.66061344144E+03  0.93123971013E+03  0.46999998093E+01 0.  1.
</event>
<event>
 5   0  0.6531625E-05  0.2004287E+04  0.7818609E-02  0.8604619E-01
        3   -1    0    0  501    0  0.00000000000E+00  0.00000000000E+00  0.77079837927E+03  0.77079838589E+03  0.10100000352E+00 0. -1.
       -3   -1    0    0    0  501  0.00000000000E+00  0.00000000000E+00 -0.13029240454E+04  0.13029240493E+04  0.10100000352E+00 0.  1.
    10030    2    1    2    0    0  0.00000000000E+00  0.00000000000E+00 -0.53212566616E+03  0.20737224352E+04  0.20042871585E+04 0.  0.
        5    1    3    3  502    0  0.22948934914E+03  0.58622554862E+03 -0.10727821158E+04  0.12438686881E+04  0.46999998093E+01 0.  1.
       -5    1    3    3    0  502 -0.22948934914E+03 -0.58622554862E+03  0.54065644960E+03  0.82985374719E+03  0.46999998093E+01 0. -1.
</event>
<event>
 5   0  0.1807498E-04  0.2017367E+04  0.7818609E-02  0.8598544E-01
       -2   -1    0    0    0  501  0.00000000000E+00  0.00000000000E+00  0.41671739832E+03  0.41671739833E+03  0.25500000920E-02 0. -1.
        2   -1    0    0  501    0  0.00000000000E+00  0.00000000000E+00 -0.24415638879E+04  0.24415638879E+04  0.25500000920E-02 0.  1.
    10030    2    1    2    0    0  0.00000000000E+00  0.00000000000E+00 -0.20248464895E+04  0.28582812862E+04  0.20173667502E+04 0.  0.
        5    1    3    3  502    0 -0.85551061851E+03  0.46795736834E+02 -0.17665906683E+04  0.19634034071E+04  0.46999998093E+01 0.  1.
       -5    1    3    3    0  502  0.85551061851E+03 -0.46795736834E+02 -0.25825582120E+03  0.89487787913E+03  0.46999998093E+01 0. -1.
</event>
<event>
 5   0  0.1834645E-04  0.1964289E+04  0.7818609E-02  0.8623501E-01
       -2   -1    0    0    0  501  0.00000000000E+00  0.00000000000E+00  0.79590802649E+03  0.79590802650E+03  0.25500000920E-02 0. -1.
        2   -1    0    0  501    0  0.00000000000E+00  0.00000000000E+00 -0.12119588274E+04  0.12119588274E+04  0.25500000920E-02 0.  1.
    10030    2    1    2    0    0  0.00000000000E+00  0.00000000000E+00 -0.41605080089E+03  0.20078668539E+04  0.19642889385E+04 0.  0.
        1    1    3    3  502    0  0.78547047005E+03 -0.45696457364E+03  0.17283598509E+03  0.92501500455E+03  0.50400001928E-02 0. -1.
       -1    1    3    3    0  502 -0.78547047005E+03  0.45696457364E+03 -0.58888678598E+03  0.10828518493E+04  0.50400001928E-02 0.  1.
</event>
<event>
 5   0  0.1893687E-04  0.2022503E+04  0.7818609E-02  0.8596171E-01
        2   -1    0    0  501    0  0.00000000000E+00  0.00000000000E+00  0.76463416522E+03  0.76463416522E+03  0.25500000920E-02 0. -1.
       -2   -1    0    0    0  501  0.00000000000E+00  0.00000000000E+00 -0.13374108610E+04  0.13374108610E+04  0.25500000920E-02 0.  1.
    10030    2    1    2    0    0  0.00000000000E+00  0.00000000000E+00 -0.57277669579E+03  0.21020450262E+04  0.20225034361E+04 0.  0.
        4    1    3    3  502    0  0.36587905988E+03 -0.29797393191E+03 -0.12159758328E+04  0.13043215821E+04  0.12699999809E+01 0.  1.
       -4    1    3    3    0  502 -0.36587905988E+03  0.29797393191E+03  0.64319913704E+03  0.79772344415E+03  0.12699999809E+01 0. -1.
</event>
<event>
 5   0  0.8577422E-05  0.1991124E+04  0.7818609E-02  0.8610782E-01
       -1   -1    0    0    0  501  0.00000000000E+00  0.00000000000E+00  0.55652122748E+03  0.55652122751E+03  0.50400001928E-02 0.  1.
        1   -1    0    0  501    0  0.00000000000E+00  0.00000000000E+00 -0.17809623676E+04  0.17809623677E+04  0.50400001928E-02 0. -1.
    10030    2    1    2    0    0  0.00000000000E+00  0.00000000000E+00 -0.12244411402E+04  0.23374835952E+04  0.19911236657E+04 0.  0.
        2    1    3    3  502    0  0.82298298596E+03  0.55964733275E+03 -0.58258599564E+03  0.11532183551E+04  0.25500000920E-02 0.  1.
       -2    1    3    3    0  502 -0.82298298596E+03 -0.55964733275E+03 -0.64185514452E+03  0.11842652401E+04  0.25500000920E-02 0. -1.
</event>
<event>
 5   0  0.8577422E-05  0.1965311E+04  0.7818609E-02  0.8623013E-01
       -1   -1    0    0    0  501  0.00000000000E+00  0.00000000000E+00  0.72961718708E+03  0.72961718709E+03  0.50400001928E-02 0.  1.
        1   -1    0    0  501    0  0.00000000000E+00  0.00000000000E+00 -0.13234495186E+04  0.13234495187E+04  0.50400001928E-02 0. -1.
    10030    2    1    2    0    0  0.00000000000E+00  0.00000000000E+00 -0.59383233157E+03  0.20530667057E+04  0.19653106778E+04 0.  0.
        2    1    3    3  502    0  0.84332494841E+02  0.29380417454E+03  0.67869008167E+03  0.74434742535E+03  0.25500000920E-02 0.  1.
       -2    1    3    3    0  502 -0.84332494841E+02 -0.29380417454E+03 -0.12725224132E+04  0.13087192804E+04  0.25500000920E-02 0. -1.
</event>
<event>
 5   0  0.1807498E-04  0.1994963E+04  0.7818609E-02  0.8608979E-01
       -2   -1    0    0    0  501  0.00000000000E+00  0.00000000000E+00  0.62780664453E+03  0.62780664454E+03  0.25500000920E-02 0.  1.
        2   -1    0    0  501    0  0.00000000000E+00  0.00000000000E+00 -0.15848337419E+04  0.15848337419E+04  0.25500000920E-02 0. -1.
    10030    2    1    2    0    0  0.00000000000E+00  0.00000000000E+00 -0.95702709740E+03  0.22126403865E+04  0.19949628104E+04 0.  0.
        5    1    3    3  502    0  0.76339105286E+03 -0.47141070165E+03 -0.96190530570E+03  0.13154002647E+04  0.46999998093E+01 0. -1.
       -5    1    3    3    0  502 -0.76339105286E+03  0.47141070165E+03  0.48782083026E+01  0.89724012178E+03  0.46999998093E+01 0.  1.
</event>
<event>
 5   0  0.1812865E-04  0.1982021E+04  0.7818609E-02  0.8615073E-01
       -2   -1    0    0    0  501  0.00000000000E+00  0.00000000000E+00  0.76492207037E+03  0.76492207037E+03  0.25500000920E-02 0. -1.
        2   -1    0    0  501    0  0.00000000000E+00  0.00000000000E+00 -0.12839237603E+04  0.12839237603E+04  0.25500000920E-02 0.  1.
    10030    2    1    2    0    0  0.00000000000E+00  0.00000000000E+00 -0.51900168992E+03  0.20488458307E+04  0.19820208081E+04 0.  0.
        3    1    3    3  502    0 -0.97503160624E+03  0.12354840176E+03 -0.39087129465E+03  0.10577009123E+04  0.10100000352E+00 0.  1.
       -3    1    3    3    0  502  0.97503160624E+03 -0.12354840176E+03 -0.12813039527E+03  0.99114491834E+03  0.10100000352E+00 0. -1.
</event>
<event>
 5   0  0.8577422E-05  0.2058479E+04  0.7818609E-02  0.8579758E-01
       -1   -1    0    0    0  501  0.00000000000E+00  0.00000000000E+00  0.56214995738E+03  0.56214995740E+03  0.50400001928E-02 0.  1.
        1   -1    0    0  501    0  0.00000000000E+00  0.00000000000E+00 -0.18844325256E+04  0.18844325256E+04  0.50400001928E-02 0. -1.
    10030    2    1    2    0    0  0.00000000000E+00  0.00000000000E+00 -0.13222825682E+04  0.24465824830E+04  0.20584787237E+04 0.  0.
        2    1    3    3  502    0  0.50062647351E+03 -0.44466855238E+03  0.26788028112E+03  0.72119125929E+03  0.25500000920E-02 0.  1.
       -2    1    3    3    0  502 -0.50062647351E+03  0.44466855238E+03 -0.15901628493E+04  0.17253912237E+04  0.25500000920E-02 0. -1.
</event>
<event>
 5   0  0.1782172E-04  0.1993746E+04  0.7818609E-02  0.8609550E-01
       -2   -1    0    0    0  501  0.00000000000E+00  0.00000000000E+00  0.11474634262E+04  0.11474634262E+04  0.25500000920E-02 0. -1.
        2   -1    0    0  501    0  0.00000000000E+00  0.00000000000E+00 -0.86604540139E+03  0.86604540140E+03  0.25500000920E-02 0.  1.
    10030    2    1    2    0    0  0.00000000000E+00  0.00000000000E+00  0.28141802477E+03  0.20135088276E+04  0.19937456443E+04 0.  0.
        2    1    3    3  502    0 -0.46015942999E+03 -0.67639835006E+03  0.71599940082E+03  0.10871598645E+04  0.25500000920E-02 0. -1.
       -2    1    3    3    0  502  0.46015942999E+03  0.67639835006E+03 -0.43458137605E+03  0.92634896307E+03  0.25500000920E-02 0.  1.
</event>
<event>
 5   0  0.8958919E-05  0.2014895E+04  0.7818609E-02  0.8599688E-01
        1   -1    0    0  501    0  0.00000000000E+00  0.00000000000E+00  0.13116009889E+04  0.13116009889E+04  0.50400001928E-02 0. -1.
       -1   -1    0    0    0  501  0.00000000000E+00  0.00000000000E+00 -0.77382551121E+03  0.77382551123E+03  0.50400001928E-02 0.  1.
    10030    2    1    2    0    0  0.00000000000E+00  0.00000000000E+00  0.53777547765E+03  0.20854265001E+04  0.20148948417E+04 0.  0.
        4    1    3    3  502    0 -0.10037464342E+04 -0.55524127868E+02  0.33722049812E+03  0.10603344332E+04  0.12699999809E+01 0.  1.
       -4    1    3    3    0  502  0.10037464342E+04  0.55524127868E+02  0.20055497953E+03  0.10250920669E+04  0.12699999809E+01 0. -1.
</event>
<event>
 5   0  0.8765057E-05  0.1965259E+04  0.7818609E-02  0.8623037E-01
       -1   -1    0    0    0  501  0.00000000000E+00  0.00000000000E+00  0.59130357954E+03  0.59130357957E+03  0.50400001928E-02 0. -1.
        1   -1    0    0  501    0  0.00000000000E+00  0.00000000000E+00 -0.16329364547E+04  0.16329364547E+04  0.50400001928E-02 0.  1.
    10030    2    1    2    0    0  0.00000000000E+00  0.00000000000E+00 -0.10416328752E+04  0.22242400343E+04  0.19652594443E+04 0.  0.
        3    1    3    3  502    0  0.56129423026E+03  0.63437147741E+03  0.42899181539E+02  0.84812660273E+03  0.10100000352E+00 0. -1.
       -3    1    3    3    0  502 -0.56129423026E+03 -0.63437147741E+03 -0.10845320567E+04  0.13761134315E+04  0.10100000352E+00 0.  1.
</event>
<event>
 5   0  0.1834645E-04  0.1896006E+04  0.7818609E-02  0.8656847E-01
        2   -1    0    0  501    0  0.00000000000E+00  0.00000000000E+00  0.11305439483E+04  0.11305439483E+04  0.25500000920E-02 0. -1.
       -2   -1    0    0    0  501  0.00000000000E+00  0.00000000000E+00 -0.79493541997E+03  0.79493541997E+03  0.25500000920E-02 0.  1.
    10030    2    1    2    0    0  0.00000000000E+00  0.00000000000E+00  0.33560852835E+03  0.19254793683E+04  0.18960057261E+04 0.  0.
        1    1    3    3  502    0 -0.49814699130E+02 -0.67854272492E+02  0.11267411673E+04  0.11298811286E+04  0.50400001928E-02 0. -1.
       -1    1    3    3    0  502  0.49814699130E+02  0.67854272492E+02 -0.79113263898E+03  0.79559823971E+03  0.50400001928E-02 0.  1.
</event>
<event>
 5   0  0.8577422E-05  0.1928456E+04  0.7818609E-02  0.8640820E-01
       -1   -1    0    0    0  501  0.00000000000E+00  0.00000000000E+00  0.42065076015E+03  0.42065076018E+03  0.50400001928E-02 0.  1.
        1   -1    0    0  501    0  0.00000000000E+00  0.00000000000E+00 -0.22102320584E+04  0.22102320584E+04  0.50400001928E-02 0. -1.
    10030    2    1    2    0    0  0.00000000000E+00  0.00000000000E+00 -0.17895812983E+04  0.26308828186E+04  0.19284561655E+04 0.  0.
        2    1    3    3  502    0 -0.57996664570E+03  0.43201900768E+03 -0.24735051828E+02  0.72361146752E+03  0.25500000920E-02 0.  1.
       -2    1    3    3    0  502  0.57996664570E+03 -0.43201900768E+03 -0.17648462465E+04  0.19072713511E+04  0.25500000920E-02 0. -1.
</event>
<event>
 5   0  0.1834645E-04  0.1959298E+04  0.7818609E-02  0.8625890E-01
       -2   -1    0    0    0  501  0.00000000000E+00  0.00000000000E+00  0.50844201585E+03  0.50844201585E+03  0.25500000920E-02 0.  1.
        2   -1    0    0  501    0  0.00000000000E+00  0.00000000000E+00 -0.18875553936E+04  0.18875553936E+04  0.25500000920E-02 0. -1.
    10030    2    1    2    0    0  0.00000000000E+00  0.00000000000E+00 -0.13791133778E+04  0.23959974095E+04  0.19592983125E+04 0.  0.
        1    1    3    3  502    0 -0.10470512201E+03 -0.58555660684E+03 -0.16414241823E+04  0.17458846035E+04  0.50400001928E-02 0. -1.
       -1    1    3    3    0  502  0.10470512201E+03  0.58555660684E+03  0.26231080450E+03  0.65011280603E+03  0.50400001928E-02 0.  1.
</event>
<event>
 5   0  0.1812865E-04  0.2001877E+04  0.7818609E-02  0.8605743E-01
        2   -1    0    0  501    0  0.00000000000E+00  0.00000000000E+00  0.13754140714E+04  0.13754140714E+04  0.25500000920E-02 0. -1.
       -2   -1    0    0    0  501  0.00000000000E+00  0.00000000000E+00 -0.72841939112E+03  0.72841939113E+03  0.25500000920E-02 0.  1.
    10030    2    1    2    0    0  0.00000000000E+00  0.00000000000E+00  0.64699468025E+03  0.21038334625E+04  0.20018773993E+04 0.  0.
        3    1    3    3  502    0  0.30311139973E+03 -0.62538875728E+03 -0.43353041998E+03  0.81910698546E+03  0.10100000352E+00 0.  1.
       -3    1    3    3    0  502 -0.30311139973E+03  0.62538875728E+03  0.10805251002E+04  0.12847264770E+04  0.10100000352E+00 0. -1.
</event>
<event>
 5   0  0.8861350E-05  0.1959176E+04  0.7818609E-02  0.8625949E-01
        1   -1    0    0  501    0  0.00000000000E+00  0.00000000000E+00  0.16248587454E+04  0.16248587454E+04  0.50400001928E-02 0.  1.
       -1   -1    0    0    0  501  0.00000000000E+00  0.00000000000E+00 -0.59056970692E+03  0.59056970694E+03  0.50400001928E-02 0. -1.
    10030    2    1    2    0    0  0.00000000000E+00  0.00000000000E+00  0.10342890385E+04  0.22154284524E+04  0.19591756972E+04 0.  0.
        1    1    3    3  502    0 -0.88918505730E+03 -0.32333806826E+03  0.23019224051E+03  0.97374844807E+03  0.50400001928E-02 0. -1.
       -1    1    3    3    0  502  0.88918505730E+03  0.32333806826E+03  0.80409679798E+03  0.12416800043E+04  0.50400001928E-02 0.  1.
</event>
<event>
 5   0  0.8861350E-05  0.2013173E+04  0.7818609E-02  0.8600486E-01
       -1   -1    0    0    0  501  0.00000000000E+00  0.00000000000E+00  0.11227258960E+04  0.11227258960E+04  0.50400001928E-02 0. -1.
        1   -1    0    0  501    0  0.00000000000E+00  0.00000000000E+00 -0.90246136486E+03  0.90246136488E+03  0.50400001928E-02 0.  1.
    10030    2    1    2    0    0  0.00000000000E+00  0.00000000000E+00  0.22026453115E+03  0.20251872609E+04  0.20131733602E+04 0.  0.
        1    1    3    3  502    0  0.83210574842E+03  0.22165235613E+03 -0.41421431710E+03  0.95556435892E+03  0.50400001928E-02 0. -1.
       -1    1    3    3    0  502 -0.83210574842E+03 -0.22165235613E+03  0.63447884826E+03  0.10696229020E+04  0.50400001928E-02 0.  1.
</event>
<event>
 5   0  0.1834645E-04  0.2007646E+04  0.7818609E-02  0.8603054E-01
       -2   -1    0    0    0  501  0.00000000000E+00  0.00000000000E+00  0.61948065328E+03  0.61948065328E+03  0.25500000920E-02 0.  1.
        2   -1    0    0  501    0  0.00000000000E+00  0.00000000000E+00 -0.16266212008E+04  0.16266212008E+04  0.25500000920E-02 0. -1.
    10030    2    1    2    0    0  0.00000000000E+00  0.00000000000E+00 -0.10071405475E+04  0.22461018541E+04  0.20076457497E+04 0.  0.
        1    1    3    3  502    0  0.77067262464E+03  0.56330939505E+03 -0.85094301440E+03  0.12788110817E+04  0.50400001928E-02 0. -1.
       -1    1    3    3    0  502 -0.77067262464E+03 -0.56330939505E+03 -0.15619753311E+03  0.96729077236E+03  0.50400001928E-02 0.  1.
</event>
<event>
 5   0  0.8577422E-05  0.1943733E+04  0.7818609E-02  0.8633389E-01
        1   -1    0    0  501    0  0.00000000000E+00  0.00000000000E+00  0.13526550286E+04  0.13526550286E+04  0.50400001928E-02 0. -1.
       -1   -1    0    0    0  501  0.00000000000E+00  0.00000000000E+00 -0.69827478756E+03  0.69827478758E+03  0.50400001928E-02 0.  1.
    10030    2    1    2    0    0  0.00000000000E+00  0.00000000000E+00  0.65438024102E+03  0.20509298162E+04  0.19437334208E+04 0.  0.
        2    1    3    3  502    0 -0.76211517474E+03 -0.58972027484E+03  0.19399293599E+03  0.98296632768E+03  0.25500000920E-02 0. -1.
       -2    1    3    3    0  502  0.76211517474E+03  0.58972027484E+03  0.46038730503E+03  0.10679634885E+04  0.25500000920E-02 0.  1.
</event>
<event>
 5   0  0.8861350E-05  0.2010536E+04  0.7818609E-02  0.8601711E-01
       -1   -1    0    0    0  501  0.00000000000E+00  0.00000000000E+00  0.50365435774E+03  0.50365435776E+03  0.50400001928E-02 0. -1.
        1   -1    0    0  501    0  0.00000000000E+00  0.00000000000E+00 -0.20064619138E+04  0.20064619138E+04  0.50400001928E-02 0.  1.
    10030    2    1    2    0    0  0.00000000000E+00  0.00000000000E+00 -0.15028075560E+04  0.25101162715E+04  0.20105355372E+04 0.  0.
        1    1    3    3  502    0  0.88601001057E+03 -0.41490597343E+03 -0.46289222507E+03  0.10823261605E+04  0.50400001928E-02 0. -1.
       -1    1    3    3    0  502 -0.88601001057E+03  0.41490597343E+03 -0.10399153310E+04  0.14277901111E+04  0.50400001928E-02 0.  1.
</event>
<event>
 5   0  0.1812865E-04  0.1985628E+04  0.7818609E-02  0.8613370E-01
       -2   -1    0    0    0  501  0.00000000000E+00  0.00000000000E+00  0.70683354502E+03  0.70683354502E+03  0.25500000920E-02 0.  1.
        2   -1    0    0  501    0  0.00000000000E+00  0.00000000000E+00 -0.13945004102E+04  0.13945004102E+04  0.25500000920E-02 0. -1.
    10030    2    1    2    0    0  0.00000000000E+00  0.00000000000E+00 -0.68766686515E+03  0.21013339552E+04  0.19856280301E+04 0.  0.
        3    1    3    3  502    0  0.58622185811E+03  0.63830982373E+02 -0.11890932642E+04  0.13272804008E+04  0.10100000352E+00 0. -1.
       -3    1    3    3    0  502 -0.58622185811E+03 -0.63830982373E+02  0.50142639902E+03  0.77405355440E+03  0.10100000352E+00 0.  1.
</event>
<event>
 5   0  0.8958919E-05  0.2011214E+04  0.7818609E-02  0.8601395E-01
        1   -1    0    0  501    0  0.00000000000E+00  0.00000000000E+00  0.16382606907E+04  0.16382606907E+04  0.50400001928E-02 0. -1.
       -1   -1    0    0    0  501  0.00000000000E+00  0.00000000000E+00 -0.61726797463E+03  0.61726797466E+03  0.50400001928E-02 0.  1.
    10030    2    1    2    0    0  0.00000000000E+00  0.00000000000E+00  0.10209927160E+04  0.22555286653E+04  0.20112144177E+04 0.  0.
        4    1    3    3  502    0  0.20071840263E+03 -0.33920561325E+03 -0.52703314571E+03  0.65811387677E+03  0.12699999809E+01 0.  1.
       -4    1    3    3    0  502 -0.20071840263E+03  0.33920561325E+03  0.15480258618E+04  0.15974147886E+04  0.12699999809E+01 0. -1.
</event>
<event>
 5   0  0.8861350E-05  0.1761635E+04  0.7818609E-02  0.8726972E-01
       -1   -1    0    0    0  501  0.00000000000E+00  0.00000000000E+00  0.35730327010E+03  0.35730327014E+03  0.50400001928E-02 0.  1.
        1   -1    0    0  501    0  0.00000000000E+00  0.00000000000E+00 -0.21713760874E+04  0.21713760874E+04  0.50400001928E-02 0. -1.
    10030    2    1    2    0    0  0.00000000000E+00  0.00000000000E+00 -0.18140728173E+04  0.25286793575E+04  0.17616353501E+04 0.  0.
        1    1    3    3  502    0 -0.56050025934E+03  0.25611422133E+03 -0.36536390759E+01  0.61625350644E+03  0.50400001928E-02 0.  1.
       -1    1    3    3    0  502  0.56050025934E+03 -0.25611422133E+03 -0.18104191782E+04  0.19124258511E+04  0.50400001928E-02 0. -1.
</event>
<event>
 5   0  0.8861350E-05  0.1991414E+04  0.7818609E-02  0.8610646E-01
       -1   -1    0    0    0  501  0.00000000000E+00  0.00000000000E+00  0.60751531183E+03  0.60751531185E+03  0.50400001928E-02 0.  1.
        1   -1    0    0  501    0  0.00000000000E+00  0.00000000000E+00 -0.16319455946E+04  0.16319455947E+04  0.50400001928E-02 0. -1.
    10030    2    1    2    0    0  0.00000000000E+00  0.00000000000E+00 -0.10244302828E+04  0.22394609065E+04  0.19914135049E+04 0.  0.
        1    1    3    3  502    0  0.14212503896E+03  0.64631109291E+03  0.32444001515E+03  0.73700670212E+03  0.50400001928E-02 0.  1.
       -1    1    3    3    0  502 -0.14212503896E+03 -0.64631109291E+03 -0.13488702980E+04  0.15024542044E+04  0.50400001928E-02 0. -1.
</event>
<event>
 5   0  0.1782172E-04  0.2000940E+04  0.7818609E-02  0.8606182E-01
       -2   -1    0    0    0  501  0.00000000000E+00  0.00000000000E+00  0.58037518124E+03  0.58037518124E+03  0.25500000920E-02 0. -1.
        2   -1    0    0  501    0  0.00000000000E+00  0.00000000000E+00 -0.17246425848E+04  0.17246425848E+04  0.25500000920E-02 0.  1.
    10030    2    1    2    0    0  0.00000000000E+00  0.00000000000E+00 -0.11442674036E+04  0.23050177661E+04  0.20009395321E+04 0.  0.
        2    1    3    3  502    0 -0.55436908735E+03  0.40815796315E+03  0.26415182322E+03  0.73735621894E+03  0.25500000920E-02 0. -1.
       -2    1    3    3    0  502  0.55436908735E+03 -0.40815796315E+03 -0.14084192268E+04  0.15676615471E+04  0.25500000920E-02 0.  1.
</event>
<event>
 5   0  0.1893687E-04  0.2054696E+04  0.7818609E-02  0.8581467E-01
        2   -1    0    0  501    0  0.00000000000E+00  0.00000000000E+00  0.20533504525E+04  0.20533504525E+04  0.25500000920E-02 0. -1.
       -2   -1    0    0    0  501  0.00000000000E+00  0.00000000000E+00 -0.51401077987E+03  0.51401077987E+03  0.25500000920E-02 0.  1.
    10030    2    1    2    0    0  0.00000000000E+00  0.00000000000E+00  0.15393396726E+04  0.25673612324E+04  0.20546963449E+04 0.  0.
        4    1    3    3  502    0 -0.86587536792E+02 -0.53709365600E+03  0.18585905520E+04  0.19365762185E+04  0.12699999809E+01 0. -1.
       -4    1    3    3    0  502  0.86587536792E+02  0.53709365600E+03 -0.31925087943E+03  0.63078501390E+03  0.12699999809E+01 0.  1.
</event>
<event>
 5   0  0.1812865E-04  0.2000058E+04  0.7818609E-02  0.8606594E-01
        2   -1    0    0  501    0  0.00000000000E+00  0.00000000000E+00  0.11916470469E+04  0.11916470469E+04  0.25500000920E-02 0.  1.
       -2   -1    0    0    0  501  0.00000000000E+00  0.00000000000E+00 -0.83922308895E+03  0.83922308895E+03  0.25500000920E-02 0. -1.
    10030    2    1    2    0    0  0.00000000000E+00  0.00000000000E+00  0.35242395799E+03  0.20308701359E+04  0.20000577148E+04 0.  0.
        3    1    3    3  502    0  0.58060429903E+03 -0.43378490328E+03  0.87587519160E+03  0.11368500586E+04  0.10100000352E+00 0.  1.
       -3    1    3    3    0  502 -0.58060429903E+03  0.43378490328E+03 -0.52345123361E+03  0.89402007725E+03  0.10100000352E+00 0. -1.
</event>
<event>
 5   0  0.8765057E-05  0.2000234E+04  0.7818609E-02  0.8606511E-01
       -1   -1    0    0    0  501  0.00000000000E+00  0.00000000000E+00  0.77446303103E+03  0.77446303105E+03  0.50400001928E-02 0. -1.
        1   -1    0    0  501    0  0.00000000000E+00  0.00000000000E+00 -0.12915191821E+04  0.12915191821E+04  0.50400001928E-02 0.  1.
    10030    2    1    2    0    0  0.00000000000E+00  0.00000000000E+00 -0.51705615103E+03  0.20659822131E+04  0.20002338467E+04 0.  0.
        3    1    3    3  502    0 -0.31353026379E+03  0.10017609438E+03  0.71691796216E+03  0.78886491294E+03  0.10100000352E+00 0. -1.
       -3    1    3    3    0  502  0.31353026379E+03 -0.10017609438E+03 -0.12339741132E+04  0.12771173002E+04  0.10100000352E+00 0.  1.
</event>
<event>
 5   0  0.1807498E-04  0.1983375E+04  0.7818609E-02  0.8614433E-01
        2   -1    0    0  501    0  0.00000000000E+00  0.00000000000E+00  0.81337140573E+03  0.81337140573E+03  0.25500000920E-02 0. -1.
       -2   -1    0    0    0  501  0.00000000000E+00  0.00000000000E+00 -0.12090961424E+04  0.12090961424E+04  0.25500000920E-02 0.  1.
    10030    2    1    2    0    0  0.00000000000E+00  0.00000000000E+00 -0.39572473664E+03  0.20224675481E+04  0.19833751324E+04 0.  0.
        5    1    3    3  502    0  0.79426324018E+02  0.83268871283E+03  0.34531211126E+03  0.90495390910E+03  0.46999998093E+01 0.  1.
       -5    1    3    3    0  502 -0.79426324018E+02 -0.83268871283E+03 -0.74103684790E+03  0.11175136390E+04  0.46999998093E+01 0. -1.
</event>
<event>
 5   0  0.1782172E-04  0.2004178E+04  0.7818609E-02  0.8604670E-01
       -2   -1    0    0    0  501  0.00000000000E+00  0.00000000000E+00  0.13960256984E+04  0.13960256984E+04  0.25500000920E-02 0.  1.
        2   -1    0    0  501    0  0.00000000000E+00  0.00000000000E+00 -0.71931499157E+03  0.71931499157E+03  0.25500000920E-02 0. -1.
    10030    2    1    2    0    0  0.00000000000E+00  0.00000000000E+00  0.67671070682E+03  0.21153406900E+04  0.20041778499E+04 0.  0.
        2    1    3    3  502    0 -0.16875694938E+03  0.71536282306E+03 -0.38057037304E+03  0.82768151207E+03  0.25500000920E-02 0. -1.
       -2    1    3    3    0  502  0.16875694938E+03 -0.71536282306E+03  0.10572810799E+04  0.12876591779E+04  0.25500000920E-02 0.  1.
</event>
<event>
 5   0  0.8765057E-05  0.1991041E+04  0.7818609E-02  0.8610821E-01
        1   -1    0    0  501    0  0.00000000000E+00  0.00000000000E+00  0.97482468522E+03  0.97482468523E+03  0.50400001928E-02 0. -1.
       -1   -1    0    0    0  501  0.00000000000E+00  0.00000000000E+00 -0.10166556440E+04  0.10166556440E+04  0.50400001928E-02 0.  1.
    10030    2    1    2    0    0  0.00000000000E+00  0.00000000000E+00 -0.41830958766E+02  0.19914803292E+04  0.19910409520E+04 0.  0.
        3    1    3    3  502    0  0.72411087352E+03  0.52367708522E+03 -0.45974542987E+03  0.10049577689E+04  0.10100000352E+00 0.  1.
       -3    1    3    3    0  502 -0.72411087352E+03 -0.52367708522E+03  0.41791447110E+03  0.98652256035E+03  0.10100000352E+00 0. -1.
</event>
<event>
 5   0  0.1807498E-04  0.1996631E+04  0.7818609E-02  0.8608197E-01
       -2   -1    0    0    0  501  0.00000000000E+00  0.00000000000E+00  0.95881989046E+03  0.95881989046E+03  0.25500000920E-02 0. -1.
        2   -1    0    0  501    0  0.00000000000E+00  0.00000000000E+00 -0.10394383052E+04  0.10394383052E+04  0.25500000920E-02 0.  1.
    10030    2    1    2    0    0  0.00000000000E+00  0.00000000000E+00 -0.80618414700E+02  0.19982581956E+04  0.19966312848E+04 0.  0.
        5    1    3    3  502    0  0.40959714890E+03 -0.39769848744E+03  0.77930749595E+03  0.96606220014E+03  0.46999998093E+01 0. -1.
       -5    1    3    3    0  502 -0.40959714890E+03  0.39769848744E+03 -0.85992591065E+03  0.10321959955E+04  0.46999998093E+01 0.  1.
</event>
<event>
 5   0  0.6531625E-05  0.2028122E+04  0.7818609E-02  0.8593585E-01
       -3   -1    0    0    0  501  0.00000000000E+00  0.00000000000E+00  0.12580278071E+04  0.12580278112E+04  0.10100000352E+00 0.  1.
        3   -1    0    0  501    0  0.00000000000E+00  0.00000000000E+00 -0.81740602659E+03  0.81740603283E+03  0.10100000352E+00 0. -1.
    10030    2    1    2    0    0  0.00000000000E+00  0.00000000000E+00  0.44062178051E+03  0.20754338440E+04  0.20281218127E+04 0.  0.
        4    1    3    3  502    0  0.86810291460E+02 -0.20358880683E+03  0.12330093732E+04  0.12527163111E+04  0.12699999809E+01 0.  1.
       -4    1    3    3    0  502 -0.86810291460E+02  0.20358880683E+03 -0.79238759265E+03  0.82271753285E+03  0.12699999809E+01 0. -1.
</event>
<event>
 5   0  0.1807498E-04  0.2014066E+04  0.7818609E-02  0.8600072E-01
       -2   -1    0    0    0  501  0.00000000000E+00  0.00000000000E+00  0.80582439419E+03  0.80582439419E+03  0.25500000920E-02 0. -1.
        2   -1    0    0  501    0  0.00000000000E+00  0.00000000000E+00 -0.12584820408E+04  0.12584820408E+04  0.25500000920E-02 0.  1.
    10030    2    1    2    0    0  0.00000000000E+00  0.00000000000E+00 -0.45265764658E+03  0.20643064350E+04  0.20140660646E+04 0.  0.
        5    1    3    3  502    0 -0.51507471412E+03  0.24216085863E+03 -0.10778041606E+04  0.12188632988E+04  0.46999998093E+01 0.  1.
       -5    1    3    3    0  502  0.51507471412E+03 -0.24216085863E+03  0.62514651398E+03  0.84544313618E+03  0.46999998093E+01 0. -1.
</event>
<event>
 5   0  0.1834645E-04  0.2002181E+04  0.7818609E-02  0.8605602E-01
       -2   -1    0    0    0  501  0.00000000000E+00  0.00000000000E+00  0.88555829863E+03  0.88555829863E+03  0.25500000920E-02 0.  1.
        2   -1    0    0  501    0  0.00000000000E+00  0.00000000000E+00 -0.11316956892E+04  0.11316956892E+04  0.25500000920E-02 0. -1.
    10030    2    1    2    0    0  0.00000000000E+00  0.00000000000E+00 -0.24613739060E+03  0.20172539879E+04  0.20021813196E+04 0.  0.
        1    1    3    3  502    0  0.50456579425E+03 -0.86453288754E+03 -0.13653926449E+03  0.10102706198E+04  0.50400001928E-02 0.  1.
       -1    1    3    3    0  502 -0.50456579425E+03  0.86453288754E+03 -0.10959812610E+03  0.10069833681E+04  0.50400001928E-02 0. -1.
</event>
<event>
 5   0  0.1893687E-04  0.2161236E+04  0.7818609E-02  0.8534738E-01
       -2   -1    0    0    0  501  0.00000000000E+00  0.00000000000E+00  0.74220334898E+03  0.74220334898E+03  0.25500000920E-02 0. -1.
        2   -1    0    0  501    0  0.00000000000E+00  0.00000000000E+00 -0.15733360609E+04  0.15733360609E+04  0.25500000920E-02 0.  1.
    10030    2    1    2    0    0  0.00000000000E+00  0.00000000000E+00 -0.83113271195E+03  0.23155394099E+04  0.21612360292E+04 0.  0.
        4    1    3    3  502    0  0.31887808294E+03 -0.91548015027E+03 -0.92709090765E+03  0.13413747803E+04  0.12699999809E+01 0.  1.
       -4    1    3    3    0  502 -0.31887808294E+03  0.91548015027E+03  0.95958195703E+02  0.97416462959E+03  0.12699999809E+01 0. -1.
</event>
<event>
 5   0  0.8765057E-05  0.2031131E+04  0.7818609E-02  0.8592203E-01
       -1   -1    0    0    0  501  0.00000000000E+00  0.00000000000E+00  0.70087248081E+03  0.70087248083E+03  0.50400001928E-02 0. -1.
        1   -1    0    0  501    0  0.00000000000E+00  0.00000000000E+00 -0.14715564803E+04  0.14715564803E+04  0.50400001928E-02 0.  1.
    10030    2    1    2    0    0  0.00000000000E+00  0.00000000000E+00 -0.77068399951E+03  0.21724289612E+04  0.20311311539E+04 0.  0.
        3    1    3    3  502    0 -0.34998065058E+03 -0.13857775555E+02 -0.14049111130E+04  0.14479135815E+04  0.10100000352E+00 0.  1.
       -3    1    3    3    0  502  0.34998065058E+03  0.13857775555E+02  0.63422711350E+03  0.72451537970E+03  0.10100000352E+00 0. -1.
</event>
<event>
 5   0  0.8958919E-05  0.1984037E+04  0.7818609E-02  0.8614120E-01
       -1   -1    0    0    0  501  0.00000000000E+00  0.00000000000E+00  0.12829308857E+04  0.12829308857E+04  0.50400001928E-02 0. -1.
        1   -1    0    0  501    0  0.00000000000E+00  0.00000000000E+00 -0.76707230794E+03  0.76707230796E+03  0.50400001928E-02 0.  1.
    10030    2    1    2    0    0  0.00000000000E+00  0.00000000000E+00  0.51585857779E+03  0.20500031937E+04  0.19840370515E+04 0.  0.
        4    1    3    3  502    0 -0.40717110829E+03 -0.13881897875E+03  0.11815401960E+04  0.12574171416E+04  0.12699999809E+01 0. -1.
       -4    1    3    3    0  502  0.40717110829E+03  0.13881897875E+03 -0.66568161821E+03  0.79258605212E+03  0.12699999809E+01 0.  1.
</event>
<event>
 5   0  0.1834645E-04  0.1869019E+04  0.7818609E-02  0.8670433E-01
       -2   -1    0    0    0  501  0.00000000000E+00  0.00000000000E+00  0.31330621121E+03  0.31330621122E+03  0.25500000920E-02 0. -1.
        2   -1    0    0  501    0  0.00000000000E+00  0.00000000000E+00 -0.27873935054E+04  0.27873935054E+04  0.25500000920E-02 0.  1.
    10030    2    1    2    0    0  0.00000000000E+00  0.00000000000E+00 -0.24740872942E+04  0.31006997166E+04  0.18690186712E+04 0.  0.
        1    1    3    3  502    0  0.11271299998E+03 -0.49439742395E+03  0.65217214857E+02  0.51125954105E+03  0.50400001928E-02 0. -1.
       -1    1    3    3    0  502 -0.11271299998E+03  0.49439742395E+03 -0.25393045090E+04  0.25894401755E+04  0.50400001928E-02 0.  1.
</event>
<event>
 5   0  0.8861350E-05  0.1995616E+04  0.7818609E-02  0.8608673E-01
       -1   -1    0    0    0  501  0.00000000000E+00  0.00000000000E+00  0.47415294167E+03  0.47415294170E+03  0.50400001928E-02 0. -1.
        1   -1    0    0  501    0  0.00000000000E+00  0.00000000000E+00 -0.20997879486E+04  0.20997879486E+04  0.50400001928E-02 0.  1.
    10030    2    1    2    0    0  0.00000000000E+00  0.00000000000E+00 -0.16256350069E+04  0.25739408903E+04  0.19956158275E+04 0.  0.
        1    1    3    3  502    0 -0.95856615122E+03  0.19162379881E+03 -0.10709443146E+04  0.14499967143E+04  0.50400001928E-02 0.  1.
       -1    1    3    3    0  502  0.95856615122E+03 -0.19162379881E+03 -0.55469069230E+03  0.11239441760E+04  0.50400001928E-02 0. -1.
</event>
<event>
 5   0  0.1893687E-04  0.1647901E+04  0.7818609E-02  0.8791649E-01
        2   -1    0    0  501    0  0.00000000000E+00  0.00000000000E+00  0.65878548414E+03  0.65878548414E+03  0.25500000920E-02 0. -1.
       -2   -1    0    0    0  501  0.00000000000E+00  0.00000000000E+00 -0.10305246788E+04  0.10305246788E+04  0.25500000920E-02 0.  1.
    10030    2    1    2    0    0  0.00000000000E+00  0.00000000000E+00 -0.37173919464E+03  0.16893101629E+04  0.16479013313E+04 0.  0.
        4    1    3    3  502    0  0.27305581496E+02 -0.81531069163E+03 -0.67131743484E+02  0.81852636033E+03  0.12699999809E+01 0.  1.
       -4    1    3    3    0  502 -0.27305581496E+02  0.81531069163E+03 -0.30460745115E+03  0.87078380260E+03  0.12699999809E+01 0. -1.
</event>
<event>
 5   0  0.1807498E-04  0.1989397E+04  0.7818609E-02  0.8611594E-01
       -2   -1    0    0    0  501  0.00000000000E+00  0.00000000000E+00  0.62151563323E+03  0.62151563323E+03  0.25500000920E-02 0.  1.
        2   -1    0    0  501    0  0.00000000000E+00  0.00000000000E+00 -0.15919549124E+04  0.15919549124E+04  0.25500000920E-02 0. -1.
    10030    2    1    2    0    0  0.00000000000E+00  0.00000000000E+00 -0.97043927915E+03  0.22134705456E+04  0.19893967583E+04 0.  0.
        5    1    3    3  502    0  0.38064841658E+03 -0.91725440791E+01 -0.15076482443E+04  0.15549928202E+04  0.46999998093E+01 0. -1.
       -5    1    3    3    0  502 -0.38064841658E+03  0.91725440791E+01  0.53720896511E+03  0.65847772537E+03  0.46999998093E+01 0.  1.
</event>
<event>
 5   0  0.1807498E-04  0.1686089E+04  0.7818609E-02  0.8769338E-01
       -2   -1    0    0    0  501  0.00000000000E+00  0.00000000000E+00  0.18094139749E+04  0.18094139749E+04  0.25500000920E-02 0. -1.
        2   -1    0    0  501    0  0.00000000000E+00  0.00000000000E+00 -0.39279260480E+03  0.39279260481E+03  0.25500000920E-02 0.  1.
    10030    2    1    2    0    0  0.00000000000E+00  0.00000000000E+00  0.14166213701E+04  0.22022065797E+04  0.16860894737E+04 0.  0.
        5    1    3    3  502    0 -0.15184002663E+03  0.38340982027E+03  0.16686684984E+04  0.17188761245E+04  0.46999998093E+01 0. -1.
       -5    1    3    3    0  502  0.15184002663E+03 -0.38340982027E+03 -0.25204712833E+03  0.48333045514E+03  0.46999998093E+01 0.  1.
</event>
<event>
 5   0  0.8958919E-05  0.1978595E+04  0.7818609E-02  0.8616694E-01
       -1   -1    0    0    0  501  0.00000000000E+00  0.00000000000E+00  0.22168879135E+04  0.22168879135E+04  0.50400001928E-02 0. -1.
        1   -1    0    0  501    0  0.00000000000E+00  0.00000000000E+00 -0.44147913627E+03  0.44147913630E+03  0.50400001928E-02 0.  1.
    10030    2    1    2    0    0  0.00000000000E+00  0.00000000000E+00  0.17754087773E+04  0.26583670498E+04  0.19785952202E+04 0.  0.
        4    1    3    3  502    0 -0.95625396348E+02  0.12812316794E+03  0.21994156529E+04  0.22052189437E+04  0.12699999809E+01 0. -1.
       -4    1    3    3    0  502  0.95625396348E+02 -0.12812316794E+03 -0.42400687564E+03  0.45314810612E+03  0.12699999809E+01 0.  1.
</event>
<event>
 5   0  0.8958919E-05  0.2006385E+04  0.7818609E-02  0.8603641E-01
        1   -1    0    0  501    0  0.00000000000E+00  0.00000000000E+00  0.13492775643E+04  0.13492775643E+04  0.50400001928E-02 0. -1.
       -1   -1    0    0    0  501  0.00000000000E+00  0.00000000000E+00 -0.74587718020E+03  0.74587718021E+03  0.50400001928E-02 0.  1.
    10030    2    1    2    0    0  0.00000000000E+00  0.00000000000E+00  0.60340038412E+03  0.20951547445E+04  0.20063851525E+04 0.  0.
        4    1    3    3  502    0  0.74169598034E+03  0.54963831229E+03  0.71172841450E+03  0.11656646818E+04  0.12699999809E+01 0. -1.
       -4    1    3    3    0  502 -0.74169598034E+03 -0.54963831229E+03 -0.10832803037E+03  0.92949006270E+03  0.12699999809E+01 0.  1.
</event>
<event>
 5   0  0.8861350E-05  0.2085899E+04  0.7818609E-02  0.8567480E-01
        1   -1    0    0  501    0  0.00000000000E+00  0.00000000000E+00  0.15626184112E+04  0.15626184113E+04  0.50400001928E-02 0. -1.
       -1   -1    0    0    0  501  0.00000000000E+00  0.00000000000E+00 -0.69610334624E+03  0.69610334626E+03  0.50400001928E-02 0.  1.
    10030    2    1    2    0    0  0.00000000000E+00  0.00000000000E+00  0.86651506501E+03  0.22587217575E+04  0.20858992353E+04 0.  0.
        1    1    3    3  502    0 -0.82643476128E+03  0.59826811655E+03  0.19893872476E+03  0.10394689847E+04  0.50400001928E-02 0.  1.
       -1    1    3    3    0  502  0.82643476128E+03 -0.59826811655E+03  0.66757634024E+03  0.12192527728E+04  0.50400001928E-02 0. -1.
</event>
<event>
 5   0  0.1807498E-04  0.1970183E+04  0.7818609E-02  0.8620689E-01
       -2   -1    0    0    0  501  0.00000000000E+00  0.00000000000E+00  0.36141207067E+03  0.36141207068E+03  0.25500000920E-02 0. -1.
        2   -1    0    0  501    0  0.00000000000E+00  0.00000000000E+00 -0.26850382679E+04  0.26850382679E+04  0.25500000920E-02 0.  1.
    10030    2    1    2    0    0  0.00000000000E+00  0.00000000000E+00 -0.23236261972E+04  0.30464503385E+04  0.19701829765E+04 0.  0.
        5    1    3    3  502    0 -0.10104011856E+03 -0.89622778730E+03 -0.17744003031E+04  0.19904652416E+04  0.46999998093E+01 0.  1.
       -5    1    3    3    0  502  0.10104011856E+03  0.89622778730E+03 -0.54922589409E+03  0.10559850970E+04  0.46999998093E+01 0. -1.
</event>
<event>
 5   0  0.1893687E-04  0.1982495E+04  0.7818609E-02  0.8614849E-01
       -2   -1    0    0    0  501  0.00000000000E+00  0.00000000000E+00  0.72618765746E+03  0.72618765746E+03  0.25500000920E-02 0. -1.
        2   -1    0    0  501    0  0.00000000000E+00  0.00000000000E+00 -0.13530542402E+04  0.13530542402E+04  0.25500000920E-02 0.  1.
    10030    2    1    2    0    0  0.00000000000E+00  0.00000000000E+00 -0.62686658269E+03  0.20792418976E+04  0.19824946800E+04 0.  0.
        4    1    3    3  502    0  0.22987608471E+03  0.74031503895E+03 -0.96136835628E+03  0.12349656273E+04  0.12699999809E+01 0.  1.
       -4    1    3    3    0  502 -0.22987608471E+03 -0.74031503895E+03  0.33450177359E+03  0.84427627033E+03  0.12699999809E+01 0. -1.
</event>
<event>
 5   0  0.1834645E-04  0.1997084E+04  0.7818609E-02  0.8607985E-01
       -2   -1    0    0    0  501  0.00000000000E+00  0.00000000000E+00  0.44170254551E+03  0.44170254552E+03  0.25500000920E-02 0.  1.
        2   -1    0    0  501    0  0.00000000000E+00  0.00000000000E+00 -0.22573692064E+04  0.22573692064E+04  0.25500000920E-02 0. -1.
    10030    2    1    2    0    0  0.00000000000E+00  0.00000000000E+00 -0.18156666609E+04  0.26990717519E+04  0.19970835983E+04 0.  0.
        1    1    3    3  502    0  0.78591545374E+03 -0.14543823571E+03 -0.98879724401E+02  0.80535245748E+03  0.50400001928E-02 0.  1.
       -1    1    3    3    0  502 -0.78591545374E+03  0.14543823571E+03 -0.17167869365E+04  0.18937192944E+04  0.50400001928E-02 0. -1.
</event>
<event>
 5   0  0.1834645E-04  0.2011765E+04  0.7818609E-02  0.8601140E-01
       -2   -1    0    0    0  501  0.00000000000E+00  0.00000000000E+00  0.12073147318E+04  0.12073147318E+04  0.25500000920E-02 0.  1.
        2   -1    0    0  501    0  0.00000000000E+00  0.00000000000E+00 -0.83805820194E+03  0.83805820194E+03  0.25500000920E-02 0. -1.
    10030    2    1    2    0    0  0.00000000000E+00  0.00000000000E+00  0.36925652984E+03  0.20453729337E+04  0.20117654071E+04 0.  0.
        1    1    3    3  502    0  0.31353032698E+03 -0.19415824273E+03 -0.76684801815E+03  0.85091396282E+03  0.50400001928E-02 0. -1.
       -1    1    3    3    0  502 -0.31353032698E+03  0.19415824273E+03  0.11361045480E+04  0.11944589709E+04  0.50400001928E-02 0.  1.
</event>
<event>
 5   0  0.8577422E-05  0.1975364E+04  0.7818609E-02  0.8618226E-01
        1   -1    0    0  501    0  0.00000000000E+00  0.00000000000E+00  0.41916332243E+03  0.41916332246E+03  0.50400001928E-02 0. -1.
       -1   -1    0    0    0  501  0.00000000000E+00  0.00000000000E+00 -0.23272920097E+04  0.23272920097E+04  0.50400001928E-02 0.  1.
    10030    2    1    2    0    0  0.00000000000E+00  0.00000000000E+00 -0.19081286873E+04  0.27464553322E+04  0.19753637145E+04 0.  0.
        2    1    3    3  502    0  0.66468903106E+03  0.71856273183E+02 -0.19648629925E+04  0.20754906436E+04  0.25500000920E-02 0.  1.
       -2    1    3    3    0  502 -0.66468903106E+03 -0.71856273183E+02  0.56734305248E+02  0.67096468864E+03  0.25500000920E-02 0. -1.
</event>
<event>
 5   0  0.8881384E-05  0.2002494E+04  0.7818609E-02  0.8605456E-01
        1   -1    0    0  501    0  0.00000000000E+00  0.00000000000E+00  0.87700842686E+03  0.87700842688E+03  0.50400001928E-02 0.  1.
       -1   -1    0    0    0  501  0.00000000000E+00  0.00000000000E+00 -0.11430852115E+04  0.11430852115E+04  0.50400001928E-02 0. -1.
    10030    2    1    2    0    0  0.00000000000E+00  0.00000000000E+00 -0.26607678459E+03  0.20200936383E+04  0.20024938083E+04 0.  0.
        5    1    3    3  502    0 -0.71411426930E+03  0.81268990311E+01 -0.84095243001E+03  0.11032897696E+04  0.46999998093E+01 0. -1.
       -5    1    3    3    0  502  0.71411426930E+03 -0.81268990311E+01  0.57487564542E+03  0.91680386877E+03  0.46999998093E+01 0.  1.
</event>
<event>
 5   0  0.1807498E-04  0.2018720E+04  0.7818609E-02  0.8597918E-01
        2   -1    0    0  501    0  0.00000000000E+00  0.00000000000E+00  0.61590391826E+03  0.61590391827E+03  0.25500000920E-02 0.  1.
       -2   -1    0    0    0  501  0.00000000000E+00  0.00000000000E+00 -0.16541660272E+04  0.16541660272E+04  0.25500000920E-02 0. -1.
    10030    2    1    2    0    0  0.00000000000E+00  0.00000000000E+00 -0.10382621090E+04  0.22700699455E+04  0.20187197306E+04 0.  0.
        5    1    3    3  502    0 -0.19079151800E+03 -0.77270923495E+03 -0.12171466551E+04  0.14542864350E+04  0.46999998093E+01 0. -1.
       -5    1    3    3    0  502  0.19079151800E+03  0.77270923495E+03  0.17888454612E+03  0.81578351047E+03  0.46999998093E+01 0.  1.
</event>
<event>
 5   0  0.8958919E-05  0.1926550E+04  0.7818609E-02  0.8641752E-01
        1   -1    0    0  501    0  0.00000000000E+00  0.00000000000E+00  0.66679945135E+03  0.66679945137E+03  0.50400001928E-02 0.  1.
       -1   -1    0    0    0  501  0.00000000000E+00  0.00000000000E+00 -0.13915715817E+04  0.13915715817E+04  0.50400001928E-02 0. -1.
    10030    2    1    2    0    0  0.00000000000E+00  0.00000000000E+00 -0.72477213032E+03  0.20583710331E+04  0.19265504584E+04 0.  0.
        4    1    3    3  502    0  0.33456642004E+03  0.93411986546E+02 -0.13223254731E+04  0.13671893645E+04  0.12699999809E+01 0. -1.
       -4    1    3    3    0  502 -0.33456642004E+03 -0.93411986546E+02  0.59755334276E+03  0.69118166859E+03  0.12699999809E+01 0.  1.
</event>
<event>
 5   0  0.1782172E-04  0.1987953E+04  0.7818609E-02  0.8612274E-01
       -2   -1    0    0    0  501  0.00000000000E+00  0.00000000000E+00  0.70517911005E+03  0.70517911005E+03  0.25500000920E-02 0. -1.
        2   -1    0    0  501    0  0.00000000000E+00  0.00000000000E+00 -0.14010471119E+04  0.14010471119E+04  0.25500000920E-02 0.  1.
    10030    2    1    2    0    0  0.00000000000E+00  0.00000000000E+00 -0.69586800188E+03  0.21062262220E+04  0.19879528722E+04 0.  0.
        2    1    3    3  502    0 -0.73944303342E+03  0.64808558538E+03 -0.50219236789E+03  0.11040779411E+04  0.25500000920E-02 0.  1.
       -2    1    3    3    0  502  0.73944303342E+03 -0.64808558538E+03 -0.19367563399E+03  0.10021482809E+04  0.25500000920E-02 0. -1.
</event>
<event>
 5   0  0.8861350E-05  0.1986846E+04  0.7818609E-02  0.8612795E-01
       -1   -1    0    0    0  501  0.00000000000E+00  0.00000000000E+00  0.63000271850E+03  0.63000271852E+03  0.50400001928E-02 0. -1.
        1   -1    0    0  501    0  0.00000000000E+00  0.00000000000E+00 -0.15664842712E+04  0.15664842712E+04  0.50400001928E-02 0.  1.
    10030    2    1    2    0    0  0.00000000000E+00  0.00000000000E+00 -0.93648155268E+03  0.21964869897E+04  0.19868460930E+04 0.  0.
        1    1    3    3  502    0 -0.27553690838E+03 -0.83501779729E+03  0.42829867122E+02  0.88034635639E+03  0.50400001928E-02 0. -1.
       -1    1    3    3    0  502  0.27553690838E+03  0.83501779729E+03 -0.97931141980E+03  0.13161406333E+04  0.50400001928E-02 0.  1.
</event>
<event>
 5   0  0.1812865E-04  0.1993372E+04  0.7818609E-02  0.8609726E-01
        2   -1    0    0  501    0  0.00000000000E+00  0.00000000000E+00  0.92462486928E+03  0.92462486928E+03  0.25500000920E-02 0. -1.
       -2   -1    0    0    0  501  0.00000000000E+00  0.00000000000E+00 -0.10743631571E+04  0.10743631571E+04  0.25500000920E-02 0.  1.
    10030    2    1    2    0    0  0.00000000000E+00  0.00000000000E+00 -0.14973828784E+03  0.19989880264E+04  0.19933719108E+04 0.  0.
        3    1    3    3  502    0 -0.10319123598E+03  0.72868702208E+03 -0.74888604013E+03  0.10499826278E+04  0.10100000352E+00 0.  1.
       -3    1    3    3    0  502  0.10319123598E+03 -0.72868702208E+03  0.59914775229E+03  0.94900539862E+03  0.10100000352E+00 0. -1.
</event>
<event>
 5   0  0.1807498E-04  0.2039771E+04  0.7818609E-02  0.8588249E-01
        2   -1    0    0  501    0  0.00000000000E+00  0.00000000000E+00  0.10911136695E+04  0.10911136695E+04  0.25500000920E-02 0.  1.
       -2   -1    0    0    0  501  0.00000000000E+00  0.00000000000E+00 -0.95330736948E+03  0.95330736948E+03  0.25500000920E-02 0. -1.
    10030    2    1    2    0    0  0.00000000000E+00  0.00000000000E+00  0.13780630003E+03  0.20444210390E+04  0.20397712637E+04 0.  0.
        5    1    3    3  502    0 -0.74549787813E+03 -0.40902568192E+02  0.76525630688E+03  0.10691489193E+04  0.46999998093E+01 0.  1.
       -5    1    3    3    0  502  0.74549787813E+03  0.40902568192E+02 -0.62745000685E+03  0.97527211971E+03  0.46999998093E+01 0. -1.
</event>
<event>
 5   0  0.8861350E-05  0.1891573E+04  0.7818609E-02  0.8659063E-01
       -1   -1    0    0    0  501  0.00000000000E+00  0.00000000000E+00  0.33088914207E+03  0.33088914211E+03  0.50400001928E-02 0. -1.
        1   -1    0    0  501    0  0.00000000000E+00  0.00000000000E+00 -0.27033583416E+04  0.27033583416E+04  0.50400001928E-02 0.  1.
    10030    2    1    2    0    0  0.00000000000E+00  0.00000000000E+00 -0.23724691995E+04  0.30342474837E+04  0.18915728085E+04 0.  0.
        1    1    3    3  502    0  0.46811383850E+03  0.23003247075E+03  0.79334613815E+02  0.52757888924E+03  0.50400001928E-02 0. -1.
       -1    1    3    3    0  502 -0.46811383850E+03 -0.23003247075E+03 -0.24518038133E+04  0.25066685944E+04  0.50400001928E-02 0.  1.
</event>
<event>
 5   0  0.8958919E-05  0.2017511E+04  0.7818609E-02  0.8598477E-01
        1   -1    0    0  501    0  0.00000000000E+00  0.00000000000E+00  0.13916004474E+04  0.13916004474E+04  0.50400001928E-02 0. -1.
       -1   -1    0    0    0  501  0.00000000000E+00  0.00000000000E+00 -0.73123531172E+03  0.73123531174E+03  0.50400001928E-02 0.  1.
    10030    2    1    2    0    0  0.00000000000E+00  0.00000000000E+00  0.66036513569E+03  0.21228357592E+04  0.20175107306E+04 0.  0.
        4    1    3    3  502    0  0.24460678146E+03 -0.16823619902E+03 -0.68422744840E+03  0.74585837144E+03  0.12699999809E+01 0.  1.
       -4    1    3    3    0  502 -0.24460678146E+03  0.16823619902E+03  0.13445925841E+04  0.13769773877E+04  0.12699999809E+01 0. -1.
</event>
<event>
 5   0  0.6531625E-05  0.2020383E+04  0.7818609E-02  0.8597150E-01
       -3   -1    0    0    0  501  0.00000000000E+00  0.00000000000E+00  0.37817629797E+03  0.37817631146E+03  0.10100000352E+00 0.  1.
        3   -1    0    0  501    0  0.00000000000E+00  0.00000000000E+00 -0.26984409816E+04  0.26984409834E+04  0.10100000352E+00 0. -1.
    10030    2    1    2    0    0  0.00000000000E+00  0.00000000000E+00 -0.23202646836E+04  0.30766172949E+04  0.20203825819E+04 0.  0.
        4    1    3    3  502    0 -0.12549839559E+03  0.37738844775E+03  0.25394223362E+03  0.47186879395E+03  0.12699999809E+01 0.  1.
       -4    1    3    3    0  502  0.12549839559E+03 -0.37738844775E+03 -0.25742069172E+04  0.26047485010E+04  0.12699999809E+01 0. -1.
</event>
<event>
 5   0  0.8881384E-05  0.1964620E+04  0.7818609E-02  0.8623343E-01
        1   -1    0    0  501    0  0.00000000000E+00  0.00000000000E+00  0.81573837395E+03  0.81573837396E+03  0.50400001928E-02 0. -1.
       -1   -1    0    0    0  501  0.00000000000E+00  0.00000000000E+00 -0.11828946790E+04  0.11828946790E+04  0.50400001928E-02 0.  1.
    10030    2    1    2    0    0  0.00000000000E+00  0.00000000000E+00 -0.36715630504E+03  0.19986330530E+04  0.19646196395E+04 0.  0.
        5    1    3    3  502    0  0.53307292393E+03 -0.82150701965E+03 -0.26152030470E+03  0.10136347889E+04  0.46999998093E+01 0.  1.
       -5    1    3    3    0  502 -0.53307292393E+03  0.82150701965E+03 -0.10563600034E+03  0.98499826403E+03  0.46999998093E+01 0. -1.
</event>
<event>
 5   0  0.1807498E-04  0.1693763E+04  0.7818609E-02  0.8764930E-01
        2   -1    0    0  501    0  0.00000000000E+00  0.00000000000E+00  0.19167389474E+04  0.19167389474E+04  0.25500000920E-02 0.  1.
       -2   -1    0    0    0  501  0.00000000000E+00  0.00000000000E+00 -0.37418148265E+03  0.37418148266E+03  0.25500000920E-02 0. -1.
    10030    2    1    2    0    0  0.00000000000E+00  0.00000000000E+00  0.15425574647E+04  0.22909204300E+04  0.16937629364E+04 0.  0.
        5    1    3    3  502    0  0.29123650338E+03  0.26324642894E+03  0.17862134104E+04  0.18288515032E+04  0.46999998093E+01 0.  1.
       -5    1    3    3    0  502 -0.29123650338E+03 -0.26324642894E+03 -0.24365594570E+03  0.46206892681E+03  0.46999998093E+01 0. -1.
</event>
<event>
 5   0  0.1807498E-04  0.1644382E+04  0.7818609E-02  0.8793737E-01
       -2   -1    0    0    0  501  0.00000000000E+00  0.00000000000E+00  0.23943615696E+03  0.23943615698E+03  0.25500000920E-02 0.  1.
        2   -1    0    0  501    0  0.00000000000E+00  0.00000000000E+00 -0.28232908312E+04  0.28232908312E+04  0.25500000920E-02 0. -1.
    10030    2    1    2    0    0  0.00000000000E+00  0.00000000000E+00 -0.25838546743E+04  0.30627269882E+04  0.16443818372E+04 0.  0.
        5    1    3    3  502    0  0.35607897545E+03  0.21596008769E+01 -0.26721925485E+04  0.26958175026E+04  0.46999998093E+01 0. -1.
       -5    1    3    3    0  502 -0.35607897545E+03 -0.21596008769E+01  0.88337874265E+02  0.36690948566E+03  0.46999998093E+01 0.  1.
</event>
<event>
 5   0  0.1812865E-04  0.2002290E+04  0.7818609E-02  0.8605551E-01
       -2   -1    0    0    0  501  0.00000000000E+00  0.00000000000E+00  0.66093912029E+03  0.66093912029E+03  0.25500000920E-02 0.  1.
        2   -1    0    0  501    0  0.00000000000E+00  0.00000000000E+00 -0.15164656537E+04  0.15164656537E+04  0.25500000920E-02 0. -1.
    10030    2    1    2    0    0  0.00000000000E+00  0.00000000000E+00 -0.85552653344E+03  0.21774047740E+04  0.20022901639E+04 0.  0.
        3    1    3    3  502    0  0.14043353326E+03 -0.97457361371E+02 -0.15004789590E+04  0.15101843037E+04  0.10100000352E+00 0. -1.
       -3    1    3    3    0  502 -0.14043353326E+03  0.97457361371E+02  0.64495242557E+03  0.66722047031E+03  0.10100000352E+00 0.  1.
</event>
<event>
 5   0  0.1807498E-04  0.2009491E+04  0.7818609E-02  0.8602196E-01
       -2   -1    0    0    0  501  0.00000000000E+00  0.00000000000E+00  0.14052583795E+04  0.14052583795E+04  0.25500000920E-02 0.  1.
        2   -1    0    0  501    0  0.00000000000E+00  0.00000000000E+00 -0.71838309565E+03  0.71838309566E+03  0.25500000920E-02 0. -1.
    10030    2    1    2    0    0  0.00000000000E+00  0.00000000000E+00  0.68687528382E+03  0.21236414751E+04  0.20094913434E+04 0.  0.
        5    1    3    3  502    0 -0.42047789719E+03  0.33017896363E+03 -0.55557527794E+03  0.77104201540E+03  0.46999998093E+01 0. -1.
       -5    1    3    3    0  502  0.42047789719E+03 -0.33017896363E+03  0.12424505618E+04  0.13525994597E+04  0.46999998093E+01 0.  1.
</event>
<event>
 5   0  0.8577422E-05  0.2007993E+04  0.7818609E-02  0.8602893E-01
        1   -1    0    0  501    0  0.00000000000E+00  0.00000000000E+00  0.12335969617E+04  0.12335969617E+04  0.50400001928E-02 0.  1.
       -1   -1    0    0    0  501  0.00000000000E+00  0.00000000000E+00 -0.81713003466E+03  0.81713003468E+03  0.50400001928E-02 0. -1.
    10030    2    1    2    0    0  0.00000000000E+00  0.00000000000E+00  0.41646692700E+03  0.20507269963E+04  0.20079931554E+04 0.  0.
        2    1    3    3  502    0  0.45157899342E+03 -0.89550373681E+03  0.25568295022E+03  0.10349996623E+04  0.25500000920E-02 0.  1.
       -2    1    3    3    0  502 -0.45157899342E+03  0.89550373681E+03  0.16078397678E+03  0.10157273340E+04  0.25500000920E-02 0. -1.
</event>
<event>
 5   0  0.1812865E-04  0.2283450E+04  0.7818609E-02  0.8484475E-01
        2   -1    0    0  501    0  0.00000000000E+00  0.00000000000E+00  0.12705857513E+04  0.12705857513E+04  0.25500000920E-02 0. -1.
       -2   -1    0    0    0  501  0.00000000000E+00  0.00000000000E+00 -0.10259326553E+04  0.10259326553E+04  0.25500000920E-02 0.  1.
    10030    2    1    2    0    0  0.00000000000E+00  0.00000000000E+00  0.24465309603E+03  0.22965184066E+04  0.22834495077E+04 0.  0.
        3    1    3    3  502    0  0.57246916628E+02 -0.10375308276E+04  0.59809637040E+03  0.11989439963E+04  0.10100000352E+00 0. -1.
       -3    1    3    3    0  502 -0.57246916628E+02  0.10375308276E+04 -0.35344327437E+03  0.10975744103E+04  0.10100000352E+00 0.  1.
</event>
<event>
 5   0  0.1782172E-04  0.1842713E+04  0.7818609E-02  0.8683909E-01
        2   -1    0    0  501    0  0.00000000000E+00  0.00000000000E+00  0.11588062798E+04  0.11588062798E+04  0.25500000920E-02 0.  1.
       -2   -1    0    0    0  501  0.00000000000E+00  0.00000000000E+00 -0.73256244201E+03  0.73256244201E+03  0.25500000920E-02 0. -1.
    10030    2    1    2    0    0  0.00000000000E+00  0.00000000000E+00  0.42624383782E+03  0.18913687218E+04  0.18427131716E+04 0.  0.
        2    1    3    3  502    0  0.72594680484E+03  0.32037030261E+03  0.69374011764E+03  0.10539977443E+04  0.25500000920E-02 0.  1.
       -2    1    3    3    0  502 -0.72594680484E+03 -0.32037030261E+03 -0.26749627982E+03  0.83737097751E+03  0.25500000920E-02 0. -1.
</event>
<event>
 5   0  0.1812865E-04  0.1612701E+04  0.7818609E-02  0.8812783E-01
       -2   -1    0    0    0  501  0.00000000000E+00  0.00000000000E+00  0.12193485531E+04  0.12193485531E+04  0.25500000920E-02 0.  1.
        2   -1    0    0  501    0  0.00000000000E+00  0.00000000000E+00 -0.53323634402E+03  0.53323634402E+03  0.25500000920E-02 0. -1.
    10030    2    1    2    0    0  0.00000000000E+00  0.00000000000E+00  0.68611220905E+03  0.17525848971E+04  0.16127007962E+04 0.  0.
        3    1    3    3  502    0  0.11535459205E+03  0.34301471592E+03 -0.44002603392E+03  0.56972686261E+03  0.10100000352E+00 0. -1.
       -3    1    3    3    0  502 -0.11535459205E+03 -0.34301471592E+03  0.11261382430E+04  0.11828580345E+04  0.10100000352E+00 0.  1.
</event>
<event>
 5   0  0.8577422E-05  0.1999891E+04  0.7818609E-02  0.8606672E-01
        1   -1    0    0  501    0  0.00000000000E+00  0.00000000000E+00  0.13246495714E+04  0.13246495714E+04  0.50400001928E-02 0. -1.
       -1   -1    0    0    0  501  0.00000000000E+00  0.00000000000E+00 -0.75483432985E+03  0.75483432986E+03  0.50400001928E-02 0.  1.
    10030    2    1    2    0    0  0.00000000000E+00  0.00000000000E+00  0.56981524155E+03  0.20794839013E+04  0.19998909686E+04 0.  0.
        2    1    3    3  502    0 -0.62997185180E+03  0.62375001145E+03  0.76587756018E+03  0.11715361915E+04  0.25500000920E-02 0. -1.
       -2    1    3    3    0  502  0.62997185180E+03 -0.62375001145E+03 -0.19606231864E+03  0.90794770975E+03  0.25500000920E-02 0.  1.
</event>
<event>
 5   0  0.1782172E-04  0.2013767E+04  0.7818609E-02  0.8600211E-01
       -2   -1    0    0    0  501  0.00000000000E+00  0.00000000000E+00  0.71261054992E+03  0.71261054993E+03  0.25500000920E-02 0.  1.
        2   -1    0    0  501    0  0.00000000000E+00  0.00000000000E+00 -0.14226773077E+04  0.14226773077E+04  0.25500000920E-02 0. -1.
    10030    2    1    2    0    0  0.00000000000E+00  0.00000000000E+00 -0.71006675780E+03  0.21352878576E+04  0.20137674728E+04 0.  0.
        2    1    3    3  502    0  0.79110516049E+03  0.21113590210E+03  0.26632244128E+03  0.86101880749E+03  0.25500000920E-02 0.  1.
       -2    1    3    3    0  502 -0.79110516049E+03 -0.21113590210E+03 -0.97638919907E+03  0.12742690502E+04  0.25500000920E-02 0. -1.
</event>
<event>
 5   0  0.8958919E-05  0.1999545E+04  0.7818609E-02  0.8606833E-01
        1   -1    0    0  501    0  0.00000000000E+00  0.00000000000E+00  0.89075682622E+03  0.89075682623E+03  0.50400001928E-02 0. -1.
       -1   -1    0    0    0  501  0.00000000000E+00  0.00000000000E+00 -0.11221300321E+04  0.11221300321E+04  0.50400001928E-02 0.  1.
    10030    2    1    2    0    0  0.00000000000E+00  0.00000000000E+00 -0.23137320592E+03  0.20128868584E+04  0.19995449343E+04 0.  0.
        4    1    3    3  502    0  0.57865324890E+03  0.61171995423E+03 -0.65826578269E+03  0.10688107122E+04  0.12699999809E+01 0.  1.
       -4    1    3    3    0  502 -0.57865324890E+03 -0.61171995423E+03  0.42689257677E+03  0.94407614622E+03  0.12699999809E+01 0. -1.
</event>
<event>
 5   0  0.8958919E-05  0.1993094E+04  0.7818609E-02  0.8609856E-01
        1   -1    0    0  501    0  0.00000000000E+00  0.00000000000E+00  0.16289132061E+04  0.16289132061E+04  0.50400001928E-02 0.  1.
       -1   -1    0    0    0  501  0.00000000000E+00  0.00000000000E+00 -0.60967385954E+03  0.60967385956E+03  0.50400001928E-02 0. -1.
    10030    2    1    2    0    0  0.00000000000E+00  0.00000000000E+00  0.10192393465E+04  0.22385870656E+04  0.19930938776E+04 0.  0.
        4    1    3    3  502    0 -0.38079750214E+03  0.57419722738E+03 -0.29906020095E+03  0.75109773682E+03  0.12699999809E+01 0. -1.
       -4    1    3    3    0  502  0.38079750214E+03 -0.57419722738E+03  0.13182995475E+04  0.14874893288E+04  0.12699999809E+01 0.  1.
</event>
<event>
 5   0  0.1893687E-04  0.1973795E+04  0.7818609E-02  0.8618971E-01
        2   -1    0    0  501    0  0.00000000000E+00  0.00000000000E+00  0.18829794050E+04  0.18829794050E+04  0.25500000920E-02 0. -1.
       -2   -1    0    0    0  501  0.00000000000E+00  0.00000000000E+00 -0.51724769202E+03  0.51724769203E+03  0.25500000920E-02 0.  1.
    10030    2    1    2    0    0  0.00000000000E+00  0.00000000000E+00  0.13657317130E+04  0.24002270970E+04  0.19737950769E+04 0.  0.
        4    1    3    3  502    0 -0.40179877874E+03  0.76620736581E+02  0.17750438429E+04  0.18215639580E+04  0.12699999809E+01 0. -1.
       -4    1    3    3    0  502  0.40179877874E+03 -0.76620736581E+02 -0.40931212994E+03  0.57866313904E+03  0.12699999809E+01 0.  1.
</event>
<event>
 5   0  0.8765057E-05  0.2003295E+04  0.7818609E-02  0.8605082E-01
        1   -1    0    0  501    0  0.00000000000E+00  0.00000000000E+00  0.99838567113E+03  0.99838567114E+03  0.50400001928E-02 0. -1.
       -1   -1    0    0    0  501  0.00000000000E+00  0.00000000000E+00 -0.10049201369E+04  0.10049201369E+04  0.50400001928E-02 0.  1.
    10030    2    1    2    0    0  0.00000000000E+00  0.00000000000E+00 -0.65344657636E+01  0.20033058081E+04  0.20032951508E+04 0.  0.
        3    1    3    3  502    0 -0.72742065529E+03  0.68769471281E+03  0.31847443296E+02  0.10015383655E+04  0.10100000352E+00 0.  1.
       -3    1    3    3    0  502  0.72742065529E+03 -0.68769471281E+03 -0.38381909060E+02  0.10017674425E+04  0.10100000352E+00 0. -1.
</event>
<event>
 5   0  0.8577422E-05  0.1994089E+04  0.7818609E-02  0.8609389E-01
       -1   -1    0    0    0  501  0.00000000000E+00  0.00000000000E+00  0.82969452156E+03  0.82969452158E+03  0.50400001928E-02 0.  1.
        1   -1    0    0  501    0  0.00000000000E+00  0.00000000000E+00 -0.11981489196E+04  0.11981489196E+04  0.50400001928E-02 0. -1.
    10030    2    1    2    0    0  0.00000000000E+00  0.00000000000E+00 -0.36845439807E+03  0.20278434412E+04  0.19940888593E+04 0.  0.
        2    1    3    3  502    0 -0.19895154882E+03  0.24253094620E+03  0.77820445229E+03  0.83905014642E+03  0.25500000920E-02 0.  1.
       -2    1    3    3    0  502  0.19895154882E+03 -0.24253094620E+03 -0.11466588504E+04  0.11887932948E+04  0.25500000920E-02 0. -1.
</event>
<event>
 5   0  0.1812865E-04  0.1976794E+04  0.7818609E-02  0.8617548E-01
       -2   -1    0    0    0  501  0.00000000000E+00  0.00000000000E+00  0.62715107245E+03  0.62715107245E+03  0.25500000920E-02 0. -1.
        2   -1    0    0  501    0  0.00000000000E+00  0.00000000000E+00 -0.15577247598E+04  0.15577247598E+04  0.25500000920E-02 0.  1.
    10030    2    1    2    0    0  0.00000000000E+00  0.00000000000E+00 -0.93057368740E+03  0.21848758323E+04  0.19767941256E+04 0.  0.
        3    1    3    3  502    0 -0.22716289693E+03 -0.34188606698E+01 -0.15284744436E+04  0.15452665806E+04  0.10100000352E+00 0.  1.
       -3    1    3    3    0  502  0.22716289693E+03  0.34188606698E+01  0.59790075619E+03  0.63960925166E+03  0.10100000352E+00 0. -1.
</event>
<event>
 5   0  0.1812865E-04  0.1968964E+04  0.7818609E-02  0.8621270E-01
        2   -1    0    0  501    0  0.00000000000E+00  0.00000000000E+00  0.76375715200E+03  0.76375715201E+03  0.25500000920E-02 0. -1.
       -2   -1    0    0    0  501  0.00000000000E+00  0.00000000000E+00 -0.12689957245E+04  0.12689957245E+04  0.25500000920E-02 0.  1.
    10030    2    1    2    0    0  0.00000000000E+00  0.00000000000E+00 -0.50523857253E+03  0.20327528765E+04  0.19689637482E+04 0.  0.
        3    1    3    3  502    0  0.33716609323E+03  0.79508981684E+03 -0.74053571497E+03  0.11376475494E+04  0.10100000352E+00 0.  1.
       -3    1    3    3    0  502 -0.33716609323E+03 -0.79508981684E+03  0.23529714245E+03  0.89510532716E+03  0.10100000352E+00 0. -1.
</event>
<event>
 5   0  0.1782172E-04  0.2006231E+04  0.7818609E-02  0.8603713E-01
        2   -1    0    0  501    0  0.00000000000E+00  0.00000000000E+00  0.24585739793E+04  0.24585739793E+04  0.25500000920E-02 0.  1.
       -2   -1    0    0    0  501  0.00000000000E+00  0.00000000000E+00 -0.40927818886E+03  0.40927818887E+03  0.25500000920E-02 0. -1.
    10030    2    1    2    0    0  0.00000000000E+00  0.00000000000E+00  0.20492957904E+04  0.28678521681E+04  0.20062309991E+04 0.  0.
        2    1    3    3  502    0 -0.45398581991E+03 -0.89417570058E+03  0.99000279871E+03  0.14091695603E+04  0.25500000920E-02 0.  1.
       -2    1    3    3    0  502  0.45398581991E+03  0.89417570058E+03  0.10592929917E+04  0.14586826078E+04  0.25500000920E-02 0. -1.
</event>
<event>
 5   0  0.8861350E-05  0.2016257E+04  0.7818609E-02  0.8599058E-01
       -1   -1    0    0    0  501  0.00000000000E+00  0.00000000000E+00  0.10437025650E+04  0.10437025650E+04  0.50400001928E-02 0. -1.
        1   -1    0    0  501    0  0.00000000000E+00  0.00000000000E+00 -0.97376663322E+03  0.97376663324E+03  0.50400001928E-02 0.  1.
    10030    2    1    2    0    0  0.00000000000E+00  0.00000000000E+00  0.69935931790E+02  0.20174691983E+04  0.20162566631E+04 0.  0.
        1    1    3    3  502    0  0.30349224937E+03 -0.39929163007E+03 -0.84007575053E+03  0.97840105168E+03  0.50400001928E-02 0.  1.
       -1    1    3    3    0  502 -0.30349224937E+03  0.39929163007E+03  0.91001168232E+03  0.10390681466E+04  0.50400001928E-02 0. -1.
</event>
<event>
 5   0  0.1893687E-04  0.2035371E+04  0.7818609E-02  0.8590260E-01
        2   -1    0    0  501    0  0.00000000000E+00  0.00000000000E+00  0.95453186390E+03  0.95453186390E+03  0.25500000920E-02 0. -1.
       -2   -1    0    0    0  501  0.00000000000E+00  0.00000000000E+00 -0.10850172439E+04  0.10850172439E+04  0.25500000920E-02 0.  1.
    10030    2    1    2    0    0  0.00000000000E+00  0.00000000000E+00 -0.13048537997E+03  0.20395491078E+04  0.20353707595E+04 0.  0.
        4    1    3    3  502    0 -0.52736160086E+03 -0.64550320920E+03 -0.65030536970E+03  0.10572054379E+04  0.12699999809E+01 0.  1.
       -4    1    3    3    0  502  0.52736160086E+03  0.64550320920E+03  0.51981998973E+03  0.98234366989E+03  0.12699999809E+01 0. -1.
</event>
<event>
 5   0  0.8765057E-05  0.1975793E+04  0.7818609E-02  0.8618023E-01
        1   -1    0    0  501    0  0.00000000000E+00  0.00000000000E+00  0.12584786218E+04  0.12584786218E+04  0.50400001928E-02 0.  1.
       -1   -1    0    0    0  501  0.00000000000E+00  0.00000000000E+00 -0.77549144073E+03  0.77549144075E+03  0.50400001928E-02 0. -1.
    10030    2    1    2    0    0  0.00000000000E+00  0.00000000000E+00  0.48298718106E+03  0.20339700626E+04  0.19757929037E+04 0.  0.
        3    1    3    3  502    0  0.53176386384E+03  0.60771999380E+03  0.82732194299E+03  0.11560960191E+04  0.10100000352E+00 0.  1.
       -3    1    3    3    0  502 -0.53176386384E+03 -0.60771999380E+03 -0.34433476193E+03  0.87787404348E+03  0.10100000352E+00 0. -1.
</event>
<event>
 5   0  0.1812865E-04  0.1985647E+04  0.7818609E-02  0.8613361E-01
       -2   -1    0    0    0  501  0.00000000000E+00  0.00000000000E+00  0.11166486107E+04  0.11166486107E+04  0.25500000920E-02 0.  1.
        2   -1    0    0  501    0  0.00000000000E+00  0.00000000000E+00 -0.88272949798E+03  0.88272949798E+03  0.25500000920E-02 0. -1.
    10030    2    1    2    0    0  0.00000000000E+00  0.00000000000E+00  0.23391911269E+03  0.19993781087E+04  0.19856471666E+04 0.  0.
        3    1    3    3  502    0 -0.50791408626E+03  0.40995600513E+03  0.87023570273E+03  0.10878193019E+04  0.10100000352E+00 0.  1.
       -3    1    3    3    0  502  0.50791408626E+03 -0.40995600513E+03 -0.63631659003E+03  0.91155880672E+03  0.10100000352E+00 0. -1.
</event>
<event>
 5   0  0.1812865E-04  0.1996753E+04  0.7818609E-02  0.8608140E-01
        2   -1    0    0  501    0  0.00000000000E+00  0.00000000000E+00  0.14832940699E+04  0.14832940699E+04  0.25500000920E-02 0. -1.
       -2   -1    0    0    0  501  0.00000000000E+00  0.00000000000E+00 -0.67198796759E+03  0.67198796759E+03  0.25500000920E-02 0.  1.
    10030    2    1    2    0    0  0.00000000000E+00  0.00000000000E+00  0.81130610228E+03  0.21552820375E+04  0.19967531318E+04 0.  0.
        3    1    3    3  502    0 -0.80171996286E+03  0.32701640809E+03  0.94216814480E+03  0.12795997239E+04  0.10100000352E+00 0. -1.
       -3    1    3    3    0  502  0.80171996286E+03 -0.32701640809E+03 -0.13086204252E+03  0.87568231361E+03  0.10100000352E+00 0.  1.
</event>
<event>
 5   0  0.8861350E-05  0.2008170E+04  0.7818609E-02  0.8602810E-01
        1   -1    0    0  501    0  0.00000000000E+00  0.00000000000E+00  0.19157692108E+04  0.19157692108E+04  0.50400001928E-02 0. -1.
       -1   -1    0    0    0  501  0.00000000000E+00  0.00000000000E+00 -0.52625705612E+03  0.52625705615E+03  0.50400001928E-02 0.  1.
    10030    2    1    2    0    0  0.00000000000E+00  0.00000000000E+00  0.13895121547E+04  0.24420262669E+04  0.20081703763E+04 0.  0.
        1    1    3    3  502    0 -0.15267647594E+03  0.73551456191E+03 -0.11543982473E+03  0.76001192770E+03  0.50400001928E-02 0.  1.
       -1    1    3    3    0  502  0.15267647594E+03 -0.73551456191E+03  0.15049519794E+04  0.16820143392E+04  0.50400001928E-02 0. -1.
</event>
<event>
 5   0  0.8861350E-05  0.2011253E+04  0.7818609E-02  0.8601378E-01
       -1   -1    0    0    0  501  0.00000000000E+00  0.00000000000E+00  0.10201306595E+04  0.10201306596E+04  0.50400001928E-02 0.  1.
        1   -1    0    0  501    0  0.00000000000E+00  0.00000000000E+00 -0.99132859538E+03  0.99132859539E+03  0.50400001928E-02 0. -1.
    10030    2    1    2    0    0  0.00000000000E+00  0.00000000000E+00  0.28802064169E+02  0.20114592549E+04  0.20112530361E+04 0.  0.
        1    1    3    3  502    0  0.84464238824E+02 -0.10932923267E+03 -0.98179226266E+03  0.99146514604E+03  0.50400001928E-02 0. -1.
       -1    1    3    3    0  502 -0.84464238824E+02  0.10932923267E+03  0.10105943268E+04  0.10199941089E+04  0.50400001928E-02 0.  1.
</event>
<event>
 5   0  0.1834645E-04  0.1987572E+04  0.7818609E-02  0.8612453E-01
        2   -1    0    0  501    0  0.00000000000E+00  0.00000000000E+00  0.81227927998E+03  0.81227927998E+03  0.25500000920E-02 0. -1.
       -2   -1    0    0    0  501  0.00000000000E+00  0.00000000000E+00 -0.12158505271E+04  0.12158505271E+04  0.25500000920E-02 0.  1.
    10030    2    1    2    0    0  0.00000000000E+00  0.00000000000E+00 -0.40357124708E+03  0.20281298070E+04  0.19875715742E+04 0.  0.
        1    1    3    3  502    0  0.19045961803E+03  0.90177628452E+03  0.17746352333E+03  0.93859929445E+03  0.50400001928E-02 0. -1.
       -1    1    3    3    0  502 -0.19045961803E+03 -0.90177628452E+03 -0.58103477041E+03  0.10895305126E+04  0.50400001928E-02 0.  1.
</event>
<event>
 5   0  0.8958919E-05  0.1888721E+04  0.7818609E-02  0.8660491E-01
        1   -1    0    0  501    0  0.00000000000E+00  0.00000000000E+00  0.19258156454E+04  0.19258156454E+04  0.50400001928E-02 0.  1.
       -1   -1    0    0    0  501  0.00000000000E+00  0.00000000000E+00 -0.46308533257E+03  0.46308533260E+03  0.50400001928E-02 0. -1.
    10030    2    1    2    0    0  0.00000000000E+00  0.00000000000E+00  0.14627303128E+04  0.23889009780E+04  0.18887212379E+04 0.  0.
        4    1    3    3  502    0  0.70968244155E+03 -0.58530484600E+03  0.10014116691E+04  0.13598006746E+04  0.12699999809E+01 0.  1.
       -4    1    3    3    0  502 -0.70968244155E+03  0.58530484600E+03  0.46131864371E+03  0.10291003034E+04  0.12699999809E+01 0. -1.
</event>
<event>
 5   0  0.1807498E-04  0.1987300E+04  0.7818609E-02  0.8612582E-01
        2   -1    0    0  501    0  0.00000000000E+00  0.00000000000E+00  0.13448134934E+04  0.13448134935E+04  0.25500000920E-02 0.  1.
       -2   -1    0    0    0  501  0.00000000000E+00  0.00000000000E+00 -0.73418361474E+03  0.73418361474E+03  0.25500000920E-02 0. -1.
    10030    2    1    2    0    0  0.00000000000E+00  0.00000000000E+00  0.61062987871E+03  0.20789971082E+04  0.19872997074E+04 0.  0.
        5    1    3    3  502    0 -0.14770072240E+03  0.55539245256E+03  0.11532975977E+04  0.12885626561E+04  0.46999998093E+01 0.  1.
       -5    1    3    3    0  502  0.14770072240E+03 -0.55539245256E+03 -0.54266771904E+03  0.79043445208E+03  0.46999998093E+01 0. -1.
</event>
<event>
 5   0  0.8577422E-05  0.1973979E+04  0.7818609E-02  0.8618884E-01
       -1   -1    0    0    0  501  0.00000000000E+00  0.00000000000E+00  0.96426429887E+03  0.96426429888E+03  0.50400001928E-02 0.  1.
        1   -1    0    0  501    0  0.00000000000E+00  0.00000000000E+00 -0.10102502919E+04  0.10102502920E+04  0.50400001928E-02 0. -1.
    10030    2    1    2    0    0  0.00000000000E+00  0.00000000000E+00 -0.45985993076E+02  0.19745145908E+04  0.19739790166E+04 0.  0.
        2    1    3    3  502    0  0.97156424315E+03 -0.31104814917E+01  0.15084004527E+03  0.98320876365E+03  0.25500000920E-02 0. -1.
       -2    1    3    3    0  502 -0.97156424315E+03  0.31104814917E+01 -0.19682603834E+03  0.99130582719E+03  0.25500000920E-02 0.  1.
</event>
<event>
 5   0  0.8881384E-05  0.2005133E+04  0.7818609E-02  0.8604225E-01
       -1   -1    0    0    0  501  0.00000000000E+00  0.00000000000E+00  0.10011811203E+04  0.10011811204E+04  0.50400001928E-02 0. -1.
        1   -1    0    0  501    0  0.00000000000E+00  0.00000000000E+00 -0.10039539563E+04  0.10039539563E+04  0.50400001928E-02 0.  1.
    10030    2    1    2    0    0  0.00000000000E+00  0.00000000000E+00 -0.27728359546E+01  0.20051350767E+04  0.20051331594E+04 0.  0.
        5    1    3    3  502    0 -0.14239772891E+02  0.80170064297E+03 -0.60321002779E+03  0.10033997806E+04  0.46999998093E+01 0.  1.
       -5    1    3    3    0  502  0.14239772891E+02 -0.80170064297E+03  0.60043719184E+03  0.10017352961E+04  0.46999998093E+01 0. -1.
</event>
<event>
 5   0  0.8861350E-05  0.1988958E+04  0.7818609E-02  0.8611801E-01
        1   -1    0    0  501    0  0.00000000000E+00  0.00000000000E+00  0.21036458027E+04  0.21036458027E+04  0.50400001928E-02 0.  1.
       -1   -1    0    0    0  501  0.00000000000E+00  0.00000000000E+00 -0.47013058929E+03  0.47013058931E+03  0.50400001928E-02 0. -1.
    10030    2    1    2    0    0  0.00000000000E+00  0.00000000000E+00  0.16335152134E+04  0.25737763920E+04  0.19889577581E+04 0.  0.
        1    1    3    3  502    0 -0.13285285050E+03  0.89848743648E+03  0.13408946685E+04  0.16195456355E+04  0.50400001928E-02 0. -1.
       -1    1    3    3    0  502  0.13285285050E+03 -0.89848743648E+03  0.29262054493E+03  0.95423075654E+03  0.50400001928E-02 0.  1.
</event>
<event>
 5   0  0.1807498E-04  0.1994275E+04  0.7818609E-02  0.8609302E-01
       -2   -1    0    0    0  501  0.00000000000E+00  0.00000000000E+00  0.11357511991E+04  0.11357511991E+04  0.25500000920E-02 0. -1.
        2   -1    0    0  501    0  0.00000000000E+00  0.00000000000E+00 -0.87544116018E+03  0.87544116019E+03  0.25500000920E-02 0.  1.
    10030    2    1    2    0    0  0.00000000000E+00  0.00000000000E+00  0.26031003887E+03  0.20111923592E+04  0.19942751539E+04 0.  0.
        5    1    3    3  502    0  0.68633140076E+02  0.29089229259E+03 -0.82919393477E+03  0.88142697103E+03  0.46999998093E+01 0.  1.
       -5    1    3    3    0  502 -0.68633140076E+02 -0.29089229259E+03  0.10895039736E+04  0.11297653882E+04  0.46999998093E+01 0. -1.
</event>
<event>
 5   0  0.8577422E-05  0.1952882E+04  0.7818609E-02  0.8628972E-01
       -1   -1    0    0    0  501  0.00000000000E+00  0.00000000000E+00  0.79574451926E+03  0.79574451928E+03  0.50400001928E-02 0. -1.
        1   -1    0    0  501    0  0.00000000000E+00  0.00000000000E+00 -0.11981699585E+04  0.11981699585E+04  0.50400001928E-02 0.  1.
    10030    2    1    2    0    0  0.00000000000E+00  0.00000000000E+00 -0.40242543927E+03  0.19939144778E+04  0.19528821548E+04 0.  0.
        2    1    3    3  502    0  0.17370300394E+03  0.43658054607E+02 -0.11812549591E+04  0.11947560578E+04  0.25500000920E-02 0.  1.
       -2    1    3    3    0  502 -0.17370300394E+03 -0.43658054607E+02  0.77882951982E+03  0.79915842000E+03  0.25500000920E-02 0. -1.
</event>
<event>
 5   0  0.8765057E-05  0.1841176E+04  0.7818609E-02  0.8684704E-01
       -1   -1    0    0    0  501  0.00000000000E+00  0.00000000000E+00  0.43670253787E+03  0.43670253789E+03  0.50400001928E-02 0. -1.
        1   -1    0    0  501    0  0.00000000000E+00  0.00000000000E+00 -0.19406403877E+04  0.19406403877E+04  0.50400001928E-02 0.  1.
    10030    2    1    2    0    0  0.00000000000E+00  0.00000000000E+00 -0.15039378499E+04  0.23773429256E+04  0.18411763440E+04 0.  0.
        3    1    3    3  502    0 -0.38056476521E+03  0.72548790437E+03 -0.12941541065E+04  0.15316648136E+04  0.10100000352E+00 0.  1.
       -3    1    3    3    0  502  0.38056476521E+03 -0.72548790437E+03 -0.20978374342E+03  0.84567811199E+03  0.10100000352E+00 0. -1.
</event>
<event>
 5   0  0.1812865E-04  0.1952949E+04  0.7818609E-02  0.8628940E-01
        2   -1    0    0  501    0  0.00000000000E+00  0.00000000000E+00  0.18386949176E+04  0.18386949176E+04  0.25500000920E-02 0.  1.
       -2   -1    0    0    0  501  0.00000000000E+00  0.00000000000E+00 -0.51857586659E+03  0.51857586659E+03  0.25500000920E-02 0. -1.
    10030    2    1    2    0    0  0.00000000000E+00  0.00000000000E+00  0.13201190510E+04  0.23572707841E+04  0.19529493698E+04 0.  0.
        3    1    3    3  502    0 -0.58862821507E+03  0.77666305464E+03  0.73460407522E+03  0.12203818392E+04  0.10100000352E+00 0.  1.
       -3    1    3    3    0  502  0.58862821507E+03 -0.77666305464E+03  0.58551497575E+03  0.11368889449E+04  0.10100000352E+00 0. -1.
</event>
<event>
 5   0  0.1807498E-04  0.1999722E+04  0.7818609E-02  0.8606751E-01
       -2   -1    0    0    0  501  0.00000000000E+00  0.00000000000E+00  0.62554874217E+03  0.62554874217E+03  0.25500000920E-02 0.  1.
        2   -1    0    0  501    0  0.00000000000E+00  0.00000000000E+00 -0.15981520701E+04  0.15981520701E+04  0.25500000920E-02 0. -1.
    10030    2    1    2    0    0  0.00000000000E+00  0.00000000000E+00 -0.97260332792E+03  0.22237008123E+04  0.19997219979E+04 0.  0.
        5    1    3    3  502    0 -0.73597732017E+02 -0.98486580110E+03 -0.65972687025E+03  0.11877032061E+04  0.46999998093E+01 0. -1.
       -5    1    3    3    0  502  0.73597732017E+02  0.98486580110E+03 -0.31287645767E+03  0.10359976062E+04  0.46999998093E+01 0.  1.
</event>
<event>
 5   0  0.1834645E-04  0.1981471E+04  0.7818609E-02  0.8615333E-01
        2   -1    0    0  501    0  0.00000000000E+00  0.00000000000E+00  0.22598005522E+04  0.22598005522E+04  0.25500000920E-02 0.  1.
       -2   -1    0    0    0  501  0.00000000000E+00  0.00000000000E+00 -0.43435567616E+03  0.43435567617E+03  0.25500000920E-02 0. -1.
    10030    2    1    2    0    0  0.00000000000E+00  0.00000000000E+00  0.18254448761E+04  0.26941562284E+04  0.19814713693E+04 0.  0.
        1    1    3    3  502    0 -0.71033177515E+03  0.33728919518E+03  0.93275142704E+02  0.79185572186E+03  0.50400001928E-02 0. -1.
       -1    1    3    3    0  502  0.71033177515E+03 -0.33728919518E+03  0.17321697333E+04  0.19023005065E+04  0.50400001928E-02 0.  1.
</event>
<event>
 5   0  0.8958919E-05  0.1996904E+04  0.7818609E-02  0.8608070E-01
       -1   -1    0    0    0  501  0.00000000000E+00  0.00000000000E+00  0.55716096790E+03  0.55716096792E+03  0.50400001928E-02 0. -1.
        1   -1    0    0  501    0  0.00000000000E+00  0.00000000000E+00 -0.17892601440E+04  0.17892601440E+04  0.50400001928E-02 0.  1.
    10030    2    1    2    0    0  0.00000000000E+00  0.00000000000E+00 -0.12320991761E+04  0.23464211119E+04  0.19969035166E+04 0.  0.
        4    1    3    3  502    0  0.78030695988E+03  0.20149435922E+03 -0.13086450499E+04  0.15368904997E+04  0.12699999809E+01 0.  1.
       -4    1    3    3    0  502 -0.78030695988E+03 -0.20149435922E+03  0.76545873829E+02  0.80953061223E+03  0.12699999809E+01 0. -1.
</event>
<event>
 5   0  0.8881384E-05  0.1966746E+04  0.7818609E-02  0.8622328E-01
        1   -1    0    0  501    0  0.00000000000E+00  0.00000000000E+00  0.24036445020E+04  0.24036445020E+04  0.50400001928E-02 0.  1.
       -1   -1    0    0    0  501  0.00000000000E+00  0.00000000000E+00 -0.40231504081E+03  0.40231504084E+03  0.50400001928E-02 0. -1.
    10030    2    1    2    0    0  0.00000000000E+00  0.00000000000E+00  0.20013294612E+04  0.28059595429E+04  0.19667458768E+04 0.  0.
        5    1    3    3  502    0 -0.39507995740E+01  0.19368329771E+03  0.23761349003E+04  0.23840234863E+04  0.46999998093E+01 0.  1.
       -5    1    3    3    0  502  0.39507995740E+01 -0.19368329771E+03 -0.37480543913E+03  0.42193605656E+03  0.46999998093E+01 0. -1.
</event>
<event>
 5   0  0.8861350E-05  0.1995110E+04  0.7818609E-02  0.8608910E-01
        1   -1    0    0  501    0  0.00000000000E+00  0.00000000000E+00  0.17357794286E+04  0.17357794286E+04  0.50400001928E-02 0.  1.
       -1   -1    0    0    0  501  0.00000000000E+00  0.00000000000E+00 -0.57329651279E+03  0.57329651281E+03  0.50400001928E-02 0. -1.
    10030    2    1    2    0    0  0.00000000000E+00  0.00000000000E+00  0.11624829158E+04  0.23090759414E+04  0.19951103161E+04 0.  0.
        1    1    3    3  502    0 -0.37899112423E+03  0.44186570102E+03  0.15188068480E+04  0.16265465906E+04  0.50400001928E-02 0.  1.
       -1    1    3    3    0  502  0.37899112423E+03 -0.44186570102E+03 -0.35632393219E+03  0.68252935077E+03  0.50400001928E-02 0. -1.
</event>
<event>
 5   0  0.1782172E-04  0.2272461E+04  0.7818609E-02  0.8488859E-01
       -2   -1    0    0    0  501  0.00000000000E+00  0.00000000000E+00  0.11298674613E+04  0.11298674613E+04  0.25500000920E-02 0.  1.
        2   -1    0    0  501    0  0.00000000000E+00  0.00000000000E+00 -0.11426297940E+04  0.11426297940E+04  0.25500000920E-02 0. -1.
    10030    2    1    2    0    0  0.00000000000E+00  0.00000000000E+00 -0.12762332700E+02  0.22724972553E+04  0.22724614184E+04 0.  0.
        2    1    3    3  502    0 -0.97912263939E+03 -0.51305250267E+03 -0.26928493391E+03  0.11377250938E+04  0.25500000920E-02 0.  1.
       -2    1    3    3    0  502  0.97912263939E+03  0.51305250267E+03  0.25652260121E+03  0.11347721614E+04  0.25500000920E-02 0. -1.
</event>
<event>
 5   0  0.8765057E-05  0.2021821E+04  0.7818609E-02  0.8596486E-01
       -1   -1    0    0    0  501  0.00000000000E+00  0.00000000000E+00  0.58128897077E+03  0.58128897079E+03  0.50400001928E-02 0.  1.
        1   -1    0    0  501    0  0.00000000000E+00  0.00000000000E+00 -0.17580592011E+04  0.17580592011E+04  0.50400001928E-02 0. -1.
    10030    2    1    2    0    0  0.00000000000E+00  0.00000000000E+00 -0.11767702303E+04  0.23393481719E+04  0.20218213804E+04 0.  0.
        3    1    3    3  502    0  0.27231216805E+03 -0.40200522005E+03  0.43753277955E+03  0.65360313432E+03  0.10100000352E+00 0.  1.
       -3    1    3    3    0  502 -0.27231216805E+03  0.40200522005E+03 -0.16143030099E+04  0.16857450376E+04  0.10100000352E+00 0. -1.
</event>
<event>
 5   0  0.6531625E-05  0.1966808E+04  0.7818609E-02  0.8622298E-01
       -4   -1    0    0    0  501  0.00000000000E+00  0.00000000000E+00  0.91510462384E+03  0.91510550510E+03  0.12699999809E+01 0.  1.
        4   -1    0    0  501    0  0.00000000000E+00  0.00000000000E+00 -0.10567992285E+04  0.10567999916E+04  0.12699999809E+01 0. -1.
    10030    2    1    2    0    0  0.00000000000E+00  0.00000000000E+00 -0.14169460462E+03  0.19719054967E+04  0.19668080554E+04 0.  0.
        5    1    3    3  502    0  0.31356626280E+03  0.22766263186E+03 -0.97701903828E+03  0.10510672511E+04  0.46999998093E+01 0. -1.
       -5    1    3    3    0  502 -0.31356626280E+03 -0.22766263186E+03  0.83532443365E+03  0.92083824560E+03  0.46999998093E+01 0.  1.
</event>
<event>
 5   0  0.8958919E-05  0.1948847E+04  0.7818609E-02  0.8630917E-01
        1   -1    0    0  501    0  0.00000000000E+00  0.00000000000E+00  0.10959786687E+04  0.10959786687E+04  0.50400001928E-02 0.  1.
       -1   -1    0    0    0  501  0.00000000000E+00  0.00000000000E+00 -0.86635003344E+03  0.86635003346E+03  0.50400001928E-02 0. -1.
    10030    2    1    2    0    0  0.00000000000E+00  0.00000000000E+00  0.22962863524E+03  0.19623287021E+04  0.19488469989E+04 0.  0.
        4    1    3    3  502    0 -0.37977983536E+03 -0.69375271555E+03 -0.45831032685E+03  0.91409820166E+03  0.12699999809E+01 0. -1.
       -4    1    3    3    0  502  0.37977983536E+03  0.69375271555E+03  0.68793896209E+03  0.10482305005E+04  0.12699999809E+01 0.  1.
</event>
<event>
 5   0  0.1834645E-04  0.1990780E+04  0.7818609E-02  0.8610943E-01
        2   -1    0    0  501    0  0.00000000000E+00  0.00000000000E+00  0.24114325579E+04  0.24114325579E+04  0.25500000920E-02 0.  1.
       -2   -1    0    0    0  501  0.00000000000E+00  0.00000000000E+00 -0.41087663481E+03  0.41087663481E+03  0.25500000920E-02 0. -1.
    10030    2    1    2    0    0  0.00000000000E+00  0.00000000000E+00  0.20005559231E+04  0.28223091927E+04  0.19907800426E+04 0.  0.
        1    1    3    3  502    0 -0.12602517926E+03 -0.72086097701E+03  0.19568547434E+04  0.20892111862E+04  0.50400001928E-02 0.  1.
       -1    1    3    3    0  502  0.12602517926E+03  0.72086097701E+03  0.43701179718E+02  0.73309800648E+03  0.50400001928E-02 0. -1.
</event>
<event>
 5   0  0.1812865E-04  0.2018763E+04  0.7818609E-02  0.8597898E-01
        2   -1    0    0  501    0  0.00000000000E+00  0.00000000000E+00  0.10207199557E+04  0.10207199557E+04  0.25500000920E-02 0. -1.
       -2   -1    0    0    0  501  0.00000000000E+00  0.00000000000E+00 -0.99816872864E+03  0.99816872865E+03  0.25500000920E-02 0.  1.
    10030    2    1    2    0    0  0.00000000000E+00  0.00000000000E+00  0.22551227067E+02  0.20188886844E+04  0.20187627305E+04 0.  0.
        3    1    3    3  502    0 -0.29931538344E+03  0.61711989480E+03  0.75187841075E+03  0.10177169636E+04  0.10100000352E+00 0. -1.
       -3    1    3    3    0  502  0.29931538344E+03 -0.61711989480E+03 -0.72932718368E+03  0.10011717207E+04  0.10100000352E+00 0.  1.
</event>
<event>
 5   0  0.8577422E-05  0.1980245E+04  0.7818609E-02  0.8615913E-01
       -1   -1    0    0    0  501  0.00000000000E+00  0.00000000000E+00  0.11184409278E+04  0.11184409278E+04  0.50400001928E-02 0.  1.
        1   -1    0    0  501    0  0.00000000000E+00  0.00000000000E+00 -0.87652622830E+03  0.87652622831E+03  0.50400001928E-02 0. -1.
    10030    2    1    2    0    0  0.00000000000E+00  0.00000000000E+00  0.24191469948E+03  0.19949671561E+04  0.19802452454E+04 0.  0.
        2    1    3    3  502    0  0.39369303246E+03 -0.80253942101E+03  0.54989149289E+03  0.10494972034E+04  0.25500000920E-02 0.  1.
       -2    1    3    3    0  502 -0.39369303246E+03  0.80253942101E+03 -0.30797679340E+03  0.94546995265E+03  0.25500000920E-02 0. -1.
</event>
<event>
 5   0  0.8881384E-05  0.1999027E+04  0.7818609E-02  0.8607076E-01
       -1   -1    0    0    0  501  0.00000000000E+00  0.00000000000E+00  0.11630456125E+04  0.11630456126E+04  0.50400001928E-02 0. -1.
        1   -1    0    0  501    0  0.00000000000E+00  0.00000000000E+00 -0.85897535424E+03  0.85897535425E+03  0.50400001928E-02 0.  1.
    10030    2    1    2    0    0  0.00000000000E+00  0.00000000000E+00  0.30407025831E+03  0.20220209668E+04  0.19990272805E+04 0.  0.
        5    1    3    3  502    0  0.66370135692E+03 -0.33990491830E+03 -0.52118078936E+03  0.90977269131E+03  0.46999998093E+01 0.  1.
       -5    1    3    3    0  502 -0.66370135692E+03  0.33990491830E+03  0.82525104767E+03  0.11122482755E+04  0.46999998093E+01 0. -1.
</event>
<event>
 5   0  0.1807498E-04  0.2023367E+04  0.7818609E-02  0.8595773E-01
        2   -1    0    0  501    0  0.00000000000E+00  0.00000000000E+00  0.20700487800E+04  0.20700487800E+04  0.25500000920E-02 0. -1.
       -2   -1    0    0    0  501  0.00000000000E+00  0.00000000000E+00 -0.49443455824E+03  0.49443455824E+03  0.25500000920E-02 0.  1.
    10030    2    1    2    0    0  0.00000000000E+00  0.00000000000E+00  0.15756142218E+04  0.25644833383E+04  0.20233671482E+04 0.  0.
        5    1    3    3  502    0  0.26283102943E+03  0.70017752240E+03 -0.75679680483E+02  0.75171684625E+03  0.46999998093E+01 0.  1.
       -5    1    3    3    0  502 -0.26283102943E+03 -0.70017752240E+03  0.16512939023E+04  0.18127664920E+04  0.46999998093E+01 0. -1.
</event>
<event>
 5   0  0.1834645E-04  0.2075472E+04  0.7818609E-02  0.8572126E-01
       -2   -1    0    0    0  501  0.00000000000E+00  0.00000000000E+00  0.15812823349E+04  0.15812823349E+04  0.25500000920E-02 0.  1.
        2   -1    0    0  501    0  0.00000000000E+00  0.00000000000E+00 -0.68102727035E+03  0.68102727035E+03  0.25500000920E-02 0. -1.
    10030    2    1    2    0    0  0.00000000000E+00  0.00000000000E+00  0.90025506453E+03  0.22623096052E+04  0.20754723724E+04 0.  0.
        1    1    3    3  502    0  0.10234923491E+03 -0.32264581111E+03 -0.61916121914E+03  0.70564601652E+03  0.50400001928E-02 0. -1.
       -1    1    3    3    0  502 -0.10234923491E+03  0.32264581111E+03  0.15194162837E+04  0.15566635887E+04  0.50400001928E-02 0.  1.
</event>
<event>
 5   0  0.6531625E-05  0.1992516E+04  0.7818609E-02  0.8610128E-01
        3   -1    0    0  501    0  0.00000000000E+00  0.00000000000E+00  0.62616987747E+03  0.62616988562E+03  0.10100000352E+00 0.  1.
       -3   -1    0    0    0  501  0.00000000000E+00  0.00000000000E+00 -0.15850814199E+04  0.15850814231E+04  0.10100000352E+00 0. -1.
    10030    2    1    2    0    0  0.00000000000E+00  0.00000000000E+00 -0.95891154241E+03  0.22112513087E+04  0.19925162494E+04 0.  0.
        4    1    3    3  502    0 -0.76253341181E+03  0.31861460564E+03  0.13800015238E+03  0.83786521947E+03  0.12699999809E+01 0.  1.
       -4    1    3    3    0  502  0.76253341181E+03 -0.31861460564E+03 -0.10969116948E+04  0.13733860892E+04  0.12699999809E+01 0. -1.
</event>
<event>
 5   0  0.8958919E-05  0.2001058E+04  0.7818609E-02  0.8606126E-01
        1   -1    0    0  501    0  0.00000000000E+00  0.00000000000E+00  0.78281037614E+03  0.78281037615E+03  0.50400001928E-02 0. -1.
       -1   -1    0    0    0  501  0.00000000000E+00  0.00000000000E+00 -0.12788010461E+04  0.12788010461E+04  0.50400001928E-02 0.  1.
    10030    2    1    2    0    0  0.00000000000E+00  0.00000000000E+00 -0.49599066993E+03  0.20616114222E+04  0.20010584478E+04 0.  0.
        4    1    3    3  502    0  0.13695689301E+03 -0.38065339375E+03  0.69479315730E+03  0.80398590849E+03  0.12699999809E+01 0. -1.
       -4    1    3    3    0  502 -0.13695689301E+03  0.38065339375E+03 -0.11907838272E+04  0.12576255137E+04  0.12699999809E+01 0.  1.
</event>
<event>
 5   0  0.1893687E-04  0.2014306E+04  0.7818609E-02  0.8599961E-01
       -2   -1    0    0    0  501  0.00000000000E+00  0.00000000000E+00  0.60306847060E+03  0.60306847061E+03  0.25500000920E-02 0. -1.
        2   -1    0    0  501    0  0.00000000000E+00  0.00000000000E+00 -0.16819936512E+04  0.16819936512E+04  0.25500000920E-02 0.  1.
    10030    2    1    2    0    0  0.00000000000E+00  0.00000000000E+00 -0.10789251806E+04  0.22850621218E+04  0.20143061722E+04 0.  0.
        4    1    3    3  502    0 -0.95747606544E+03  0.25226379007E+03 -0.74851031057E+03  0.12412359702E+04  0.12699999809E+01 0.  1.
       -4    1    3    3    0  502  0.95747606544E+03 -0.25226379007E+03 -0.33041487005E+03  0.10438261517E+04  0.12699999809E+01 0. -1.
</event>
<event>
 5   0  0.1812865E-04  0.1996362E+04  0.7818609E-02  0.8608323E-01
        2   -1    0    0  501    0  0.00000000000E+00  0.00000000000E+00  0.79321507067E+03  0.79321507067E+03  0.25500000920E-02 0.  1.
       -2   -1    0    0    0  501  0.00000000000E+00  0.00000000000E+00 -0.12561103957E+04  0.12561103957E+04  0.25500000920E-02 0. -1.
    10030    2    1    2    0    0  0.00000000000E+00  0.00000000000E+00 -0.46289532507E+03  0.20493254664E+04  0.19963623883E+04 0.  0.
        3    1    3    3  502    0 -0.64646500415E+03  0.18126278582E+03 -0.98968601639E+03  0.11959312774E+04  0.10100000352E+00 0. -1.
       -3    1    3    3    0  502  0.64646500415E+03 -0.18126278582E+03  0.52679069132E+03  0.85339418898E+03  0.10100000352E+00 0.  1.
</event>
<event>
 5   0  0.1807498E-04  0.1625726E+04  0.7818609E-02  0.8804897E-01
        2   -1    0    0  501    0  0.00000000000E+00  0.00000000000E+00  0.56169048043E+03  0.56169048044E+03  0.25500000920E-02 0. -1.
       -2   -1    0    0    0  501  0.00000000000E+00  0.00000000000E+00 -0.11763534110E+04  0.11763534110E+04  0.25500000920E-02 0.  1.
    10030    2    1    2    0    0  0.00000000000E+00  0.00000000000E+00 -0.61466293053E+03  0.17380438914E+04  0.16257263147E+04 0.  0.
        5    1    3    3  502    0  0.22413360761E+03 -0.77251523199E+03 -0.18215794453E+03  0.82475406302E+03  0.46999998093E+01 0.  1.
       -5    1    3    3    0  502 -0.22413360761E+03  0.77251523199E+03 -0.43250498600E+03  0.91328982838E+03  0.46999998093E+01 0. -1.
</event>
<event>
 5   0  0.1807498E-04  0.1912799E+04  0.7818609E-02  0.8648512E-01
       -2   -1    0    0    0  501  0.00000000000E+00  0.00000000000E+00  0.43859556499E+03  0.43859556500E+03  0.25500000920E-02 0. -1.
        2   -1    0    0  501    0  0.00000000000E+00  0.00000000000E+00 -0.20855198308E+04  0.20855198308E+04  0.25500000920E-02 0.  1.
    10030    2    1    2    0    0  0.00000000000E+00  0.00000000000E+00 -0.16469242658E+04  0.25241153958E+04  0.19127987333E+04 0.  0.
        5    1    3    3  502    0  0.55512503824E+03  0.41054661510E+03 -0.16967547632E+04  0.18318600240E+04  0.46999998093E+01 0.  1.
       -5    1    3    3    0  502 -0.55512503824E+03 -0.41054661510E+03  0.49830497386E+02  0.69225537176E+03  0.46999998093E+01 0. -1.
</event>
<event>
 5   0  0.1807498E-04  0.1995404E+04  0.7818609E-02  0.8608772E-01
        2   -1    0    0  501    0  0.00000000000E+00  0.00000000000E+00  0.14452170186E+04  0.14452170186E+04  0.25500000920E-02 0.  1.
       -2   -1    0    0    0  501  0.00000000000E+00  0.00000000000E+00 -0.68876113948E+03  0.68876113948E+03  0.25500000920E-02 0. -1.
    10030    2    1    2    0    0  0.00000000000E+00  0.00000000000E+00  0.75645587914E+03  0.21339781581E+04  0.19954040398E+04 0.  0.
        5    1    3    3  502    0  0.74191420772E+03  0.44967605385E+03 -0.14867615418E+03  0.88021130068E+03  0.46999998093E+01 0. -1.
       -5    1    3    3    0  502 -0.74191420772E+03 -0.44967605385E+03  0.90513203332E+03  0.12537668574E+04  0.46999998093E+01 0.  1.
</event>
<event>
 5   0  0.8881384E-05  0.1977360E+04  0.7818609E-02  0.8617279E-01
        1   -1    0    0  501    0  0.00000000000E+00  0.00000000000E+00  0.13676392304E+04  0.13676392304E+04  0.50400001928E-02 0.  1.
       -1   -1    0    0    0  501  0.00000000000E+00  0.00000000000E+00 -0.71472638487E+03  0.71472638489E+03  0.50400001928E-02 0. -1.
    10030    2    1    2    0    0  0.00000000000E+00  0.00000000000E+00  0.65291284550E+03  0.20823656153E+04  0.19773596971E+04 0.  0.
        5    1    3    3  502    0 -0.72222328900E+03  0.24777831986E+03  0.98787386196E+03  0.12485661505E+04  0.46999998093E+01 0.  1.
       -5    1    3    3    0  502  0.72222328900E+03 -0.24777831986E+03 -0.33496101645E+03  0.83379946480E+03  0.46999998093E+01 0. -1.
</event>
<event>
 5   0  0.1834645E-04  0.2010295E+04  0.7818609E-02  0.8601822E-01
       -2   -1    0    0    0  501  0.00000000000E+00  0.00000000000E+00  0.57262952825E+03  0.57262952826E+03  0.25500000920E-02 0. -1.
        2   -1    0    0  501    0  0.00000000000E+00  0.00000000000E+00 -0.17643552363E+04  0.17643552363E+04  0.25500000920E-02 0.  1.
    10030    2    1    2    0    0  0.00000000000E+00  0.00000000000E+00 -0.11917257080E+04  0.23369847645E+04  0.20102954078E+04 0.  0.
        1    1    3    3  502    0 -0.67236442442E+03 -0.54153845720E+03  0.25568671134E+01  0.86333328295E+03  0.50400001928E-02 0. -1.
       -1    1    3    3    0  502  0.67236442442E+03  0.54153845720E+03 -0.11942825751E+04  0.14736514816E+04  0.50400001928E-02 0.  1.
</event>
<event>
 5   0  0.8577422E-05  0.2119219E+04  0.7818609E-02  0.8552824E-01
        1   -1    0    0  501    0  0.00000000000E+00  0.00000000000E+00  0.11769009718E+04  0.11769009719E+04  0.50400001928E-02 0.  1.
       -1   -1    0    0    0  501  0.00000000000E+00  0.00000000000E+00 -0.95400713296E+03  0.95400713297E+03  0.50400001928E-02 0. -1.
    10030    2    1    2    0    0  0.00000000000E+00  0.00000000000E+00  0.22289383889E+03  0.21309081048E+04  0.21192186503E+04 0.  0.
        2    1    3    3  502    0 -0.24976124735E+03 -0.96548779888E+03 -0.24861280783E+03  0.10277916611E+04  0.25500000920E-02 0. -1.
       -2    1    3    3    0  502  0.24976124735E+03  0.96548779888E+03  0.47150664672E+03  0.11031164437E+04  0.25500000920E-02 0.  1.
</event>
<event>
 5   0  0.8577422E-05  0.2001582E+04  0.7818609E-02  0.8605881E-01
       -1   -1    0    0    0  501  0.00000000000E+00  0.00000000000E+00  0.16416945995E+04  0.16416945995E+04  0.50400001928E-02 0.  1.
        1   -1    0    0  501    0  0.00000000000E+00  0.00000000000E+00 -0.61009075936E+03  0.61009075938E+03  0.50400001928E-02 0. -1.
    10030    2    1    2    0    0  0.00000000000E+00  0.00000000000E+00  0.10316038401E+04  0.22517853589E+04  0.20015820791E+04 0.  0.
        2    1    3    3  502    0 -0.41975788797E+03  0.10045294517E+03  0.15316085353E+04  0.15912611929E+04  0.25500000920E-02 0.  1.
       -2    1    3    3    0  502  0.41975788797E+03 -0.10045294517E+03 -0.50000469512E+03  0.66052416599E+03  0.25500000920E-02 0. -1.
</event>
<event>
 5   0  0.8765057E-05  0.2033510E+04  0.7818609E-02  0.8591112E-01
       -1   -1    0    0    0  501  0.00000000000E+00  0.00000000000E+00  0.77250493872E+03  0.77250493874E+03  0.50400001928E-02 0. -1.
        1   -1    0    0  501    0  0.00000000000E+00  0.00000000000E+00 -0.13382315609E+04  0.13382315609E+04  0.50400001928E-02 0.  1.
    10030    2    1    2    0    0  0.00000000000E+00  0.00000000000E+00 -0.56572662218E+03  0.21107364996E+04  0.20335097639E+04 0.  0.
        3    1    3    3  502    0 -0.29415984505E+03 -0.88433245337E+03  0.13904158818E+03  0.94228789442E+03  0.10100000352E+00 0. -1.
       -3    1    3    3    0  502  0.29415984505E+03  0.88433245337E+03 -0.70476821036E+03  0.11684486052E+04  0.10100000352E+00 0.  1.
</event>
<event>
 5   0  0.1834645E-04  0.2008517E+04  0.7818609E-02  0.8602649E-01
        2   -1    0    0  501    0  0.00000000000E+00  0.00000000000E+00  0.10918323944E+04  0.10918323944E+04  0.25500000920E-02 0. -1.
       -2   -1    0    0    0  501  0.00000000000E+00  0.00000000000E+00 -0.92370851786E+03  0.92370851787E+03  0.25500000920E-02 0.  1.
    10030    2    1    2    0    0  0.00000000000E+00  0.00000000000E+00  0.16812387654E+03  0.20155409123E+04  0.20085167490E+04 0.  0.
        1    1    3    3  502    0  0.75912872575E+03  0.64845056853E+03 -0.24808584418E+02  0.99868915483E+03  0.50400001928E-02 0.  1.
       -1    1    3    3    0  502 -0.75912872575E+03 -0.64845056853E+03  0.19293246096E+03  0.10168517574E+04  0.50400001928E-02 0. -1.
</event>
<event>
 5   0  0.8958919E-05  0.2005308E+04  0.7818609E-02  0.8604143E-01
       -1   -1    0    0    0  501  0.00000000000E+00  0.00000000000E+00  0.89936141455E+03  0.89936141457E+03  0.50400001928E-02 0. -1.
        1   -1    0    0  501    0  0.00000000000E+00  0.00000000000E+00 -0.11178101715E+04  0.11178101715E+04  0.50400001928E-02 0.  1.
    10030    2    1    2    0    0  0.00000000000E+00  0.00000000000E+00 -0.21844875698E+03  0.20171715861E+04  0.20053082926E+04 0.  0.
        4    1    3    3  502    0 -0.19567804788E+03 -0.98321814547E+03 -0.91630791198E+02  0.10066805028E+04  0.12699999809E+01 0.  1.
       -4    1    3    3    0  502  0.19567804788E+03  0.98321814547E+03 -0.12681796578E+03  0.10104910833E+04  0.12699999809E+01 0. -1.
</event>
<event>
 5   0  0.8958919E-05  0.1881897E+04  0.7818609E-02  0.8663920E-01
       -1   -1    0    0    0  501  0.00000000000E+00  0.00000000000E+00  0.95666381890E+03  0.95666381892E+03  0.50400001928E-02 0. -1.
        1   -1    0    0  501    0  0.00000000000E+00  0.00000000000E+00 -0.92549177313E+03  0.92549177314E+03  0.50400001928E-02 0.  1.
    10030    2    1    2    0    0  0.00000000000E+00  0.00000000000E+00  0.31172045773E+02  0.18821555921E+04  0.18818974404E+04 0.  0.
        4    1    3    3  502    0 -0.26383098898E+02 -0.54419504753E+03  0.78285393021E+03  0.95378519941E+03  0.12699999809E+01 0. -1.
       -4    1    3    3    0  502  0.26383098898E+02  0.54419504753E+03 -0.75168188444E+03  0.92837039265E+03  0.12699999809E+01 0.  1.
</event>
<event>
 5   0  0.8881384E-05  0.1951901E+04  0.7818609E-02  0.8629445E-01
        1   -1    0    0  501    0  0.00000000000E+00  0.00000000000E+00  0.54440391181E+03  0.54440391183E+03  0.50400001928E-02 0.  1.
       -1   -1    0    0    0  501  0.00000000000E+00  0.00000000000E+00 -0.17495812766E+04  0.17495812766E+04  0.50400001928E-02 0. -1.
    10030    2    1    2    0    0  0.00000000000E+00  0.00000000000E+00 -0.12051773648E+04  0.22939851884E+04  0.19519005006E+04 0.  0.
        5    1    3    3  502    0 -0.60039466622E+02 -0.30159186358E+03  0.48596500517E+03  0.57510561289E+03  0.46999998093E+01 0.  1.
       -5    1    3    3    0  502  0.60039466622E+02  0.30159186358E+03 -0.16911423700E+04  0.17188795755E+04  0.46999998093E+01 0. -1.
</event>
<event>
 5   0  0.1782172E-04  0.2049279E+04  0.7818609E-02  0.8583921E-01
        2   -1    0    0  501    0  0.00000000000E+00  0.00000000000E+00  0.17133023764E+04  0.17133023764E+04  0.25500000920E-02 0.  1.
       -2   -1    0    0    0  501  0.00000000000E+00  0.00000000000E+00 -0.61278534453E+03  0.61278534454E+03  0.25500000920E-02 0. -1.
    10030    2    1    2    0    0  0.00000000000E+00  0.00000000000E+00  0.11005170319E+04  0.23260877210E+04  0.20492794705E+04 0.  0.
        2    1    3    3  502    0 -0.84847668507E+03 -0.39760868287E+03  0.79672372656E+02  0.94040046617E+03  0.25500000920E-02 0. -1.
       -2    1    3    3    0  502  0.84847668507E+03  0.39760868287E+03  0.10208446592E+04  0.13856872548E+04  0.25500000920E-02 0.  1.
</event>
<event>
 5   0  0.1893687E-04  0.2132388E+04  0.7818609E-02  0.8547109E-01
        2   -1    0    0  501    0  0.00000000000E+00  0.00000000000E+00  0.16618469125E+04  0.16618469125E+04  0.25500000920E-02 0.  1.
       -2   -1    0    0    0  501  0.00000000000E+00  0.00000000000E+00 -0.68404009752E+03  0.68404009753E+03  0.25500000920E-02 0. -1.
    10030    2    1    2    0    0  0.00000000000E+00  0.00000000000E+00  0.97780681499E+03  0.23458870100E+04  0.21323882612E+04 0.  0.
        4    1    3    3  502    0 -0.83815678015E+03  0.63071203750E+03  0.27882952543E+03  0.10853810296E+04  0.12699999809E+01 0. -1.
       -4    1    3    3    0  502  0.83815678015E+03 -0.63071203750E+03  0.69897728956E+03  0.12605059804E+04  0.12699999809E+01 0.  1.
</event>
<event>
 5   0  0.1807498E-04  0.2030335E+04  0.7818609E-02  0.8592568E-01
       -2   -1    0    0    0  501  0.00000000000E+00  0.00000000000E+00  0.59339280842E+03  0.59339280842E+03  0.25500000920E-02 0. -1.
        2   -1    0    0  501    0  0.00000000000E+00  0.00000000000E+00 -0.17367325056E+04  0.17367325056E+04  0.25500000920E-02 0.  1.
    10030    2    1    2    0    0  0.00000000000E+00  0.00000000000E+00 -0.11433396971E+04  0.23301253140E+04  0.20303345330E+04 0.  0.
        5    1    3    3  502    0  0.88022236359E+03 -0.13104412386E+03 -0.11322366116E+04  0.14401200666E+04  0.46999998093E+01 0.  1.
       -5    1    3    3    0  502 -0.88022236359E+03  0.13104412386E+03 -0.11103085554E+02  0.89000524733E+03  0.46999998093E+01 0. -1.
</event>
<event>
 5   0  0.1812865E-04  0.1998996E+04  0.7818609E-02  0.8607090E-01
       -2   -1    0    0    0  501  0.00000000000E+00  0.00000000000E+00  0.46785652510E+03  0.46785652511E+03  0.25500000920E-02 0. -1.
        2   -1    0    0  501    0  0.00000000000E+00  0.00000000000E+00 -0.21352617894E+04  0.21352617894E+04  0.25500000920E-02 0.  1.
    10030    2    1    2    0    0  0.00000000000E+00  0.00000000000E+00 -0.16674052643E+04  0.26031183146E+04  0.19989959089E+04 0.  0.
        3    1    3    3  502    0 -0.53270971763E+03 -0.24876012408E+03 -0.18862700787E+04  0.19757722699E+04  0.10100000352E+00 0.  1.
       -3    1    3    3    0  502  0.53270971763E+03  0.24876012408E+03  0.21886481433E+03  0.62734604466E+03  0.10100000352E+00 0. -1.
</event>
<event>
 5   0  0.1807498E-04  0.1586581E+04  0.7818609E-02  0.8828834E-01
        2   -1    0    0  501    0  0.00000000000E+00  0.00000000000E+00  0.18508074881E+04  0.18508074881E+04  0.25500000920E-02 0.  1.
       -2   -1    0    0    0  501  0.00000000000E+00  0.00000000000E+00 -0.34001904079E+03  0.34001904080E+03  0.25500000920E-02 0. -1.
    10030    2    1    2    0    0  0.00000000000E+00  0.00000000000E+00  0.15107884473E+04  0.21908265289E+04  0.15865809614E+04 0.  0.
        5    1    3    3  502    0 -0.21772414949E+03 -0.73759010859E+03  0.48676799226E+03  0.91016929296E+03  0.46999998093E+01 0. -1.
       -5    1    3    3    0  502  0.21772414949E+03  0.73759010859E+03  0.10240204550E+04  0.12806572359E+04  0.46999998093E+01 0.  1.
</event>
<event>
 5   0  0.1782172E-04  0.1941560E+04  0.7818609E-02  0.8634441E-01
       -2   -1    0    0    0  501  0.00000000000E+00  0.00000000000E+00  0.35052321892E+03  0.35052321893E+03  0.25500000920E-02 0. -1.
        2   -1    0    0  501    0  0.00000000000E+00  0.00000000000E+00 -0.26885920986E+04  0.26885920986E+04  0.25500000920E-02 0.  1.
    10030    2    1    2    0    0  0.00000000000E+00  0.00000000000E+00 -0.23380688797E+04  0.30391153176E+04  0.19415601528E+04 0.  0.
        2    1    3    3  502    0 -0.70472578213E+03 -0.55766065204E+03 -0.17437134946E+04  0.19616729040E+04  0.25500000920E-02 0.  1.
       -2    1    3    3    0  502  0.70472578213E+03  0.55766065204E+03 -0.59435538511E+03  0.10774424136E+04  0.25500000920E-02 0. -1.
</event>
<event>
 5   0  0.8861350E-05  0.2028221E+04  0.7818609E-02  0.8593539E-01
       -1   -1    0    0    0  501  0.00000000000E+00  0.00000000000E+00  0.82278799983E+03  0.82278799984E+03  0.50400001928E-02 0.  1.
        1   -1    0    0  501    0  0.00000000000E+00  0.00000000000E+00 -0.12499205435E+04  0.12499205435E+04  0.50400001928E-02 0. -1.
    10030    2    1    2    0    0  0.00000000000E+00  0.00000000000E+00 -0.42713254365E+03  0.20727085433E+04  0.20282205244E+04 0.  0.
        1    1    3    3  502    0 -0.22201477250E+03  0.97969220651E+03 -0.71476043596E+02  0.10070730875E+04  0.50400001928E-02 0.  1.
       -1    1    3    3    0  502  0.22201477250E+03 -0.97969220651E+03 -0.35565650006E+03  0.10656354558E+04  0.50400001928E-02 0. -1.
</event>
<event>
 5   0  0.8958919E-05  0.1999236E+04  0.7818609E-02  0.8606978E-01
        1   -1    0    0  501    0  0.00000000000E+00  0.00000000000E+00  0.94899675922E+03  0.94899675924E+03  0.50400001928E-02 0. -1.
       -1   -1    0    0    0  501  0.00000000000E+00  0.00000000000E+00 -0.10529395396E+04  0.10529395396E+04  0.50400001928E-02 0.  1.
    10030    2    1    2    0    0  0.00000000000E+00  0.00000000000E+00 -0.10394278041E+03  0.20019362989E+04  0.19992360649E+04 0.  0.
        4    1    3    3  502    0 -0.29734413250E+03 -0.68337720216E+02 -0.10051767346E+04  0.10504596412E+04  0.12699999809E+01 0.  1.
       -4    1    3    3    0  502  0.29734413250E+03  0.68337720216E+02  0.90123395415E+03  0.95147665770E+03  0.12699999809E+01 0. -1.
</event>
<event>
 5   0  0.1893687E-04  0.1997137E+04  0.7818609E-02  0.8607960E-01
        2   -1    0    0  501    0  0.00000000000E+00  0.00000000000E+00  0.14896293118E+04  0.14896293118E+04  0.25500000920E-02 0.  1.
       -2   -1    0    0    0  501  0.00000000000E+00  0.00000000000E+00 -0.66938761359E+03  0.66938761360E+03  0.25500000920E-02 0. -1.
    10030    2    1    2    0    0  0.00000000000E+00  0.00000000000E+00  0.82024169821E+03  0.21590169254E+04  0.19971373615E+04 0.  0.
        4    1    3    3  502    0  0.22410102004E+01 -0.75658488410E+03 -0.29440254995E+03  0.81184985268E+03  0.12699999809E+01 0. -1.
       -4    1    3    3    0  502 -0.22410102004E+01  0.75658488410E+03  0.11146442482E+04  0.13471670727E+04  0.12699999809E+01 0.  1.
</event>
<event>
 5   0  0.1893687E-04  0.2002056E+04  0.7818609E-02  0.8605660E-01
        2   -1    0    0  501    0  0.00000000000E+00  0.00000000000E+00  0.14210462131E+04  0.14210462131E+04  0.25500000920E-02 0. -1.
       -2   -1    0    0    0  501  0.00000000000E+00  0.00000000000E+00 -0.70515462384E+03  0.70515462385E+03  0.25500000920E-02 0.  1.
    10030    2    1    2    0    0  0.00000000000E+00  0.00000000000E+00  0.71589158922E+03  0.21262008369E+04  0.20020562508E+04 0.  0.
        4    1    3    3  502    0  0.64653014198E+03  0.60402214345E+03 -0.13928714921E+03  0.89568214066E+03  0.12699999809E+01 0.  1.
       -4    1    3    3    0  502 -0.64653014198E+03 -0.60402214345E+03  0.85517873843E+03  0.12305186963E+04  0.12699999809E+01 0. -1.
</event>
<event>
 5   0  0.8577422E-05  0.2005580E+04  0.7818609E-02  0.8604016E-01
        1   -1    0    0  501    0  0.00000000000E+00  0.00000000000E+00  0.19341945634E+04  0.19341945634E+04  0.50400001928E-02 0. -1.
       -1   -1    0    0    0  501  0.00000000000E+00  0.00000000000E+00 -0.51990020639E+03  0.51990020641E+03  0.50400001928E-02 0.  1.
    10030    2    1    2    0    0  0.00000000000E+00  0.00000000000E+00  0.14142943571E+04  0.24540947699E+04  0.20055803676E+04 0.  0.
        2    1    3    3  502    0 -0.24643562904E+03  0.56163793711E+02  0.18945779454E+04  0.19113635139E+04  0.25500000920E-02 0. -1.
       -2    1    3    3    0  502  0.24643562904E+03 -0.56163793711E+02 -0.48028358834E+03  0.54273125599E+03  0.25500000920E-02 0.  1.
</event>
<event>
 5   0  0.8577422E-05  0.1994439E+04  0.7818609E-02  0.8609225E-01
        1   -1    0    0  501    0  0.00000000000E+00  0.00000000000E+00  0.15473783606E+04  0.15473783606E+04  0.50400001928E-02 0. -1.
       -1   -1    0    0    0  501  0.00000000000E+00  0.00000000000E+00 -0.64266574347E+03  0.64266574349E+03  0.50400001928E-02 0.  1.
    10030    2    1    2    0    0  0.00000000000E+00  0.00000000000E+00  0.90471261712E+03  0.21900441041E+04  0.19944393343E+04 0.  0.
        2    1    3    3  502    0  0.46229575948E+03  0.78712999612E+03  0.89317028609E+03  0.12771233926E+04  0.25500000920E-02 0. -1.
       -2    1    3    3    0  502 -0.46229575948E+03 -0.78712999612E+03  0.11542331027E+02  0.91292071147E+03  0.25500000920E-02 0.  1.
</event>
<event>
 5   0  0.1782172E-04  0.1892026E+04  0.7818609E-02  0.8658836E-01
       -2   -1    0    0    0  501  0.00000000000E+00  0.00000000000E+00  0.54032984453E+03  0.54032984454E+03  0.25500000920E-02 0.  1.
        2   -1    0    0  501    0  0.00000000000E+00  0.00000000000E+00 -0.16562852404E+04  0.16562852404E+04  0.25500000920E-02 0. -1.
    10030    2    1    2    0    0  0.00000000000E+00  0.00000000000E+00 -0.11159553959E+04  0.21966150849E+04  0.18920257360E+04 0.  0.
        2    1    3    3  502    0 -0.67346690555E+03  0.36775753261E+03 -0.12003471553E+04  0.14246531398E+04  0.25500000920E-02 0. -1.
       -2    1    3    3    0  502  0.67346690555E+03 -0.36775753261E+03  0.84391759381E+02  0.77196194512E+03  0.25500000920E-02 0.  1.
</event>
<event>
 5   0  0.1812865E-04  0.1985926E+04  0.7818609E-02  0.8613229E-01
       -2   -1    0    0    0  501  0.00000000000E+00  0.00000000000E+00  0.85193945862E+03  0.85193945862E+03  0.25500000920E-02 0.  1.
        2   -1    0    0  501    0  0.00000000000E+00  0.00000000000E+00 -0.11573307542E+04  0.11573307542E+04  0.25500000920E-02 0. -1.
    10030    2    1    2    0    0  0.00000000000E+00  0.00000000000E+00 -0.30539129557E+03  0.20092702128E+04  0.19859262183E+04 0.  0.
        3    1    3    3  502    0 -0.69347106638E+03  0.58049286381E+03 -0.56751710539E+03  0.10676842979E+04  0.10100000352E+00 0. -1.
       -3    1    3    3    0  502  0.69347106638E+03 -0.58049286381E+03  0.26212580981E+03  0.94158591494E+03  0.10100000352E+00 0.  1.
</event>
<event>
 5   0  0.1782172E-04  0.2016101E+04  0.7818609E-02  0.8599130E-01
       -2   -1    0    0    0  501  0.00000000000E+00  0.00000000000E+00  0.93533341922E+03  0.93533341923E+03  0.25500000920E-02 0. -1.
        2   -1    0    0  501    0  0.00000000000E+00  0.00000000000E+00 -0.10864213397E+04  0.10864213397E+04  0.25500000920E-02 0.  1.
    10030    2    1    2    0    0  0.00000000000E+00  0.00000000000E+00 -0.15108792050E+03  0.20217547590E+04  0.20161013729E+04 0.  0.
        2    1    3    3  502    0  0.82032499431E+01 -0.33975288552E+02 -0.10858135293E+04  0.10863759174E+04  0.25500000920E-02 0.  1.
       -2    1    3    3    0  502 -0.82032499431E+01  0.33975288552E+02  0.93472560877E+03  0.93537884156E+03  0.25500000920E-02 0. -1.
</event>
<event>
 5   0  0.1834645E-04  0.1902359E+04  0.7818609E-02  0.8653683E-01
       -2   -1    0    0    0  501  0.00000000000E+00  0.00000000000E+00  0.75437832798E+03  0.75437832798E+03  0.25500000920E-02 0.  1.
        2   -1    0    0  501    0  0.00000000000E+00  0.00000000000E+00 -0.11993218328E+04  0.11993218328E+04  0.25500000920E-02 0. -1.
    10030    2    1    2    0    0  0.00000000000E+00  0.00000000000E+00 -0.44494350485E+03  0.19537001608E+04  0.19023589556E+04 0.  0.
        1    1    3    3  502    0  0.80802818385E+03  0.20640612486E+03  0.24728903640E+03  0.86986487561E+03  0.50400001928E-02 0.  1.
       -1    1    3    3    0  502 -0.80802818385E+03 -0.20640612486E+03 -0.69223254125E+03  0.10838352852E+04  0.50400001928E-02 0. -1.
</event>
<event>
 5   0  0.8881384E-05  0.1983210E+04  0.7818609E-02  0.8614511E-01
        1   -1    0    0  501    0  0.00000000000E+00  0.00000000000E+00  0.72044266962E+03  0.72044266964E+03  0.50400001928E-02 0.  1.
       -1   -1    0    0    0  501  0.00000000000E+00  0.00000000000E+00 -0.13648283725E+04  0.13648283725E+04  0.50400001928E-02 0. -1.
    10030    2    1    2    0    0  0.00000000000E+00  0.00000000000E+00 -0.64438570288E+03  0.20852710421E+04  0.19832101213E+04 0.  0.
        5    1    3    3  502    0  0.20493293159E+03  0.96218552665E+03 -0.45292990630E+03  0.10830355877E+04  0.46999998093E+01 0.  1.
       -5    1    3    3    0  502 -0.20493293159E+03 -0.96218552665E+03 -0.19145579658E+03  0.10022354545E+04  0.46999998093E+01 0. -1.
</event>
<event>
 5   0  0.1807498E-04  0.1999990E+04  0.7818609E-02  0.8606626E-01
        2   -1    0    0  501    0  0.00000000000E+00  0.00000000000E+00  0.17984458070E+04  0.17984458070E+04  0.25500000920E-02 0.  1.
       -2   -1    0    0    0  501  0.00000000000E+00  0.00000000000E+00 -0.55602986987E+03  0.55602986987E+03  0.25500000920E-02 0. -1.
    10030    2    1    2    0    0  0.00000000000E+00  0.00000000000E+00  0.12424159372E+04  0.23544756769E+04  0.19999895880E+04 0.  0.
        5    1    3    3  502    0  0.35249537654E+03  0.91930917136E+03  0.41532433866E+03  0.10685966214E+04  0.46999998093E+01 0. -1.
       -5    1    3    3    0  502 -0.35249537654E+03 -0.91930917136E+03  0.82709159851E+03  0.12858790555E+04  0.46999998093E+01 0.  1.
</event>
<event>
 5   0  0.1893687E-04  0.1980191E+04  0.7818609E-02  0.8615939E-01
        2   -1    0    0  501    0  0.00000000000E+00  0.00000000000E+00  0.13194908517E+04  0.13194908517E+04  0.25500000920E-02 0.  1.
       -2   -1    0    0    0  501  0.00000000000E+00  0.00000000000E+00 -0.74292951519E+03  0.74292951520E+03  0.25500000920E-02 0. -1.
    10030    2    1    2    0    0  0.00000000000E+00  0.00000000000E+00  0.57656133653E+03  0.20624203669E+04  0.19801905957E+04 0.  0.
        4    1    3    3  502    0 -0.55397131282E+03  0.12670815189E+03 -0.55615747072E+03  0.79514270186E+03  0.12699999809E+01 0. -1.
       -4    1    3    3    0  502  0.55397131282E+03 -0.12670815189E+03  0.11327188073E+04  0.12672776651E+04  0.12699999809E+01 0.  1.
</event>
<event>
 5   0  0.1782172E-04  0.1940619E+04  0.7818609E-02  0.8634898E-01
        2   -1    0    0  501    0  0.00000000000E+00  0.00000000000E+00  0.13220335824E+04  0.13220335824E+04  0.25500000920E-02 0.  1.
       -2   -1    0    0    0  501  0.00000000000E+00  0.00000000000E+00 -0.71216101929E+03  0.71216101929E+03  0.25500000920E-02 0. -1.
    10030    2    1    2    0    0  0.00000000000E+00  0.00000000000E+00  0.60987256313E+03  0.20341946017E+04  0.19406192657E+04 0.  0.
        2    1    3    3  502    0 -0.47762456158E+03 -0.69082890128E+03 -0.20442819503E+03  0.86438456696E+03  0.25500000920E-02 0. -1.
       -2    1    3    3    0  502  0.47762456158E+03  0.69082890128E+03  0.81430075816E+03  0.11698100348E+04  0.25500000920E-02 0.  1.
</event>
<event>
 5   0  0.8881384E-05  0.1968051E+04  0.7818609E-02  0.8621705E-01
       -1   -1    0    0    0  501  0.00000000000E+00  0.00000000000E+00  0.77993613931E+03  0.77993613932E+03  0.50400001928E-02 0.  1.
        1   -1    0    0  501    0  0.00000000000E+00  0.00000000000E+00 -0.12415201643E+04  0.12415201643E+04  0.50400001928E-02 0. -1.
    10030    2    1    2    0    0  0.00000000000E+00  0.00000000000E+00 -0.46158402499E+03  0.20214563036E+04  0.19680512634E+04 0.  0.
        5    1    3    3  502    0  0.93711257295E+03  0.26699486508E+03 -0.37169366453E+03  0.10429019621E+04  0.46999998093E+01 0. -1.
       -5    1    3    3    0  502 -0.93711257295E+03 -0.26699486508E+03 -0.89890360463E+02  0.97855434150E+03  0.46999998093E+01 0.  1.
</event>
<event>
 5   0  0.8881384E-05  0.2001834E+04  0.7818609E-02  0.8605764E-01
        1   -1    0    0  501    0  0.00000000000E+00  0.00000000000E+00  0.20246128506E+04  0.20246128506E+04  0.50400001928E-02 0. -1.
       -1   -1    0    0    0  501  0.00000000000E+00  0.00000000000E+00 -0.49482787282E+03  0.49482787284E+03  0.50400001928E-02 0.  1.
    10030    2    1    2    0    0  0.00000000000E+00  0.00000000000E+00  0.15297849778E+04  0.25194407234E+04  0.20018340293E+04 0.  0.
        5    1    3    3  502    0  0.28310022034E+03  0.27937166998E+03 -0.39108433963E+03  0.55782014614E+03  0.46999998093E+01 0.  1.
       -5    1    3    3    0  502 -0.28310022034E+03 -0.27937166998E+03  0.19208693174E+04  0.19616205773E+04  0.46999998093E+01 0. -1.
</event>
<event>
 5   0  0.1834645E-04  0.1923008E+04  0.7818609E-02  0.8643488E-01
        2   -1    0    0  501    0  0.00000000000E+00  0.00000000000E+00  0.15592542056E+04  0.15592542056E+04  0.25500000920E-02 0. -1.
       -2   -1    0    0    0  501  0.00000000000E+00  0.00000000000E+00 -0.59290524038E+03  0.59290524039E+03  0.25500000920E-02 0.  1.
    10030    2    1    2    0    0  0.00000000000E+00  0.00000000000E+00  0.96634896518E+03  0.21521594460E+04  0.19230080495E+04 0.  0.
        1    1    3    3  502    0  0.75625875917E+03 -0.59013583117E+03  0.55658321057E+03  0.11090412438E+04  0.50400001928E-02 0. -1.
       -1    1    3    3    0  502 -0.75625875917E+03  0.59013583117E+03  0.40976575461E+03  0.10431182022E+04  0.50400001928E-02 0.  1.
</event>
<event>
 5   0  0.1807498E-04  0.1977360E+04  0.7818609E-02  0.8617279E-01
       -2   -1    0    0    0  501  0.00000000000E+00  0.00000000000E+00  0.82668191742E+03  0.82668191742E+03  0.25500000920E-02 0.  1.
        2   -1    0    0  501    0  0.00000000000E+00  0.00000000000E+00 -0.11824237538E+04  0.11824237538E+04  0.25500000920E-02 0. -1.
    10030    2    1    2    0    0  0.00000000000E+00  0.00000000000E+00 -0.35574183634E+03  0.20091056712E+04  0.19773601958E+04 0.  0.
        5    1    3    3  502    0 -0.61283164991E+03 -0.77268867543E+03 -0.10706842735E+03  0.99201620874E+03  0.46999998093E+01 0.  1.
       -5    1    3    3    0  502  0.61283164991E+03  0.77268867543E+03 -0.24867340899E+03  0.10170894624E+04  0.46999998093E+01 0. -1.
</event>
<event>
 5   0  0.1807498E-04  0.1746517E+04  0.7818609E-02  0.8735270E-01
       -2   -1    0    0    0  501  0.00000000000E+00  0.00000000000E+00  0.29582643549E+03  0.29582643550E+03  0.25500000920E-02 0.  1.
        2   -1    0    0  501    0  0.00000000000E+00  0.00000000000E+00 -0.25777976319E+04  0.25777976319E+04  0.25500000920E-02 0. -1.
    10030    2    1    2    0    0  0.00000000000E+00  0.00000000000E+00 -0.22819711964E+04  0.28736240674E+04  0.17465173173E+04 0.  0.
        5    1    3    3  502    0  0.28603336963E+03  0.27844367756E+03 -0.24188720547E+04  0.24515933752E+04  0.46999998093E+01 0. -1.
       -5    1    3    3    0  502 -0.28603336963E+03 -0.27844367756E+03  0.13690085837E+03  0.42203069217E+03  0.46999998093E+01 0.  1.
</event>
<event>
 5   0  0.8958919E-05  0.2028299E+04  0.7818609E-02  0.8593503E-01
       -1   -1    0    0    0  501  0.00000000000E+00  0.00000000000E+00  0.66930788185E+03  0.66930788186E+03  0.50400001928E-02 0.  1.
        1   -1    0    0  501    0  0.00000000000E+00  0.00000000000E+00 -0.15366603670E+04  0.15366603670E+04  0.50400001928E-02 0. -1.
    10030    2    1    2    0    0  0.00000000000E+00  0.00000000000E+00 -0.86735248514E+03  0.22059682489E+04  0.20282986914E+04 0.  0.
        4    1    3    3  502    0 -0.42687177471E+00 -0.26046827402E+03 -0.14996602863E+04  0.15221125094E+04  0.12699999809E+01 0. -1.
       -4    1    3    3    0  502  0.42687177471E+00  0.26046827402E+03  0.63230780121E+03  0.68385573944E+03  0.12699999809E+01 0.  1.
</event>
<event>
 5   0  0.8958919E-05  0.2014314E+04  0.7818609E-02  0.8599957E-01
       -1   -1    0    0    0  501  0.00000000000E+00  0.00000000000E+00  0.96435700866E+03  0.96435700868E+03  0.50400001928E-02 0.  1.
        1   -1    0    0  501    0  0.00000000000E+00  0.00000000000E+00 -0.10518569082E+04  0.10518569082E+04  0.50400001928E-02 0. -1.
    10030    2    1    2    0    0  0.00000000000E+00  0.00000000000E+00 -0.87499899548E+02  0.20162139169E+04  0.20143143564E+04 0.  0.
        4    1    3    3  502    0 -0.58108862824E+03 -0.42692660716E+03 -0.74757281026E+03  0.10386515495E+04  0.12699999809E+01 0. -1.
       -4    1    3    3    0  502  0.58108862824E+03  0.42692660716E+03  0.66007291071E+03  0.97756236739E+03  0.12699999809E+01 0.  1.
</event>
<event>
 5   0  0.8577422E-05  0.1999383E+04  0.7818609E-02  0.8606909E-01
       -1   -1    0    0    0  501  0.00000000000E+00  0.00000000000E+00  0.15110591134E+04  0.15110591134E+04  0.50400001928E-02 0. -1.
        1   -1    0    0  501    0  0.00000000000E+00  0.00000000000E+00 -0.66137899264E+03  0.66137899266E+03  0.50400001928E-02 0.  1.
    10030    2    1    2    0    0  0.00000000000E+00  0.00000000000E+00  0.84968012076E+03  0.21724381061E+04  0.19993826590E+04 0.  0.
        2    1    3    3  502    0 -0.73872387457E+03  0.39435203674E+03 -0.16845872443E+03  0.85416908957E+03  0.25500000920E-02 0. -1.
       -2    1    3    3    0  502  0.73872387457E+03 -0.39435203674E+03  0.10181388452E+04  0.13182690165E+04  0.25500000920E-02 0.  1.
</event>
<event>
 5   0  0.1834645E-04  0.1963645E+04  0.7818609E-02  0.8623809E-01
        2   -1    0    0  501    0  0.00000000000E+00  0.00000000000E+00  0.12523826639E+04  0.12523826639E+04  0.25500000920E-02 0.  1.
       -2   -1    0    0    0  501  0.00000000000E+00  0.00000000000E+00 -0.76971305370E+03  0.76971305371E+03  0.25500000920E-02 0. -1.
    10030    2    1    2    0    0  0.00000000000E+00  0.00000000000E+00  0.48266961019E+03  0.20220957176E+04  0.19636448606E+04 0.  0.
        1    1    3    3  502    0  0.22708809900E+03  0.41917876777E+03  0.11251933302E+04  0.12220228616E+04  0.50400001928E-02 0.  1.
       -1    1    3    3    0  502 -0.22708809900E+03 -0.41917876777E+03 -0.64252372000E+03  0.80007285596E+03  0.50400001928E-02 0. -1.
</event>
<event>
 5   0  0.1807498E-04  0.2012646E+04  0.7818609E-02  0.8600731E-01
        2   -1    0    0  501    0  0.00000000000E+00  0.00000000000E+00  0.20647933552E+04  0.20647933552E+04  0.25500000920E-02 0. -1.
       -2   -1    0    0    0  501  0.00000000000E+00  0.00000000000E+00 -0.49045392313E+03  0.49045392313E+03  0.25500000920E-02 0.  1.
    10030    2    1    2    0    0  0.00000000000E+00  0.00000000000E+00  0.15743394320E+04  0.25552472783E+04  0.20126460210E+04 0.  0.
        5    1    3    3  502    0  0.43981905517E+03  0.14569743803E+03 -0.34696780939E+03  0.57885861442E+03  0.46999998093E+01 0.  1.
       -5    1    3    3    0  502 -0.43981905517E+03 -0.14569743803E+03  0.19213072414E+04  0.19763886639E+04  0.46999998093E+01 0. -1.
</event>
<event>
 5   0  0.1812865E-04  0.1915646E+04  0.7818609E-02  0.8647107E-01
        2   -1    0    0  501    0  0.00000000000E+00  0.00000000000E+00  0.11278266223E+04  0.11278266223E+04  0.25500000920E-02 0.  1.
       -2   -1    0    0    0  501  0.00000000000E+00  0.00000000000E+00 -0.81344509947E+03  0.81344509947E+03  0.25500000920E-02 0. -1.
    10030    2    1    2    0    0  0.00000000000E+00  0.00000000000E+00  0.31438152280E+03  0.19412717217E+04  0.19156461458E+04 0.  0.
        3    1    3    3  502    0 -0.15855981308E+03  0.57755265223E+03  0.91466328367E+03  0.10933056357E+04  0.10100000352E+00 0.  1.
       -3    1    3    3    0  502  0.15855981308E+03 -0.57755265223E+03 -0.60028176086E+03  0.84796608602E+03  0.10100000352E+00 0. -1.
</event>
<event>
 5   0  0.8958919E-05  0.1684454E+04  0.7818609E-02  0.8770281E-01
        1   -1    0    0  501    0  0.00000000000E+00  0.00000000000E+00  0.93044708896E+03  0.93044708897E+03  0.50400001928E-02 0.  1.
       -1   -1    0    0    0  501  0.00000000000E+00  0.00000000000E+00 -0.76237178220E+03  0.76237178222E+03  0.50400001928E-02 0. -1.
    10030    2    1    2    0    0  0.00000000000E+00  0.00000000000E+00  0.16807530676E+03  0.16928188712E+04  0.16844543395E+04 0.  0.
        4    1    3    3  502    0 -0.36841956715E+03 -0.17070100146E+03  0.82558604276E+03  0.92003572553E+03  0.12699999809E+01 0.  1.
       -4    1    3    3    0  502  0.36841956715E+03  0.17070100146E+03 -0.65751073600E+03  0.77278314566E+03  0.12699999809E+01 0. -1.
</event>
<event>
 5   0  0.1834645E-04  0.2003300E+04  0.7818609E-02  0.8605080E-01
        2   -1    0    0  501    0  0.00000000000E+00  0.00000000000E+00  0.10772189587E+04  0.10772189587E+04  0.25500000920E-02 0. -1.
       -2   -1    0    0    0  501  0.00000000000E+00  0.00000000000E+00 -0.93138195238E+03  0.93138195238E+03  0.25500000920E-02 0.  1.
    10030    2    1    2    0    0  0.00000000000E+00  0.00000000000E+00  0.14583700636E+03  0.20086009111E+04  0.20032995751E+04 0.  0.
        1    1    3    3  502    0 -0.93171180878E+03  0.20008933976E+03 -0.23640991972E+03  0.98184127468E+03  0.50400001928E-02 0.  1.
       -1    1    3    3    0  502  0.93171180878E+03 -0.20008933976E+03  0.38224692608E+03  0.10267596364E+04  0.50400001928E-02 0. -1.
</event>
<event>
 5   0  0.8958919E-05  0.2007692E+04  0.7818609E-02  0.8603033E-01
       -1   -1    0    0    0  501  0.00000000000E+00  0.00000000000E+00  0.62082581435E+03  0.62082581437E+03  0.50400001928E-02 0. -1.
        1   -1    0    0  501    0  0.00000000000E+00  0.00000000000E+00 -0.16231717693E+04  0.16231717693E+04  0.50400001928E-02 0.  1.
    10030    2    1    2    0    0  0.00000000000E+00  0.00000000000E+00 -0.10023459550E+04  0.22439975837E+04  0.20076921433E+04 0.  0.
        4    1    3    3  502    0  0.41362112685E+03 -0.27063600414E+03 -0.14777249937E+04  0.15582037906E+04  0.12699999809E+01 0.  1.
       -4    1    3    3    0  502 -0.41362112685E+03  0.27063600414E+03  0.47537903869E+03  0.68579379308E+03  0.12699999809E+01 0. -1.
</event>
<event>
 5   0  0.1812865E-04  0.1999250E+04  0.7818609E-02  0.8606971E-01
        2   -1    0    0  501    0  0.00000000000E+00  0.00000000000E+00  0.15248445601E+04  0.15248445601E+04  0.25500000920E-02 0.  1.
       -2   -1    0    0    0  501  0.00000000000E+00  0.00000000000E+00 -0.65531277744E+03  0.65531277745E+03  0.25500000920E-02 0. -1.
    10030    2    1    2    0    0  0.00000000000E+00  0.00000000000E+00  0.86953178265E+03  0.21801573375E+04  0.19992499832E+04 0.  0.
        3    1    3    3  502    0  0.53508851836E+03  0.34998509985E+03 -0.40316639320E+03  0.75587859039E+03  0.10100000352E+00 0. -1.
       -3    1    3    3    0  502 -0.53508851836E+03 -0.34998509985E+03  0.12726981758E+04  0.14242787472E+04  0.10100000352E+00 0.  1.
</event>
<event>
 5   0  0.1893687E-04  0.2044570E+04  0.7818609E-02  0.8586062E-01
        2   -1    0    0  501    0  0.00000000000E+00  0.00000000000E+00  0.10401323723E+04  0.10401323723E+04  0.25500000920E-02 0. -1.
       -2   -1    0    0    0  501  0.00000000000E+00  0.00000000000E+00 -0.10047434051E+04  0.10047434052E+04  0.25500000920E-02 0.  1.
    10030    2    1    2    0    0  0.00000000000E+00  0.00000000000E+00  0.35388967156E+02  0.20448757775E+04  0.20445695308E+04 0.  0.
        4    1    3    3  502    0 -0.11024378038E+03  0.10109889962E+04  0.12169124470E+03  0.10242376743E+04  0.12699999809E+01 0. -1.
       -4    1    3    3    0  502  0.11024378038E+03 -0.10109889962E+04 -0.86302277545E+02  0.10206381031E+04  0.12699999809E+01 0.  1.
</event>
<event>
 5   0  0.8861350E-05  0.2010907E+04  0.7818609E-02  0.8601538E-01
       -1   -1    0    0    0  501  0.00000000000E+00  0.00000000000E+00  0.12177889839E+04  0.12177889839E+04  0.50400001928E-02 0.  1.
        1   -1    0    0  501    0  0.00000000000E+00  0.00000000000E+00 -0.83014134134E+03  0.83014134136E+03  0.50400001928E-02 0. -1.
    10030    2    1    2    0    0  0.00000000000E+00  0.00000000000E+00  0.38764764259E+03  0.20479303253E+04  0.20109072387E+04 0.  0.
        1    1    3    3  502    0  0.63502612833E+03  0.77451700281E+03  0.28378019453E+03  0.10409927810E+04  0.50400001928E-02 0. -1.
       -1    1    3    3    0  502 -0.63502612833E+03 -0.77451700281E+03  0.10386744806E+03  0.10069375443E+04  0.50400001928E-02 0.  1.
</event>
<event>
 5   0  0.1834645E-04  0.1986701E+04  0.7818609E-02  0.8612864E-01
       -2   -1    0    0    0  501  0.00000000000E+00  0.00000000000E+00  0.88336989316E+03  0.88336989317E+03  0.25500000920E-02 0.  1.
        2   -1    0    0  501    0  0.00000000000E+00  0.00000000000E+00 -0.11170233942E+04  0.11170233942E+04  0.25500000920E-02 0. -1.
    10030    2    1    2    0    0  0.00000000000E+00  0.00000000000E+00 -0.23365350100E+03  0.20003932873E+04  0.19867006180E+04 0.  0.
        1    1    3    3  502    0  0.15410643709E+03 -0.97717916322E+03 -0.26111827118E+02  0.98960079755E+03  0.50400001928E-02 0.  1.
       -1    1    3    3    0  502 -0.15410643709E+03  0.97717916322E+03 -0.20754167388E+03  0.10107924898E+04  0.50400001928E-02 0. -1.
</event>
<event>
 5   0  0.8881384E-05  0.1996663E+04  0.7818609E-02  0.8608182E-01
       -1   -1    0    0    0  501  0.00000000000E+00  0.00000000000E+00  0.12795563551E+04  0.12795563551E+04  0.50400001928E-02 0.  1.
        1   -1    0    0  501    0  0.00000000000E+00  0.00000000000E+00 -0.77891508402E+03  0.77891508403E+03  0.50400001928E-02 0. -1.
    10030    2    1    2    0    0  0.00000000000E+00  0.00000000000E+00  0.50064127110E+03  0.20584714392E+04  0.19966629619E+04 0.  0.
        5    1    3    3  502    0  0.59345348686E+03  0.74617971457E+02  0.10743690196E+04  0.12296527002E+04  0.46999998093E+01 0.  1.
       -5    1    3    3    0  502 -0.59345348686E+03 -0.74617971457E+02 -0.57372774850E+03  0.82881873901E+03  0.46999998093E+01 0. -1.
</event>
<event>
 5   0  0.8881384E-05  0.2359678E+04  0.7818609E-02  0.8454756E-01
       -1   -1    0    0    0  501  0.00000000000E+00  0.00000000000E+00  0.78468843179E+03  0.78468843181E+03  0.50400001928E-02 0.  1.
        1   -1    0    0  501    0  0.00000000000E+00  0.00000000000E+00 -0.17739773961E+04  0.17739773961E+04  0.50400001928E-02 0. -1.
    10030    2    1    2    0    0  0.00000000000E+00  0.00000000000E+00 -0.98928896434E+03  0.25586658279E+04  0.23596775551E+04 0.  0.
        5    1    3    3  502    0  0.10657713104E+04  0.50588886940E+03 -0.47910348156E+03  0.12733241026E+04  0.46999998093E+01 0.  1.
       -5    1    3    3    0  502 -0.10657713104E+04 -0.50588886940E+03 -0.51018548277E+03  0.12853417254E+04  0.46999998093E+01 0. -1.
</event>
<event>
 5   0  0.8958919E-05  0.1634088E+04  0.7818609E-02  0.8799876E-01
       -1   -1    0    0    0  501  0.00000000000E+00  0.00000000000E+00  0.12613278703E+04  0.12613278703E+04  0.50400001928E-02 0. -1.
        1   -1    0    0  501    0  0.00000000000E+00  0.00000000000E+00 -0.52925231346E+03  0.52925231348E+03  0.50400001928E-02 0.  1.
    10030    2    1    2    0    0  0.00000000000E+00  0.00000000000E+00  0.73207555682E+03  0.17905801838E+04  0.16340877497E+04 0.  0.
        4    1    3    3  502    0 -0.47912693188E+02 -0.68731057080E+03 -0.11518710464E+03  0.69854214538E+03  0.12699999809E+01 0. -1.
       -4    1    3    3    0  502  0.47912693188E+02  0.68731057080E+03  0.84726266146E+03  0.10920380384E+04  0.12699999809E+01 0.  1.
</event>
<event>
 5   0  0.8765057E-05  0.2153856E+04  0.7818609E-02  0.8537884E-01
        1   -1    0    0  501    0  0.00000000000E+00  0.00000000000E+00  0.77364805916E+03  0.77364805917E+03  0.50400001928E-02 0. -1.
       -1   -1    0    0    0  501  0.00000000000E+00  0.00000000000E+00 -0.14990971720E+04  0.14990971720E+04  0.50400001928E-02 0.  1.
    10030    2    1    2    0    0  0.00000000000E+00  0.00000000000E+00 -0.72544911286E+03  0.22727452312E+04  0.21538557219E+04 0.  0.
        3    1    3    3  502    0 -0.25834330723E+03  0.65371652797E+03  0.49820813495E+03  0.86156712987E+03  0.10100000352E+00 0. -1.
       -3    1    3    3    0  502  0.25834330723E+03 -0.65371652797E+03 -0.12236572478E+04  0.14111781013E+04  0.10100000352E+00 0.  1.
</event>
<event>
 5   0  0.8765057E-05  0.1942894E+04  0.7818609E-02  0.8633795E-01
        1   -1    0    0  501    0  0.00000000000E+00  0.00000000000E+00  0.13343695105E+04  0.13343695105E+04  0.50400001928E-02 0. -1.
       -1   -1    0    0    0  501  0.00000000000E+00  0.00000000000E+00 -0.70723214617E+03  0.70723214618E+03  0.50400001928E-02 0.  1.
    10030    2    1    2    0    0  0.00000000000E+00  0.00000000000E+00  0.62713736430E+03  0.20416016567E+04  0.19428937312E+04 0.  0.
        3    1    3    3  502    0  0.95378342575E+03  0.16557194509E+03  0.39888541064E+03  0.10470083444E+04  0.10100000352E+00 0. -1.
       -3    1    3    3    0  502 -0.95378342575E+03 -0.16557194509E+03  0.22825195366E+03  0.99459331226E+03  0.10100000352E+00 0.  1.
</event>
<event>
 5   0  0.8958919E-05  0.1813670E+04  0.7818609E-02  0.8699063E-01
       -1   -1    0    0    0  501  0.00000000000E+00  0.00000000000E+00  0.48947804799E+03  0.48947804802E+03  0.50400001928E-02 0. -1.
        1   -1    0    0  501    0  0.00000000000E+00  0.00000000000E+00 -0.16800545240E+04  0.16800545240E+04  0.50400001928E-02 0.  1.
    10030    2    1    2    0    0  0.00000000000E+00  0.00000000000E+00 -0.11905764760E+04  0.21695325721E+04  0.18136701012E+04 0.  0.
        4    1    3    3  502    0 -0.34118025653E+03  0.83969397399E+03 -0.63033250502E+03  0.11039975621E+04  0.12699999809E+01 0.  1.
       -4    1    3    3    0  502  0.34118025653E+03 -0.83969397399E+03 -0.56024397102E+03  0.10655350099E+04  0.12699999809E+01 0. -1.
</event>
<event>
 5   0  0.8765057E-05  0.1953967E+04  0.7818609E-02  0.8628450E-01
       -1   -1    0    0    0  501  0.00000000000E+00  0.00000000000E+00  0.14505331554E+04  0.14505331554E+04  0.50400001928E-02 0.  1.
        1   -1    0    0  501    0  0.00000000000E+00  0.00000000000E+00 -0.65803200092E+03  0.65803200094E+03  0.50400001928E-02 0. -1.
    10030    2    1    2    0    0  0.00000000000E+00  0.00000000000E+00  0.79250115447E+03  0.21085651563E+04  0.19539674866E+04 0.  0.
        3    1    3    3  502    0 -0.51078281168E+03  0.48074591894E+03 -0.33761560911E+03  0.77846003687E+03  0.10100000352E+00 0. -1.
       -3    1    3    3    0  502  0.51078281168E+03 -0.48074591894E+03  0.11301167636E+04  0.13301051195E+04  0.10100000352E+00 0.  1.
</event>
<event>
 5   0  0.8861350E-05  0.1996104E+04  0.7818609E-02  0.8608444E-01
       -1   -1    0    0    0  501  0.00000000000E+00  0.00000000000E+00  0.61465678523E+03  0.61465678526E+03  0.50400001928E-02 0.  1.
        1   -1    0    0  501    0  0.00000000000E+00  0.00000000000E+00 -0.16205926748E+04  0.16205926748E+04  0.50400001928E-02 0. -1.
    10030    2    1    2    0    0  0.00000000000E+00  0.00000000000E+00 -0.10059358896E+04  0.22352494601E+04  0.19961044900E+04 0.  0.
        1    1    3    3  502    0  0.38748861166E+03 -0.27448940410E+03  0.48005093342E+03  0.67523385270E+03  0.50400001928E-02 0.  1.
       -1    1    3    3    0  502 -0.38748861166E+03  0.27448940410E+03 -0.14859868230E+04  0.15600156074E+04  0.50400001928E-02 0. -1.
</event>
<event>
 5   0  0.8881384E-05  0.2019557E+04  0.7818609E-02  0.8597531E-01
       -1   -1    0    0    0  501  0.00000000000E+00  0.00000000000E+00  0.87373477269E+03  0.87373477271E+03  0.50400001928E-02 0. -1.
        1   -1    0    0  501    0  0.00000000000E+00  0.00000000000E+00 -0.11670049630E+04  0.11670049630E+04  0.50400001928E-02 0.  1.
    10030    2    1    2    0    0  0.00000000000E+00  0.00000000000E+00 -0.29327019028E+03  0.20407397357E+04  0.20195571951E+04 0.  0.
        5    1    3    3  502    0  0.41008538208E+03  0.25401198234E+03 -0.10430351880E+04  0.11491895410E+04  0.46999998093E+01 0.  1.
       -5    1    3    3    0  502 -0.41008538208E+03 -0.25401198234E+03  0.74976499773E+03  0.89155019466E+03  0.46999998093E+01 0. -1.
</event>
<event>
 5   0  0.1812865E-04  0.2015978E+04  0.7818609E-02  0.8599187E-01
        2   -1    0    0  501    0  0.00000000000E+00  0.00000000000E+00  0.12269932226E+04  0.12269932226E+04  0.25500000920E-02 0.  1.
       -2   -1    0    0    0  501  0.00000000000E+00  0.00000000000E+00 -0.82807443122E+03  0.82807443122E+03  0.25500000920E-02 0. -1.
    10030    2    1    2    0    0  0.00000000000E+00  0.00000000000E+00  0.39891879135E+03  0.20550676538E+04  0.20159778916E+04 0.  0.
        3    1    3    3  502    0 -0.39159349599E+03  0.63600965464E+03  0.88948021414E+03  0.11614769944E+04  0.10100000352E+00 0.  1.
       -3    1    3    3    0  502  0.39159349599E+03 -0.63600965464E+03 -0.49056142279E+03  0.89359065943E+03  0.10100000352E+00 0. -1.
</event>
<event>
 5   0  0.1782172E-04  0.1777837E+04  0.7818609E-02  0.8718175E-01
       -2   -1    0    0    0  501  0.00000000000E+00  0.00000000000E+00  0.15302631974E+04  0.15302631974E+04  0.25500000920E-02 0. -1.
        2   -1    0    0  501    0  0.00000000000E+00  0.00000000000E+00 -0.51636593880E+03  0.51636593881E+03  0.25500000920E-02 0.  1.
    10030    2    1    2    0    0  0.00000000000E+00  0.00000000000E+00  0.10138972586E+04  0.20466291362E+04  0.17778366545E+04 0.  0.
        2    1    3    3  502    0  0.30998969646E+03 -0.44351143363E+03  0.13188277325E+04  0.14255183589E+04  0.25500000920E-02 0. -1.
       -2    1    3    3    0  502 -0.30998969646E+03  0.44351143363E+03 -0.30493047392E+03  0.62111077724E+03  0.25500000920E-02 0.  1.
</event>
<event>
 5   0  0.8881384E-05  0.1991003E+04  0.7818609E-02  0.8610839E-01
       -1   -1    0    0    0  501  0.00000000000E+00  0.00000000000E+00  0.78511511819E+03  0.78511511820E+03  0.50400001928E-02 0. -1.
        1   -1    0    0  501    0  0.00000000000E+00  0.00000000000E+00 -0.12622645936E+04  0.12622645936E+04  0.50400001928E-02 0.  1.
    10030    2    1    2    0    0  0.00000000000E+00  0.00000000000E+00 -0.47714947544E+03  0.20473797118E+04  0.19910027781E+04 0.  0.
        5    1    3    3  502    0  0.68145241218E+03  0.61572449509E+02 -0.98212060317E+03  0.11969759922E+04  0.46999998093E+01 0. -1.
       -5    1    3    3    0  502 -0.68145241218E+03 -0.61572449509E+02  0.50497112774E+03  0.85040371969E+03  0.46999998093E+01 0.  1.
</event>
<event>
 5   0  0.1812865E-04  0.1986288E+04  0.7818609E-02  0.8613058E-01
       -2   -1    0    0    0  501  0.00000000000E+00  0.00000000000E+00  0.91252060096E+03  0.91252060097E+03  0.25500000920E-02 0.  1.
        2   -1    0    0  501    0  0.00000000000E+00  0.00000000000E+00 -0.10808909041E+04  0.10808909042E+04  0.25500000920E-02 0. -1.
    10030    2    1    2    0    0  0.00000000000E+00  0.00000000000E+00 -0.16837030319E+03  0.19934115051E+04  0.19862882142E+04 0.  0.
        3    1    3    3  502    0  0.17966907603E+03 -0.16266037144E+02  0.89593878731E+03  0.91392115724E+03  0.10100000352E+00 0.  1.
       -3    1    3    3    0  502 -0.17966907603E+03  0.16266037144E+02 -0.10643090905E+04  0.10794903479E+04  0.10100000352E+00 0. -1.
</event>
<event>
 5   0  0.1834645E-04  0.1973318E+04  0.7818609E-02  0.8619198E-01
        2   -1    0    0  501    0  0.00000000000E+00  0.00000000000E+00  0.11491655179E+04  0.11491655179E+04  0.25500000920E-02 0. -1.
       -2   -1    0    0    0  501  0.00000000000E+00  0.00000000000E+00 -0.84713286252E+03  0.84713286252E+03  0.25500000920E-02 0.  1.
    10030    2    1    2    0    0  0.00000000000E+00  0.00000000000E+00  0.30203265541E+03  0.19962983805E+04  0.19733178910E+04 0.  0.
        1    1    3    3  502    0 -0.76025957470E+03  0.62629983520E+03  0.93345693566E+02  0.98942383387E+03  0.50400001928E-02 0.  1.
       -1    1    3    3    0  502  0.76025957470E+03 -0.62629983520E+03  0.20868696185E+03  0.10068745466E+04  0.50400001928E-02 0. -1.
</event>
<event>
 5   0  0.1893687E-04  0.1985754E+04  0.7818609E-02  0.8613310E-01
        2   -1    0    0  501    0  0.00000000000E+00  0.00000000000E+00  0.21752938836E+04  0.21752938836E+04  0.25500000920E-02 0.  1.
       -2   -1    0    0    0  501  0.00000000000E+00  0.00000000000E+00 -0.45318244215E+03  0.45318244216E+03  0.25500000920E-02 0. -1.
    10030    2    1    2    0    0  0.00000000000E+00  0.00000000000E+00  0.17221114415E+04  0.26284763258E+04  0.19857542593E+04 0.  0.
        4    1    3    3  502    0  0.22179953827E+03  0.58784678773E+03  0.18786828054E+04  0.19809617809E+04  0.12699999809E+01 0.  1.
       -4    1    3    3    0  502 -0.22179953827E+03 -0.58784678773E+03 -0.15657136391E+03  0.64751454495E+03  0.12699999809E+01 0. -1.
</event>
<event>
 5   0  0.1782172E-04  0.1963537E+04  0.7818609E-02  0.8623861E-01
       -2   -1    0    0    0  501  0.00000000000E+00  0.00000000000E+00  0.90555205746E+03  0.90555205746E+03  0.25500000920E-02 0. -1.
        2   -1    0    0  501    0  0.00000000000E+00  0.00000000000E+00 -0.10643998885E+04  0.10643998885E+04  0.25500000920E-02 0.  1.
    10030    2    1    2    0    0  0.00000000000E+00  0.00000000000E+00 -0.15884783106E+03  0.19699519460E+04  0.19635371237E+04 0.  0.
        2    1    3    3  502    0 -0.26604103091E+03 -0.24487698029E+03  0.83631591735E+03  0.91113494018E+03  0.25500000920E-02 0. -1.
       -2    1    3    3    0  502  0.26604103091E+03  0.24487698029E+03 -0.99516374841E+03  0.10588170058E+04  0.25500000920E-02 0.  1.
</event>
<event>
 5   0  0.8881384E-05  0.1812700E+04  0.7818609E-02  0.8699575E-01
        1   -1    0    0  501    0  0.00000000000E+00  0.00000000000E+00  0.16056676524E+04  0.16056676524E+04  0.50400001928E-02 0.  1.
       -1   -1    0    0    0  501  0.00000000000E+00  0.00000000000E+00 -0.51160675632E+03  0.51160675634E+03  0.50400001928E-02 0. -1.
    10030    2    1    2    0    0  0.00000000000E+00  0.00000000000E+00  0.10940608960E+04  0.21172744087E+04  0.18127001069E+04 0.  0.
        5    1    3    3  502    0 -0.21406448438E+03 -0.57668016934E+03  0.13245024655E+04  0.14603809408E+04  0.46999998093E+01 0. -1.
       -5    1    3    3    0  502  0.21406448438E+03  0.57668016934E+03 -0.23044156949E+03  0.65689346787E+03  0.46999998093E+01 0.  1.
</event>
<event>
 5   0  0.1782172E-04  0.2013814E+04  0.7818609E-02  0.8600189E-01
       -2   -1    0    0    0  501  0.00000000000E+00  0.00000000000E+00  0.74696771596E+03  0.74696771596E+03  0.25500000920E-02 0.  1.
        2   -1    0    0  501    0  0.00000000000E+00  0.00000000000E+00 -0.13573037270E+04  0.13573037270E+04  0.25500000920E-02 0. -1.
    10030    2    1    2    0    0  0.00000000000E+00  0.00000000000E+00 -0.61033601108E+03  0.21042714430E+04  0.20138143557E+04 0.  0.
        2    1    3    3  502    0 -0.49679655914E+03 -0.69100658354E+02  0.60713622596E+03  0.78752531327E+03  0.25500000920E-02 0.  1.
       -2    1    3    3    0  502  0.49679655914E+03  0.69100658354E+02 -0.12174722370E+04  0.13167461297E+04  0.25500000920E-02 0. -1.
</event>
<event>
 5   0  0.8881384E-05  0.1998220E+04  0.7818609E-02  0.8607453E-01
        1   -1    0    0  501    0  0.00000000000E+00  0.00000000000E+00  0.75059418202E+03  0.75059418204E+03  0.50400001928E-02 0.  1.
       -1   -1    0    0    0  501  0.00000000000E+00  0.00000000000E+00 -0.13299073888E+04  0.13299073888E+04  0.50400001928E-02 0. -1.
    10030    2    1    2    0    0  0.00000000000E+00  0.00000000000E+00 -0.57931320678E+03  0.20805015709E+04  0.19982199566E+04 0.  0.
        5    1    3    3  502    0  0.11966102604E+03 -0.68049367858E+03 -0.10410436156E+04  0.12494736121E+04  0.46999998093E+01 0. -1.
       -5    1    3    3    0  502 -0.11966102604E+03  0.68049367858E+03  0.46173040885E+03  0.83102795873E+03  0.46999998093E+01 0.  1.
</event>
<event>
 5   0  0.8958919E-05  0.1972370E+04  0.7818609E-02  0.8619648E-01
        1   -1    0    0  501    0  0.00000000000E+00  0.00000000000E+00  0.15352799560E+04  0.15352799560E+04  0.50400001928E-02 0. -1.
       -1   -1    0    0    0  501  0.00000000000E+00  0.00000000000E+00 -0.63347486757E+03  0.63347486759E+03  0.50400001928E-02 0.  1.
    10030    2    1    2    0    0  0.00000000000E+00  0.00000000000E+00  0.90180508847E+03  0.21687548236E+04  0.19723704184E+04 0.  0.
        4    1    3    3  502    0  0.57295374390E+03 -0.18217173142E+03  0.13104643246E+04  0.14417977984E+04  0.12699999809E+01 0. -1.
       -4    1    3    3    0  502 -0.57295374390E+03  0.18217173142E+03 -0.40865923616E+03  0.72695702526E+03  0.12699999809E+01 0.  1.
</event>
<event>
 5   0  0.8577422E-05  0.1892180E+04  0.7818609E-02  0.8658759E-01
        1   -1    0    0  501    0  0.00000000000E+00  0.00000000000E+00  0.17000296175E+04  0.17000296175E+04  0.50400001928E-02 0.  1.
       -1   -1    0    0    0  501  0.00000000000E+00  0.00000000000E+00 -0.52651235107E+03  0.52651235109E+03  0.50400001928E-02 0. -1.
    10030    2    1    2    0    0  0.00000000000E+00  0.00000000000E+00  0.11735172664E+04  0.22265419686E+04  0.18921803200E+04 0.  0.
        2    1    3    3  502    0 -0.69313039868E+03 -0.34787380048E+03 -0.50882698850E+02  0.77719687318E+03  0.25500000920E-02 0. -1.
       -2    1    3    3    0  502  0.69313039868E+03  0.34787380048E+03  0.12243999653E+04  0.14493450954E+04  0.25500000920E-02 0.  1.
</event>
<event>
 5   0  0.8958919E-05  0.1971161E+04  0.7818609E-02  0.8620224E-01
        1   -1    0    0  501    0  0.00000000000E+00  0.00000000000E+00  0.15375565757E+04  0.15375565757E+04  0.50400001928E-02 0.  1.
       -1   -1    0    0    0  501  0.00000000000E+00  0.00000000000E+00 -0.63176112112E+03  0.63176112114E+03  0.50400001928E-02 0. -1.
    10030    2    1    2    0    0  0.00000000000E+00  0.00000000000E+00  0.90579545462E+03  0.21693176969E+04  0.19711605375E+04 0.  0.
        4    1    3    3  502    0  0.37790332846E+03 -0.53954304835E+03  0.12597051484E+04  0.14215401157E+04  0.12699999809E+01 0.  1.
       -4    1    3    3    0  502 -0.37790332846E+03  0.53954304835E+03 -0.35390969379E+03  0.74777758120E+03  0.12699999809E+01 0. -1.
</event>
<event>
 5   0  0.1834645E-04  0.1934614E+04  0.7818609E-02  0.8637816E-01
        2   -1    0    0  501    0  0.00000000000E+00  0.00000000000E+00  0.17877569452E+04  0.17877569452E+04  0.25500000920E-02 0.  1.
       -2   -1    0    0    0  501  0.00000000000E+00  0.00000000000E+00 -0.52338369624E+03  0.52338369625E+03  0.25500000920E-02 0. -1.
    10030    2    1    2    0    0  0.00000000000E+00  0.00000000000E+00  0.12643732490E+04  0.23111406415E+04  0.19346140059E+04 0.  0.
        1    1    3    3  502    0 -0.21967272045E+03  0.23379651900E+02 -0.49284442479E+03  0.54009104724E+03  0.50400001928E-02 0. -1.
       -1    1    3    3    0  502  0.21967272045E+03 -0.23379651900E+02  0.17572176738E+04  0.17710495943E+04  0.50400001928E-02 0.  1.
</event>
<event>
 5   0  0.1893687E-04  0.1954104E+04  0.7818609E-02  0.8628384E-01
        2   -1    0    0  501    0  0.00000000000E+00  0.00000000000E+00  0.11592666585E+04  0.11592666585E+04  0.25500000920E-02 0.  1.
       -2   -1    0    0    0  501  0.00000000000E+00  0.00000000000E+00 -0.82347779492E+03  0.82347779493E+03  0.25500000920E-02 0. -1.
    10030    2    1    2    0    0  0.00000000000E+00  0.00000000000E+00  0.33578886360E+03  0.19827444534E+04  0.19541037349E+04 0.  0.
        4    1    3    3  502    0  0.66053404388E+03  0.34078001982E+03  0.81137599671E+03  0.11003494290E+04  0.12699999809E+01 0.  1.
       -4    1    3    3    0  502 -0.66053404388E+03 -0.34078001982E+03 -0.47558713312E+03  0.88239502442E+03  0.12699999809E+01 0. -1.
</event>
<event>
 5   0  0.8765057E-05  0.1967590E+04  0.7818609E-02  0.8621925E-01
        1   -1    0    0  501    0  0.00000000000E+00  0.00000000000E+00  0.21943628172E+04  0.21943628172E+04  0.50400001928E-02 0.  1.
       -1   -1    0    0    0  501  0.00000000000E+00  0.00000000000E+00 -0.44106334875E+03  0.44106334878E+03  0.50400001928E-02 0. -1.
    10030    2    1    2    0    0  0.00000000000E+00  0.00000000000E+00  0.17532994684E+04  0.26354261659E+04  0.19675904173E+04 0.  0.
        3    1    3    3  502    0  0.92289593977E+03  0.22604451540E+03  0.53511135243E+03  0.10904940203E+04  0.10100000352E+00 0. -1.
       -3    1    3    3    0  502 -0.92289593977E+03 -0.22604451540E+03  0.12181881160E+04  0.15449321456E+04  0.10100000352E+00 0.  1.
</event>
<event>
 5   0  0.1812865E-04  0.1984295E+04  0.7818609E-02  0.8613999E-01
        2   -1    0    0  501    0  0.00000000000E+00  0.00000000000E+00  0.11430935653E+04  0.11430935653E+04  0.25500000920E-02 0.  1.
       -2   -1    0    0    0  501  0.00000000000E+00  0.00000000000E+00 -0.86113387841E+03  0.86113387841E+03  0.25500000920E-02 0. -1.
    10030    2    1    2    0    0  0.00000000000E+00  0.00000000000E+00  0.28195968686E+03  0.20042274437E+04  0.19842949330E+04 0.  0.
        3    1    3    3  502    0  0.26538726730E+03  0.45942617814E+03  0.98776506632E+03  0.11212415669E+04  0.10100000352E+00 0.  1.
       -3    1    3    3    0  502 -0.26538726730E+03 -0.45942617814E+03 -0.70580537946E+03  0.88298587682E+03  0.10100000352E+00 0. -1.
</event>
<event>
 5   0  0.8765057E-05  0.1949078E+04  0.7818609E-02  0.8630805E-01
        1   -1    0    0  501    0  0.00000000000E+00  0.00000000000E+00  0.11151266381E+04  0.11151266381E+04  0.50400001928E-02 0.  1.
       -1   -1    0    0    0  501  0.00000000000E+00  0.00000000000E+00 -0.85167598412E+03  0.85167598414E+03  0.50400001928E-02 0. -1.
    10030    2    1    2    0    0  0.00000000000E+00  0.00000000000E+00  0.26345065397E+03  0.19668026222E+04  0.19490783226E+04 0.  0.
        3    1    3    3  502    0 -0.88059676059E+03  0.34546260113E+03  0.36823136301E+03  0.10150809871E+04  0.10100000352E+00 0.  1.
       -3    1    3    3    0  502  0.88059676059E+03 -0.34546260113E+03 -0.10478070904E+03  0.95172163511E+03  0.10100000352E+00 0. -1.
</event>
<event>
 5   0  0.8577422E-05  0.2051970E+04  0.7818609E-02  0.8582701E-01
       -1   -1    0    0    0  501  0.00000000000E+00  0.00000000000E+00  0.60102870943E+03  0.60102870945E+03  0.50400001928E-02 0.  1.
        1   -1    0    0  501    0  0.00000000000E+00  0.00000000000E+00 -0.17514052504E+04  0.17514052504E+04  0.50400001928E-02 0. -1.
    10030    2    1    2    0    0  0.00000000000E+00  0.00000000000E+00 -0.11503765410E+04  0.23524339599E+04  0.20519696268E+04 0.  0.
        2    1    3    3  502    0 -0.35605981105E+03 -0.85997428237E+03 -0.10700286791E+04  0.14182015828E+04  0.25500000920E-02 0. -1.
       -2    1    3    3    0  502  0.35605981105E+03  0.85997428237E+03 -0.80347861845E+02  0.93423237703E+03  0.25500000920E-02 0.  1.
</event>
<event>
 5   0  0.1782172E-04  0.2006566E+04  0.7818609E-02  0.8603557E-01
       -2   -1    0    0    0  501  0.00000000000E+00  0.00000000000E+00  0.40071449312E+03  0.40071449312E+03  0.25500000920E-02 0.  1.
        2   -1    0    0  501    0  0.00000000000E+00  0.00000000000E+00 -0.25119557523E+04  0.25119557523E+04  0.25500000920E-02 0. -1.
    10030    2    1    2    0    0  0.00000000000E+00  0.00000000000E+00 -0.21112412592E+04  0.29126702454E+04  0.20065662970E+04 0.  0.
        2    1    3    3  502    0  0.80501922621E+03 -0.83616668976E+02 -0.19162548617E+04  0.20801635505E+04  0.25500000920E-02 0. -1.
       -2    1    3    3    0  502 -0.80501922621E+03  0.83616668976E+02 -0.19498639751E+03  0.83250669494E+03  0.25500000920E-02 0.  1.
</event>
<event>
 5   0  0.6531625E-05  0.2005813E+04  0.7818609E-02  0.8603908E-01
       -3   -1    0    0    0  501  0.00000000000E+00  0.00000000000E+00  0.13026887740E+04  0.13026887779E+04  0.10100000352E+00 0.  1.
        3   -1    0    0  501    0  0.00000000000E+00  0.00000000000E+00 -0.77211197327E+03  0.77211197988E+03  0.10100000352E+00 0. -1.
    10030    2    1    2    0    0  0.00000000000E+00  0.00000000000E+00  0.53057680070E+03  0.20748007578E+04  0.20058131625E+04 0.  0.
        2    1    3    3  502    0  0.82903978416E+03  0.51817970908E+03  0.49659615250E+03  0.10965513729E+04  0.25500000920E-02 0.  1.
       -2    1    3    3    0  502 -0.82903978416E+03 -0.51817970908E+03  0.33980648198E+02  0.97824938491E+03  0.25500000920E-02 0. -1.
</event>
<event>
 5   0  0.8861350E-05  0.1962259E+04  0.7818609E-02  0.8624472E-01
       -1   -1    0    0    0  501  0.00000000000E+00  0.00000000000E+00  0.19932347660E+04  0.19932347660E+04  0.50400001928E-02 0. -1.
        1   -1    0    0  501    0  0.00000000000E+00  0.00000000000E+00 -0.48294120676E+03  0.48294120679E+03  0.50400001928E-02 0.  1.
    10030    2    1    2    0    0  0.00000000000E+00  0.00000000000E+00  0.15102935592E+04  0.24761759728E+04  0.19622591096E+04 0.  0.
        1    1    3    3  502    0  0.17814693150E+03  0.37477448753E+03  0.18770487844E+04  0.19223694714E+04  0.50400001928E-02 0. -1.
       -1    1    3    3    0  502 -0.17814693150E+03 -0.37477448753E+03 -0.36675522517E+03  0.55380650134E+03  0.50400001928E-02 0.  1.
</event>
<event>
 5   0  0.1893687E-04  0.2018958E+04  0.7818609E-02  0.8597808E-01
        2   -1    0    0  501    0  0.00000000000E+00  0.00000000000E+00  0.78983953127E+03  0.78983953128E+03  0.25500000920E-02 0. -1.
       -2   -1    0    0    0  501  0.00000000000E+00  0.00000000000E+00 -0.12901965476E+04  0.12901965476E+04  0.25500000920E-02 0.  1.
    10030    2    1    2    0    0  0.00000000000E+00  0.00000000000E+00 -0.50035701631E+03  0.20800360789E+04  0.20189583813E+04 0.  0.
        4    1    3    3  502    0  0.69895259718E+02  0.87881316851E+02 -0.12837417297E+04  0.12886438277E+04  0.12699999809E+01 0.  1.
       -4    1    3    3    0  502 -0.69895259718E+02 -0.87881316851E+02  0.78338471337E+03  0.79139225118E+03  0.12699999809E+01 0. -1.
</event>
<event>
 5   0  0.8861350E-05  0.1676190E+04  0.7818609E-02  0.8775062E-01
       -1   -1    0    0    0  501  0.00000000000E+00  0.00000000000E+00  0.99936893108E+03  0.99936893109E+03  0.50400001928E-02 0.  1.
        1   -1    0    0  501    0  0.00000000000E+00  0.00000000000E+00 -0.70284708538E+03  0.70284708540E+03  0.50400001928E-02 0. -1.
    10030    2    1    2    0    0  0.00000000000E+00  0.00000000000E+00  0.29652184570E+03  0.17022160165E+04  0.16761903716E+04 0.  0.
        1    1    3    3  502    0 -0.65946515164E+03 -0.46979246830E+03 -0.71441155869E+02  0.81283644621E+03  0.50400001928E-02 0. -1.
       -1    1    3    3    0  502  0.65946515164E+03  0.46979246830E+03  0.36796300157E+03  0.88937957029E+03  0.50400001928E-02 0.  1.
</event>
<event>
 5   0  0.1893687E-04  0.2064138E+04  0.7818609E-02  0.8577208E-01
       -2   -1    0    0    0  501  0.00000000000E+00  0.00000000000E+00  0.71292814091E+03  0.71292814091E+03  0.25500000920E-02 0. -1.
        2   -1    0    0  501    0  0.00000000000E+00  0.00000000000E+00 -0.14940722013E+04  0.14940722013E+04  0.25500000920E-02 0.  1.
    10030    2    1    2    0    0  0.00000000000E+00  0.00000000000E+00 -0.78114406042E+03  0.22070003422E+04  0.20641377056E+04 0.  0.
        4    1    3    3  502    0 -0.82151756231E+03 -0.62454664076E+03 -0.37489823529E+03  0.10979525998E+04  0.12699999809E+01 0.  1.
       -4    1    3    3    0  502  0.82151756231E+03  0.62454664076E+03 -0.40624582513E+03  0.11090477424E+04  0.12699999809E+01 0. -1.
</event>
<event>
 5   0  0.1807498E-04  0.2017851E+04  0.7818609E-02  0.8598320E-01
       -2   -1    0    0    0  501  0.00000000000E+00  0.00000000000E+00  0.62492042543E+03  0.62492042544E+03  0.25500000920E-02 0. -1.
        2   -1    0    0  501    0  0.00000000000E+00  0.00000000000E+00 -0.16288967079E+04  0.16288967079E+04  0.25500000920E-02 0.  1.
    10030    2    1    2    0    0  0.00000000000E+00  0.00000000000E+00 -0.10039762824E+04  0.22538171333E+04  0.20178511577E+04 0.  0.
        5    1    3    3  502    0  0.25890759839E+03  0.70495548930E+03 -0.12545046368E+04  0.14621215272E+04  0.46999998093E+01 0.  1.
       -5    1    3    3    0  502 -0.25890759839E+03 -0.70495548930E+03  0.25052835441E+03  0.79169560612E+03  0.46999998093E+01 0. -1.
</event>
<event>
 5   0  0.8958919E-05  0.2001676E+04  0.7818609E-02  0.8605838E-01
       -1   -1    0    0    0  501  0.00000000000E+00  0.00000000000E+00  0.99922228020E+03  0.99922228021E+03  0.50400001928E-02 0. -1.
        1   -1    0    0  501    0  0.00000000000E+00  0.00000000000E+00 -0.10024562336E+04  0.10024562336E+04  0.50400001928E-02 0.  1.
    10030    2    1    2    0    0  0.00000000000E+00  0.00000000000E+00 -0.32339533829E+01  0.20016785138E+04  0.20016759014E+04 0.  0.
        4    1    3    3  502    0 -0.10032780846E+01 -0.24044858545E+03  0.96990807472E+03  0.99926964085E+03  0.12699999809E+01 0. -1.
       -4    1    3    3    0  502  0.10032780846E+01  0.24044858545E+03 -0.97314202811E+03  0.10024088730E+04  0.12699999809E+01 0.  1.
</event>
<event>
 5   0  0.1807498E-04  0.1963379E+04  0.7818609E-02  0.8623936E-01
       -2   -1    0    0    0  501  0.00000000000E+00  0.00000000000E+00  0.83980907973E+03  0.83980907974E+03  0.25500000920E-02 0.  1.
        2   -1    0    0  501    0  0.00000000000E+00  0.00000000000E+00 -0.11475395170E+04  0.11475395170E+04  0.25500000920E-02 0. -1.
    10030    2    1    2    0    0  0.00000000000E+00  0.00000000000E+00 -0.30773043722E+03  0.19873485967E+04  0.19633788281E+04 0.  0.
        5    1    3    3  502    0  0.76999876569E+03  0.18569301504E+03  0.43313889430E+03  0.90277981078E+03  0.46999998093E+01 0.  1.
       -5    1    3    3    0  502 -0.76999876569E+03 -0.18569301504E+03 -0.74086933152E+03  0.10845687859E+04  0.46999998093E+01 0. -1.
</event>
<event>
 5   0  0.8577422E-05  0.1920036E+04  0.7818609E-02  0.8644947E-01
       -1   -1    0    0    0  501  0.00000000000E+00  0.00000000000E+00  0.12347988179E+04  0.12347988179E+04  0.50400001928E-02 0. -1.
        1   -1    0    0  501    0  0.00000000000E+00  0.00000000000E+00 -0.74638444903E+03  0.74638444905E+03  0.50400001928E-02 0.  1.
    10030    2    1    2    0    0  0.00000000000E+00  0.00000000000E+00  0.48841436885E+03  0.19811832669E+04  0.19200360782E+04 0.  0.
        2    1    3    3  502    0 -0.38045963561E+03  0.58972449797E+03  0.92013394228E+03  0.11572255569E+04  0.25500000920E-02 0. -1.
       -2    1    3    3    0  502  0.38045963561E+03 -0.58972449797E+03 -0.43171957343E+03  0.82395771003E+03  0.25500000920E-02 0.  1.
</event>
<event>
 5   0  0.1782172E-04  0.1957224E+04  0.7818609E-02  0.8626885E-01
        2   -1    0    0  501    0  0.00000000000E+00  0.00000000000E+00  0.17629954334E+04  0.17629954334E+04  0.25500000920E-02 0. -1.
       -2   -1    0    0    0  501  0.00000000000E+00  0.00000000000E+00 -0.54321281125E+03  0.54321281126E+03  0.25500000920E-02 0.  1.
    10030    2    1    2    0    0  0.00000000000E+00  0.00000000000E+00  0.12197826221E+04  0.23062082447E+04  0.19572242647E+04 0.  0.
        2    1    3    3  502    0 -0.25683442698E+03 -0.91738926968E+03  0.34611211369E+03  0.10135879785E+04  0.25500000920E-02 0. -1.
       -2    1    3    3    0  502  0.25683442698E+03  0.91738926968E+03  0.87367050844E+03  0.12926202661E+04  0.25500000920E-02 0.  1.
</event>
<event>
 5   0  0.8881384E-05  0.2055251E+04  0.7818609E-02  0.8581216E-01
       -1   -1    0    0    0  501  0.00000000000E+00  0.00000000000E+00  0.82647844695E+03  0.82647844697E+03  0.50400001928E-02 0.  1.
        1   -1    0    0  501    0  0.00000000000E+00  0.00000000000E+00 -0.12777271197E+04  0.12777271197E+04  0.50400001928E-02 0. -1.
    10030    2    1    2    0    0  0.00000000000E+00  0.00000000000E+00 -0.45124867274E+03  0.21042055667E+04  0.20552507638E+04 0.  0.
        5    1    3    3  502    0  0.11081877635E+03  0.39858943964E+03  0.73743956665E+03  0.84557291055E+03  0.46999998093E+01 0.  1.
       -5    1    3    3    0  502 -0.11081877635E+03 -0.39858943964E+03 -0.11886882394E+04  0.12586326561E+04  0.46999998093E+01 0. -1.
</event>
</LesHouchesEvents>
