<LesHouchesEvents version="3.0">
<header>
<!--
#*********************************************************************
#                                                                    *
#                        MadGraph5_aMC@NLO                           *
#                                                                    *
#                           Going Beyond                             *
#                                                                    *
#                   http://madgraph.hep.uiuc.edu                     *
#                   http://madgraph.phys.ucl.ac.be                   *
#                   http://amcatnlo.cern.ch                          *
#                                                                    *
#                     The MadGraph5_aMC@NLO team                     *
#                                                                    *
#....................................................................*
#                                                                    *
# This file contains all the information necessary to reproduce      *
# the events generated:                                              *
#                                                                    *
# 1. software version                                                *
# 2. proc_card          : code generation info including model       *
# 3. param_card         : model primary parameters in the LH format  *
# 4. run_card           : running parameters (collider and cuts)     *
# 5. pythia_card        : present only if pythia has been run        *
# 6. pgs_card           : present only if pgs has been run           *
# 7. delphes_cards      : present only if delphes has been run       *
#                                                                    *
#                                                                    *
#*********************************************************************
-->
<MGVersion>
#5.2.2.3
</MGVersion>
<MG5ProcCard>
#************************************************************
#*                     MadGraph5_aMC@NLO                    *
#*                                                          *
#*                *                       *                 *
#*                  *        * *        *                   *
#*                    * * * * 5 * * * *                     *
#*                  *        * *        *                   *
#*                *                       *                 *
#*                                                          *
#*                                                          *
#*         VERSION 2.2.3                 2015-02-10         *
#*                                                          *
#*    The MadGraph5_aMC@NLO Development Team - Find us at   *
#*    https://server06.fynu.ucl.ac.be/projects/madgraph     *
#*                                                          *
#************************************************************
#*                                                          *
#*               Command File for MadGraph5_aMC@NLO         *
#*                                                          *
#*     run as ./bin/mg5_aMC  filename                       *
#*                                                          *
#************************************************************
set group_subprocesses Auto
set ignore_six_quark_processes False
set loop_optimized_output True
set gauge unitary
set complex_mass_scheme False
import model sm
define p = g u c d s u~ c~ d~ s~
define j = g u c d s u~ c~ d~ s~
define l+ = e+ mu+
define l- = e- mu-
define vl = ve vm vt
define vl~ = ve~ vm~ vt~
import model Zprime_UFO
generate p p > zph, zph > j j
add process p p > zph, zph > b b~
output Dijet_signal
</MG5ProcCard>
<MGProcCard>
#*********************************************************************
#                        MadGraph/MadEvent                           *
#                   http://madgraph.hep.uiuc.edu                     *
#                                                                    *
#                          proc_card.dat                             *
#*********************************************************************
#                                                                    *
#            This Files is generated by MADGRAPH 5                   *
#                                                                    *
# WARNING: This Files is generated for MADEVENT (compatibility issue)*
#          This files is NOT a valid MG4 proc_card.dat               *
#          Running this in MG4 will NEVER reproduce the result of MG5*
#                                                                    *
#*********************************************************************
#*********************************************************************
# Process(es) requested : mg2 input                                  *
#*********************************************************************
# Begin PROCESS # This is TAG. Do not modify this line
p p > zph , zph > j j           #Process
# Be carefull the coupling are here in MG5 convention
          
end_coup           # End the couplings input

done               # this tells MG there are no more procs
# End PROCESS  # This is TAG. Do not modify this line
#*********************************************************************
# Model information                                                  *
#*********************************************************************
# Begin MODEL  # This is TAG. Do not modify this line
Zprime_UFO
# End   MODEL  # This is TAG. Do not modify this line
#*********************************************************************
# Start multiparticle definitions                                    *
#*********************************************************************
# Begin MULTIPARTICLES # This is TAG. Do not modify this line

# End  MULTIPARTICLES # This is TAG. Do not modify this line
</MGProcCard>
<MGRunCard>
#*********************************************************************
#                       MadGraph5_aMC@NLO                            *
#                                                                    *
#                     run_card.dat MadEvent                          *
#                                                                    *
#  This file is used to set the parameters of the run.               *
#                                                                    *
#  Some notation/conventions:                                        *
#                                                                    *
#   Lines starting with a '# ' are info or comments                  *
#                                                                    *
#   mind the format:   value    = variable     ! comment             *
#*********************************************************************
#
#*******************                                                 
# Running parameters
#*******************                                                 
#                                                                    
#*********************************************************************
# Tag name for the run (one word)                                    *
#*********************************************************************
  tag_1     = run_tag ! name of the run 
#*********************************************************************
# Run to generate the grid pack                                      *
#*********************************************************************
  .false.     = gridpack  !True = setting up the grid pack
#*********************************************************************
# Number of events and rnd seed                                      *
# Warning: Do not generate more than 1M events in a single run       *
# If you want to run Pythia, avoid more than 50k events in a run.    *
#*********************************************************************
  2000 = nevents ! Number of unweighted events requested 
 1182 = iseed   ! rnd seed (0=assigned automatically=default))
#*********************************************************************
# Collider type and energy                                           *
# lpp: 0=No PDF, 1=proton, -1=antiproton, 2=photon from proton,      *
#                                         3=photon from electron     *
#*********************************************************************
        1     = lpp1    ! beam 1 type 
        1     = lpp2    ! beam 2 type
     4000     = ebeam1  ! beam 1 total energy in GeV
     4000     = ebeam2  ! beam 2 total energy in GeV
#*********************************************************************
# Beam polarization from -100 (left-handed) to 100 (right-handed)    *
#*********************************************************************
        0     = polbeam1 ! beam polarization for beam 1
        0     = polbeam2 ! beam polarization for beam 2
#*********************************************************************
# PDF CHOICE: this automatically fixes also alpha_s and its evol.    *
#*********************************************************************
 'nn23lo1'    = pdlabel     ! PDF set                                     
 230000    = lhaid     ! if pdlabel=lhapdf, this is the lhapdf number
#*********************************************************************
# Renormalization and factorization scales                           *
#*********************************************************************
 F        = fixed_ren_scale  ! if .true. use fixed ren scale
 F        = fixed_fac_scale  ! if .true. use fixed fac scale
 91.1880  = scale            ! fixed ren scale
 91.1880  = dsqrt_q2fact1    ! fixed fact scale for pdf1
 91.1880  = dsqrt_q2fact2    ! fixed fact scale for pdf2
 1        = scalefact        ! scale factor for event-by-event scales
#*********************************************************************
# Matching - Warning! ickkw > 1 is still beta
#*********************************************************************
 0        = ickkw            ! 0 no matching, 1 MLM, 2 CKKW matching
 1        = highestmult      ! for ickkw=2, highest mult group
 1        = ktscheme         ! for ickkw=1, 1 Durham kT, 2 Pythia pTE
 1        = alpsfact         ! scale factor for QCD emission vx
 F        = chcluster        ! cluster only according to channel diag
 T        = pdfwgt           ! for ickkw=1, perform pdf reweighting
 5        = asrwgtflavor     ! highest quark flavor for a_s reweight
 T        = clusinfo         ! include clustering tag in output
 3.0      = lhe_version       ! Change the way clustering information pass to shower.        
#*********************************************************************
#**********************************************************
#
#**********************************************************
# Automatic ptj and mjj cuts if xqcut > 0
# (turn off for VBF and single top processes)
#**********************************************************
   T  = auto_ptj_mjj  ! Automatic setting of ptj and mjj
#**********************************************************
#                                                                    
#**********************************
# BW cutoff (M+/-bwcutoff*Gamma)
#**********************************
  15  = bwcutoff      ! (M+/-bwcutoff*Gamma)
#**********************************************************
# Apply pt/E/eta/dr/mij cuts on decay products or not
# (note that etmiss/ptll/ptheavy/ht/sorted cuts always apply)
#**********************************************************
   T  = cut_decays    ! Cut decay products 
#*************************************************************
# Number of helicities to sum per event (0 = all helicities)
# 0 gives more stable result, but longer run time (needed for
# long decay chains e.g.).
# Use >=2 if most helicities contribute, e.g. pure QCD.
#*************************************************************
   0  = nhel          ! Number of helicities used per event
#*******************                                                 
# Standard Cuts
#*******************                                                 
#                                                                    
#*********************************************************************
# Minimum and maximum pt's (for max, -1 means no cut)                *
#*********************************************************************
 20  = ptj       ! minimum pt for the jets 
  0  = ptb       ! minimum pt for the b 
 10  = pta       ! minimum pt for the photons 
 10  = ptl       ! minimum pt for the charged leptons 
  0  = misset    ! minimum missing Et (sum of neutrino's momenta)
  0  = ptheavy   ! minimum pt for one heavy final state
 1.0 = ptonium   ! minimum pt for the quarkonium states
 -1  = ptjmax    ! maximum pt for the jets
 -1  = ptbmax    ! maximum pt for the b
 -1  = ptamax    ! maximum pt for the photons
 -1  = ptlmax    ! maximum pt for the charged leptons
 -1  = missetmax ! maximum missing Et (sum of neutrino's momenta)
#*********************************************************************
# Minimum and maximum E's (in the center of mass frame)              *
#*********************************************************************
  0  = ej     ! minimum E for the jets 
  0  = eb     ! minimum E for the b 
  0  = ea     ! minimum E for the photons 
  0  = el     ! minimum E for the charged leptons 
 -1   = ejmax ! maximum E for the jets
 -1   = ebmax ! maximum E for the b
 -1   = eamax ! maximum E for the photons
 -1   = elmax ! maximum E for the charged leptons
#*********************************************************************
# Maximum and minimum absolute rapidity (for max, -1 means no cut)   *
#*********************************************************************
   5  = etaj    ! max rap for the jets 
  -1  = etab    ! max rap for the b
 2.5  = etaa    ! max rap for the photons 
 2.5  = etal    ! max rap for the charged leptons 
 0.6  = etaonium ! max rap for the quarkonium states
   0  = etajmin ! min rap for the jets
   0  = etabmin ! min rap for the b
   0  = etaamin ! min rap for the photons
   0  = etalmin ! main rap for the charged leptons
#*********************************************************************
# Minimum and maximum DeltaR distance                                *
#*********************************************************************
 0.4 = drjj    ! min distance between jets 
 0   = drbb    ! min distance between b's 
 0.4 = drll    ! min distance between leptons 
 0.4 = draa    ! min distance between gammas 
 0   = drbj    ! min distance between b and jet 
 0.4 = draj    ! min distance between gamma and jet 
 0.4 = drjl    ! min distance between jet and lepton 
 0   = drab    ! min distance between gamma and b 
 0   = drbl    ! min distance between b and lepton 
 0.4 = dral    ! min distance between gamma and lepton 
 -1  = drjjmax ! max distance between jets
 -1  = drbbmax ! max distance between b's
 -1  = drllmax ! max distance between leptons
 -1  = draamax ! max distance between gammas
 -1  = drbjmax ! max distance between b and jet
 -1  = drajmax ! max distance between gamma and jet
 -1  = drjlmax ! max distance between jet and lepton
 -1  = drabmax ! max distance between gamma and b
 -1  = drblmax ! max distance between b and lepton
 -1  = dralmax ! maxdistance between gamma and lepton
#*********************************************************************
# Minimum and maximum invariant mass for pairs                       *
# WARNING: for four lepton final state mmll cut require to have      *
#          different lepton masses for each flavor!                  *           
#*********************************************************************
 0   = mmjj    ! min invariant mass of a jet pair 
 0   = mmbb    ! min invariant mass of a b pair 
 0   = mmaa    ! min invariant mass of gamma gamma pair
 0   = mmll    ! min invariant mass of l+l- (same flavour) lepton pair
 -1  = mmjjmax ! max invariant mass of a jet pair
 -1  = mmbbmax ! max invariant mass of a b pair
 -1  = mmaamax ! max invariant mass of gamma gamma pair
 -1  = mmllmax ! max invariant mass of l+l- (same flavour) lepton pair
#*********************************************************************
# Minimum and maximum invariant mass for all letpons                 *
#*********************************************************************
 0   = mmnl    ! min invariant mass for all letpons (l+- and vl) 
 -1  = mmnlmax ! max invariant mass for all letpons (l+- and vl) 
#*********************************************************************
# Minimum and maximum pt for 4-momenta sum of leptons                *
#*********************************************************************
 0   = ptllmin  ! Minimum pt for 4-momenta sum of leptons(l and vl)
 -1  = ptllmax  ! Maximum pt for 4-momenta sum of leptons(l and vl)
#*********************************************************************
# Inclusive cuts                                                     *
#*********************************************************************
 0  = xptj ! minimum pt for at least one jet  
 0  = xptb ! minimum pt for at least one b 
 0  = xpta ! minimum pt for at least one photon 
 0  = xptl ! minimum pt for at least one charged lepton 
#*********************************************************************
# Control the pt's of the jets sorted by pt                          *
#*********************************************************************
 0   = ptj1min ! minimum pt for the leading jet in pt
 0   = ptj2min ! minimum pt for the second jet in pt
 0   = ptj3min ! minimum pt for the third jet in pt
 0   = ptj4min ! minimum pt for the fourth jet in pt
 -1  = ptj1max ! maximum pt for the leading jet in pt 
 -1  = ptj2max ! maximum pt for the second jet in pt
 -1  = ptj3max ! maximum pt for the third jet in pt
 -1  = ptj4max ! maximum pt for the fourth jet in pt
 0   = cutuse  ! reject event if fails any (0) / all (1) jet pt cuts
#*********************************************************************
# Control the pt's of leptons sorted by pt                           *
#*********************************************************************
 0   = ptl1min ! minimum pt for the leading lepton in pt
 0   = ptl2min ! minimum pt for the second lepton in pt
 0   = ptl3min ! minimum pt for the third lepton in pt
 0   = ptl4min ! minimum pt for the fourth lepton in pt
 -1  = ptl1max ! maximum pt for the leading lepton in pt 
 -1  = ptl2max ! maximum pt for the second lepton in pt
 -1  = ptl3max ! maximum pt for the third lepton in pt
 -1  = ptl4max ! maximum pt for the fourth lepton in pt
#*********************************************************************
# Control the Ht(k)=Sum of k leading jets                            *
#*********************************************************************
 0   = htjmin ! minimum jet HT=Sum(jet pt)
 -1  = htjmax ! maximum jet HT=Sum(jet pt)
 0   = ihtmin  !inclusive Ht for all partons (including b)
 -1  = ihtmax  !inclusive Ht for all partons (including b)
 0   = ht2min ! minimum Ht for the two leading jets
 0   = ht3min ! minimum Ht for the three leading jets
 0   = ht4min ! minimum Ht for the four leading jets
 -1  = ht2max ! maximum Ht for the two leading jets
 -1  = ht3max ! maximum Ht for the three leading jets
 -1  = ht4max ! maximum Ht for the four leading jets
#***********************************************************************
# Photon-isolation cuts, according to hep-ph/9801442                   *
# When ptgmin=0, all the other parameters are ignored                  *
# When ptgmin>0, pta and draj are not going to be used                 *
#***********************************************************************
   0 = ptgmin ! Min photon transverse momentum
 0.4 = R0gamma ! Radius of isolation code
 1.0 = xn ! n parameter of eq.(3.4) in hep-ph/9801442
 1.0 = epsgamma ! epsilon_gamma parameter of eq.(3.4) in hep-ph/9801442
 .true. = isoEM ! isolate photons from EM energy (photons and leptons)
#*********************************************************************
# WBF cuts                                                           *
#*********************************************************************
 0   = xetamin ! minimum rapidity for two jets in the WBF case  
 0   = deltaeta ! minimum rapidity for two jets in the WBF case 
#*********************************************************************
# KT DURHAM CUT                                                      *
#*********************************************************************
 -1    =  ktdurham        
 0.4  =  dparameter 
#*********************************************************************
# maximal pdg code for quark to be considered as a light jet         *
# (otherwise b cuts are applied)                                     *
#*********************************************************************
 4 = maxjetflavor    ! Maximum jet pdg code
#*********************************************************************
# Jet measure cuts                                                   *
#*********************************************************************
 0   = xqcut   ! minimum kt jet measure between partons
#*********************************************************************
#
#*********************************************************************
# Store info for systematics studies                                 *
# WARNING: If use_syst is T, matched Pythia output is                *
#          meaningful ONLY if plotted taking matchscale              *
#          reweighting into account!                                 *
#*********************************************************************
   F  = use_syst      ! Enable systematics studies
#
#**************************************
# Parameter of the systematics study
#  will be used by SysCalc (if installed)
#**************************************                                  
#
0.5 1 2 = sys_scalefact  # factorization/renormalization scale factor
0.5 1 2 = sys_alpsfact  # \alpha_s emission scale factors
30 50 = sys_matchscale # variation of merging scale
# PDF sets and number of members (0 or none for all members).
CT10nlo.LHgrid = sys_pdf # matching scales
# MSTW2008nlo68cl.LHgrid 1  = sys_pdf
</MGRunCard>
<slha>
######################################################################
## PARAM_CARD AUTOMATICALY GENERATED BY MG5 FOLLOWING UFO MODEL   ####
######################################################################
##                                                                  ##
##  Width set on Auto will be computed following the information    ##
##        present in the decay.py files of the model.               ##
##        See  arXiv:1402.1178 for more details.                    ##
##                                                                  ##
######################################################################

###################################
## INFORMATION FOR CKMBLOCK
###################################
Block ckmblock 
    1 2.277360e-01 # cabi 

###################################
## INFORMATION FOR FRBLOCK
###################################
Block frblock 
    1 6.000000e-01 # gz 

###################################
## INFORMATION FOR MASS
###################################
Block mass 
    1 5.040000e-03 # MD 
    2 2.550000e-03 # MU 
    3 1.010000e-01 # MS 
    4 1.270000e+00 # MC 
    5 4.700000e+00 # MB 
    6 1.720000e+02 # MT 
   11 5.110000e-04 # Me 
   13 1.056600e-01 # MM 
   15 1.777000e+00 # MTA 
   23 9.118760e+01 # MZ 
   25 1.200000e+02 # MH 
  10030 9.000000e+02 # MZph 
  10031 3.000000e+02 # MZpl 
## Dependent parameters, given by model restrictions.
## Those values should be edited following the 
## analytical expression. MG5 ignores those values 
## but they are important for interfacing the output of MG5
## to external program such as Pythia.
  12 0.000000 # ve : 0.0 
  14 0.000000 # vm : 0.0 
  16 0.000000 # vt : 0.0 
  21 0.000000 # g : 0.0 
  22 0.000000 # a : 0.0 
  24 79.824360 # w+ : cmath.sqrt(MZ__exp__2/2. + cmath.sqrt(MZ__exp__4/4. - (aEW*cmath.pi*MZ__exp__2)/(Gf*sqrt__2))) 

###################################
## INFORMATION FOR SMINPUTS
###################################
Block sminputs 
    1 1.279000e+02 # aEWM1 
    2 1.166370e-05 # Gf 
    3 1.184000e-01 # aS 

###################################
## INFORMATION FOR YUKAWA
###################################
Block yukawa 
    1 5.040000e-03 # ymdo 
    2 2.550000e-03 # ymup 
    3 1.010000e-01 # yms 
    4 1.270000e+00 # ymc 
    5 4.700000e+00 # ymb 
    6 1.720000e+02 # ymt 
   11 5.110000e-04 # yme 
   13 1.056600e-01 # ymm 
   15 1.777000e+00 # ymtau 

###################################
## INFORMATION FOR DECAY
###################################
DECAY   6 1.508336e+00 # WT 
DECAY  23 2.495200e+00 # WZ 
DECAY  24 2.085000e+00 # WW 
DECAY  25 5.753088e-03 # WH 
## Dependent parameters, given by model restrictions.
## Those values should be edited following the 
## analytical expression. MG5 ignores those values 
## but they are important for interfacing the output of MG5
## to external program such as Pythia.
DECAY  1 0.000000 # d : 0.0 
DECAY  2 0.000000 # u : 0.0 
DECAY  3 0.000000 # s : 0.0 
DECAY  4 0.000000 # c : 0.0 
DECAY  5 0.000000 # b : 0.0 
DECAY  11 0.000000 # e- : 0.0 
DECAY  12 0.000000 # ve : 0.0 
DECAY  13 0.000000 # mu- : 0.0 
DECAY  14 0.000000 # vm : 0.0 
DECAY  15 0.000000 # ta- : 0.0 
DECAY  16 0.000000 # vt : 0.0 
DECAY  21 0.000000 # g : 0.0 
DECAY  22 0.000000 # a : 0.0 
DECAY  10030 0.308725 # zph : (gz__exp__2*MZph*(5 + cmath.sqrt(1 - (4*MT__exp__2)/MZph__exp__2)))/(144.*cmath.pi) 
DECAY  10031 0.132629 # zpl : (5*gz__exp__2*MZpl)/(144.*cmath.pi) 
#===========================================================
# QUANTUM NUMBERS OF NEW STATE(S) (NON SM PDG CODE)
#===========================================================

Block QNUMBERS 10030  # zph 
        1 0  # 3 times electric charge
        2 3  # number of spin states (2S+1)
        3 1  # colour rep (1: singlet, 3: triplet, 8: octet)
        4 0  # Particle/Antiparticle distinction (0=own anti)
Block QNUMBERS 10031  # zpl 
        1 0  # 3 times electric charge
        2 3  # number of spin states (2S+1)
        3 1  # colour rep (1: singlet, 3: triplet, 8: octet)
        4 0  # Particle/Antiparticle distinction (0=own anti)
</slha>
## END BANNER##
<MGGenerationInfo>
#  Number of Events        :         4059
#  Integrated weight (pb)  :  0.11488E+01
#  Max wgt                 :  0.38153E-03
#  Average wgt             :  0.28303E-03
</MGGenerationInfo>
</header>
<init>
     2212     2212  0.40000000000E+04  0.40000000000E+04 0 0  247000  247000 2   1
  0.11484551709E+01  0.21369583681E-02  0.38152690000E-03   0
</init>
<event>
 5   0  0.3685879E-03  0.8926411E+03  0.7818609E-02  0.9434827E-01
       -2   -1    0    0    0  501  0.00000000000E+00  0.00000000000E+00  0.60005860360E+03  0.60005860360E+03  0.25500000920E-02 0. -1.
        2   -1    0    0  501    0  0.00000000000E+00  0.00000000000E+00 -0.33197094061E+03  0.33197094062E+03  0.25500000920E-02 0.  1.
    10030    2    1    2    0    0  0.00000000000E+00  0.00000000000E+00  0.26808766299E+03  0.93202954422E+03  0.89264106799E+03 0.  0.
        1    1    3    3  502    0 -0.42444802993E+02 -0.44271909499E+03  0.94972585494E+02  0.45477637404E+03  0.50400001928E-02 0.  1.
       -1    1    3    3    0  502  0.42444802993E+02  0.44271909499E+03  0.17311507749E+03  0.47725317018E+03  0.50400001928E-02 0. -1.
</event>
<event>
 5   0  0.3685879E-03  0.8992315E+03  0.7818609E-02  0.9426543E-01
       -2   -1    0    0    0  501  0.00000000000E+00  0.00000000000E+00  0.75859637011E+02  0.75859637054E+02  0.25500000920E-02 0.  1.
        2   -1    0    0  501    0  0.00000000000E+00  0.00000000000E+00 -0.26648469502E+04  0.26648469502E+04  0.25500000920E-02 0. -1.
    10030    2    1    2    0    0  0.00000000000E+00  0.00000000000E+00 -0.25889873132E+04  0.27407065873E+04  0.89923149943E+03 0.  0.
        1    1    3    3  502    0  0.39394701566E+03 -0.53925389269E+02 -0.65479644639E+03  0.76606826392E+03  0.50400001928E-02 0.  1.
       -1    1    3    3    0  502 -0.39394701566E+03  0.53925389269E+02 -0.19341908668E+04  0.19746383234E+04  0.50400001928E-02 0. -1.
</event>
<event>
 5   0  0.3626546E-03  0.8977191E+03  0.7818609E-02  0.9428437E-01
       -2   -1    0    0    0  501  0.00000000000E+00  0.00000000000E+00  0.13711811054E+04  0.13711811054E+04  0.25500000920E-02 0.  1.
        2   -1    0    0  501    0  0.00000000000E+00  0.00000000000E+00 -0.14693529190E+03  0.14693529193E+03  0.25500000920E-02 0. -1.
    10030    2    1    2    0    0  0.00000000000E+00  0.00000000000E+00  0.12242458135E+04  0.15181163973E+04  0.89771910082E+03 0.  0.
        3    1    3    3  502    0 -0.92347184497E+02 -0.60458182354E+02  0.13478730942E+04  0.13523849609E+04  0.10100000352E+00 0.  1.
       -3    1    3    3    0  502  0.92347184497E+02  0.60458182354E+02 -0.12362728066E+03  0.16573143644E+03  0.10100000352E+00 0. -1.
</event>
<event>
 5   0  0.3685879E-03  0.8991710E+03  0.7818609E-02  0.9426618E-01
        2   -1    0    0  501    0  0.00000000000E+00  0.00000000000E+00  0.71933830270E+03  0.71933830270E+03  0.25500000920E-02 0.  1.
       -2   -1    0    0    0  501  0.00000000000E+00  0.00000000000E+00 -0.28099035589E+03  0.28099035590E+03  0.25500000920E-02 0. -1.
    10030    2    1    2    0    0  0.00000000000E+00  0.00000000000E+00  0.43834794681E+03  0.10003286586E+04  0.89917100862E+03 0.  0.
        1    1    3    3  502    0 -0.36685853328E+03  0.33408413955E+02 -0.67553216152E+02  0.37451934876E+03  0.50400001928E-02 0. -1.
       -1    1    3    3    0  502  0.36685853328E+03 -0.33408413955E+02  0.50590116296E+03  0.62580930983E+03  0.50400001928E-02 0.  1.
</event>
<event>
 5   0  0.3626546E-03  0.8947710E+03  0.7818609E-02  0.9432142E-01
       -2   -1    0    0    0  501  0.00000000000E+00  0.00000000000E+00  0.24577525000E+03  0.24577525001E+03  0.25500000920E-02 0. -1.
        2   -1    0    0  501    0  0.00000000000E+00  0.00000000000E+00 -0.81437727046E+03  0.81437727047E+03  0.25500000920E-02 0.  1.
    10030    2    1    2    0    0  0.00000000000E+00  0.00000000000E+00 -0.56860202047E+03  0.10601525205E+04  0.89477098131E+03 0.  0.
        3    1    3    3  502    0 -0.35218630380E+03 -0.12271423418E+03  0.84740754326E+01  0.37304932115E+03  0.10100000352E+00 0.  1.
       -3    1    3    3    0  502  0.35218630380E+03  0.12271423418E+03 -0.57707609590E+03  0.68710319932E+03  0.10100000352E+00 0. -1.
</event>
<event>
 5   0  0.2134145E-03  0.9000810E+03  0.7818609E-02  0.9425480E-01
        1   -1    0    0  501    0  0.00000000000E+00  0.00000000000E+00  0.61984541456E+03  0.61984541458E+03  0.50400001928E-02 0.  1.
       -1   -1    0    0    0  501  0.00000000000E+00  0.00000000000E+00 -0.32675315856E+03  0.32675315860E+03  0.50400001928E-02 0. -1.
    10030    2    1    2    0    0  0.00000000000E+00  0.00000000000E+00  0.29309225600E+03  0.94659857317E+03  0.90008098980E+03 0.  0.
        1    1    3    3  502    0  0.30598083026E+02  0.11205446758E+03  0.60380875385E+03  0.61488003517E+03  0.50400001928E-02 0.  1.
       -1    1    3    3    0  502 -0.30598083026E+02 -0.11205446758E+03 -0.31071649786E+03  0.33171853800E+03  0.50400001928E-02 0. -1.
</event>
<event>
 5   0  0.2129280E-03  0.8980432E+03  0.7818609E-02  0.9428031E-01
       -1   -1    0    0    0  501  0.00000000000E+00  0.00000000000E+00  0.12630170291E+03  0.12630170301E+03  0.50400001928E-02 0. -1.
        1   -1    0    0  501    0  0.00000000000E+00  0.00000000000E+00 -0.15963395651E+04  0.15963395651E+04  0.50400001928E-02 0.  1.
    10030    2    1    2    0    0  0.00000000000E+00  0.00000000000E+00 -0.14700378622E+04  0.17226412682E+04  0.89804321855E+03 0.  0.
        3    1    3    3  502    0 -0.13357691442E+02  0.34118895018E+03 -0.17566205724E+03  0.38398632293E+03  0.10100000352E+00 0. -1.
       -3    1    3    3    0  502  0.13357691442E+02 -0.34118895018E+03 -0.12943758050E+04  0.13386549452E+04  0.10100000352E+00 0.  1.
</event>
<event>
 5   0  0.3685879E-03  0.8870169E+03  0.7818609E-02  0.9441958E-01
       -2   -1    0    0    0  501  0.00000000000E+00  0.00000000000E+00  0.78739552437E+03  0.78739552437E+03  0.25500000920E-02 0. -1.
        2   -1    0    0  501    0  0.00000000000E+00  0.00000000000E+00 -0.24981059274E+03  0.24981059275E+03  0.25500000920E-02 0.  1.
    10030    2    1    2    0    0  0.00000000000E+00  0.00000000000E+00  0.53758493162E+03  0.10372061171E+04  0.88701689425E+03 0.  0.
        1    1    3    3  502    0 -0.78873250920E+02 -0.42839213425E+03  0.17124758510E+03  0.46804545274E+03  0.50400001928E-02 0.  1.
       -1    1    3    3    0  502  0.78873250920E+02  0.42839213425E+03  0.36633734653E+03  0.56916066439E+03  0.50400001928E-02 0. -1.
</event>
<event>
 5   0  0.2074970E-03  0.9118027E+03  0.7818609E-02  0.9410947E-01
        1   -1    0    0  501    0  0.00000000000E+00  0.00000000000E+00  0.38582408945E+03  0.38582408948E+03  0.50400001928E-02 0. -1.
       -1   -1    0    0    0  501  0.00000000000E+00  0.00000000000E+00 -0.53870671481E+03  0.53870671483E+03  0.50400001928E-02 0.  1.
    10030    2    1    2    0    0  0.00000000000E+00  0.00000000000E+00 -0.15288262535E+03  0.92453080431E+03  0.91180267108E+03 0.  0.
        2    1    3    3  502    0 -0.25243030203E+03 -0.53610654519E+02 -0.45752125304E+03  0.52528169267E+03  0.25500000920E-02 0.  1.
       -2    1    3    3    0  502  0.25243030203E+03  0.53610654519E+02  0.30463862769E+03  0.39924911164E+03  0.25500000920E-02 0. -1.
</event>
<event>
 5   0  0.3685879E-03  0.8998970E+03  0.7818609E-02  0.9425710E-01
        2   -1    0    0  501    0  0.00000000000E+00  0.00000000000E+00  0.17491591875E+04  0.17491591875E+04  0.25500000920E-02 0. -1.
       -2   -1    0    0    0  501  0.00000000000E+00  0.00000000000E+00 -0.11574340807E+03  0.11574340810E+03  0.25500000920E-02 0.  1.
    10030    2    1    2    0    0  0.00000000000E+00  0.00000000000E+00  0.16334157794E+04  0.18649025956E+04  0.89989698444E+03 0.  0.
        1    1    3    3  502    0  0.13999561734E+03  0.40682218516E+03  0.54373445416E+03  0.69336153619E+03  0.50400001928E-02 0.  1.
       -1    1    3    3    0  502 -0.13999561734E+03 -0.40682218516E+03  0.10896813252E+04  0.11715410594E+04  0.50400001928E-02 0. -1.
</event>
<event>
 5   0  0.1436000E-03  0.9003898E+03  0.7818609E-02  0.9425094E-01
        4   -1    0    0  501    0  0.00000000000E+00  0.00000000000E+00  0.49412779730E+03  0.49412942937E+03  0.12699999809E+01 0.  1.
       -4   -1    0    0    0  501  0.00000000000E+00  0.00000000000E+00 -0.41016474377E+03  0.41016670993E+03  0.12699999809E+01 0. -1.
    10030    2    1    2    0    0  0.00000000000E+00  0.00000000000E+00  0.83963053532E+02  0.90429613930E+03  0.90038975627E+03 0.  0.
        1    1    3    3  502    0  0.35442914254E+03  0.26225072773E+03 -0.49407580336E+02  0.44366267625E+03  0.50400001928E-02 0. -1.
       -1    1    3    3    0  502 -0.35442914254E+03 -0.26225072773E+03  0.13337063387E+03  0.46063346305E+03  0.50400001928E-02 0.  1.
</event>
<event>
 5   0  0.3815269E-03  0.9037183E+03  0.7818609E-02  0.9420945E-01
       -2   -1    0    0    0  501  0.00000000000E+00  0.00000000000E+00  0.96733451853E+02  0.96733451886E+02  0.25500000920E-02 0.  1.
        2   -1    0    0  501    0  0.00000000000E+00  0.00000000000E+00 -0.21107142455E+04  0.21107142455E+04  0.25500000920E-02 0. -1.
    10030    2    1    2    0    0  0.00000000000E+00  0.00000000000E+00 -0.20139807936E+04  0.22074476973E+04  0.90371826335E+03 0.  0.
        5    1    3    3  502    0 -0.20441751151E+03  0.14732866413E+03 -0.19230975361E+04  0.19395407904E+04  0.46999998093E+01 0. -1.
       -5    1    3    3    0  502  0.20441751151E+03 -0.14732866413E+03 -0.90883257487E+02  0.26790690692E+03  0.46999998093E+01 0.  1.
</event>
<event>
 5   0  0.2130975E-03  0.9042086E+03  0.7818609E-02  0.9420336E-01
       -1   -1    0    0    0  501  0.00000000000E+00  0.00000000000E+00  0.11381888241E+03  0.11381888252E+03  0.50400001928E-02 0. -1.
        1   -1    0    0  501    0  0.00000000000E+00  0.00000000000E+00 -0.17958206291E+04  0.17958206291E+04  0.50400001928E-02 0.  1.
    10030    2    1    2    0    0  0.00000000000E+00  0.00000000000E+00 -0.16820017467E+04  0.19096395116E+04  0.90420859789E+03 0.  0.
        5    1    3    3  502    0  0.10636942220E+03 -0.27375556289E+03 -0.15668457672E+04  0.15941406181E+04  0.46999998093E+01 0.  1.
       -5    1    3    3    0  502 -0.10636942220E+03  0.27375556289E+03 -0.11515597951E+03  0.31549889351E+03  0.46999998093E+01 0. -1.
</event>
<event>
 5   0  0.1436000E-03  0.8991181E+03  0.7818609E-02  0.9426684E-01
        3   -1    0    0  501    0  0.00000000000E+00  0.00000000000E+00  0.33795865202E+03  0.33795866711E+03  0.10100000352E+00 0. -1.
       -3   -1    0    0    0  501  0.00000000000E+00  0.00000000000E+00 -0.59801203866E+03  0.59801204719E+03  0.10100000352E+00 0.  1.
    10030    2    1    2    0    0  0.00000000000E+00  0.00000000000E+00 -0.26005338665E+03  0.93597071430E+03  0.89911813135E+03 0.  0.
        1    1    3    3  502    0  0.38117759461E+03 -0.22443552467E+03 -0.21353757477E+03  0.49118831341E+03  0.50400001928E-02 0.  1.
       -1    1    3    3    0  502 -0.38117759461E+03  0.22443552467E+03 -0.46515811881E+02  0.44478240090E+03  0.50400001928E-02 0. -1.
</event>
<event>
 5   0  0.2134145E-03  0.9007528E+03  0.7818609E-02  0.9424641E-01
        1   -1    0    0  501    0  0.00000000000E+00  0.00000000000E+00  0.10449951413E+04  0.10449951413E+04  0.50400001928E-02 0.  1.
       -1   -1    0    0    0  501  0.00000000000E+00  0.00000000000E+00 -0.19410513059E+03  0.19410513066E+03  0.50400001928E-02 0. -1.
    10030    2    1    2    0    0  0.00000000000E+00  0.00000000000E+00  0.85089001067E+03  0.12391002719E+04  0.90075283715E+03 0.  0.
        1    1    3    3  502    0 -0.14860059403E+03  0.15020674212E+03 -0.12169289664E+03  0.24383060317E+03  0.50400001928E-02 0. -1.
       -1    1    3    3    0  502  0.14860059403E+03 -0.15020674212E+03  0.97258290731E+03  0.99526966875E+03  0.50400001928E-02 0.  1.
</event>
<event>
 5   0  0.2129280E-03  0.9083492E+03  0.7818609E-02  0.9415204E-01
       -1   -1    0    0    0  501  0.00000000000E+00  0.00000000000E+00  0.12512387160E+03  0.12512387170E+03  0.50400001928E-02 0.  1.
        1   -1    0    0  501    0  0.00000000000E+00  0.00000000000E+00 -0.16485626955E+04  0.16485626955E+04  0.50400001928E-02 0. -1.
    10030    2    1    2    0    0  0.00000000000E+00  0.00000000000E+00 -0.15234388239E+04  0.17736865672E+04  0.90834915563E+03 0.  0.
        3    1    3    3  502    0  0.11952413336E+02  0.20042244101E+03  0.33760236088E+02  0.20359709916E+03  0.10100000352E+00 0.  1.
       -3    1    3    3    0  502 -0.11952413336E+02 -0.20042244101E+03 -0.15571990600E+04  0.15700894681E+04  0.10100000352E+00 0. -1.
</event>
<event>
 5   0  0.2129280E-03  0.8994086E+03  0.7818609E-02  0.9426321E-01
       -1   -1    0    0    0  501  0.00000000000E+00  0.00000000000E+00  0.36708534971E+03  0.36708534975E+03  0.50400001928E-02 0. -1.
        1   -1    0    0  501    0  0.00000000000E+00  0.00000000000E+00 -0.55091804006E+03  0.55091804009E+03  0.50400001928E-02 0.  1.
    10030    2    1    2    0    0  0.00000000000E+00  0.00000000000E+00 -0.18383269035E+03  0.91800338984E+03  0.89940856440E+03 0.  0.
        3    1    3    3  502    0  0.15809649219E+03  0.41119085134E+03 -0.18412520146E+03  0.47746677066E+03  0.10100000352E+00 0.  1.
       -3    1    3    3    0  502 -0.15809649219E+03 -0.41119085134E+03  0.29251110946E+00  0.44053661918E+03  0.10100000352E+00 0. -1.
</event>
<event>
 5   0  0.3685879E-03  0.8872786E+03  0.7818609E-02  0.9441625E-01
        2   -1    0    0  501    0  0.00000000000E+00  0.00000000000E+00  0.96605565960E+03  0.96605565960E+03  0.25500000920E-02 0.  1.
       -2   -1    0    0    0  501  0.00000000000E+00  0.00000000000E+00 -0.20373137134E+03  0.20373137135E+03  0.25500000920E-02 0. -1.
    10030    2    1    2    0    0  0.00000000000E+00  0.00000000000E+00  0.76232428826E+03  0.11697870310E+04  0.88727863567E+03 0.  0.
        1    1    3    3  502    0 -0.33820272578E+03  0.27833086427E+03  0.47407596714E+03  0.64544339518E+03  0.50400001928E-02 0.  1.
       -1    1    3    3    0  502  0.33820272578E+03 -0.27833086427E+03  0.28824832112E+03  0.52434363578E+03  0.50400001928E-02 0. -1.
</event>
<event>
 5   0  0.2295158E-03  0.9015227E+03  0.7818609E-02  0.9423680E-01
       -1   -1    0    0    0  501  0.00000000000E+00  0.00000000000E+00  0.82601460982E+03  0.82601460984E+03  0.50400001928E-02 0. -1.
        1   -1    0    0  501    0  0.00000000000E+00  0.00000000000E+00 -0.24598330454E+03  0.24598330459E+03  0.50400001928E-02 0.  1.
    10030    2    1    2    0    0  0.00000000000E+00  0.00000000000E+00  0.58003130528E+03  0.10719979144E+04  0.90152271931E+03 0.  0.
        4    1    3    3  502    0  0.39827885344E+03  0.19518980154E+03  0.38558152374E+03  0.58770726392E+03  0.12699999809E+01 0. -1.
       -4    1    3    3    0  502 -0.39827885344E+03 -0.19518980154E+03  0.19444978155E+03  0.48429065051E+03  0.12699999809E+01 0.  1.
</event>
<event>
 5   0  0.2134145E-03  0.9018045E+03  0.7818609E-02  0.9423329E-01
       -1   -1    0    0    0  501  0.00000000000E+00  0.00000000000E+00  0.95848406547E+03  0.95848406548E+03  0.50400001928E-02 0. -1.
        1   -1    0    0  501    0  0.00000000000E+00  0.00000000000E+00 -0.21211915343E+03  0.21211915349E+03  0.50400001928E-02 0.  1.
    10030    2    1    2    0    0  0.00000000000E+00  0.00000000000E+00  0.74636491204E+03  0.11706032190E+04  0.90180447678E+03 0.  0.
        1    1    3    3  502    0 -0.27585057507E+03  0.23580504882E+03  0.25806194410E+02  0.36381797717E+03  0.50400001928E-02 0.  1.
       -1    1    3    3    0  502  0.27585057507E+03 -0.23580504882E+03  0.72055871763E+03  0.80678524180E+03  0.50400001928E-02 0. -1.
</event>
<event>
 5   0  0.3806019E-03  0.8974490E+03  0.7818609E-02  0.9428776E-01
       -2   -1    0    0    0  501  0.00000000000E+00  0.00000000000E+00  0.35559486684E+03  0.35559486685E+03  0.25500000920E-02 0.  1.
        2   -1    0    0  501    0  0.00000000000E+00  0.00000000000E+00 -0.56624467098E+03  0.56624467099E+03  0.25500000920E-02 0. -1.
    10030    2    1    2    0    0  0.00000000000E+00  0.00000000000E+00 -0.21064980415E+03  0.92183953784E+03  0.89744904787E+03 0.  0.
        2    1    3    3  502    0 -0.35635579795E+03  0.19926088630E+02  0.17403566509E+03  0.39708300954E+03  0.25500000920E-02 0.  1.
       -2    1    3    3    0  502  0.35635579795E+03 -0.19926088630E+02 -0.38468546924E+03  0.52475652829E+03  0.25500000920E-02 0. -1.
</event>
<event>
 5   0  0.2129280E-03  0.8673808E+03  0.7818609E-02  0.9467301E-01
        1   -1    0    0  501    0  0.00000000000E+00  0.00000000000E+00  0.10837380613E+04  0.10837380613E+04  0.50400001928E-02 0.  1.
       -1   -1    0    0    0  501  0.00000000000E+00  0.00000000000E+00 -0.17355428313E+03  0.17355428320E+03  0.50400001928E-02 0. -1.
    10030    2    1    2    0    0  0.00000000000E+00  0.00000000000E+00  0.91018377814E+03  0.12572923445E+04  0.86738084455E+03 0.  0.
        3    1    3    3  502    0  0.33260958240E+03  0.26320550900E+03  0.58620080882E+03  0.72355903197E+03  0.10100000352E+00 0.  1.
       -3    1    3    3    0  502 -0.33260958240E+03 -0.26320550900E+03  0.32398296931E+03  0.53373331251E+03  0.10100000352E+00 0. -1.
</event>
<event>
 5   0  0.1436000E-03  0.9015220E+03  0.7818609E-02  0.9423681E-01
        3   -1    0    0  501    0  0.00000000000E+00  0.00000000000E+00  0.37498912288E+03  0.37498913648E+03  0.10100000352E+00 0.  1.
       -3   -1    0    0    0  501  0.00000000000E+00  0.00000000000E+00 -0.54184366111E+03  0.54184367052E+03  0.10100000352E+00 0. -1.
    10030    2    1    2    0    0  0.00000000000E+00  0.00000000000E+00 -0.16685453823E+03  0.91683280700E+03  0.90152202362E+03 0.  0.
        1    1    3    3  502    0 -0.82467258277E+02 -0.50948683310E+02 -0.53111812371E+03  0.53989172838E+03  0.50400001928E-02 0. -1.
       -1    1    3    3    0  502  0.82467258277E+02  0.50948683310E+02  0.36426358548E+03  0.37694107862E+03  0.50400001928E-02 0.  1.
</event>
<event>
 5   0  0.3626546E-03  0.8987394E+03  0.7818609E-02  0.9427159E-01
       -2   -1    0    0    0  501  0.00000000000E+00  0.00000000000E+00  0.12662555249E+03  0.12662555252E+03  0.25500000920E-02 0. -1.
        2   -1    0    0  501    0  0.00000000000E+00  0.00000000000E+00 -0.15947265584E+04  0.15947265584E+04  0.25500000920E-02 0.  1.
    10030    2    1    2    0    0  0.00000000000E+00  0.00000000000E+00 -0.14681010059E+04  0.17213521109E+04  0.89873940951E+03 0.  0.
        3    1    3    3  502    0  0.29741253496E+03  0.29434566742E+03 -0.10478291686E+04  0.11282905498E+04  0.10100000352E+00 0.  1.
       -3    1    3    3    0  502 -0.29741253496E+03 -0.29434566742E+03 -0.42027183723E+03  0.59306156110E+03  0.10100000352E+00 0. -1.
</event>
<event>
 5   0  0.2134145E-03  0.8956314E+03  0.7818609E-02  0.9431059E-01
        1   -1    0    0  501    0  0.00000000000E+00  0.00000000000E+00  0.40996853514E+03  0.40996853517E+03  0.50400001928E-02 0.  1.
       -1   -1    0    0    0  501  0.00000000000E+00  0.00000000000E+00 -0.48915677315E+03  0.48915677318E+03  0.50400001928E-02 0. -1.
    10030    2    1    2    0    0  0.00000000000E+00  0.00000000000E+00 -0.79188238014E+02  0.89912530835E+03  0.89563136561E+03 0.  0.
        1    1    3    3  502    0 -0.80246280497E+02 -0.27606295623E+03  0.30509450595E+03  0.41920505594E+03  0.50400001928E-02 0.  1.
       -1    1    3    3    0  502  0.80246280497E+02  0.27606295623E+03 -0.38428274396E+03  0.47992025241E+03  0.50400001928E-02 0. -1.
</event>
<event>
 5   0  0.3806019E-03  0.8990171E+03  0.7818609E-02  0.9426811E-01
        2   -1    0    0  501    0  0.00000000000E+00  0.00000000000E+00  0.24350288471E+04  0.24350288471E+04  0.25500000920E-02 0. -1.
       -2   -1    0    0    0  501  0.00000000000E+00  0.00000000000E+00 -0.82979688324E+02  0.82979688363E+02  0.25500000920E-02 0.  1.
    10030    2    1    2    0    0  0.00000000000E+00  0.00000000000E+00  0.23520491588E+04  0.25180085355E+04  0.89901709626E+03 0.  0.
        2    1    3    3  502    0 -0.13844761952E+03  0.13632857893E+03  0.40715126335E+02  0.19852190383E+03  0.25500000920E-02 0.  1.
       -2    1    3    3    0  502  0.13844761952E+03 -0.13632857893E+03  0.23113340324E+04  0.23194866316E+04  0.25500000920E-02 0. -1.
</event>
<event>
 5   0  0.2074970E-03  0.9001431E+03  0.7818609E-02  0.9425403E-01
        1   -1    0    0  501    0  0.00000000000E+00  0.00000000000E+00  0.63157783792E+03  0.63157783794E+03  0.50400001928E-02 0.  1.
       -1   -1    0    0    0  501  0.00000000000E+00  0.00000000000E+00 -0.32072750148E+03  0.32072750152E+03  0.50400001928E-02 0. -1.
    10030    2    1    2    0    0  0.00000000000E+00  0.00000000000E+00  0.31085033644E+03  0.95230533946E+03  0.90014305969E+03 0.  0.
        2    1    3    3  502    0 -0.87292537965E+02 -0.28060121234E+03 -0.20522113855E+03  0.35843094630E+03  0.25500000920E-02 0. -1.
       -2    1    3    3    0  502  0.87292537965E+02  0.28060121234E+03  0.51607147499E+03  0.59387439316E+03  0.25500000920E-02 0.  1.
</event>
<event>
 5   0  0.3626546E-03  0.8951609E+03  0.7818609E-02  0.9431651E-01
       -2   -1    0    0    0  501  0.00000000000E+00  0.00000000000E+00  0.14101103014E+03  0.14101103016E+03  0.25500000920E-02 0. -1.
        2   -1    0    0  501    0  0.00000000000E+00  0.00000000000E+00 -0.14206568147E+04  0.14206568147E+04  0.25500000920E-02 0.  1.
    10030    2    1    2    0    0  0.00000000000E+00  0.00000000000E+00 -0.12796457846E+04  0.15616678449E+04  0.89516094852E+03 0.  0.
        3    1    3    3  502    0  0.37458822076E+03 -0.88850843440E+02 -0.24155144278E+03  0.45448643238E+03  0.10100000352E+00 0. -1.
       -3    1    3    3    0  502 -0.37458822076E+03  0.88850843440E+02 -0.10380943418E+04  0.11071814125E+04  0.10100000352E+00 0.  1.
</event>
<event>
 5   0  0.3815269E-03  0.9033055E+03  0.7818609E-02  0.9421459E-01
        2   -1    0    0  501    0  0.00000000000E+00  0.00000000000E+00  0.85151895600E+03  0.85151895601E+03  0.25500000920E-02 0.  1.
       -2   -1    0    0    0  501  0.00000000000E+00  0.00000000000E+00 -0.23956040144E+03  0.23956040145E+03  0.25500000920E-02 0. -1.
    10030    2    1    2    0    0  0.00000000000E+00  0.00000000000E+00  0.61195855456E+03  0.10910793575E+04  0.90330553623E+03 0.  0.
        5    1    3    3  502    0  0.28675355215E+03  0.34440780888E+03  0.37348846658E+03  0.58340385939E+03  0.46999998093E+01 0.  1.
       -5    1    3    3    0  502 -0.28675355215E+03 -0.34440780888E+03  0.23847008798E+03  0.50767549807E+03  0.46999998093E+01 0. -1.
</event>
<event>
 5   0  0.2074970E-03  0.9129562E+03  0.7818609E-02  0.9409529E-01
        1   -1    0    0  501    0  0.00000000000E+00  0.00000000000E+00  0.74196647590E+03  0.74196647591E+03  0.50400001928E-02 0.  1.
       -1   -1    0    0    0  501  0.00000000000E+00  0.00000000000E+00 -0.28083784122E+03  0.28083784126E+03  0.50400001928E-02 0. -1.
    10030    2    1    2    0    0  0.00000000000E+00  0.00000000000E+00  0.46112863468E+03  0.10228043172E+04  0.91295621665E+03 0.  0.
        2    1    3    3  502    0  0.12063734765E+03  0.26733807323E+02 -0.26174545778E+03  0.28944559209E+03  0.25500000920E-02 0. -1.
       -2    1    3    3    0  502 -0.12063734765E+03 -0.26733807323E+02  0.72287409246E+03  0.73335872509E+03  0.25500000920E-02 0.  1.
</event>
<event>
 5   0  0.3626546E-03  0.9003253E+03  0.7818609E-02  0.9425175E-01
        2   -1    0    0  501    0  0.00000000000E+00  0.00000000000E+00  0.39825691798E+03  0.39825691799E+03  0.25500000920E-02 0. -1.
       -2   -1    0    0    0  501  0.00000000000E+00  0.00000000000E+00 -0.50883332710E+03  0.50883332710E+03  0.25500000920E-02 0.  1.
    10030    2    1    2    0    0  0.00000000000E+00  0.00000000000E+00 -0.11057640911E+03  0.90709024509E+03  0.90032525817E+03 0.  0.
        3    1    3    3  502    0  0.17146194058E+03 -0.37629339440E+03  0.12395434855E+03  0.43169503873E+03  0.10100000352E+00 0.  1.
       -3    1    3    3    0  502 -0.17146194058E+03  0.37629339440E+03 -0.23453075767E+03  0.47539520636E+03  0.10100000352E+00 0. -1.
</event>
<event>
 5   0  0.3685879E-03  0.9117059E+03  0.7818609E-02  0.9411066E-01
        2   -1    0    0  501    0  0.00000000000E+00  0.00000000000E+00  0.58224525466E+03  0.58224525467E+03  0.25500000920E-02 0.  1.
       -2   -1    0    0    0  501  0.00000000000E+00  0.00000000000E+00 -0.35689753859E+03  0.35689753860E+03  0.25500000920E-02 0. -1.
    10030    2    1    2    0    0  0.00000000000E+00  0.00000000000E+00  0.22534771607E+03  0.93914279327E+03  0.91170586979E+03 0.  0.
        1    1    3    3  502    0  0.23207650415E+03 -0.56079295450E+02 -0.28733900806E+03  0.37358813784E+03  0.50400001928E-02 0. -1.
       -1    1    3    3    0  502 -0.23207650415E+03  0.56079295450E+02  0.51268672412E+03  0.56555465543E+03  0.50400001928E-02 0.  1.
</event>
<event>
 5   0  0.2129280E-03  0.9019283E+03  0.7818609E-02  0.9423174E-01
       -1   -1    0    0    0  501  0.00000000000E+00  0.00000000000E+00  0.24036875096E+03  0.24036875101E+03  0.50400001928E-02 0. -1.
        1   -1    0    0  501    0  0.00000000000E+00  0.00000000000E+00 -0.84606954316E+03  0.84606954317E+03  0.50400001928E-02 0.  1.
    10030    2    1    2    0    0  0.00000000000E+00  0.00000000000E+00 -0.60570079220E+03  0.10864382942E+04  0.90192833274E+03 0.  0.
        3    1    3    3  502    0 -0.27547684903E+03  0.34289988504E+03 -0.18299181393E+03  0.47639672509E+03  0.10100000352E+00 0.  1.
       -3    1    3    3    0  502  0.27547684903E+03 -0.34289988504E+03 -0.42270897827E+03  0.61004156909E+03  0.10100000352E+00 0. -1.
</event>
<event>
 5   0  0.3626546E-03  0.8999191E+03  0.7818609E-02  0.9425683E-01
       -2   -1    0    0    0  501  0.00000000000E+00  0.00000000000E+00  0.26783850750E+03  0.26783850751E+03  0.25500000920E-02 0.  1.
        2   -1    0    0  501    0  0.00000000000E+00  0.00000000000E+00 -0.75591673068E+03  0.75591673068E+03  0.25500000920E-02 0. -1.
    10030    2    1    2    0    0  0.00000000000E+00  0.00000000000E+00 -0.48807822318E+03  0.10237552382E+04  0.89991912736E+03 0.  0.
        3    1    3    3  502    0  0.34379837394E+03 -0.23427139125E+03 -0.49035730615E+02  0.41890920228E+03  0.10100000352E+00 0.  1.
       -3    1    3    3    0  502 -0.34379837394E+03  0.23427139125E+03 -0.43904249256E+03  0.60484603591E+03  0.10100000352E+00 0. -1.
</event>
<event>
 5   0  0.2295158E-03  0.8998739E+03  0.7818609E-02  0.9425739E-01
        1   -1    0    0  501    0  0.00000000000E+00  0.00000000000E+00  0.94834410001E+03  0.94834410002E+03  0.50400001928E-02 0.  1.
       -1   -1    0    0    0  501  0.00000000000E+00  0.00000000000E+00 -0.21347024661E+03  0.21347024666E+03  0.50400001928E-02 0. -1.
    10030    2    1    2    0    0  0.00000000000E+00  0.00000000000E+00  0.73487385340E+03  0.11618143467E+04  0.89987387769E+03 0.  0.
        4    1    3    3  502    0  0.74757377066E+02  0.29195842579E+03 -0.63896349234E+02  0.30807911997E+03  0.12699999809E+01 0. -1.
       -4    1    3    3    0  502 -0.74757377066E+02 -0.29195842579E+03  0.79877020264E+03  0.85373522672E+03  0.12699999809E+01 0.  1.
</event>
<event>
 5   0  0.2134145E-03  0.9101228E+03  0.7818609E-02  0.9413015E-01
       -1   -1    0    0    0  501  0.00000000000E+00  0.00000000000E+00  0.68930296777E+03  0.68930296778E+03  0.50400001928E-02 0.  1.
        1   -1    0    0  501    0  0.00000000000E+00  0.00000000000E+00 -0.30042067444E+03  0.30042067448E+03  0.50400001928E-02 0. -1.
    10030    2    1    2    0    0  0.00000000000E+00  0.00000000000E+00  0.38888229333E+03  0.98972364226E+03  0.91012276644E+03 0.  0.
        1    1    3    3  502    0 -0.19668489573E+03 -0.25180065900E+03 -0.15792386552E+03  0.35641053213E+03  0.50400001928E-02 0. -1.
       -1    1    3    3    0  502  0.19668489573E+03  0.25180065900E+03  0.54680615885E+03  0.63331311014E+03  0.50400001928E-02 0.  1.
</event>
<event>
 5   0  0.2129280E-03  0.9044762E+03  0.7818609E-02  0.9420003E-01
        1   -1    0    0  501    0  0.00000000000E+00  0.00000000000E+00  0.92211284183E+03  0.92211284184E+03  0.50400001928E-02 0. -1.
       -1   -1    0    0    0  501  0.00000000000E+00  0.00000000000E+00 -0.22179423890E+03  0.22179423895E+03  0.50400001928E-02 0.  1.
    10030    2    1    2    0    0  0.00000000000E+00  0.00000000000E+00  0.70031860293E+03  0.11439070808E+04  0.90447623732E+03 0.  0.
        3    1    3    3  502    0 -0.40787704845E+03 -0.63092062301E+02  0.11635746560E+03  0.42881623684E+03  0.10100000352E+00 0.  1.
       -3    1    3    3    0  502  0.40787704845E+03  0.63092062301E+02  0.58396113734E+03  0.71509084395E+03  0.10100000352E+00 0. -1.
</event>
<event>
 5   0  0.3663255E-03  0.9019947E+03  0.7818609E-02  0.9423091E-01
        2   -1    0    0  501    0  0.00000000000E+00  0.00000000000E+00  0.19478223271E+04  0.19478223271E+04  0.25500000920E-02 0. -1.
       -2   -1    0    0    0  501  0.00000000000E+00  0.00000000000E+00 -0.10442359856E+03  0.10442359859E+03  0.25500000920E-02 0.  1.
    10030    2    1    2    0    0  0.00000000000E+00  0.00000000000E+00  0.18433987285E+04  0.20522459257E+04  0.90199471569E+03 0.  0.
        4    1    3    3  502    0  0.35011468306E+01 -0.14833843016E+03 -0.47293666654E+02  0.15573969210E+03  0.12699999809E+01 0.  1.
       -4    1    3    3    0  502 -0.35011468306E+01  0.14833843016E+03  0.18906923952E+04  0.18965062336E+04  0.12699999809E+01 0. -1.
</event>
<event>
 5   0  0.3663255E-03  0.8990750E+03  0.7818609E-02  0.9426738E-01
       -2   -1    0    0    0  501  0.00000000000E+00  0.00000000000E+00  0.15575653479E+03  0.15575653481E+03  0.25500000920E-02 0.  1.
        2   -1    0    0  501    0  0.00000000000E+00  0.00000000000E+00 -0.12974348819E+04  0.12974348819E+04  0.25500000920E-02 0. -1.
    10030    2    1    2    0    0  0.00000000000E+00  0.00000000000E+00 -0.11416783471E+04  0.14531914167E+04  0.89907499428E+03 0.  0.
        4    1    3    3  502    0  0.16091664676E+03 -0.39615035135E+03 -0.34656616098E+03  0.55039893252E+03  0.12699999809E+01 0.  1.
       -4    1    3    3    0  502 -0.16091664676E+03  0.39615035135E+03 -0.79511218613E+03  0.90279248419E+03  0.12699999809E+01 0. -1.
</event>
<event>
 5   0  0.1436000E-03  0.9006550E+03  0.7818609E-02  0.9424763E-01
       -4   -1    0    0    0  501  0.00000000000E+00  0.00000000000E+00  0.23426697976E+03  0.23427042218E+03  0.12699999809E+01 0.  1.
        4   -1    0    0  501    0  0.00000000000E+00  0.00000000000E+00 -0.86564666973E+03  0.86564760134E+03  0.12699999809E+01 0. -1.
    10030    2    1    2    0    0  0.00000000000E+00  0.00000000000E+00 -0.63137968996E+03  0.10999180235E+04  0.90065495367E+03 0.  0.
        5    1    3    3  502    0  0.39443592538E+03  0.14833182253E+03 -0.50952035839E+03  0.66122243944E+03  0.46999998093E+01 0. -1.
       -5    1    3    3    0  502 -0.39443592538E+03 -0.14833182253E+03 -0.12185933158E+03  0.43869558408E+03  0.46999998093E+01 0.  1.
</event>
<event>
 5   0  0.2129280E-03  0.8986575E+03  0.7818609E-02  0.9427261E-01
       -1   -1    0    0    0  501  0.00000000000E+00  0.00000000000E+00  0.15265533597E+03  0.15265533606E+03  0.50400001928E-02 0. -1.
        1   -1    0    0  501    0  0.00000000000E+00  0.00000000000E+00 -0.13225631029E+04  0.13225631029E+04  0.50400001928E-02 0.  1.
    10030    2    1    2    0    0  0.00000000000E+00  0.00000000000E+00 -0.11699077669E+04  0.14752184389E+04  0.89865747620E+03 0.  0.
        3    1    3    3  502    0  0.12920107423E+03 -0.22001664707E+03  0.22200225136E+02  0.25611150456E+03  0.10100000352E+00 0. -1.
       -3    1    3    3    0  502 -0.12920107423E+03  0.22001664707E+03 -0.11921079920E+04  0.12191069344E+04  0.10100000352E+00 0.  1.
</event>
<event>
 5   0  0.2130975E-03  0.8990720E+03  0.7818609E-02  0.9426742E-01
        1   -1    0    0  501    0  0.00000000000E+00  0.00000000000E+00  0.53496627571E+03  0.53496627573E+03  0.50400001928E-02 0.  1.
       -1   -1    0    0    0  501  0.00000000000E+00  0.00000000000E+00 -0.37774829825E+03  0.37774829829E+03  0.50400001928E-02 0. -1.
    10030    2    1    2    0    0  0.00000000000E+00  0.00000000000E+00  0.15721797745E+03  0.91271457401E+03  0.89907196663E+03 0.  0.
        5    1    3    3  502    0 -0.35237788905E+03  0.25795606046E+03 -0.29539240411E+02  0.43772841185E+03  0.46999998093E+01 0. -1.
       -5    1    3    3    0  502  0.35237788905E+03 -0.25795606046E+03  0.18675721786E+03  0.47498616216E+03  0.46999998093E+01 0.  1.
</event>
<event>
 5   0  0.3806019E-03  0.8977805E+03  0.7818609E-02  0.9428360E-01
       -2   -1    0    0    0  501  0.00000000000E+00  0.00000000000E+00  0.19921724939E+03  0.19921724941E+03  0.25500000920E-02 0.  1.
        2   -1    0    0  501    0  0.00000000000E+00  0.00000000000E+00 -0.10114709685E+04  0.10114709685E+04  0.25500000920E-02 0. -1.
    10030    2    1    2    0    0  0.00000000000E+00  0.00000000000E+00 -0.81225371906E+03  0.12106882179E+04  0.89778051702E+03 0.  0.
        2    1    3    3  502    0 -0.48364650659E+02  0.62301237577E+02  0.18980021069E+03  0.20553516395E+03  0.25500000920E-02 0.  1.
       -2    1    3    3    0  502  0.48364650659E+02 -0.62301237577E+02 -0.10020539298E+04  0.10051530539E+04  0.25500000920E-02 0. -1.
</event>
<event>
 5   0  0.3626546E-03  0.9012194E+03  0.7818609E-02  0.9424058E-01
       -2   -1    0    0    0  501  0.00000000000E+00  0.00000000000E+00  0.18372524398E+03  0.18372524399E+03  0.25500000920E-02 0.  1.
        2   -1    0    0  501    0  0.00000000000E+00  0.00000000000E+00 -0.11051779940E+04  0.11051779940E+04  0.25500000920E-02 0. -1.
    10030    2    1    2    0    0  0.00000000000E+00  0.00000000000E+00 -0.92145275000E+03  0.12889032380E+04  0.90121938859E+03 0.  0.
        3    1    3    3  502    0  0.44748526428E+03 -0.26971224801E+02 -0.52593017671E+03  0.69106661740E+03  0.10100000352E+00 0. -1.
       -3    1    3    3    0  502 -0.44748526428E+03  0.26971224801E+02 -0.39552257329E+03  0.59783662057E+03  0.10100000352E+00 0.  1.
</event>
<event>
 5   0  0.3685879E-03  0.8997722E+03  0.7818609E-02  0.9425866E-01
       -2   -1    0    0    0  501  0.00000000000E+00  0.00000000000E+00  0.14115811488E+03  0.14115811491E+03  0.25500000920E-02 0.  1.
        2   -1    0    0  501    0  0.00000000000E+00  0.00000000000E+00 -0.14338354754E+04  0.14338354754E+04  0.25500000920E-02 0. -1.
    10030    2    1    2    0    0  0.00000000000E+00  0.00000000000E+00 -0.12926773605E+04  0.15749935903E+04  0.89977222181E+03 0.  0.
        1    1    3    3  502    0  0.63129216839E+02 -0.40278062820E+03 -0.97928971763E+03  0.10607666490E+04  0.50400001928E-02 0. -1.
       -1    1    3    3    0  502 -0.63129216839E+02  0.40278062820E+03 -0.31338764292E+03  0.51422694137E+03  0.50400001928E-02 0.  1.
</event>
<event>
 5   0  0.3806019E-03  0.8978913E+03  0.7818609E-02  0.9428221E-01
        2   -1    0    0  501    0  0.00000000000E+00  0.00000000000E+00  0.14326511404E+04  0.14326511404E+04  0.25500000920E-02 0. -1.
       -2   -1    0    0    0  501  0.00000000000E+00  0.00000000000E+00 -0.14068476785E+03  0.14068476788E+03  0.25500000920E-02 0.  1.
    10030    2    1    2    0    0  0.00000000000E+00  0.00000000000E+00  0.12919663725E+04  0.15733359083E+04  0.89789129214E+03 0.  0.
        2    1    3    3  502    0  0.52856817867E+02  0.44582288527E+03  0.64501563897E+03  0.78587343940E+03  0.25500000920E-02 0. -1.
       -2    1    3    3    0  502 -0.52856817867E+02 -0.44582288527E+03  0.64695073357E+03  0.78746246888E+03  0.25500000920E-02 0.  1.
</event>
<event>
 5   0  0.3626546E-03  0.8960404E+03  0.7818609E-02  0.9430545E-01
        2   -1    0    0  501    0  0.00000000000E+00  0.00000000000E+00  0.53031877591E+03  0.53031877591E+03  0.25500000920E-02 0. -1.
       -2   -1    0    0    0  501  0.00000000000E+00  0.00000000000E+00 -0.37849327636E+03  0.37849327637E+03  0.25500000920E-02 0.  1.
    10030    2    1    2    0    0  0.00000000000E+00  0.00000000000E+00  0.15182549955E+03  0.90881205229E+03  0.89604038082E+03 0.  0.
        3    1    3    3  502    0 -0.16988488872E+03 -0.41445779912E+03  0.66510333044E+02  0.45283526505E+03  0.10100000352E+00 0. -1.
       -3    1    3    3    0  502  0.16988488872E+03  0.41445779912E+03  0.85315166502E+02  0.45597678724E+03  0.10100000352E+00 0.  1.
</event>
<event>
 5   0  0.2129280E-03  0.9016828E+03  0.7818609E-02  0.9423480E-01
        1   -1    0    0  501    0  0.00000000000E+00  0.00000000000E+00  0.65769215135E+03  0.65769215137E+03  0.50400001928E-02 0. -1.
       -1   -1    0    0    0  501  0.00000000000E+00  0.00000000000E+00 -0.30904726810E+03  0.30904726814E+03  0.50400001928E-02 0.  1.
    10030    2    1    2    0    0  0.00000000000E+00  0.00000000000E+00  0.34864488325E+03  0.96673941951E+03  0.90168278824E+03 0.  0.
        3    1    3    3  502    0  0.43376813671E+03  0.37003437230E+02  0.48675299575E+02  0.43805632717E+03  0.10100000352E+00 0.  1.
       -3    1    3    3    0  502 -0.43376813671E+03 -0.37003437230E+02  0.29996958368E+03  0.52868309233E+03  0.10100000352E+00 0. -1.
</event>
<event>
 5   0  0.3815269E-03  0.9016404E+03  0.7818609E-02  0.9423533E-01
       -2   -1    0    0    0  501  0.00000000000E+00  0.00000000000E+00  0.26043208137E+03  0.26043208139E+03  0.25500000920E-02 0.  1.
        2   -1    0    0  501    0  0.00000000000E+00  0.00000000000E+00 -0.78039099757E+03  0.78039099758E+03  0.25500000920E-02 0. -1.
    10030    2    1    2    0    0  0.00000000000E+00  0.00000000000E+00 -0.51995891620E+03  0.10408230790E+04  0.90164039793E+03 0.  0.
        5    1    3    3  502    0 -0.12179824894E+03  0.12934750559E+03  0.21828371075E+03  0.28148793762E+03  0.46999998093E+01 0.  1.
       -5    1    3    3    0  502  0.12179824894E+03 -0.12934750559E+03 -0.73824262695E+03  0.75933514135E+03  0.46999998093E+01 0. -1.
</event>
<event>
 5   0  0.2130975E-03  0.8988424E+03  0.7818609E-02  0.9427030E-01
        1   -1    0    0  501    0  0.00000000000E+00  0.00000000000E+00  0.21279086668E+03  0.21279086674E+03  0.50400001928E-02 0.  1.
       -1   -1    0    0    0  501  0.00000000000E+00  0.00000000000E+00 -0.94919222435E+03  0.94919222436E+03  0.50400001928E-02 0. -1.
    10030    2    1    2    0    0  0.00000000000E+00  0.00000000000E+00 -0.73640135767E+03  0.11619830911E+04  0.89884244694E+03 0.  0.
        5    1    3    3  502    0 -0.24335263113E+02 -0.11750851661E+03  0.19166358319E+03  0.22618018398E+03  0.46999998093E+01 0.  1.
       -5    1    3    3    0  502  0.24335263113E+02  0.11750851661E+03 -0.92806494086E+03  0.93580290712E+03  0.46999998093E+01 0. -1.
</event>
<event>
 5   0  0.2129280E-03  0.9007016E+03  0.7818609E-02  0.9424705E-01
       -1   -1    0    0    0  501  0.00000000000E+00  0.00000000000E+00  0.20270003778E+03  0.20270003785E+03  0.50400001928E-02 0.  1.
        1   -1    0    0  501    0  0.00000000000E+00  0.00000000000E+00 -0.10005713349E+04  0.10005713349E+04  0.50400001928E-02 0. -1.
    10030    2    1    2    0    0  0.00000000000E+00  0.00000000000E+00 -0.79787129709E+03  0.12032713727E+04  0.90070160970E+03 0.  0.
        3    1    3    3  502    0  0.14572294749E+03  0.36743374802E+03 -0.11063194483E+03  0.41046580129E+03  0.10100000352E+00 0.  1.
       -3    1    3    3    0  502 -0.14572294749E+03 -0.36743374802E+03 -0.68723935226E+03  0.79280557144E+03  0.10100000352E+00 0. -1.
</event>
<event>
 5   0  0.3626546E-03  0.8988439E+03  0.7818609E-02  0.9427028E-01
       -2   -1    0    0    0  501  0.00000000000E+00  0.00000000000E+00  0.14459800530E+03  0.14459800532E+03  0.25500000920E-02 0.  1.
        2   -1    0    0  501    0  0.00000000000E+00  0.00000000000E+00 -0.13968385599E+04  0.13968385599E+04  0.25500000920E-02 0. -1.
    10030    2    1    2    0    0  0.00000000000E+00  0.00000000000E+00 -0.12522405546E+04  0.15414365652E+04  0.89884385632E+03 0.  0.
        3    1    3    3  502    0 -0.14839530894E+03  0.32085206879E+03 -0.15021230888E+03  0.38409759919E+03  0.10100000352E+00 0.  1.
       -3    1    3    3    0  502  0.14839530894E+03 -0.32085206879E+03 -0.11020282457E+04  0.11573389661E+04  0.10100000352E+00 0. -1.
</event>
<event>
 5   0  0.2134145E-03  0.9000115E+03  0.7818609E-02  0.9425567E-01
        1   -1    0    0  501    0  0.00000000000E+00  0.00000000000E+00  0.36066912755E+03  0.36066912759E+03  0.50400001928E-02 0. -1.
       -1   -1    0    0    0  501  0.00000000000E+00  0.00000000000E+00 -0.56147083397E+03  0.56147083399E+03  0.50400001928E-02 0.  1.
    10030    2    1    2    0    0  0.00000000000E+00  0.00000000000E+00 -0.20080170641E+03  0.92213996158E+03  0.90001154628E+03 0.  0.
        1    1    3    3  502    0  0.75658645040E+02  0.11574353696E+03 -0.53916381039E+03  0.55661334100E+03  0.50400001928E-02 0.  1.
       -1    1    3    3    0  502 -0.75658645040E+02 -0.11574353696E+03  0.33836210398E+03  0.36552662058E+03  0.50400001928E-02 0. -1.
</event>
<event>
 5   0  0.2129280E-03  0.9004791E+03  0.7818609E-02  0.9424983E-01
       -1   -1    0    0    0  501  0.00000000000E+00  0.00000000000E+00  0.21876245721E+03  0.21876245727E+03  0.50400001928E-02 0.  1.
        1   -1    0    0  501    0  0.00000000000E+00  0.00000000000E+00 -0.92664725636E+03  0.92664725638E+03  0.50400001928E-02 0. -1.
    10030    2    1    2    0    0  0.00000000000E+00  0.00000000000E+00 -0.70788479915E+03  0.11454097136E+04  0.90047905209E+03 0.  0.
        3    1    3    3  502    0  0.15859839210E+03  0.32524483847E+03 -0.13155555772E+02  0.36209216199E+03  0.10100000352E+00 0.  1.
       -3    1    3    3    0  502 -0.15859839210E+03 -0.32524483847E+03 -0.69472924338E+03  0.78331755166E+03  0.10100000352E+00 0. -1.
</event>
<event>
 5   0  0.2074970E-03  0.9006370E+03  0.7818609E-02  0.9424785E-01
        1   -1    0    0  501    0  0.00000000000E+00  0.00000000000E+00  0.20100851770E+04  0.20100851770E+04  0.50400001928E-02 0. -1.
       -1   -1    0    0    0  501  0.00000000000E+00  0.00000000000E+00 -0.10088466257E+03  0.10088466269E+03  0.50400001928E-02 0.  1.
    10030    2    1    2    0    0  0.00000000000E+00  0.00000000000E+00  0.19092005144E+04  0.21109698397E+04  0.90063703000E+03 0.  0.
        2    1    3    3  502    0 -0.11280316875E+03 -0.15885711884E+03  0.30189254308E+01  0.19485700656E+03  0.25500000920E-02 0.  1.
       -2    1    3    3    0  502  0.11280316875E+03  0.15885711884E+03  0.19061815890E+04  0.19161128331E+04  0.25500000920E-02 0. -1.
</event>
<event>
 5   0  0.2130975E-03  0.9022632E+03  0.7818609E-02  0.9422757E-01
        1   -1    0    0  501    0  0.00000000000E+00  0.00000000000E+00  0.17152400267E+04  0.17152400267E+04  0.50400001928E-02 0. -1.
       -1   -1    0    0    0  501  0.00000000000E+00  0.00000000000E+00 -0.11865379044E+03  0.11865379055E+03  0.50400001928E-02 0.  1.
    10030    2    1    2    0    0  0.00000000000E+00  0.00000000000E+00  0.15965862363E+04  0.18338938173E+04  0.90226322276E+03 0.  0.
        5    1    3    3  502    0  0.32303153351E+03 -0.21581518128E+02  0.14367932900E+04  0.14728245590E+04  0.46999998093E+01 0. -1.
       -5    1    3    3    0  502 -0.32303153351E+03  0.21581518128E+02  0.15979294633E+03  0.36106925826E+03  0.46999998093E+01 0.  1.
</event>
<event>
 5   0  0.3663255E-03  0.9019048E+03  0.7818609E-02  0.9423204E-01
       -2   -1    0    0    0  501  0.00000000000E+00  0.00000000000E+00  0.19438607484E+03  0.19438607485E+03  0.25500000920E-02 0. -1.
        2   -1    0    0  501    0  0.00000000000E+00  0.00000000000E+00 -0.10461554183E+04  0.10461554183E+04  0.25500000920E-02 0.  1.
    10030    2    1    2    0    0  0.00000000000E+00  0.00000000000E+00 -0.85176934350E+03  0.12405414932E+04  0.90190475207E+03 0.  0.
        4    1    3    3  502    0 -0.50448848370E+02 -0.80709211743E+02 -0.10321798022E+04  0.10365596076E+04  0.12699999809E+01 0.  1.
       -4    1    3    3    0  502  0.50448848370E+02  0.80709211743E+02  0.18041045867E+03  0.20398188561E+03  0.12699999809E+01 0. -1.
</event>
<event>
 5   0  0.3685879E-03  0.9040794E+03  0.7818609E-02  0.9420496E-01
       -2   -1    0    0    0  501  0.00000000000E+00  0.00000000000E+00  0.15898272737E+04  0.15898272737E+04  0.25500000920E-02 0. -1.
        2   -1    0    0  501    0  0.00000000000E+00  0.00000000000E+00 -0.12852962840E+03  0.12852962842E+03  0.25500000920E-02 0.  1.
    10030    2    1    2    0    0  0.00000000000E+00  0.00000000000E+00  0.14612976453E+04  0.17183569021E+04  0.90407944059E+03 0.  0.
        1    1    3    3  502    0 -0.16400414062E+03  0.37023322757E+03  0.11125365107E+04  0.11839372823E+04  0.50400001928E-02 0. -1.
       -1    1    3    3    0  502  0.16400414062E+03 -0.37023322757E+03  0.34876113462E+03  0.53441961976E+03  0.50400001928E-02 0.  1.
</event>
<event>
 5   0  0.2295158E-03  0.8954174E+03  0.7818609E-02  0.9431328E-01
       -1   -1    0    0    0  501  0.00000000000E+00  0.00000000000E+00  0.25811117224E+03  0.25811117229E+03  0.50400001928E-02 0.  1.
        1   -1    0    0  501    0  0.00000000000E+00  0.00000000000E+00 -0.77657654894E+03  0.77657654895E+03  0.50400001928E-02 0. -1.
    10030    2    1    2    0    0  0.00000000000E+00  0.00000000000E+00 -0.51846537669E+03  0.10346877212E+04  0.89541740751E+03 0.  0.
        4    1    3    3  502    0 -0.24280365123E+03 -0.20113412268E+03 -0.62652786002E+03  0.70138956410E+03  0.12699999809E+01 0. -1.
       -4    1    3    3    0  502  0.24280365123E+03  0.20113412268E+03  0.10806248333E+03  0.33329815714E+03  0.12699999809E+01 0.  1.
</event>
<event>
 5   0  0.3806019E-03  0.9041472E+03  0.7818609E-02  0.9420412E-01
       -2   -1    0    0    0  501  0.00000000000E+00  0.00000000000E+00  0.13474972136E+03  0.13474972138E+03  0.25500000920E-02 0.  1.
        2   -1    0    0  501    0  0.00000000000E+00  0.00000000000E+00 -0.15166676777E+04  0.15166676777E+04  0.25500000920E-02 0. -1.
    10030    2    1    2    0    0  0.00000000000E+00  0.00000000000E+00 -0.13819179563E+04  0.16514173991E+04  0.90414721585E+03 0.  0.
        2    1    3    3  502    0 -0.13295629117E+03  0.25799622338E+03 -0.13240198482E+04  0.13554585885E+04  0.25500000920E-02 0. -1.
       -2    1    3    3    0  502  0.13295629117E+03 -0.25799622338E+03 -0.57898108127E+02  0.29595881060E+03  0.25500000920E-02 0.  1.
</event>
<event>
 5   0  0.2130975E-03  0.8889008E+03  0.7818609E-02  0.9439563E-01
       -1   -1    0    0    0  501  0.00000000000E+00  0.00000000000E+00  0.11094667706E+04  0.11094667706E+04  0.50400001928E-02 0. -1.
        1   -1    0    0  501    0  0.00000000000E+00  0.00000000000E+00 -0.17804603241E+03  0.17804603248E+03  0.50400001928E-02 0.  1.
    10030    2    1    2    0    0  0.00000000000E+00  0.00000000000E+00  0.93142073817E+03  0.12875128031E+04  0.88890079682E+03 0.  0.
        5    1    3    3  502    0  0.13245878821E+02 -0.76609151357E+02  0.10995045304E+04  0.11022598231E+04  0.46999998093E+01 0. -1.
       -5    1    3    3    0  502 -0.13245878821E+02  0.76609151357E+02 -0.16808379220E+03  0.18525297994E+03  0.46999998093E+01 0.  1.
</event>
<event>
 5   0  0.3806019E-03  0.8568290E+03  0.7818609E-02  0.9481217E-01
        2   -1    0    0  501    0  0.00000000000E+00  0.00000000000E+00  0.42885953270E+03  0.42885953271E+03  0.25500000920E-02 0. -1.
       -2   -1    0    0    0  501  0.00000000000E+00  0.00000000000E+00 -0.42796990263E+03  0.42796990264E+03  0.25500000920E-02 0.  1.
    10030    2    1    2    0    0  0.00000000000E+00  0.00000000000E+00  0.88963007284E+00  0.85682943534E+03  0.85682897350E+03 0.  0.
        2    1    3    3  502    0  0.51566467186E+02  0.30869182971E+03 -0.29211170677E+03  0.42811096167E+03  0.25500000920E-02 0.  1.
       -2    1    3    3    0  502 -0.51566467186E+02 -0.30869182971E+03  0.29300133684E+03  0.42871847367E+03  0.25500000920E-02 0. -1.
</event>
<event>
 5   0  0.2074970E-03  0.8993603E+03  0.7818609E-02  0.9426381E-01
       -1   -1    0    0    0  501  0.00000000000E+00  0.00000000000E+00  0.44434138423E+03  0.44434138426E+03  0.50400001928E-02 0. -1.
        1   -1    0    0  501    0  0.00000000000E+00  0.00000000000E+00 -0.45508309273E+03  0.45508309276E+03  0.50400001928E-02 0.  1.
    10030    2    1    2    0    0  0.00000000000E+00  0.00000000000E+00 -0.10741708500E+02  0.89942447703E+03  0.89936033133E+03 0.  0.
        2    1    3    3  502    0 -0.40341045544E+03  0.14614545967E+03  0.12922611607E+03  0.44810476456E+03  0.25500000920E-02 0. -1.
       -2    1    3    3    0  502  0.40341045544E+03 -0.14614545967E+03 -0.13996782457E+03  0.45131971247E+03  0.25500000920E-02 0.  1.
</event>
<event>
 5   0  0.2074970E-03  0.9022014E+03  0.7818609E-02  0.9422834E-01
        1   -1    0    0  501    0  0.00000000000E+00  0.00000000000E+00  0.92357174218E+03  0.92357174219E+03  0.50400001928E-02 0.  1.
       -1   -1    0    0    0  501  0.00000000000E+00  0.00000000000E+00 -0.22033136285E+03  0.22033136291E+03  0.50400001928E-02 0. -1.
    10030    2    1    2    0    0  0.00000000000E+00  0.00000000000E+00  0.70324037933E+03  0.11439031051E+04  0.90220135377E+03 0.  0.
        2    1    3    3  502    0 -0.47999703677E+02 -0.26368054609E+03  0.81167903008E+03  0.85478315953E+03  0.25500000920E-02 0.  1.
       -2    1    3    3    0  502  0.47999703677E+02  0.26368054609E+03 -0.10843865075E+03  0.28911994557E+03  0.25500000920E-02 0. -1.
</event>
<event>
 5   0  0.2074970E-03  0.8996301E+03  0.7818609E-02  0.9426044E-01
        1   -1    0    0  501    0  0.00000000000E+00  0.00000000000E+00  0.12999106661E+04  0.12999106661E+04  0.50400001928E-02 0. -1.
       -1   -1    0    0    0  501  0.00000000000E+00  0.00000000000E+00 -0.15565189602E+03  0.15565189610E+03  0.50400001928E-02 0.  1.
    10030    2    1    2    0    0  0.00000000000E+00  0.00000000000E+00  0.11442587701E+04  0.14555625622E+04  0.89963005709E+03 0.  0.
        2    1    3    3  502    0 -0.22465228245E+03  0.76547539012E+02  0.11903612111E+04  0.12137907508E+04  0.25500000920E-02 0. -1.
       -2    1    3    3    0  502  0.22465228245E+03 -0.76547539012E+02 -0.46102441019E+02  0.24177181145E+03  0.25500000920E-02 0.  1.
</event>
<event>
 5   0  0.3663255E-03  0.8995673E+03  0.7818609E-02  0.9426123E-01
        2   -1    0    0  501    0  0.00000000000E+00  0.00000000000E+00  0.42100905947E+03  0.42100905947E+03  0.25500000920E-02 0.  1.
       -2   -1    0    0    0  501  0.00000000000E+00  0.00000000000E+00 -0.48052485493E+03  0.48052485494E+03  0.25500000920E-02 0. -1.
    10030    2    1    2    0    0  0.00000000000E+00  0.00000000000E+00 -0.59515795462E+02  0.90153391441E+03  0.89956726759E+03 0.  0.
        4    1    3    3  502    0 -0.10794383358E+03  0.52309137002E+02 -0.46419791999E+03  0.47944701360E+03  0.12699999809E+01 0. -1.
       -4    1    3    3    0  502  0.10794383358E+03 -0.52309137002E+02  0.40468212453E+03  0.42208690081E+03  0.12699999809E+01 0.  1.
</event>
<event>
 5   0  0.2130975E-03  0.9036335E+03  0.7818609E-02  0.9421051E-01
        1   -1    0    0  501    0  0.00000000000E+00  0.00000000000E+00  0.10684947868E+04  0.10684947868E+04  0.50400001928E-02 0. -1.
       -1   -1    0    0    0  501  0.00000000000E+00  0.00000000000E+00 -0.19105230745E+03  0.19105230751E+03  0.50400001928E-02 0.  1.
    10030    2    1    2    0    0  0.00000000000E+00  0.00000000000E+00  0.87744247935E+03  0.12595470943E+04  0.90363354201E+03 0.  0.
        5    1    3    3  502    0  0.26570194377E+03  0.36485090224E+03  0.41075337101E+03  0.61029019784E+03  0.46999998093E+01 0.  1.
       -5    1    3    3    0  502 -0.26570194377E+03 -0.36485090224E+03  0.46668910833E+03  0.64925689648E+03  0.46999998093E+01 0. -1.
</event>
<event>
 5   0  0.3815269E-03  0.9093600E+03  0.7818609E-02  0.9413956E-01
        2   -1    0    0  501    0  0.00000000000E+00  0.00000000000E+00  0.13698464154E+04  0.13698464154E+04  0.25500000920E-02 0.  1.
       -2   -1    0    0    0  501  0.00000000000E+00  0.00000000000E+00 -0.15091756107E+03  0.15091756109E+03  0.25500000920E-02 0. -1.
    10030    2    1    2    0    0  0.00000000000E+00  0.00000000000E+00  0.12189288543E+04  0.15207639765E+04  0.90935995088E+03 0.  0.
        5    1    3    3  502    0  0.25573275461E+03  0.14678458954E+03  0.30710068182E+02  0.29649646844E+03  0.46999998093E+01 0. -1.
       -5    1    3    3    0  502 -0.25573275461E+03 -0.14678458954E+03  0.11882187862E+04  0.12242675081E+04  0.46999998093E+01 0.  1.
</event>
<event>
 5   0  0.3815269E-03  0.9010597E+03  0.7818609E-02  0.9424258E-01
        2   -1    0    0  501    0  0.00000000000E+00  0.00000000000E+00  0.84865322031E+03  0.84865322031E+03  0.25500000920E-02 0.  1.
       -2   -1    0    0    0  501  0.00000000000E+00  0.00000000000E+00 -0.23917560792E+03  0.23917560794E+03  0.25500000920E-02 0. -1.
    10030    2    1    2    0    0  0.00000000000E+00  0.00000000000E+00  0.60947761239E+03  0.10878288283E+04  0.90105970922E+03 0.  0.
        5    1    3    3  502    0  0.43224263624E+03 -0.67582424291E+01  0.45780941071E+03  0.62967524721E+03  0.46999998093E+01 0.  1.
       -5    1    3    3    0  502 -0.43224263624E+03  0.67582424291E+01  0.15166820168E+03  0.45815358104E+03  0.46999998093E+01 0. -1.
</event>
<event>
 5   0  0.3663255E-03  0.8943605E+03  0.7818609E-02  0.9432659E-01
       -2   -1    0    0    0  501  0.00000000000E+00  0.00000000000E+00  0.15879758066E+03  0.15879758068E+03  0.25500000920E-02 0.  1.
        2   -1    0    0  501    0  0.00000000000E+00  0.00000000000E+00 -0.12592771345E+04  0.12592771345E+04  0.25500000920E-02 0. -1.
    10030    2    1    2    0    0  0.00000000000E+00  0.00000000000E+00 -0.11004795538E+04  0.14180747152E+04  0.89436046950E+03 0.  0.
        4    1    3    3  502    0 -0.25339060452E+03 -0.80585220658E+02 -0.11203143255E+04  0.11514367447E+04  0.12699999809E+01 0. -1.
       -4    1    3    3    0  502  0.25339060452E+03  0.80585220658E+02  0.19834771628E+02  0.26663797050E+03  0.12699999809E+01 0.  1.
</event>
<event>
 5   0  0.2295158E-03  0.9009814E+03  0.7818609E-02  0.9424355E-01
       -1   -1    0    0    0  501  0.00000000000E+00  0.00000000000E+00  0.53823697206E+03  0.53823697208E+03  0.50400001928E-02 0. -1.
        1   -1    0    0  501    0  0.00000000000E+00  0.00000000000E+00 -0.37704930251E+03  0.37704930255E+03  0.50400001928E-02 0.  1.
    10030    2    1    2    0    0  0.00000000000E+00  0.00000000000E+00  0.16118766955E+03  0.91528627463E+03  0.90098140919E+03 0.  0.
        4    1    3    3  502    0  0.20247887380E+03 -0.27128806633E+03  0.38254240299E+03  0.51081817925E+03  0.12699999809E+01 0. -1.
       -4    1    3    3    0  502 -0.20247887380E+03  0.27128806633E+03 -0.22135473344E+03  0.40446809538E+03  0.12699999809E+01 0.  1.
</event>
<event>
 5   0  0.2074970E-03  0.8897223E+03  0.7818609E-02  0.9438521E-01
        1   -1    0    0  501    0  0.00000000000E+00  0.00000000000E+00  0.11537104306E+04  0.11537104306E+04  0.50400001928E-02 0.  1.
       -1   -1    0    0    0  501  0.00000000000E+00  0.00000000000E+00 -0.17153477437E+03  0.17153477444E+03  0.50400001928E-02 0. -1.
    10030    2    1    2    0    0  0.00000000000E+00  0.00000000000E+00  0.98217565623E+03  0.13252452050E+04  0.88972233523E+03 0.  0.
        2    1    3    3  502    0  0.11242261311E+03  0.52419269049E+02 -0.14525453038E+03  0.19101178578E+03  0.25500000920E-02 0. -1.
       -2    1    3    3    0  502 -0.11242261311E+03 -0.52419269049E+02  0.11274301866E+04  0.11342334193E+04  0.25500000920E-02 0.  1.
</event>
<event>
 5   0  0.1436000E-03  0.8977952E+03  0.7818609E-02  0.9428342E-01
       -3   -1    0    0    0  501  0.00000000000E+00  0.00000000000E+00  0.41210608339E+03  0.41210609577E+03  0.10100000352E+00 0.  1.
        3   -1    0    0  501    0  0.00000000000E+00  0.00000000000E+00 -0.48897372222E+03  0.48897373265E+03  0.10100000352E+00 0. -1.
    10030    2    1    2    0    0  0.00000000000E+00  0.00000000000E+00 -0.76867638834E+02  0.90107982842E+03  0.89779520119E+03 0.  0.
        3    1    3    3  502    0  0.90412077690E+02 -0.43846099767E+03 -0.71518877299E+02  0.45336227267E+03  0.10100000352E+00 0. -1.
       -3    1    3    3    0  502 -0.90412077690E+02  0.43846099767E+03 -0.53487615353E+01  0.44771755575E+03  0.10100000352E+00 0.  1.
</event>
<event>
 5   0  0.3806019E-03  0.9003578E+03  0.7818609E-02  0.9425134E-01
        2   -1    0    0  501    0  0.00000000000E+00  0.00000000000E+00  0.18035074680E+04  0.18035074680E+04  0.25500000920E-02 0.  1.
       -2   -1    0    0    0  501  0.00000000000E+00  0.00000000000E+00 -0.11237051147E+03  0.11237051150E+03  0.25500000920E-02 0. -1.
    10030    2    1    2    0    0  0.00000000000E+00  0.00000000000E+00  0.16911369565E+04  0.19158779795E+04  0.90035783253E+03 0.  0.
        2    1    3    3  502    0 -0.19553652001E+03  0.21972894270E+03  0.15707626412E+04  0.15980646463E+04  0.25500000920E-02 0.  1.
       -2    1    3    3    0  502  0.19553652001E+03 -0.21972894270E+03  0.12037431529E+03  0.31781333311E+03  0.25500000920E-02 0. -1.
</event>
<event>
 5   0  0.2074970E-03  0.8965360E+03  0.7818609E-02  0.9429922E-01
        1   -1    0    0  501    0  0.00000000000E+00  0.00000000000E+00  0.41826998002E+03  0.41826998005E+03  0.50400001928E-02 0.  1.
       -1   -1    0    0    0  501  0.00000000000E+00  0.00000000000E+00 -0.48041743573E+03  0.48041743576E+03  0.50400001928E-02 0. -1.
    10030    2    1    2    0    0  0.00000000000E+00  0.00000000000E+00 -0.62147455715E+02  0.89868741581E+03  0.89653598092E+03 0.  0.
        2    1    3    3  502    0  0.13867081512E+02 -0.19445404913E+03 -0.43570006744E+03  0.47732506947E+03  0.25500000920E-02 0. -1.
       -2    1    3    3    0  502 -0.13867081512E+02  0.19445404913E+03  0.37355261173E+03  0.42136234633E+03  0.25500000920E-02 0.  1.
</event>
<event>
 5   0  0.3626546E-03  0.8986929E+03  0.7818609E-02  0.9427217E-01
        2   -1    0    0  501    0  0.00000000000E+00  0.00000000000E+00  0.13793852792E+04  0.13793852792E+04  0.25500000920E-02 0. -1.
       -2   -1    0    0    0  501  0.00000000000E+00  0.00000000000E+00 -0.14637840109E+03  0.14637840111E+03  0.25500000920E-02 0.  1.
    10030    2    1    2    0    0  0.00000000000E+00  0.00000000000E+00  0.12330068781E+04  0.15257636803E+04  0.89869285448E+03 0.  0.
        3    1    3    3  502    0  0.10997335574E+03  0.16577775900E+03 -0.67539135572E+02  0.21009033626E+03  0.10100000352E+00 0.  1.
       -3    1    3    3    0  502 -0.10997335574E+03 -0.16577775900E+03  0.13005460137E+04  0.13156733441E+04  0.10100000352E+00 0. -1.
</event>
<event>
 5   0  0.3815269E-03  0.8865377E+03  0.7818609E-02  0.9442568E-01
        2   -1    0    0  501    0  0.00000000000E+00  0.00000000000E+00  0.37023641364E+03  0.37023641365E+03  0.25500000920E-02 0.  1.
       -2   -1    0    0    0  501  0.00000000000E+00  0.00000000000E+00 -0.53070762843E+03  0.53070762844E+03  0.25500000920E-02 0. -1.
    10030    2    1    2    0    0  0.00000000000E+00  0.00000000000E+00 -0.16047121479E+03  0.90094404209E+03  0.88653773535E+03 0.  0.
        5    1    3    3  502    0  0.24339942287E+03  0.10933955001E+03 -0.43991748237E+03  0.51453658523E+03  0.46999998093E+01 0. -1.
       -5    1    3    3    0  502 -0.24339942287E+03 -0.10933955001E+03  0.27944626758E+03  0.38640745685E+03  0.46999998093E+01 0.  1.
</event>
<event>
 5   0  0.2130975E-03  0.9092290E+03  0.7818609E-02  0.9414118E-01
        1   -1    0    0  501    0  0.00000000000E+00  0.00000000000E+00  0.17010251273E+04  0.17010251273E+04  0.50400001928E-02 0. -1.
       -1   -1    0    0    0  501  0.00000000000E+00  0.00000000000E+00 -0.12149986751E+03  0.12149986762E+03  0.50400001928E-02 0.  1.
    10030    2    1    2    0    0  0.00000000000E+00  0.00000000000E+00  0.15795252598E+04  0.18225249949E+04  0.90922896501E+03 0.  0.
        5    1    3    3  502    0  0.24437156696E+03 -0.28729677852E+03  0.28110280486E+03  0.47042297838E+03  0.46999998093E+01 0.  1.
       -5    1    3    3    0  502 -0.24437156696E+03  0.28729677852E+03  0.12984224550E+04  0.13521020166E+04  0.46999998093E+01 0. -1.
</event>
<event>
 5   0  0.2129280E-03  0.8962505E+03  0.7818609E-02  0.9430281E-01
       -1   -1    0    0    0  501  0.00000000000E+00  0.00000000000E+00  0.13151573848E+03  0.13151573857E+03  0.50400001928E-02 0.  1.
        1   -1    0    0  501    0  0.00000000000E+00  0.00000000000E+00 -0.15269368232E+04  0.15269368232E+04  0.50400001928E-02 0. -1.
    10030    2    1    2    0    0  0.00000000000E+00  0.00000000000E+00 -0.13954210847E+04  0.16584525618E+04  0.89625046498E+03 0.  0.
        3    1    3    3  502    0  0.29188618320E+03 -0.33685205951E+03 -0.78349887476E+03  0.90140853717E+03  0.10100000352E+00 0. -1.
       -3    1    3    3    0  502 -0.29188618320E+03  0.33685205951E+03 -0.61192220994E+03  0.75704402459E+03  0.10100000352E+00 0.  1.
</event>
<event>
 5   0  0.3626546E-03  0.8971994E+03  0.7818609E-02  0.9429089E-01
        2   -1    0    0  501    0  0.00000000000E+00  0.00000000000E+00  0.13698335190E+04  0.13698335190E+04  0.25500000920E-02 0.  1.
       -2   -1    0    0    0  501  0.00000000000E+00  0.00000000000E+00 -0.14690958717E+03  0.14690958719E+03  0.25500000920E-02 0. -1.
    10030    2    1    2    0    0  0.00000000000E+00  0.00000000000E+00  0.12229239318E+04  0.15167431062E+04  0.89719936866E+03 0.  0.
        3    1    3    3  502    0  0.39659918305E+03  0.12366472624E+03  0.89764535262E+03  0.98911630550E+03  0.10100000352E+00 0. -1.
       -3    1    3    3    0  502 -0.39659918305E+03 -0.12366472624E+03  0.32527857921E+03  0.52762680070E+03  0.10100000352E+00 0.  1.
</event>
<event>
 5   0  0.3685879E-03  0.8951765E+03  0.7818609E-02  0.9431631E-01
       -2   -1    0    0    0  501  0.00000000000E+00  0.00000000000E+00  0.29094617599E+03  0.29094617601E+03  0.25500000920E-02 0.  1.
        2   -1    0    0  501    0  0.00000000000E+00  0.00000000000E+00 -0.68856468248E+03  0.68856468248E+03  0.25500000920E-02 0. -1.
    10030    2    1    2    0    0  0.00000000000E+00  0.00000000000E+00 -0.39761850648E+03  0.97951085849E+03  0.89517654415E+03 0.  0.
        1    1    3    3  502    0  0.41954752197E+03  0.30491075944E+02 -0.36613904194E+03  0.55768057790E+03  0.50400001928E-02 0. -1.
       -1    1    3    3    0  502 -0.41954752197E+03 -0.30491075944E+02 -0.31479464539E+02  0.42183028059E+03  0.50400001928E-02 0.  1.
</event>
<event>
 5   0  0.3685879E-03  0.8976019E+03  0.7818609E-02  0.9428584E-01
       -2   -1    0    0    0  501  0.00000000000E+00  0.00000000000E+00  0.17852829594E+03  0.17852829596E+03  0.25500000920E-02 0. -1.
        2   -1    0    0  501    0  0.00000000000E+00  0.00000000000E+00 -0.11282374621E+04  0.11282374621E+04  0.25500000920E-02 0.  1.
    10030    2    1    2    0    0  0.00000000000E+00  0.00000000000E+00 -0.94970916612E+03  0.13067657580E+04  0.89760194191E+03 0.  0.
        1    1    3    3  502    0 -0.32545612945E+02  0.68701811246E+02 -0.11187959009E+04  0.11213756836E+04  0.50400001928E-02 0.  1.
       -1    1    3    3    0  502  0.32545612945E+02 -0.68701811246E+02  0.16908673480E+03  0.18539007444E+03  0.50400001928E-02 0. -1.
</event>
<event>
 5   0  0.3806019E-03  0.8987654E+03  0.7818609E-02  0.9427126E-01
        2   -1    0    0  501    0  0.00000000000E+00  0.00000000000E+00  0.23696409644E+04  0.23696409644E+04  0.25500000920E-02 0.  1.
       -2   -1    0    0    0  501  0.00000000000E+00  0.00000000000E+00 -0.85221689318E+02  0.85221689356E+02  0.25500000920E-02 0. -1.
    10030    2    1    2    0    0  0.00000000000E+00  0.00000000000E+00  0.22844192750E+04  0.24548626537E+04  0.89876538898E+03 0.  0.
        2    1    3    3  502    0  0.40249229104E+03  0.19398286046E+03  0.10107795000E+04  0.11051265051E+04  0.25500000920E-02 0.  1.
       -2    1    3    3    0  502 -0.40249229104E+03 -0.19398286046E+03  0.12736397750E+04  0.13497361487E+04  0.25500000920E-02 0. -1.
</event>
<event>
 5   0  0.2134145E-03  0.8984244E+03  0.7818609E-02  0.9427553E-01
       -1   -1    0    0    0  501  0.00000000000E+00  0.00000000000E+00  0.95124642873E+03  0.95124642874E+03  0.50400001928E-02 0. -1.
        1   -1    0    0  501    0  0.00000000000E+00  0.00000000000E+00 -0.21213387556E+03  0.21213387562E+03  0.50400001928E-02 0.  1.
    10030    2    1    2    0    0  0.00000000000E+00  0.00000000000E+00  0.73911255316E+03  0.11633803044E+04  0.89842437986E+03 0.  0.
        1    1    3    3  502    0 -0.13348948337E+03  0.63280772827E+02  0.91889150832E+03  0.93069087374E+03  0.50400001928E-02 0. -1.
       -1    1    3    3    0  502  0.13348948337E+03 -0.63280772827E+02 -0.17977895516E+03  0.23268943062E+03  0.50400001928E-02 0.  1.
</event>
<event>
 5   0  0.3685879E-03  0.8995647E+03  0.7818609E-02  0.9426126E-01
        2   -1    0    0  501    0  0.00000000000E+00  0.00000000000E+00  0.11078159974E+04  0.11078159974E+04  0.25500000920E-02 0.  1.
       -2   -1    0    0    0  501  0.00000000000E+00  0.00000000000E+00 -0.18261530364E+03  0.18261530366E+03  0.25500000920E-02 0. -1.
    10030    2    1    2    0    0  0.00000000000E+00  0.00000000000E+00  0.92520069371E+03  0.12904313010E+04  0.89956468306E+03 0.  0.
        1    1    3    3  502    0 -0.11860927664E+03  0.25333835028E+03  0.96785556718E+03  0.10074685500E+04  0.50400001928E-02 0.  1.
       -1    1    3    3    0  502  0.11860927664E+03 -0.25333835028E+03 -0.42654873468E+02  0.28296275105E+03  0.50400001928E-02 0. -1.
</event>
<event>
 5   0  0.3663255E-03  0.8941329E+03  0.7818609E-02  0.9432945E-01
       -2   -1    0    0    0  501  0.00000000000E+00  0.00000000000E+00  0.14107132706E+03  0.14107132708E+03  0.25500000920E-02 0. -1.
        2   -1    0    0  501    0  0.00000000000E+00  0.00000000000E+00 -0.14167897418E+04  0.14167897418E+04  0.25500000920E-02 0.  1.
    10030    2    1    2    0    0  0.00000000000E+00  0.00000000000E+00 -0.12757184148E+04  0.15578610689E+04  0.89413289631E+03 0.  0.
        4    1    3    3  502    0 -0.12248774131E+03 -0.42555777027E+03 -0.74475464341E+03  0.86646624538E+03  0.12699999809E+01 0.  1.
       -4    1    3    3    0  502  0.12248774131E+03  0.42555777027E+03 -0.53096377136E+03  0.69139482353E+03  0.12699999809E+01 0. -1.
</event>
<event>
 5   0  0.3626546E-03  0.8995104E+03  0.7818609E-02  0.9426194E-01
       -2   -1    0    0    0  501  0.00000000000E+00  0.00000000000E+00  0.35696504259E+03  0.35696504260E+03  0.25500000920E-02 0. -1.
        2   -1    0    0  501    0  0.00000000000E+00  0.00000000000E+00 -0.56666544299E+03  0.56666544299E+03  0.25500000920E-02 0.  1.
    10030    2    1    2    0    0  0.00000000000E+00  0.00000000000E+00 -0.20970040040E+03  0.92363048560E+03  0.89951043129E+03 0.  0.
        3    1    3    3  502    0 -0.24139966063E+03  0.37682842023E+03 -0.15084289315E+03  0.47225739069E+03  0.10100000352E+00 0.  1.
       -3    1    3    3    0  502  0.24139966063E+03 -0.37682842023E+03 -0.58857507251E+02  0.45137309491E+03  0.10100000352E+00 0. -1.
</event>
<event>
 5   0  0.2129280E-03  0.8975682E+03  0.7818609E-02  0.9428626E-01
        1   -1    0    0  501    0  0.00000000000E+00  0.00000000000E+00  0.87312043620E+03  0.87312043622E+03  0.50400001928E-02 0.  1.
       -1   -1    0    0    0  501  0.00000000000E+00  0.00000000000E+00 -0.23067511748E+03  0.23067511753E+03  0.50400001928E-02 0. -1.
    10030    2    1    2    0    0  0.00000000000E+00  0.00000000000E+00  0.64244531873E+03  0.11037955538E+04  0.89756817954E+03 0.  0.
        3    1    3    3  502    0 -0.39604448257E+03 -0.15034153916E+03  0.13901296518E+03  0.44584574156E+03  0.10100000352E+00 0. -1.
       -3    1    3    3    0  502  0.39604448257E+03  0.15034153916E+03  0.50343235354E+03  0.65794981220E+03  0.10100000352E+00 0.  1.
</event>
<event>
 5   0  0.1436000E-03  0.9001931E+03  0.7818609E-02  0.9425340E-01
       -4   -1    0    0    0  501  0.00000000000E+00  0.00000000000E+00  0.23181546716E+03  0.23181894598E+03  0.12699999809E+01 0.  1.
        4   -1    0    0  501    0  0.00000000000E+00  0.00000000000E+00 -0.87390402823E+03  0.87390495104E+03  0.12699999809E+01 0. -1.
    10030    2    1    2    0    0  0.00000000000E+00  0.00000000000E+00 -0.64208856107E+03  0.11057238970E+04  0.90019309939E+03 0.  0.
        5    1    3    3  502    0  0.47464033711E+02 -0.75552212222E+02  0.22081525727E+03  0.23820671508E+03  0.46999998093E+01 0.  1.
       -5    1    3    3    0  502 -0.47464033711E+02  0.75552212222E+02 -0.86290381833E+03  0.86751718194E+03  0.46999998093E+01 0. -1.
</event>
<event>
 5   0  0.3685879E-03  0.8935841E+03  0.7818609E-02  0.9433637E-01
        2   -1    0    0  501    0  0.00000000000E+00  0.00000000000E+00  0.45965342109E+03  0.45965342109E+03  0.25500000920E-02 0. -1.
       -2   -1    0    0    0  501  0.00000000000E+00  0.00000000000E+00 -0.43429059201E+03  0.43429059201E+03  0.25500000920E-02 0.  1.
    10030    2    1    2    0    0  0.00000000000E+00  0.00000000000E+00  0.25362829081E+02  0.89394401311E+03  0.89358414571E+03 0.  0.
        1    1    3    3  502    0  0.83180460973E+02 -0.33412285969E+03 -0.27215430913E+03  0.43889069534E+03  0.50400001928E-02 0.  1.
       -1    1    3    3    0  502 -0.83180460973E+02  0.33412285969E+03  0.29751713821E+03  0.45505331777E+03  0.50400001928E-02 0. -1.
</event>
<event>
 5   0  0.3663255E-03  0.8966406E+03  0.7818609E-02  0.9429791E-01
       -2   -1    0    0    0  501  0.00000000000E+00  0.00000000000E+00  0.25039899818E+03  0.25039899819E+03  0.25500000920E-02 0.  1.
        2   -1    0    0  501    0  0.00000000000E+00  0.00000000000E+00 -0.80268322907E+03  0.80268322907E+03  0.25500000920E-02 0. -1.
    10030    2    1    2    0    0  0.00000000000E+00  0.00000000000E+00 -0.55228423088E+03  0.10530822273E+04  0.89664056661E+03 0.  0.
        4    1    3    3  502    0 -0.51189758501E+02 -0.19777250507E+03 -0.74483740148E+03  0.77234624534E+03  0.12699999809E+01 0. -1.
       -4    1    3    3    0  502  0.51189758501E+02  0.19777250507E+03  0.19255317060E+03  0.28073598192E+03  0.12699999809E+01 0.  1.
</event>
<event>
 5   0  0.3626546E-03  0.9002589E+03  0.7818609E-02  0.9425258E-01
        2   -1    0    0  501    0  0.00000000000E+00  0.00000000000E+00  0.12485613127E+04  0.12485613127E+04  0.25500000920E-02 0.  1.
       -2   -1    0    0    0  501  0.00000000000E+00  0.00000000000E+00 -0.16228000995E+03  0.16228000997E+03  0.25500000920E-02 0. -1.
    10030    2    1    2    0    0  0.00000000000E+00  0.00000000000E+00  0.10862813027E+04  0.14108413227E+04  0.90025894554E+03 0.  0.
        3    1    3    3  502    0  0.42288522445E+03  0.12108112846E+03  0.39344717569E+03  0.59016374252E+03  0.10100000352E+00 0. -1.
       -3    1    3    3    0  502 -0.42288522445E+03 -0.12108112846E+03  0.69283412705E+03  0.82067758013E+03  0.10100000352E+00 0.  1.
</event>
<event>
 5   0  0.2134145E-03  0.8621480E+03  0.7818609E-02  0.9474176E-01
        1   -1    0    0  501    0  0.00000000000E+00  0.00000000000E+00  0.10161620081E+04  0.10161620082E+04  0.50400001928E-02 0.  1.
       -1   -1    0    0    0  501  0.00000000000E+00  0.00000000000E+00 -0.18286927648E+03  0.18286927655E+03  0.50400001928E-02 0. -1.
    10030    2    1    2    0    0  0.00000000000E+00  0.00000000000E+00  0.83329273166E+03  0.11990312847E+04  0.86214804126E+03 0.  0.
        1    1    3    3  502    0  0.24553032218E+03 -0.28122236692E+03  0.11689677280E+03  0.39119817777E+03  0.50400001928E-02 0. -1.
       -1    1    3    3    0  502 -0.24553032218E+03  0.28122236692E+03  0.71639595886E+03  0.80783310694E+03  0.50400001928E-02 0.  1.
</event>
<event>
 5   0  0.3806019E-03  0.8926921E+03  0.7818609E-02  0.9434763E-01
       -2   -1    0    0    0  501  0.00000000000E+00  0.00000000000E+00  0.11674570259E+03  0.11674570262E+03  0.25500000920E-02 0. -1.
        2   -1    0    0  501    0  0.00000000000E+00  0.00000000000E+00 -0.17064851625E+04  0.17064851625E+04  0.25500000920E-02 0.  1.
    10030    2    1    2    0    0  0.00000000000E+00  0.00000000000E+00 -0.15897394599E+04  0.18232308651E+04  0.89269212897E+03 0.  0.
        2    1    3    3  502    0  0.99751921654E+02 -0.37427353844E+02 -0.16801336966E+04  0.16835083876E+04  0.25500000920E-02 0.  1.
       -2    1    3    3    0  502 -0.99751921654E+02  0.37427353844E+02  0.90394236686E+02  0.13972247751E+03  0.25500000920E-02 0. -1.
</event>
<event>
 5   0  0.2134145E-03  0.9026727E+03  0.7818609E-02  0.9422247E-01
        1   -1    0    0  501    0  0.00000000000E+00  0.00000000000E+00  0.40778167030E+03  0.40778167033E+03  0.50400001928E-02 0.  1.
       -1   -1    0    0    0  501  0.00000000000E+00  0.00000000000E+00 -0.49954308108E+03  0.49954308111E+03  0.50400001928E-02 0. -1.
    10030    2    1    2    0    0  0.00000000000E+00  0.00000000000E+00 -0.91761410787E+02  0.90732475144E+03  0.90267272478E+03 0.  0.
        1    1    3    3  502    0 -0.59649397665E+02 -0.15402195025E+03 -0.46807358218E+03  0.49636044379E+03  0.50400001928E-02 0. -1.
       -1    1    3    3    0  502  0.59649397665E+02  0.15402195025E+03  0.37631217139E+03  0.41096430765E+03  0.50400001928E-02 0.  1.
</event>
<event>
 5   0  0.2074970E-03  0.9104902E+03  0.7818609E-02  0.9412562E-01
        1   -1    0    0  501    0  0.00000000000E+00  0.00000000000E+00  0.19679059722E+03  0.19679059729E+03  0.50400001928E-02 0.  1.
       -1   -1    0    0    0  501  0.00000000000E+00  0.00000000000E+00 -0.10531403000E+04  0.10531403000E+04  0.50400001928E-02 0. -1.
    10030    2    1    2    0    0  0.00000000000E+00  0.00000000000E+00 -0.85634970280E+03  0.12499308973E+04  0.91049021664E+03 0.  0.
        2    1    3    3  502    0 -0.21165620009E+02 -0.65523513465E+02  0.18960041902E+03  0.20171671519E+03  0.25500000920E-02 0.  1.
       -2    1    3    3    0  502  0.21165620009E+02  0.65523513465E+02 -0.10459501218E+04  0.10482141821E+04  0.25500000920E-02 0. -1.
</event>
<event>
 5   0  0.3815269E-03  0.8999271E+03  0.7818609E-02  0.9425673E-01
        2   -1    0    0  501    0  0.00000000000E+00  0.00000000000E+00  0.12688268959E+04  0.12688268959E+04  0.25500000920E-02 0. -1.
       -2   -1    0    0    0  501  0.00000000000E+00  0.00000000000E+00 -0.15957039445E+03  0.15957039447E+03  0.25500000920E-02 0.  1.
    10030    2    1    2    0    0  0.00000000000E+00  0.00000000000E+00  0.11092565015E+04  0.14283972904E+04  0.89992712657E+03 0.  0.
        5    1    3    3  502    0 -0.22819999514E+03 -0.28472840208E+03  0.13679105933E+03  0.38971705716E+03  0.46999998093E+01 0.  1.
       -5    1    3    3    0  502  0.22819999514E+03  0.28472840208E+03  0.97246544216E+03  0.10386802332E+04  0.46999998093E+01 0. -1.
</event>
<event>
 5   0  0.2134145E-03  0.8942138E+03  0.7818609E-02  0.9432843E-01
       -1   -1    0    0    0  501  0.00000000000E+00  0.00000000000E+00  0.31633244569E+03  0.31633244573E+03  0.50400001928E-02 0. -1.
        1   -1    0    0  501    0  0.00000000000E+00  0.00000000000E+00 -0.63194459756E+03  0.63194459758E+03  0.50400001928E-02 0.  1.
    10030    2    1    2    0    0  0.00000000000E+00  0.00000000000E+00 -0.31561215187E+03  0.94827704331E+03  0.89421380019E+03 0.  0.
        1    1    3    3  502    0 -0.53694987890E+01  0.37938644730E+03 -0.40862574524E+03  0.55761806608E+03  0.50400001928E-02 0.  1.
       -1    1    3    3    0  502  0.53694987890E+01 -0.37938644730E+03  0.93013593376E+02  0.39065897723E+03  0.50400001928E-02 0. -1.
</event>
<event>
 5   0  0.3663255E-03  0.8998905E+03  0.7818609E-02  0.9425718E-01
        2   -1    0    0  501    0  0.00000000000E+00  0.00000000000E+00  0.10305294772E+04  0.10305294772E+04  0.25500000920E-02 0.  1.
       -2   -1    0    0    0  501  0.00000000000E+00  0.00000000000E+00 -0.19645311775E+03  0.19645311777E+03  0.25500000920E-02 0. -1.
    10030    2    1    2    0    0  0.00000000000E+00  0.00000000000E+00  0.83407635946E+03  0.12269825950E+04  0.89989050166E+03 0.  0.
        4    1    3    3  502    0 -0.16698096906E+03 -0.10206639906E+03 -0.13537973204E+03  0.23796949088E+03  0.12699999809E+01 0. -1.
       -4    1    3    3    0  502  0.16698096906E+03  0.10206639906E+03  0.96945609149E+03  0.98901310410E+03  0.12699999809E+01 0.  1.
</event>
<event>
 5   0  0.2130975E-03  0.8999458E+03  0.7818609E-02  0.9425649E-01
       -1   -1    0    0    0  501  0.00000000000E+00  0.00000000000E+00  0.10947896387E+04  0.10947896387E+04  0.50400001928E-02 0.  1.
        1   -1    0    0  501    0  0.00000000000E+00  0.00000000000E+00 -0.18494478213E+03  0.18494478220E+03  0.50400001928E-02 0. -1.
    10030    2    1    2    0    0  0.00000000000E+00  0.00000000000E+00  0.90984485652E+03  0.12797344209E+04  0.89994584560E+03 0.  0.
        5    1    3    3  502    0 -0.50976426548E+02  0.34316264260E+03  0.47485772691E+02  0.35019449445E+03  0.46999998093E+01 0. -1.
       -5    1    3    3    0  502  0.50976426548E+02 -0.34316264260E+03  0.86235908383E+03  0.92953992642E+03  0.46999998093E+01 0.  1.
</event>
<event>
 5   0  0.3626546E-03  0.8976435E+03  0.7818609E-02  0.9428532E-01
        2   -1    0    0  501    0  0.00000000000E+00  0.00000000000E+00  0.12727132604E+04  0.12727132604E+04  0.25500000920E-02 0.  1.
       -2   -1    0    0    0  501  0.00000000000E+00  0.00000000000E+00 -0.15827679648E+03  0.15827679650E+03  0.25500000920E-02 0. -1.
    10030    2    1    2    0    0  0.00000000000E+00  0.00000000000E+00  0.11144364639E+04  0.14309900569E+04  0.89764353218E+03 0.  0.
        3    1    3    3  502    0  0.22589032331E+03 -0.36600771839E+03  0.35273689893E+03  0.55624762305E+03  0.10100000352E+00 0.  1.
       -3    1    3    3    0  502 -0.22589032331E+03  0.36600771839E+03  0.76169956500E+03  0.87474243387E+03  0.10100000352E+00 0. -1.
</event>
<event>
 5   0  0.3626546E-03  0.9060043E+03  0.7818609E-02  0.9418107E-01
        2   -1    0    0  501    0  0.00000000000E+00  0.00000000000E+00  0.84191818472E+03  0.84191818473E+03  0.25500000920E-02 0.  1.
       -2   -1    0    0    0  501  0.00000000000E+00  0.00000000000E+00 -0.24374217058E+03  0.24374217059E+03  0.25500000920E-02 0. -1.
    10030    2    1    2    0    0  0.00000000000E+00  0.00000000000E+00  0.59817601414E+03  0.10856603553E+04  0.90600433952E+03 0.  0.
        3    1    3    3  502    0  0.33410285027E+02  0.45176728818E+03  0.30030165791E+03  0.54349887374E+03  0.10100000352E+00 0. -1.
       -3    1    3    3    0  502 -0.33410285027E+02 -0.45176728818E+03  0.29787435624E+03  0.54216148159E+03  0.10100000352E+00 0.  1.
</event>
<event>
 5   0  0.2129280E-03  0.8922681E+03  0.7818609E-02  0.9435299E-01
        1   -1    0    0  501    0  0.00000000000E+00  0.00000000000E+00  0.10581261372E+04  0.10581261372E+04  0.50400001928E-02 0.  1.
       -1   -1    0    0    0  501  0.00000000000E+00  0.00000000000E+00 -0.18810193064E+03  0.18810193070E+03  0.50400001928E-02 0. -1.
    10030    2    1    2    0    0  0.00000000000E+00  0.00000000000E+00  0.87002420659E+03  0.12462280679E+04  0.89226805237E+03 0.  0.
        3    1    3    3  502    0  0.41122463445E+03  0.16296830212E+03  0.35391713552E+03  0.56649952912E+03  0.10100000352E+00 0. -1.
       -3    1    3    3    0  502 -0.41122463445E+03 -0.16296830212E+03  0.51610707107E+03  0.67972853882E+03  0.10100000352E+00 0.  1.
</event>
<event>
 5   0  0.3806019E-03  0.9011027E+03  0.7818609E-02  0.9424204E-01
       -2   -1    0    0    0  501  0.00000000000E+00  0.00000000000E+00  0.12315057984E+03  0.12315057987E+03  0.25500000920E-02 0. -1.
        2   -1    0    0  501    0  0.00000000000E+00  0.00000000000E+00 -0.16483602252E+04  0.16483602252E+04  0.25500000920E-02 0.  1.
    10030    2    1    2    0    0  0.00000000000E+00  0.00000000000E+00 -0.15252096453E+04  0.17715108050E+04  0.90110269680E+03 0.  0.
        2    1    3    3  502    0 -0.68834878247E+02 -0.44519785487E+03 -0.77746645754E+03  0.89855075708E+03  0.25500000920E-02 0.  1.
       -2    1    3    3    0  502  0.68834878247E+02  0.44519785487E+03 -0.74774318778E+03  0.87296004795E+03  0.25500000920E-02 0. -1.
</event>
<event>
 5   0  0.3663255E-03  0.8972945E+03  0.7818609E-02  0.9428970E-01
        2   -1    0    0  501    0  0.00000000000E+00  0.00000000000E+00  0.14102158445E+04  0.14102158445E+04  0.25500000920E-02 0.  1.
       -2   -1    0    0    0  501  0.00000000000E+00  0.00000000000E+00 -0.14273300707E+03  0.14273300709E+03  0.25500000920E-02 0. -1.
    10030    2    1    2    0    0  0.00000000000E+00  0.00000000000E+00  0.12674828375E+04  0.15529488516E+04  0.89729448484E+03 0.  0.
        4    1    3    3  502    0  0.36083109969E+02 -0.27158039900E+03  0.18855492336E+02  0.27461800093E+03  0.12699999809E+01 0. -1.
       -4    1    3    3    0  502 -0.36083109969E+02  0.27158039900E+03  0.12486273451E+04  0.12783308507E+04  0.12699999809E+01 0.  1.
</event>
<event>
 5   0  0.3663255E-03  0.8996018E+03  0.7818609E-02  0.9426079E-01
        2   -1    0    0  501    0  0.00000000000E+00  0.00000000000E+00  0.34662163694E+03  0.34662163695E+03  0.25500000920E-02 0. -1.
       -2   -1    0    0    0  501  0.00000000000E+00  0.00000000000E+00 -0.58369369780E+03  0.58369369780E+03  0.25500000920E-02 0.  1.
    10030    2    1    2    0    0  0.00000000000E+00  0.00000000000E+00 -0.23707206086E+03  0.93031533475E+03  0.89960183417E+03 0.  0.
        4    1    3    3  502    0  0.18813605150E+03 -0.88538953690E+00 -0.54104732307E+03  0.57282613111E+03  0.12699999809E+01 0.  1.
       -4    1    3    3    0  502 -0.18813605150E+03  0.88538953690E+00  0.30397526221E+03  0.35748920364E+03  0.12699999809E+01 0. -1.
</event>
<event>
 5   0  0.2295158E-03  0.8969411E+03  0.7818609E-02  0.9429413E-01
        1   -1    0    0  501    0  0.00000000000E+00  0.00000000000E+00  0.57434246751E+03  0.57434246753E+03  0.50400001928E-02 0. -1.
       -1   -1    0    0    0  501  0.00000000000E+00  0.00000000000E+00 -0.35018448858E+03  0.35018448861E+03  0.50400001928E-02 0.  1.
    10030    2    1    2    0    0  0.00000000000E+00  0.00000000000E+00  0.22415797893E+03  0.92452695614E+03  0.89694107561E+03 0.  0.
        4    1    3    3  502    0  0.30985922732E+02  0.11722538673E+03 -0.33296668710E+03  0.35435906411E+03  0.12699999809E+01 0.  1.
       -4    1    3    3    0  502 -0.30985922732E+02 -0.11722538673E+03  0.55712466603E+03  0.57016789203E+03  0.12699999809E+01 0. -1.
</event>
<event>
 5   0  0.2129280E-03  0.8993922E+03  0.7818609E-02  0.9426342E-01
        1   -1    0    0  501    0  0.00000000000E+00  0.00000000000E+00  0.65221369318E+03  0.65221369320E+03  0.50400001928E-02 0. -1.
       -1   -1    0    0    0  501  0.00000000000E+00  0.00000000000E+00 -0.31006182858E+03  0.31006182862E+03  0.50400001928E-02 0.  1.
    10030    2    1    2    0    0  0.00000000000E+00  0.00000000000E+00  0.34215186460E+03  0.96227552183E+03  0.89939217333E+03 0.  0.
        3    1    3    3  502    0 -0.42383473725E+03 -0.14672581639E+03  0.20594622740E+03  0.49353643075E+03  0.10100000352E+00 0. -1.
       -3    1    3    3    0  502  0.42383473725E+03  0.14672581639E+03  0.13620563720E+03  0.46873909107E+03  0.10100000352E+00 0.  1.
</event>
<event>
 5   0  0.2134145E-03  0.8964421E+03  0.7818609E-02  0.9430040E-01
       -1   -1    0    0    0  501  0.00000000000E+00  0.00000000000E+00  0.20217191512E+03  0.20217191518E+03  0.50400001928E-02 0.  1.
        1   -1    0    0  501    0  0.00000000000E+00  0.00000000000E+00 -0.99371911860E+03  0.99371911861E+03  0.50400001928E-02 0. -1.
    10030    2    1    2    0    0  0.00000000000E+00  0.00000000000E+00 -0.79154720347E+03  0.11958910338E+04  0.89644207252E+03 0.  0.
        1    1    3    3  502    0  0.50926413016E+02 -0.43348467016E+03 -0.25972988116E+03  0.50789966528E+03  0.50400001928E-02 0. -1.
       -1    1    3    3    0  502 -0.50926413016E+02  0.43348467016E+03 -0.53181732232E+03  0.68799136851E+03  0.50400001928E-02 0.  1.
</event>
<event>
 5   0  0.2074970E-03  0.8898746E+03  0.7818609E-02  0.9438328E-01
       -1   -1    0    0    0  501  0.00000000000E+00  0.00000000000E+00  0.11563297487E+03  0.11563297498E+03  0.50400001928E-02 0.  1.
        1   -1    0    0  501    0  0.00000000000E+00  0.00000000000E+00 -0.17120480321E+04  0.17120480321E+04  0.50400001928E-02 0. -1.
    10030    2    1    2    0    0  0.00000000000E+00  0.00000000000E+00 -0.15964150572E+04  0.18276810071E+04  0.88987461406E+03 0.  0.
        2    1    3    3  502    0  0.25039041599E+03 -0.36763662607E+03 -0.77597660893E+03  0.89442257734E+03  0.25500000920E-02 0.  1.
       -2    1    3    3    0  502 -0.25039041599E+03  0.36763662607E+03 -0.82043844831E+03  0.93325842976E+03  0.25500000920E-02 0. -1.
</event>
<event>
 5   0  0.2134145E-03  0.8999179E+03  0.7818609E-02  0.9425684E-01
       -1   -1    0    0    0  501  0.00000000000E+00  0.00000000000E+00  0.18296170835E+03  0.18296170842E+03  0.50400001928E-02 0.  1.
        1   -1    0    0  501    0  0.00000000000E+00  0.00000000000E+00 -0.11065870443E+04  0.11065870443E+04  0.50400001928E-02 0. -1.
    10030    2    1    2    0    0  0.00000000000E+00  0.00000000000E+00 -0.92362533595E+03  0.12895487527E+04  0.89991789873E+03 0.  0.
        1    1    3    3  502    0 -0.14117458763E+03 -0.92159391687E+01  0.15026179604E+03  0.20638266667E+03  0.50400001928E-02 0.  1.
       -1    1    3    3    0  502  0.14117458763E+03  0.92159391687E+01 -0.10738871320E+04  0.10831660861E+04  0.50400001928E-02 0. -1.
</event>
<event>
 5   0  0.3806019E-03  0.8995570E+03  0.7818609E-02  0.9426135E-01
       -2   -1    0    0    0  501  0.00000000000E+00  0.00000000000E+00  0.96280640294E+03  0.96280640294E+03  0.25500000920E-02 0. -1.
        2   -1    0    0  501    0  0.00000000000E+00  0.00000000000E+00 -0.21011564127E+03  0.21011564129E+03  0.25500000920E-02 0.  1.
    10030    2    1    2    0    0  0.00000000000E+00  0.00000000000E+00  0.75269076166E+03  0.11729220442E+04  0.89955696826E+03 0.  0.
        2    1    3    3  502    0  0.45101199340E+02  0.21679607074E+03 -0.13411663483E+03  0.25888593283E+03  0.25500000920E-02 0.  1.
       -2    1    3    3    0  502 -0.45101199340E+02 -0.21679607074E+03  0.88680739649E+03  0.91403611140E+03  0.25500000920E-02 0. -1.
</event>
<event>
 5   0  0.2295158E-03  0.8998673E+03  0.7818609E-02  0.9425747E-01
       -1   -1    0    0    0  501  0.00000000000E+00  0.00000000000E+00  0.18571528813E+03  0.18571528820E+03  0.50400001928E-02 0. -1.
        1   -1    0    0  501    0  0.00000000000E+00  0.00000000000E+00 -0.10900572435E+04  0.10900572435E+04  0.50400001928E-02 0.  1.
    10030    2    1    2    0    0  0.00000000000E+00  0.00000000000E+00 -0.90434195538E+03  0.12757725317E+04  0.89986731268E+03 0.  0.
        4    1    3    3  502    0 -0.24653207900E+03  0.32838761563E+03 -0.71290375696E+03  0.82270886203E+03  0.12699999809E+01 0.  1.
       -4    1    3    3    0  502  0.24653207900E+03 -0.32838761563E+03 -0.19143819842E+03  0.45306366969E+03  0.12699999809E+01 0. -1.
</event>
<event>
 5   0  0.3663255E-03  0.8822028E+03  0.7818609E-02  0.9448106E-01
       -2   -1    0    0    0  501  0.00000000000E+00  0.00000000000E+00  0.18713943129E+03  0.18713943130E+03  0.25500000920E-02 0.  1.
        2   -1    0    0  501    0  0.00000000000E+00  0.00000000000E+00 -0.10397085432E+04  0.10397085432E+04  0.25500000920E-02 0. -1.
    10030    2    1    2    0    0  0.00000000000E+00  0.00000000000E+00 -0.85256911194E+03  0.12268479745E+04  0.88220284628E+03 0.  0.
        4    1    3    3  502    0  0.25786020571E+03  0.56291016363E+02  0.65209108796E+02  0.27187203789E+03  0.12699999809E+01 0.  1.
       -4    1    3    3    0  502 -0.25786020571E+03 -0.56291016363E+02 -0.91777822074E+03  0.95497593665E+03  0.12699999809E+01 0. -1.
</event>
<event>
 5   0  0.2134145E-03  0.8975456E+03  0.7818609E-02  0.9428655E-01
       -1   -1    0    0    0  501  0.00000000000E+00  0.00000000000E+00  0.30482350975E+03  0.30482350980E+03  0.50400001928E-02 0. -1.
        1   -1    0    0  501    0  0.00000000000E+00  0.00000000000E+00 -0.66070046461E+03  0.66070046463E+03  0.50400001928E-02 0.  1.
    10030    2    1    2    0    0  0.00000000000E+00  0.00000000000E+00 -0.35587695486E+03  0.96552397443E+03  0.89754561901E+03 0.  0.
        1    1    3    3  502    0  0.39732638388E+03 -0.15791931511E+03 -0.32461120518E+03  0.53682324835E+03  0.50400001928E-02 0.  1.
       -1    1    3    3    0  502 -0.39732638388E+03  0.15791931511E+03 -0.31265749678E+02  0.42870072608E+03  0.50400001928E-02 0. -1.
</event>
<event>
 5   0  0.2129280E-03  0.8988249E+03  0.7818609E-02  0.9427052E-01
        1   -1    0    0  501    0  0.00000000000E+00  0.00000000000E+00  0.12653929136E+04  0.12653929136E+04  0.50400001928E-02 0.  1.
       -1   -1    0    0    0  501  0.00000000000E+00  0.00000000000E+00 -0.15961173697E+03  0.15961173705E+03  0.50400001928E-02 0. -1.
    10030    2    1    2    0    0  0.00000000000E+00  0.00000000000E+00  0.11057811766E+04  0.14250046506E+04  0.89882492388E+03 0.  0.
        3    1    3    3  502    0 -0.43965417264E+03  0.79533751297E+02  0.62974843139E+03  0.77214280166E+03  0.10100000352E+00 0. -1.
       -3    1    3    3    0  502  0.43965417264E+03 -0.79533751297E+02  0.47603274522E+03  0.65286184897E+03  0.10100000352E+00 0.  1.
</event>
<event>
 5   0  0.3806019E-03  0.9019393E+03  0.7818609E-02  0.9423160E-01
       -2   -1    0    0    0  501  0.00000000000E+00  0.00000000000E+00  0.22585853215E+03  0.22585853216E+03  0.25500000920E-02 0.  1.
        2   -1    0    0  501    0  0.00000000000E+00  0.00000000000E+00 -0.90044698586E+03  0.90044698587E+03  0.25500000920E-02 0. -1.
    10030    2    1    2    0    0  0.00000000000E+00  0.00000000000E+00 -0.67458845372E+03  0.11263055180E+04  0.90193932061E+03 0.  0.
        2    1    3    3  502    0  0.26519664179E+02 -0.34472162524E+03  0.24280148170E+02  0.34659171528E+03  0.25500000920E-02 0.  1.
       -2    1    3    3    0  502 -0.26519664179E+02  0.34472162524E+03 -0.69886860189E+03  0.77971380275E+03  0.25500000920E-02 0. -1.
</event>
<event>
 5   0  0.3626546E-03  0.9010058E+03  0.7818609E-02  0.9424325E-01
       -2   -1    0    0    0  501  0.00000000000E+00  0.00000000000E+00  0.14869333545E+03  0.14869333547E+03  0.25500000920E-02 0.  1.
        2   -1    0    0  501    0  0.00000000000E+00  0.00000000000E+00 -0.13649088557E+04  0.13649088557E+04  0.25500000920E-02 0. -1.
    10030    2    1    2    0    0  0.00000000000E+00  0.00000000000E+00 -0.12162155203E+04  0.15136021912E+04  0.90100577215E+03 0.  0.
        3    1    3    3  502    0 -0.15884184602E+03 -0.24182527251E+03 -0.11882039009E+04  0.12229222031E+04  0.10100000352E+00 0. -1.
       -3    1    3    3    0  502  0.15884184602E+03  0.24182527251E+03 -0.28011619373E+02  0.29067998812E+03  0.10100000352E+00 0.  1.
</event>
<event>
 5   0  0.3815269E-03  0.8995325E+03  0.7818609E-02  0.9426166E-01
        2   -1    0    0  501    0  0.00000000000E+00  0.00000000000E+00  0.96241044317E+03  0.96241044317E+03  0.25500000920E-02 0.  1.
       -2   -1    0    0    0  501  0.00000000000E+00  0.00000000000E+00 -0.21019064063E+03  0.21019064064E+03  0.25500000920E-02 0. -1.
    10030    2    1    2    0    0  0.00000000000E+00  0.00000000000E+00  0.75221980254E+03  0.11726010838E+04  0.89953247324E+03 0.  0.
        5    1    3    3  502    0  0.91000994565E+01 -0.28752238686E+03 -0.74546787224E+02  0.29720573386E+03  0.46999998093E+01 0. -1.
       -5    1    3    3    0  502 -0.91000994565E+01  0.28752238686E+03  0.82676658977E+03  0.87539534995E+03  0.46999998093E+01 0.  1.
</event>
<event>
 5   0  0.2295158E-03  0.8980622E+03  0.7818609E-02  0.9428007E-01
        1   -1    0    0  501    0  0.00000000000E+00  0.00000000000E+00  0.10425697108E+04  0.10425697108E+04  0.50400001928E-02 0. -1.
       -1   -1    0    0    0  501  0.00000000000E+00  0.00000000000E+00 -0.19339611451E+03  0.19339611458E+03  0.50400001928E-02 0.  1.
    10030    2    1    2    0    0  0.00000000000E+00  0.00000000000E+00  0.84917359625E+03  0.12359658254E+04  0.89806220547E+03 0.  0.
        4    1    3    3  502    0 -0.11473989194E+03 -0.15070230607E+03 -0.13572269166E+03  0.23302079262E+03  0.12699999809E+01 0.  1.
       -4    1    3    3    0  502  0.11473989194E+03  0.15070230607E+03  0.98489628791E+03  0.10029450327E+04  0.12699999809E+01 0. -1.
</event>
<event>
 5   0  0.2134145E-03  0.8989760E+03  0.7818609E-02  0.9426862E-01
        1   -1    0    0  501    0  0.00000000000E+00  0.00000000000E+00  0.26960141274E+03  0.26960141279E+03  0.50400001928E-02 0.  1.
       -1   -1    0    0    0  501  0.00000000000E+00  0.00000000000E+00 -0.74940060655E+03  0.74940060657E+03  0.50400001928E-02 0. -1.
    10030    2    1    2    0    0  0.00000000000E+00  0.00000000000E+00 -0.47979919382E+03  0.10190020194E+04  0.89897600027E+03 0.  0.
        1    1    3    3  502    0 -0.40390637671E+02 -0.40007896319E+03 -0.12221542814E+02  0.40229833026E+03  0.50400001928E-02 0.  1.
       -1    1    3    3    0  502  0.40390637671E+02  0.40007896319E+03 -0.46757765100E+03  0.61670368909E+03  0.50400001928E-02 0. -1.
</event>
<event>
 5   0  0.2129280E-03  0.8778907E+03  0.7818609E-02  0.9453649E-01
       -1   -1    0    0    0  501  0.00000000000E+00  0.00000000000E+00  0.27501894479E+03  0.27501894484E+03  0.50400001928E-02 0. -1.
        1   -1    0    0  501    0  0.00000000000E+00  0.00000000000E+00 -0.70058083547E+03  0.70058083549E+03  0.50400001928E-02 0.  1.
    10030    2    1    2    0    0  0.00000000000E+00  0.00000000000E+00 -0.42556189068E+03  0.97559978033E+03  0.87789065867E+03 0.  0.
        3    1    3    3  502    0 -0.11214008060E+03 -0.20845646998E+03  0.19801461927E+03  0.30860864732E+03  0.10100000352E+00 0. -1.
       -3    1    3    3    0  502  0.11214008060E+03  0.20845646998E+03 -0.62357650995E+03  0.66699113301E+03  0.10100000352E+00 0.  1.
</event>
<event>
 5   0  0.3626546E-03  0.9004236E+03  0.7818609E-02  0.9425052E-01
       -2   -1    0    0    0  501  0.00000000000E+00  0.00000000000E+00  0.20638729802E+03  0.20638729803E+03  0.25500000920E-02 0.  1.
        2   -1    0    0  501    0  0.00000000000E+00  0.00000000000E+00 -0.98208892850E+03  0.98208892850E+03  0.25500000920E-02 0. -1.
    10030    2    1    2    0    0  0.00000000000E+00  0.00000000000E+00 -0.77570163048E+03  0.11884762265E+04  0.90042363446E+03 0.  0.
        3    1    3    3  502    0  0.22179468597E+03 -0.37597277329E+03 -0.53329400758E+03  0.68916682864E+03  0.10100000352E+00 0. -1.
       -3    1    3    3    0  502 -0.22179468597E+03  0.37597277329E+03 -0.24240762291E+03  0.49930939789E+03  0.10100000352E+00 0.  1.
</event>
<event>
 5   0  0.3806019E-03  0.9005821E+03  0.7818609E-02  0.9424854E-01
       -2   -1    0    0    0  501  0.00000000000E+00  0.00000000000E+00  0.88361234959E+03  0.88361234959E+03  0.25500000920E-02 0.  1.
        2   -1    0    0  501    0  0.00000000000E+00  0.00000000000E+00 -0.22946941936E+03  0.22946941937E+03  0.25500000920E-02 0. -1.
    10030    2    1    2    0    0  0.00000000000E+00  0.00000000000E+00  0.65414293023E+03  0.11130817690E+04  0.90058206246E+03 0.  0.
        2    1    3    3  502    0 -0.31673625155E+03  0.23513141277E+03  0.59545766704E+03  0.71426778421E+03  0.25500000920E-02 0.  1.
       -2    1    3    3    0  502  0.31673625155E+03 -0.23513141277E+03  0.58685263193E+02  0.39881398476E+03  0.25500000920E-02 0. -1.
</event>
<event>
 5   0  0.1436000E-03  0.9001193E+03  0.7818609E-02  0.9425432E-01
        4   -1    0    0  501    0  0.00000000000E+00  0.00000000000E+00  0.73328941354E+03  0.73329051330E+03  0.12699999809E+01 0.  1.
       -4   -1    0    0    0  501  0.00000000000E+00  0.00000000000E+00 -0.27622332533E+03  0.27622624488E+03  0.12699999809E+01 0. -1.
    10030    2    1    2    0    0  0.00000000000E+00  0.00000000000E+00  0.45706608820E+03  0.10095167582E+04  0.90011925658E+03 0.  0.
        5    1    3    3  502    0  0.20777671489E+02  0.17244383771E+03 -0.23709109787E+03  0.29394364678E+03  0.46999998093E+01 0. -1.
       -5    1    3    3    0  502 -0.20777671489E+02 -0.17244383771E+03  0.69415718607E+03  0.71557311140E+03  0.46999998093E+01 0.  1.
</event>
<event>
 5   0  0.2074970E-03  0.9049499E+03  0.7818609E-02  0.9419415E-01
       -1   -1    0    0    0  501  0.00000000000E+00  0.00000000000E+00  0.15079835601E+03  0.15079835609E+03  0.50400001928E-02 0. -1.
        1   -1    0    0  501    0  0.00000000000E+00  0.00000000000E+00 -0.13576645825E+04  0.13576645825E+04  0.50400001928E-02 0.  1.
    10030    2    1    2    0    0  0.00000000000E+00  0.00000000000E+00 -0.12068662265E+04  0.15084629386E+04  0.90494991490E+03 0.  0.
        2    1    3    3  502    0  0.84866831395E+02 -0.42811764052E+03 -0.40447387958E+03  0.59505143682E+03  0.25500000920E-02 0. -1.
       -2    1    3    3    0  502 -0.84866831395E+02  0.42811764052E+03 -0.80239234688E+03  0.91341150175E+03  0.25500000920E-02 0.  1.
</event>
<event>
 5   0  0.3685879E-03  0.8367015E+03  0.7818609E-02  0.9508362E-01
       -2   -1    0    0    0  501  0.00000000000E+00  0.00000000000E+00  0.10938911384E+03  0.10938911387E+03  0.25500000920E-02 0. -1.
        2   -1    0    0  501    0  0.00000000000E+00  0.00000000000E+00 -0.15999522679E+04  0.15999522679E+04  0.25500000920E-02 0.  1.
    10030    2    1    2    0    0  0.00000000000E+00  0.00000000000E+00 -0.14905631540E+04  0.17093413817E+04  0.83670152576E+03 0.  0.
        1    1    3    3  502    0  0.15318851621E+03 -0.37481455809E+03 -0.96017731337E+03  0.10420619692E+04  0.50400001928E-02 0.  1.
       -1    1    3    3    0  502 -0.15318851621E+03  0.37481455809E+03 -0.53038584065E+03  0.66727941257E+03  0.50400001928E-02 0. -1.
</event>
<event>
 5   0  0.2129280E-03  0.9029186E+03  0.7818609E-02  0.9421940E-01
       -1   -1    0    0    0  501  0.00000000000E+00  0.00000000000E+00  0.76649314722E+03  0.76649314724E+03  0.50400001928E-02 0. -1.
        1   -1    0    0  501    0  0.00000000000E+00  0.00000000000E+00 -0.26590649270E+03  0.26590649274E+03  0.50400001928E-02 0.  1.
    10030    2    1    2    0    0  0.00000000000E+00  0.00000000000E+00  0.50058665452E+03  0.10323996400E+04  0.90291861092E+03 0.  0.
        3    1    3    3  502    0  0.17377820919E+03  0.19874082153E+03 -0.16844617277E+03  0.31316274276E+03  0.10100000352E+00 0.  1.
       -3    1    3    3    0  502 -0.17377820919E+03 -0.19874082153E+03  0.66903282729E+03  0.71923689722E+03  0.10100000352E+00 0. -1.
</event>
<event>
 5   0  0.3685879E-03  0.9004966E+03  0.7818609E-02  0.9424961E-01
        2   -1    0    0  501    0  0.00000000000E+00  0.00000000000E+00  0.11550568824E+04  0.11550568824E+04  0.25500000920E-02 0.  1.
       -2   -1    0    0    0  501  0.00000000000E+00  0.00000000000E+00 -0.17550955065E+03  0.17550955067E+03  0.25500000920E-02 0. -1.
    10030    2    1    2    0    0  0.00000000000E+00  0.00000000000E+00  0.97954733172E+03  0.13305664330E+04  0.90049656171E+03 0.  0.
        1    1    3    3  502    0 -0.32511763451E+03 -0.27669088263E+03  0.70114779042E+03  0.82089435669E+03  0.50400001928E-02 0.  1.
       -1    1    3    3    0  502  0.32511763451E+03  0.27669088263E+03  0.27839954129E+03  0.50967207635E+03  0.50400001928E-02 0. -1.
</event>
<event>
 5   0  0.2074970E-03  0.9000515E+03  0.7818609E-02  0.9425517E-01
        1   -1    0    0  501    0  0.00000000000E+00  0.00000000000E+00  0.45564096965E+03  0.45564096968E+03  0.50400001928E-02 0. -1.
       -1   -1    0    0    0  501  0.00000000000E+00  0.00000000000E+00 -0.44447969353E+03  0.44447969355E+03  0.50400001928E-02 0.  1.
    10030    2    1    2    0    0  0.00000000000E+00  0.00000000000E+00  0.11161276123E+02  0.90012066323E+03  0.90005146202E+03 0.  0.
        2    1    3    3  502    0 -0.25358980388E+03 -0.25639439847E+02 -0.36533598652E+03  0.44546105617E+03  0.25500000920E-02 0.  1.
       -2    1    3    3    0  502  0.25358980388E+03  0.25639439847E+02  0.37649726264E+03  0.45465960706E+03  0.25500000920E-02 0. -1.
</event>
<event>
 5   0  0.2295158E-03  0.9020114E+03  0.7818609E-02  0.9423071E-01
       -1   -1    0    0    0  501  0.00000000000E+00  0.00000000000E+00  0.23877941345E+03  0.23877941350E+03  0.50400001928E-02 0. -1.
        1   -1    0    0  501    0  0.00000000000E+00  0.00000000000E+00 -0.85185795683E+03  0.85185795685E+03  0.50400001928E-02 0.  1.
    10030    2    1    2    0    0  0.00000000000E+00  0.00000000000E+00 -0.61307854338E+03  0.10906373704E+04  0.90201140417E+03 0.  0.
        4    1    3    3  502    0 -0.13293253670E+03  0.33727756114E+03  0.17849770791E+02  0.36297030151E+03  0.12699999809E+01 0. -1.
       -4    1    3    3    0  502  0.13293253670E+03 -0.33727756114E+03 -0.63092831417E+03  0.72766706884E+03  0.12699999809E+01 0.  1.
</event>
<event>
 5   0  0.3663255E-03  0.8964921E+03  0.7818609E-02  0.9429977E-01
       -2   -1    0    0    0  501  0.00000000000E+00  0.00000000000E+00  0.10517832756E+04  0.10517832757E+04  0.25500000920E-02 0. -1.
        2   -1    0    0  501    0  0.00000000000E+00  0.00000000000E+00 -0.19103223187E+03  0.19103223189E+03  0.25500000920E-02 0.  1.
    10030    2    1    2    0    0  0.00000000000E+00  0.00000000000E+00  0.86075104378E+03  0.12428155075E+04  0.89649206713E+03 0.  0.
        4    1    3    3  502    0 -0.21885880243E+03  0.38343990258E+03  0.53773675531E+03  0.69576415918E+03  0.12699999809E+01 0.  1.
       -4    1    3    3    0  502  0.21885880243E+03 -0.38343990258E+03  0.32301428846E+03  0.54705134836E+03  0.12699999809E+01 0. -1.
</event>
<event>
 5   0  0.3806019E-03  0.9046931E+03  0.7818609E-02  0.9419734E-01
        2   -1    0    0  501    0  0.00000000000E+00  0.00000000000E+00  0.95765156680E+03  0.95765156680E+03  0.25500000920E-02 0.  1.
       -2   -1    0    0    0  501  0.00000000000E+00  0.00000000000E+00 -0.21366579663E+03  0.21366579664E+03  0.25500000920E-02 0. -1.
    10030    2    1    2    0    0  0.00000000000E+00  0.00000000000E+00  0.74398577017E+03  0.11713173634E+04  0.90469306380E+03 0.  0.
        2    1    3    3  502    0  0.25913169971E+03 -0.24128923861E+03  0.73646685577E+03  0.81716165116E+03  0.25500000920E-02 0.  1.
       -2    1    3    3    0  502 -0.25913169971E+03  0.24128923861E+03  0.75189143987E+01  0.35415571228E+03  0.25500000920E-02 0. -1.
</event>
<event>
 5   0  0.2130975E-03  0.9016090E+03  0.7818609E-02  0.9423572E-01
       -1   -1    0    0    0  501  0.00000000000E+00  0.00000000000E+00  0.10008077681E+04  0.10008077681E+04  0.50400001928E-02 0. -1.
        1   -1    0    0  501    0  0.00000000000E+00  0.00000000000E+00 -0.20306067813E+03  0.20306067820E+03  0.50400001928E-02 0.  1.
    10030    2    1    2    0    0  0.00000000000E+00  0.00000000000E+00  0.79774709000E+03  0.12038684463E+04  0.90160901531E+03 0.  0.
        5    1    3    3  502    0 -0.19560159641E+03 -0.38380975959E+03  0.57617821367E+03  0.71942570150E+03  0.46999998093E+01 0.  1.
       -5    1    3    3    0  502  0.19560159641E+03  0.38380975959E+03  0.22156887634E+03  0.48444274484E+03  0.46999998093E+01 0. -1.
</event>
<event>
 5   0  0.3815269E-03  0.9023005E+03  0.7818609E-02  0.9422710E-01
       -2   -1    0    0    0  501  0.00000000000E+00  0.00000000000E+00  0.22193163462E+03  0.22193163463E+03  0.25500000920E-02 0. -1.
        2   -1    0    0  501    0  0.00000000000E+00  0.00000000000E+00 -0.91711377656E+03  0.91711377656E+03  0.25500000920E-02 0.  1.
    10030    2    1    2    0    0  0.00000000000E+00  0.00000000000E+00 -0.69518214194E+03  0.11390454112E+04  0.90230052549E+03 0.  0.
        5    1    3    3  502    0  0.24974445914E+03  0.35767949856E+03 -0.20251326574E+03  0.48097882632E+03  0.46999998093E+01 0. -1.
       -5    1    3    3    0  502 -0.24974445914E+03 -0.35767949856E+03 -0.49266887620E+03  0.65806658488E+03  0.46999998093E+01 0.  1.
</event>
<event>
 5   0  0.3806019E-03  0.9015578E+03  0.7818609E-02  0.9423636E-01
       -2   -1    0    0    0  501  0.00000000000E+00  0.00000000000E+00  0.53575452414E+03  0.53575452415E+03  0.25500000920E-02 0.  1.
        2   -1    0    0  501    0  0.00000000000E+00  0.00000000000E+00 -0.37928115873E+03  0.37928115873E+03  0.25500000920E-02 0. -1.
    10030    2    1    2    0    0  0.00000000000E+00  0.00000000000E+00  0.15647336542E+03  0.91503568288E+03  0.90155775570E+03 0.  0.
        2    1    3    3  502    0 -0.41152872648E+03 -0.18013783679E+03  0.40314170364E+02  0.45103299802E+03  0.25500000920E-02 0. -1.
       -2    1    3    3    0  502  0.41152872648E+03  0.18013783679E+03  0.11615919505E+03  0.46400268487E+03  0.25500000920E-02 0.  1.
</event>
<event>
 5   0  0.1436000E-03  0.8994857E+03  0.7818609E-02  0.9426224E-01
        4   -1    0    0  501    0  0.00000000000E+00  0.00000000000E+00  0.42511698710E+03  0.42511888410E+03  0.12699999809E+01 0.  1.
       -4   -1    0    0    0  501  0.00000000000E+00  0.00000000000E+00 -0.47579146324E+03  0.47579315820E+03  0.12699999809E+01 0. -1.
    10030    2    1    2    0    0  0.00000000000E+00  0.00000000000E+00 -0.50674476143E+02  0.90091204230E+03  0.89948574498E+03 0.  0.
        4    1    3    3  502    0  0.70406706114E+02 -0.42992183551E+03  0.86541046108E+02  0.44416309445E+03  0.12699999809E+01 0.  1.
       -4    1    3    3    0  502 -0.70406706114E+02  0.42992183551E+03 -0.13721552225E+03  0.45674894785E+03  0.12699999809E+01 0. -1.
</event>
<event>
 5   0  0.2129280E-03  0.8994699E+03  0.7818609E-02  0.9426244E-01
        1   -1    0    0  501    0  0.00000000000E+00  0.00000000000E+00  0.11070237443E+04  0.11070237443E+04  0.50400001928E-02 0.  1.
       -1   -1    0    0    0  501  0.00000000000E+00  0.00000000000E+00 -0.18270749172E+03  0.18270749179E+03  0.50400001928E-02 0. -1.
    10030    2    1    2    0    0  0.00000000000E+00  0.00000000000E+00  0.92431625257E+03  0.12897312361E+04  0.89946991422E+03 0.  0.
        3    1    3    3  502    0  0.16893564936E+02 -0.43180628204E+03  0.64078670036E+03  0.77288399084E+03  0.10100000352E+00 0. -1.
       -3    1    3    3    0  502 -0.16893564936E+02  0.43180628204E+03  0.28352955221E+03  0.51684724525E+03  0.10100000352E+00 0.  1.
</event>
<event>
 5   0  0.3685879E-03  0.8991282E+03  0.7818609E-02  0.9426672E-01
        2   -1    0    0  501    0  0.00000000000E+00  0.00000000000E+00  0.12253003626E+04  0.12253003626E+04  0.25500000920E-02 0.  1.
       -2   -1    0    0    0  501  0.00000000000E+00  0.00000000000E+00 -0.16494558676E+03  0.16494558678E+03  0.25500000920E-02 0. -1.
    10030    2    1    2    0    0  0.00000000000E+00  0.00000000000E+00  0.10603547758E+04  0.13902459494E+04  0.89912821617E+03 0.  0.
        1    1    3    3  502    0  0.88835706852E+01 -0.34399717687E+03  0.82856128015E+02  0.35394648395E+03  0.50400001928E-02 0. -1.
       -1    1    3    3    0  502 -0.88835706852E+01  0.34399717687E+03  0.97749864782E+03  0.10362994654E+04  0.50400001928E-02 0.  1.
</event>
<event>
 5   0  0.2129280E-03  0.8999986E+03  0.7818609E-02  0.9425583E-01
       -1   -1    0    0    0  501  0.00000000000E+00  0.00000000000E+00  0.52340672574E+03  0.52340672576E+03  0.50400001928E-02 0.  1.
        1   -1    0    0  501    0  0.00000000000E+00  0.00000000000E+00 -0.38688717738E+03  0.38688717741E+03  0.50400001928E-02 0. -1.
    10030    2    1    2    0    0  0.00000000000E+00  0.00000000000E+00  0.13651954836E+03  0.91029390317E+03  0.89999855726E+03 0.  0.
        3    1    3    3  502    0 -0.41082834410E+03 -0.37149725472E+02 -0.11362870698E+03  0.42786858225E+03  0.10100000352E+00 0. -1.
       -3    1    3    3    0  502  0.41082834410E+03  0.37149725472E+02  0.25014825534E+03  0.48242532093E+03  0.10100000352E+00 0.  1.
</event>
<event>
 5   0  0.3806019E-03  0.9019287E+03  0.7818609E-02  0.9423174E-01
        2   -1    0    0  501    0  0.00000000000E+00  0.00000000000E+00  0.76672681826E+03  0.76672681826E+03  0.25500000920E-02 0.  1.
       -2   -1    0    0    0  501  0.00000000000E+00  0.00000000000E+00 -0.26524292150E+03  0.26524292151E+03  0.25500000920E-02 0. -1.
    10030    2    1    2    0    0  0.00000000000E+00  0.00000000000E+00  0.50148389676E+03  0.10319697398E+04  0.90192873615E+03 0.  0.
        2    1    3    3  502    0  0.29544149630E+03  0.64883625403E+02  0.63344150632E+03  0.70195705319E+03  0.25500000920E-02 0.  1.
       -2    1    3    3    0  502 -0.29544149630E+03 -0.64883625403E+02 -0.13195760956E+03  0.33001268658E+03  0.25500000920E-02 0. -1.
</event>
<event>
 5   0  0.3626546E-03  0.8988866E+03  0.7818609E-02  0.9426974E-01
       -2   -1    0    0    0  501  0.00000000000E+00  0.00000000000E+00  0.19389214852E+03  0.19389214853E+03  0.25500000920E-02 0.  1.
        2   -1    0    0  501    0  0.00000000000E+00  0.00000000000E+00 -0.10418126482E+04  0.10418126482E+04  0.25500000920E-02 0. -1.
    10030    2    1    2    0    0  0.00000000000E+00  0.00000000000E+00 -0.84792049967E+03  0.12357047967E+04  0.89888662849E+03 0.  0.
        3    1    3    3  502    0 -0.27679296830E+03  0.54437390936E+02 -0.90495315540E+03  0.94790189392E+03  0.10100000352E+00 0. -1.
       -3    1    3    3    0  502  0.27679296830E+03 -0.54437390936E+02  0.57032655735E+02  0.28780290279E+03  0.10100000352E+00 0.  1.
</event>
<event>
 5   0  0.3685879E-03  0.8992178E+03  0.7818609E-02  0.9426560E-01
        2   -1    0    0  501    0  0.00000000000E+00  0.00000000000E+00  0.83154514477E+03  0.83154514477E+03  0.25500000920E-02 0.  1.
       -2   -1    0    0    0  501  0.00000000000E+00  0.00000000000E+00 -0.24309946120E+03  0.24309946122E+03  0.25500000920E-02 0. -1.
    10030    2    1    2    0    0  0.00000000000E+00  0.00000000000E+00  0.58844568356E+03  0.10746446060E+04  0.89921783049E+03 0.  0.
        1    1    3    3  502    0  0.89534599332E+02  0.14584364221E+03 -0.20265418934E+03  0.26524617420E+03  0.50400001928E-02 0. -1.
       -1    1    3    3    0  502 -0.89534599332E+02 -0.14584364221E+03  0.79109987290E+03  0.80939843178E+03  0.50400001928E-02 0.  1.
</event>
<event>
 5   0  0.3815269E-03  0.8934663E+03  0.7818609E-02  0.9433786E-01
        2   -1    0    0  501    0  0.00000000000E+00  0.00000000000E+00  0.46522303286E+03  0.46522303287E+03  0.25500000920E-02 0. -1.
       -2   -1    0    0    0  501  0.00000000000E+00  0.00000000000E+00 -0.42897810909E+03  0.42897810910E+03  0.25500000920E-02 0.  1.
    10030    2    1    2    0    0  0.00000000000E+00  0.00000000000E+00  0.36244923771E+02  0.89420114196E+03  0.89346627681E+03 0.  0.
        5    1    3    3  502    0  0.38936384931E+03  0.21286989275E+03  0.69454105426E+02  0.44918121192E+03  0.46999998093E+01 0. -1.
       -5    1    3    3    0  502 -0.38936384931E+03 -0.21286989275E+03 -0.33209181655E+02  0.44501993004E+03  0.46999998093E+01 0.  1.
</event>
<event>
 5   0  0.2295158E-03  0.9062707E+03  0.7818609E-02  0.9417776E-01
       -1   -1    0    0    0  501  0.00000000000E+00  0.00000000000E+00  0.40600946929E+03  0.40600946932E+03  0.50400001928E-02 0. -1.
        1   -1    0    0  501    0  0.00000000000E+00  0.00000000000E+00 -0.50573120222E+03  0.50573120224E+03  0.50400001928E-02 0.  1.
    10030    2    1    2    0    0  0.00000000000E+00  0.00000000000E+00 -0.99721732927E+02  0.91174067157E+03  0.90627072565E+03 0.  0.
        4    1    3    3  502    0  0.30050354548E+02  0.13914447308E+02  0.40478868777E+03  0.40614299243E+03  0.12699999809E+01 0. -1.
       -4    1    3    3    0  502 -0.30050354548E+02 -0.13914447308E+02 -0.50451042070E+03  0.50559767914E+03  0.12699999809E+01 0.  1.
</event>
<event>
 5   0  0.2130975E-03  0.8990907E+03  0.7818609E-02  0.9426719E-01
       -1   -1    0    0    0  501  0.00000000000E+00  0.00000000000E+00  0.27095220004E+03  0.27095220009E+03  0.50400001928E-02 0. -1.
        1   -1    0    0  501    0  0.00000000000E+00  0.00000000000E+00 -0.74585494648E+03  0.74585494649E+03  0.50400001928E-02 0.  1.
    10030    2    1    2    0    0  0.00000000000E+00  0.00000000000E+00 -0.47490274644E+03  0.10168071466E+04  0.89909073779E+03 0.  0.
        5    1    3    3  502    0 -0.13316772298E+03  0.15344974789E+02  0.24779440932E+03  0.28176811385E+03  0.46999998093E+01 0. -1.
       -5    1    3    3    0  502  0.13316772298E+03 -0.15344974789E+02 -0.72269715576E+03  0.73503903273E+03  0.46999998093E+01 0.  1.
</event>
<event>
 5   0  0.1436000E-03  0.9010931E+03  0.7818609E-02  0.9424216E-01
       -3   -1    0    0    0  501  0.00000000000E+00  0.00000000000E+00  0.29365335654E+03  0.29365337391E+03  0.10100000352E+00 0. -1.
        3   -1    0    0  501    0  0.00000000000E+00  0.00000000000E+00 -0.69126459147E+03  0.69126459884E+03  0.10100000352E+00 0.  1.
    10030    2    1    2    0    0  0.00000000000E+00  0.00000000000E+00 -0.39761123493E+03  0.98491797275E+03  0.90109306895E+03 0.  0.
        3    1    3    3  502    0 -0.50051476592E+02 -0.36420726350E+03 -0.48349653755E+03  0.60738866726E+03  0.10100000352E+00 0.  1.
       -3    1    3    3    0  502  0.50051476592E+02  0.36420726350E+03  0.85885302627E+02  0.37752930549E+03  0.10100000352E+00 0. -1.
</event>
<event>
 5   0  0.3663255E-03  0.9038774E+03  0.7818609E-02  0.9420747E-01
        2   -1    0    0  501    0  0.00000000000E+00  0.00000000000E+00  0.10106774372E+04  0.10106774372E+04  0.25500000920E-02 0. -1.
       -2   -1    0    0    0  501  0.00000000000E+00  0.00000000000E+00 -0.20209078645E+03  0.20209078647E+03  0.25500000920E-02 0.  1.
    10030    2    1    2    0    0  0.00000000000E+00  0.00000000000E+00  0.80858665072E+03  0.12127682236E+04  0.90387742120E+03 0.  0.
        4    1    3    3  502    0 -0.43556094231E+03  0.94749201759E+02  0.50430685439E+03  0.67306594178E+03  0.12699999809E+01 0. -1.
       -4    1    3    3    0  502  0.43556094231E+03 -0.94749201759E+02  0.30427979632E+03  0.53970228186E+03  0.12699999809E+01 0.  1.
</event>
<event>
 5   0  0.2295158E-03  0.8987436E+03  0.7818609E-02  0.9427153E-01
       -1   -1    0    0    0  501  0.00000000000E+00  0.00000000000E+00  0.10653997558E+04  0.10653997558E+04  0.50400001928E-02 0.  1.
        1   -1    0    0  501    0  0.00000000000E+00  0.00000000000E+00 -0.18953920318E+03  0.18953920325E+03  0.50400001928E-02 0. -1.
    10030    2    1    2    0    0  0.00000000000E+00  0.00000000000E+00  0.87586055257E+03  0.12549389590E+04  0.89874361376E+03 0.  0.
        4    1    3    3  502    0  0.17116593539E+03  0.37641796374E+02  0.10157101568E+04  0.10307198542E+04  0.12699999809E+01 0.  1.
       -4    1    3    3    0  502 -0.17116593539E+03 -0.37641796374E+02 -0.13984960422E+03  0.22421910483E+03  0.12699999809E+01 0. -1.
</event>
<event>
 5   0  0.1436000E-03  0.9055989E+03  0.7818609E-02  0.9418609E-01
        3   -1    0    0  501    0  0.00000000000E+00  0.00000000000E+00  0.45831021865E+03  0.45831022978E+03  0.10100000352E+00 0. -1.
       -3   -1    0    0    0  501  0.00000000000E+00  0.00000000000E+00 -0.44735493431E+03  0.44735494571E+03  0.10100000352E+00 0.  1.
    10030    2    1    2    0    0  0.00000000000E+00  0.00000000000E+00  0.10955284344E+02  0.90566517549E+03  0.90559891334E+03 0.  0.
        3    1    3    3  502    0 -0.35696879950E+03 -0.17654557886E+03 -0.21001961447E+03  0.45022584765E+03  0.10100000352E+00 0. -1.
       -3    1    3    3    0  502  0.35696879950E+03  0.17654557886E+03  0.22097489881E+03  0.45543932784E+03  0.10100000352E+00 0.  1.
</event>
<event>
 5   0  0.2134145E-03  0.8983114E+03  0.7818609E-02  0.9427695E-01
       -1   -1    0    0    0  501  0.00000000000E+00  0.00000000000E+00  0.40393446448E+03  0.40393446451E+03  0.50400001928E-02 0. -1.
        1   -1    0    0  501    0  0.00000000000E+00  0.00000000000E+00 -0.49943957571E+03  0.49943957574E+03  0.50400001928E-02 0.  1.
    10030    2    1    2    0    0  0.00000000000E+00  0.00000000000E+00 -0.95505111232E+02  0.90337404025E+03  0.89831143282E+03 0.  0.
        1    1    3    3  502    0 -0.18932475485E+03  0.35961279489E+03 -0.24007793684E+03  0.47201974623E+03  0.50400001928E-02 0.  1.
       -1    1    3    3    0  502  0.18932475485E+03 -0.35961279489E+03  0.14457282561E+03  0.43135429403E+03  0.50400001928E-02 0. -1.
</event>
<event>
 5   0  0.3685879E-03  0.9015046E+03  0.7818609E-02  0.9423703E-01
        2   -1    0    0  501    0  0.00000000000E+00  0.00000000000E+00  0.15407122031E+04  0.15407122031E+04  0.25500000920E-02 0. -1.
       -2   -1    0    0    0  501  0.00000000000E+00  0.00000000000E+00 -0.13187254449E+03  0.13187254452E+03  0.25500000920E-02 0.  1.
    10030    2    1    2    0    0  0.00000000000E+00  0.00000000000E+00  0.14088396586E+04  0.16725847476E+04  0.90150460581E+03 0.  0.
        1    1    3    3  502    0 -0.33831845394E+03  0.13302718798E+03  0.11988633857E+04  0.12527685447E+04  0.50400001928E-02 0. -1.
       -1    1    3    3    0  502  0.33831845394E+03 -0.13302718798E+03  0.20997627291E+03  0.41981620291E+03  0.50400001928E-02 0.  1.
</event>
<event>
 5   0  0.2130975E-03  0.9008479E+03  0.7818609E-02  0.9424522E-01
        1   -1    0    0  501    0  0.00000000000E+00  0.00000000000E+00  0.57629036312E+03  0.57629036314E+03  0.50400001928E-02 0.  1.
       -1   -1    0    0    0  501  0.00000000000E+00  0.00000000000E+00 -0.35204777909E+03  0.35204777913E+03  0.50400001928E-02 0. -1.
    10030    2    1    2    0    0  0.00000000000E+00  0.00000000000E+00  0.22424258403E+03  0.92833814227E+03  0.90084791719E+03 0.  0.
        5    1    3    3  502    0  0.92606572821E+02  0.37322373217E+03 -0.12952913981E+03  0.40579775707E+03  0.46999998093E+01 0. -1.
       -5    1    3    3    0  502 -0.92606572821E+02 -0.37322373217E+03  0.35377172384E+03  0.52254038520E+03  0.46999998093E+01 0.  1.
</event>
<event>
 5   0  0.3663255E-03  0.8966349E+03  0.7818609E-02  0.9429798E-01
       -2   -1    0    0    0  501  0.00000000000E+00  0.00000000000E+00  0.10264249157E+04  0.10264249157E+04  0.25500000920E-02 0.  1.
        2   -1    0    0  501    0  0.00000000000E+00  0.00000000000E+00 -0.19581417191E+03  0.19581417193E+03  0.25500000920E-02 0. -1.
    10030    2    1    2    0    0  0.00000000000E+00  0.00000000000E+00  0.83061074375E+03  0.12222390876E+04  0.89663491991E+03 0.  0.
        4    1    3    3  502    0 -0.44652074221E+03 -0.50627590490E+01  0.36111258149E+03  0.57429114059E+03  0.12699999809E+01 0.  1.
       -4    1    3    3    0  502  0.44652074221E+03  0.50627590490E+01  0.46949816226E+03  0.64794794700E+03  0.12699999809E+01 0. -1.
</event>
<event>
 5   0  0.3685879E-03  0.8980673E+03  0.7818609E-02  0.9428001E-01
       -2   -1    0    0    0  501  0.00000000000E+00  0.00000000000E+00  0.39073792798E+03  0.39073792799E+03  0.25500000920E-02 0.  1.
        2   -1    0    0  501    0  0.00000000000E+00  0.00000000000E+00 -0.51602676454E+03  0.51602676455E+03  0.25500000920E-02 0. -1.
    10030    2    1    2    0    0  0.00000000000E+00  0.00000000000E+00 -0.12528883656E+03  0.90676469254E+03  0.89806732213E+03 0.  0.
        1    1    3    3  502    0  0.26493562136E+03  0.75274480278E+02  0.29543661065E+03  0.40390583282E+03  0.50400001928E-02 0.  1.
       -1    1    3    3    0  502 -0.26493562136E+03 -0.75274480278E+02 -0.42072544721E+03  0.50285885972E+03  0.50400001928E-02 0. -1.
</event>
<event>
 5   0  0.3626546E-03  0.8988232E+03  0.7818609E-02  0.9427054E-01
        2   -1    0    0  501    0  0.00000000000E+00  0.00000000000E+00  0.28320961773E+03  0.28320961774E+03  0.25500000920E-02 0. -1.
       -2   -1    0    0    0  501  0.00000000000E+00  0.00000000000E+00 -0.71314951496E+03  0.71314951496E+03  0.25500000920E-02 0.  1.
    10030    2    1    2    0    0  0.00000000000E+00  0.00000000000E+00 -0.42993989723E+03  0.99635913271E+03  0.89882323407E+03 0.  0.
        3    1    3    3  502    0  0.37221498379E+03  0.22085876985E+03 -0.80806639899E+02  0.44028662668E+03  0.10100000352E+00 0. -1.
       -3    1    3    3    0  502 -0.37221498379E+03 -0.22085876985E+03 -0.34913325733E+03  0.55607250602E+03  0.10100000352E+00 0.  1.
</event>
<event>
 5   0  0.3806019E-03  0.8978593E+03  0.7818609E-02  0.9428261E-01
       -2   -1    0    0    0  501  0.00000000000E+00  0.00000000000E+00  0.51662201172E+03  0.51662201172E+03  0.25500000920E-02 0.  1.
        2   -1    0    0  501    0  0.00000000000E+00  0.00000000000E+00 -0.39010694857E+03  0.39010694858E+03  0.25500000920E-02 0. -1.
    10030    2    1    2    0    0  0.00000000000E+00  0.00000000000E+00  0.12651506315E+03  0.90672896030E+03  0.89785931317E+03 0.  0.
        2    1    3    3  502    0 -0.68249564464E+02 -0.14139703911E+03 -0.36147624421E+03  0.39410176459E+03  0.25500000920E-02 0. -1.
       -2    1    3    3    0  502  0.68249564464E+02  0.14139703911E+03  0.48799130736E+03  0.51262719571E+03  0.25500000920E-02 0.  1.
</event>
<event>
 5   0  0.3685879E-03  0.9009667E+03  0.7818609E-02  0.9424374E-01
       -2   -1    0    0    0  501  0.00000000000E+00  0.00000000000E+00  0.40814440397E+03  0.40814440398E+03  0.25500000920E-02 0.  1.
        2   -1    0    0  501    0  0.00000000000E+00  0.00000000000E+00 -0.49721434739E+03  0.49721434739E+03  0.25500000920E-02 0. -1.
    10030    2    1    2    0    0  0.00000000000E+00  0.00000000000E+00 -0.89069943417E+02  0.90535875137E+03  0.90096671074E+03 0.  0.
        1    1    3    3  502    0 -0.68263886876E+02 -0.28745669298E+03  0.29718739699E+03  0.41906044618E+03  0.50400001928E-02 0.  1.
       -1    1    3    3    0  502  0.68263886876E+02  0.28745669298E+03 -0.38625734041E+03  0.48629830520E+03  0.50400001928E-02 0. -1.
</event>
<event>
 5   0  0.3815269E-03  0.9017181E+03  0.7818609E-02  0.9423436E-01
       -2   -1    0    0    0  501  0.00000000000E+00  0.00000000000E+00  0.12538587705E+03  0.12538587708E+03  0.25500000920E-02 0. -1.
        2   -1    0    0  501    0  0.00000000000E+00  0.00000000000E+00 -0.16211863888E+04  0.16211863888E+04  0.25500000920E-02 0.  1.
    10030    2    1    2    0    0  0.00000000000E+00  0.00000000000E+00 -0.14958005118E+04  0.17465722659E+04  0.90171808731E+03 0.  0.
        5    1    3    3  502    0 -0.84593231095E+02  0.39650368711E+03 -0.11298289165E+04  0.12003777152E+04  0.46999998093E+01 0.  1.
       -5    1    3    3    0  502  0.84593231095E+02 -0.39650368711E+03 -0.36597159524E+03  0.54619455065E+03  0.46999998093E+01 0. -1.
</event>
<event>
 5   0  0.3806019E-03  0.9018743E+03  0.7818609E-02  0.9423241E-01
       -2   -1    0    0    0  501  0.00000000000E+00  0.00000000000E+00  0.12517679263E+03  0.12517679265E+03  0.25500000920E-02 0.  1.
        2   -1    0    0  501    0  0.00000000000E+00  0.00000000000E+00 -0.16244569422E+04  0.16244569422E+04  0.25500000920E-02 0. -1.
    10030    2    1    2    0    0  0.00000000000E+00  0.00000000000E+00 -0.14992801496E+04  0.17496337349E+04  0.90187429238E+03 0.  0.
        2    1    3    3  502    0 -0.20854638654E+03 -0.16025234164E+03 -0.39029078945E+02  0.26588658739E+03  0.25500000920E-02 0.  1.
       -2    1    3    3    0  502  0.20854638654E+03  0.16025234164E+03 -0.14602510707E+04  0.14837471475E+04  0.25500000920E-02 0. -1.
</event>
<event>
 5   0  0.2129280E-03  0.9014825E+03  0.7818609E-02  0.9423730E-01
        1   -1    0    0  501    0  0.00000000000E+00  0.00000000000E+00  0.85230404405E+03  0.85230404406E+03  0.50400001928E-02 0. -1.
       -1   -1    0    0    0  501  0.00000000000E+00  0.00000000000E+00 -0.23837464288E+03  0.23837464293E+03  0.50400001928E-02 0.  1.
    10030    2    1    2    0    0  0.00000000000E+00  0.00000000000E+00  0.61392940117E+03  0.10906786870E+04  0.90148249492E+03 0.  0.
        3    1    3    3  502    0 -0.40181205488E+03 -0.88655234202E+01  0.55383835348E+03  0.68430143718E+03  0.10100000352E+00 0. -1.
       -3    1    3    3    0  502  0.40181205488E+03  0.88655234202E+01  0.60091047693E+02  0.40637724981E+03  0.10100000352E+00 0.  1.
</event>
<event>
 5   0  0.2134145E-03  0.8987461E+03  0.7818609E-02  0.9427150E-01
       -1   -1    0    0    0  501  0.00000000000E+00  0.00000000000E+00  0.69440497352E+03  0.69440497353E+03  0.50400001928E-02 0. -1.
        1   -1    0    0  501    0  0.00000000000E+00  0.00000000000E+00 -0.29080456712E+03  0.29080456717E+03  0.50400001928E-02 0.  1.
    10030    2    1    2    0    0  0.00000000000E+00  0.00000000000E+00  0.40360040639E+03  0.98520954070E+03  0.89874609932E+03 0.  0.
        1    1    3    3  502    0  0.61068884878E+02 -0.42160202528E+03  0.35859371016E+03  0.55683671342E+03  0.50400001928E-02 0. -1.
       -1    1    3    3    0  502 -0.61068884878E+02  0.42160202528E+03  0.45006696226E+02  0.42837282728E+03  0.50400001928E-02 0.  1.
</event>
<event>
 5   0  0.3663255E-03  0.8991550E+03  0.7818609E-02  0.9426638E-01
        2   -1    0    0  501    0  0.00000000000E+00  0.00000000000E+00  0.16236347685E+04  0.16236347685E+04  0.25500000920E-02 0. -1.
       -2   -1    0    0    0  501  0.00000000000E+00  0.00000000000E+00 -0.12448609343E+03  0.12448609346E+03  0.25500000920E-02 0.  1.
    10030    2    1    2    0    0  0.00000000000E+00  0.00000000000E+00  0.14991486750E+04  0.17481208619E+04  0.89915504673E+03 0.  0.
        4    1    3    3  502    0  0.37209786167E+03  0.20025060917E+02  0.12385680001E+04  0.12934102696E+04  0.12699999809E+01 0. -1.
       -4    1    3    3    0  502 -0.37209786167E+03 -0.20025060917E+02  0.26058067492E+03  0.45471059232E+03  0.12699999809E+01 0.  1.
</event>
<event>
 5   0  0.3815269E-03  0.8989458E+03  0.7818609E-02  0.9426900E-01
       -2   -1    0    0    0  501  0.00000000000E+00  0.00000000000E+00  0.17713680180E+03  0.17713680182E+03  0.25500000920E-02 0.  1.
        2   -1    0    0  501    0  0.00000000000E+00  0.00000000000E+00 -0.11405076242E+04  0.11405076242E+04  0.25500000920E-02 0. -1.
    10030    2    1    2    0    0  0.00000000000E+00  0.00000000000E+00 -0.96337082240E+03  0.13176444260E+04  0.89894576699E+03 0.  0.
        5    1    3    3  502    0 -0.30504252692E+03  0.31626740576E+03 -0.62018107661E+03  0.76008070161E+03  0.46999998093E+01 0. -1.
       -5    1    3    3    0  502  0.30504252692E+03 -0.31626740576E+03 -0.34318974579E+03  0.55756372442E+03  0.46999998093E+01 0.  1.
</event>
<event>
 5   0  0.3815269E-03  0.9009332E+03  0.7818609E-02  0.9424416E-01
       -2   -1    0    0    0  501  0.00000000000E+00  0.00000000000E+00  0.16904063550E+03  0.16904063552E+03  0.25500000920E-02 0.  1.
        2   -1    0    0  501    0  0.00000000000E+00  0.00000000000E+00 -0.12004223196E+04  0.12004223196E+04  0.25500000920E-02 0. -1.
    10030    2    1    2    0    0  0.00000000000E+00  0.00000000000E+00 -0.10313816841E+04  0.13694629551E+04  0.90093318684E+03 0.  0.
        5    1    3    3  502    0 -0.98605356386E+02 -0.13039447313E+03 -0.11536994660E+04  0.11652340034E+04  0.46999998093E+01 0. -1.
       -5    1    3    3    0  502  0.98605356386E+02  0.13039447313E+03  0.12231778191E+03  0.20422895167E+03  0.46999998093E+01 0.  1.
</event>
<event>
 5   0  0.2295158E-03  0.9073504E+03  0.7818609E-02  0.9416439E-01
       -1   -1    0    0    0  501  0.00000000000E+00  0.00000000000E+00  0.98372121831E+03  0.98372121832E+03  0.50400001928E-02 0. -1.
        1   -1    0    0  501    0  0.00000000000E+00  0.00000000000E+00 -0.20922715255E+03  0.20922715261E+03  0.50400001928E-02 0.  1.
    10030    2    1    2    0    0  0.00000000000E+00  0.00000000000E+00  0.77449406576E+03  0.11929483709E+04  0.90735040519E+03 0.  0.
        4    1    3    3  502    0  0.32031485520E+03  0.29508259207E+03  0.22019362789E+03  0.48801863619E+03  0.12699999809E+01 0.  1.
       -4    1    3    3    0  502 -0.32031485520E+03 -0.29508259207E+03  0.55430043787E+03  0.70492973474E+03  0.12699999809E+01 0. -1.
</event>
<event>
 5   0  0.2130975E-03  0.9017782E+03  0.7818609E-02  0.9423361E-01
       -1   -1    0    0    0  501  0.00000000000E+00  0.00000000000E+00  0.14746849675E+03  0.14746849684E+03  0.50400001928E-02 0. -1.
        1   -1    0    0  501    0  0.00000000000E+00  0.00000000000E+00 -0.13786061345E+04  0.13786061345E+04  0.50400001928E-02 0.  1.
    10030    2    1    2    0    0  0.00000000000E+00  0.00000000000E+00 -0.12311376377E+04  0.15260746313E+04  0.90177818634E+03 0.  0.
        5    1    3    3  502    0 -0.37525859176E+03 -0.16769340569E+03 -0.30197421941E+03  0.51004961346E+03  0.46999998093E+01 0. -1.
       -5    1    3    3    0  502  0.37525859176E+03  0.16769340569E+03 -0.92916341834E+03  0.10160250179E+04  0.46999998093E+01 0.  1.
</event>
<event>
 5   0  0.3685879E-03  0.8983858E+03  0.7818609E-02  0.9427602E-01
       -2   -1    0    0    0  501  0.00000000000E+00  0.00000000000E+00  0.45805348415E+03  0.45805348416E+03  0.25500000920E-02 0.  1.
        2   -1    0    0  501    0  0.00000000000E+00  0.00000000000E+00 -0.44050370772E+03  0.44050370773E+03  0.25500000920E-02 0. -1.
    10030    2    1    2    0    0  0.00000000000E+00  0.00000000000E+00  0.17549776431E+02  0.89855719189E+03  0.89838579265E+03 0.  0.
        1    1    3    3  502    0 -0.42963099587E+03  0.37333031298E+02  0.13448781031E+03  0.45173390285E+03  0.50400001928E-02 0. -1.
       -1    1    3    3    0  502  0.42963099587E+03 -0.37333031298E+02 -0.11693803388E+03  0.44682328904E+03  0.50400001928E-02 0.  1.
</event>
<event>
 5   0  0.3663255E-03  0.9036930E+03  0.7818609E-02  0.9420977E-01
        2   -1    0    0  501    0  0.00000000000E+00  0.00000000000E+00  0.24525495818E+03  0.24525495820E+03  0.25500000920E-02 0. -1.
       -2   -1    0    0    0  501  0.00000000000E+00  0.00000000000E+00 -0.83246128956E+03  0.83246128956E+03  0.25500000920E-02 0.  1.
    10030    2    1    2    0    0  0.00000000000E+00  0.00000000000E+00 -0.58720633137E+03  0.10777162478E+04  0.90369299824E+03 0.  0.
        4    1    3    3  502    0 -0.40787099690E+03 -0.10352581043E+03 -0.97327530945E+02  0.43191504340E+03  0.12699999809E+01 0. -1.
       -4    1    3    3    0  502  0.40787099690E+03  0.10352581043E+03 -0.48987880043E+03  0.64580120435E+03  0.12699999809E+01 0.  1.
</event>
<event>
 5   0  0.3806019E-03  0.8987761E+03  0.7818609E-02  0.9427113E-01
        2   -1    0    0  501    0  0.00000000000E+00  0.00000000000E+00  0.45040970392E+03  0.45040970393E+03  0.25500000920E-02 0.  1.
       -2   -1    0    0    0  501  0.00000000000E+00  0.00000000000E+00 -0.44836874925E+03  0.44836874926E+03  0.25500000920E-02 0. -1.
    10030    2    1    2    0    0  0.00000000000E+00  0.00000000000E+00  0.20409546707E+01  0.89877845319E+03  0.89877613588E+03 0.  0.
        2    1    3    3  502    0  0.20041113944E+02  0.16171858539E+03 -0.41778257057E+03  0.44843820465E+03  0.25500000920E-02 0. -1.
       -2    1    3    3    0  502 -0.20041113944E+02 -0.16171858539E+03  0.41982352524E+03  0.45034024854E+03  0.25500000920E-02 0.  1.
</event>
<event>
 5   0  0.3806019E-03  0.9042430E+03  0.7818609E-02  0.9420293E-01
       -2   -1    0    0    0  501  0.00000000000E+00  0.00000000000E+00  0.34125512452E+03  0.34125512453E+03  0.25500000920E-02 0.  1.
        2   -1    0    0  501    0  0.00000000000E+00  0.00000000000E+00 -0.59900600679E+03  0.59900600680E+03  0.25500000920E-02 0. -1.
    10030    2    1    2    0    0  0.00000000000E+00  0.00000000000E+00 -0.25775088227E+03  0.94026113133E+03  0.90424304132E+03 0.  0.
        2    1    3    3  502    0  0.23655985411E+03 -0.34987741963E+03  0.38918494423E+02  0.42413373193E+03  0.25500000920E-02 0.  1.
       -2    1    3    3    0  502 -0.23655985411E+03  0.34987741963E+03 -0.29666937669E+03  0.51612739941E+03  0.25500000920E-02 0. -1.
</event>
<event>
 5   0  0.1436000E-03  0.8954264E+03  0.7818609E-02  0.9431317E-01
       -4   -1    0    0    0  501  0.00000000000E+00  0.00000000000E+00  0.63925283870E+03  0.63925410025E+03  0.12699999809E+01 0. -1.
        4   -1    0    0  501    0  0.00000000000E+00  0.00000000000E+00 -0.31356180822E+03  0.31356438011E+03  0.12699999809E+01 0.  1.
    10030    2    1    2    0    0  0.00000000000E+00  0.00000000000E+00  0.32569103048E+03  0.95281848036E+03  0.89542638401E+03 0.  0.
        5    1    3    3  502    0 -0.20970032880E+03 -0.86950451053E+02  0.57344049819E+03  0.61675822151E+03  0.46999998093E+01 0. -1.
       -5    1    3    3    0  502  0.20970032880E+03  0.86950451053E+02 -0.24774946771E+03  0.33606025886E+03  0.46999998093E+01 0.  1.
</event>
<event>
 5   0  0.2129280E-03  0.8972199E+03  0.7818609E-02  0.9429063E-01
       -1   -1    0    0    0  501  0.00000000000E+00  0.00000000000E+00  0.17097122262E+03  0.17097122270E+03  0.50400001928E-02 0.  1.
        1   -1    0    0  501    0  0.00000000000E+00  0.00000000000E+00 -0.11771038069E+04  0.11771038070E+04  0.50400001928E-02 0. -1.
    10030    2    1    2    0    0  0.00000000000E+00  0.00000000000E+00 -0.10061325843E+04  0.13480750297E+04  0.89721987737E+03 0.  0.
        3    1    3    3  502    0  0.23636636509E+03  0.37836515423E+03 -0.43224727265E+03  0.62118190846E+03  0.10100000352E+00 0.  1.
       -3    1    3    3    0  502 -0.23636636509E+03 -0.37836515423E+03 -0.57388531168E+03  0.72689312120E+03  0.10100000352E+00 0. -1.
</event>
<event>
 5   0  0.3815269E-03  0.9197167E+03  0.7818609E-02  0.9401265E-01
       -2   -1    0    0    0  501  0.00000000000E+00  0.00000000000E+00  0.36377371482E+03  0.36377371483E+03  0.25500000920E-02 0. -1.
        2   -1    0    0  501    0  0.00000000000E+00  0.00000000000E+00 -0.58132215476E+03  0.58132215476E+03  0.25500000920E-02 0.  1.
    10030    2    1    2    0    0  0.00000000000E+00  0.00000000000E+00 -0.21754843993E+03  0.94509586960E+03  0.91971673846E+03 0.  0.
        5    1    3    3  502    0 -0.31858387816E+03 -0.32591002219E+03 -0.17157193004E+03  0.48700312849E+03  0.46999998093E+01 0.  1.
       -5    1    3    3    0  502  0.31858387816E+03  0.32591002219E+03 -0.45976509897E+02  0.45809274110E+03  0.46999998093E+01 0. -1.
</event>
<event>
 5   0  0.3685879E-03  0.8966971E+03  0.7818609E-02  0.9429720E-01
       -2   -1    0    0    0  501  0.00000000000E+00  0.00000000000E+00  0.27099597156E+03  0.27099597157E+03  0.25500000920E-02 0.  1.
        2   -1    0    0  501    0  0.00000000000E+00  0.00000000000E+00 -0.74176912115E+03  0.74176912115E+03  0.25500000920E-02 0. -1.
    10030    2    1    2    0    0  0.00000000000E+00  0.00000000000E+00 -0.47077314958E+03  0.10127650927E+04  0.89669714769E+03 0.  0.
        1    1    3    3  502    0  0.16903207041E+03 -0.40573045467E+03 -0.33531101561E+03  0.55283136659E+03  0.50400001928E-02 0.  1.
       -1    1    3    3    0  502 -0.16903207041E+03  0.40573045467E+03 -0.13546213397E+03  0.45993372613E+03  0.50400001928E-02 0. -1.
</event>
<event>
 5   0  0.2295158E-03  0.8973946E+03  0.7818609E-02  0.9428844E-01
        1   -1    0    0  501    0  0.00000000000E+00  0.00000000000E+00  0.92538844240E+03  0.92538844241E+03  0.50400001928E-02 0. -1.
       -1   -1    0    0    0  501  0.00000000000E+00  0.00000000000E+00 -0.21756191307E+03  0.21756191313E+03  0.50400001928E-02 0.  1.
    10030    2    1    2    0    0  0.00000000000E+00  0.00000000000E+00  0.70782652933E+03  0.11429503555E+04  0.89739462869E+03 0.  0.
        4    1    3    3  502    0 -0.34995198537E+02  0.30938183774E+03 -0.57581944157E+02  0.31663714033E+03  0.12699999809E+01 0.  1.
       -4    1    3    3    0  502  0.34995198537E+02 -0.30938183774E+03  0.76540847349E+03  0.82631321521E+03  0.12699999809E+01 0. -1.
</event>
<event>
 5   0  0.2129280E-03  0.8896900E+03  0.7818609E-02  0.9438562E-01
        1   -1    0    0  501    0  0.00000000000E+00  0.00000000000E+00  0.78804106276E+03  0.78804106277E+03  0.50400001928E-02 0.  1.
       -1   -1    0    0    0  501  0.00000000000E+00  0.00000000000E+00 -0.25111264548E+03  0.25111264553E+03  0.50400001928E-02 0. -1.
    10030    2    1    2    0    0  0.00000000000E+00  0.00000000000E+00  0.53692841728E+03  0.10391537083E+04  0.88969000455E+03 0.  0.
        3    1    3    3  502    0  0.53487778473E+02  0.40419554458E+03  0.47626262957E+03  0.62694583756E+03  0.10100000352E+00 0.  1.
       -3    1    3    3    0  502 -0.53487778473E+02 -0.40419554458E+03  0.60665787711E+02  0.41220787074E+03  0.10100000352E+00 0. -1.
</event>
<event>
 5   0  0.3815269E-03  0.8998146E+03  0.7818609E-02  0.9425813E-01
       -2   -1    0    0    0  501  0.00000000000E+00  0.00000000000E+00  0.19568744782E+03  0.19568744784E+03  0.25500000920E-02 0. -1.
        2   -1    0    0  501    0  0.00000000000E+00  0.00000000000E+00 -0.10343872037E+04  0.10343872037E+04  0.25500000920E-02 0.  1.
    10030    2    1    2    0    0  0.00000000000E+00  0.00000000000E+00 -0.83869975588E+03  0.12300746515E+04  0.89981462973E+03 0.  0.
        5    1    3    3  502    0  0.14837278776E+03  0.40704546741E+03 -0.58505980069E+03  0.72802304707E+03  0.46999998093E+01 0. -1.
       -5    1    3    3    0  502 -0.14837278776E+03 -0.40704546741E+03 -0.25363995519E+03  0.50205160447E+03  0.46999998093E+01 0.  1.
</event>
<event>
 5   0  0.1436000E-03  0.8939620E+03  0.7818609E-02  0.9433161E-01
        4   -1    0    0  501    0  0.00000000000E+00  0.00000000000E+00  0.58589449949E+03  0.58589587593E+03  0.12699999809E+01 0. -1.
       -4   -1    0    0    0  501  0.00000000000E+00  0.00000000000E+00 -0.34100041473E+03  0.34100277968E+03  0.12699999809E+01 0.  1.
    10030    2    1    2    0    0  0.00000000000E+00  0.00000000000E+00  0.24489408476E+03  0.92689865561E+03  0.89396197068E+03 0.  0.
        2    1    3    3  502    0  0.33662072878E+03 -0.20255300070E+03  0.34349363340E+03  0.52185161620E+03  0.25500000920E-02 0. -1.
       -2    1    3    3    0  502 -0.33662072878E+03  0.20255300070E+03 -0.98599548644E+02  0.40504703941E+03  0.25500000920E-02 0.  1.
</event>
<event>
 5   0  0.3806019E-03  0.8987311E+03  0.7818609E-02  0.9427169E-01
       -2   -1    0    0    0  501  0.00000000000E+00  0.00000000000E+00  0.10095282446E+03  0.10095282449E+03  0.25500000920E-02 0.  1.
        2   -1    0    0  501    0  0.00000000000E+00  0.00000000000E+00 -0.20002353267E+04  0.20002353267E+04  0.25500000920E-02 0. -1.
    10030    2    1    2    0    0  0.00000000000E+00  0.00000000000E+00 -0.18992825023E+04  0.21011881512E+04  0.89873111851E+03 0.  0.
        2    1    3    3  502    0 -0.18579590534E+03 -0.39621594609E+02  0.24510304633E+01  0.18998946486E+03  0.25500000920E-02 0.  1.
       -2    1    3    3    0  502  0.18579590534E+03  0.39621594609E+02 -0.19017335327E+04  0.19111986863E+04  0.25500000920E-02 0. -1.
</event>
<event>
 5   0  0.3663255E-03  0.8966117E+03  0.7818609E-02  0.9429827E-01
        2   -1    0    0  501    0  0.00000000000E+00  0.00000000000E+00  0.71432176698E+03  0.71432176699E+03  0.25500000920E-02 0. -1.
       -2   -1    0    0    0  501  0.00000000000E+00  0.00000000000E+00 -0.28135521517E+03  0.28135521518E+03  0.25500000920E-02 0.  1.
    10030    2    1    2    0    0  0.00000000000E+00  0.00000000000E+00  0.43296655182E+03  0.99567698217E+03  0.89661174308E+03 0.  0.
        4    1    3    3  502    0 -0.30602271721E+03 -0.32339990049E+03  0.27460270719E+03  0.52311151658E+03  0.12699999809E+01 0. -1.
       -4    1    3    3    0  502  0.30602271721E+03  0.32339990049E+03  0.15836384463E+03  0.47256546559E+03  0.12699999809E+01 0.  1.
</event>
<event>
 5   0  0.2134145E-03  0.9046048E+03  0.7818609E-02  0.9419843E-01
       -1   -1    0    0    0  501  0.00000000000E+00  0.00000000000E+00  0.44830400586E+03  0.44830400589E+03  0.50400001928E-02 0.  1.
        1   -1    0    0  501    0  0.00000000000E+00  0.00000000000E+00 -0.45633650127E+03  0.45633650130E+03  0.50400001928E-02 0. -1.
    10030    2    1    2    0    0  0.00000000000E+00  0.00000000000E+00 -0.80324954055E+01  0.90464050719E+03  0.90460484537E+03 0.  0.
        1    1    3    3  502    0  0.38634481288E+02 -0.17351863028E+03 -0.41993665106E+03  0.45601329929E+03  0.50400001928E-02 0. -1.
       -1    1    3    3    0  502 -0.38634481288E+02  0.17351863028E+03  0.41190415565E+03  0.44862720790E+03  0.50400001928E-02 0.  1.
</event>
<event>
 5   0  0.2134145E-03  0.8982852E+03  0.7818609E-02  0.9427728E-01
       -1   -1    0    0    0  501  0.00000000000E+00  0.00000000000E+00  0.19285551714E+03  0.19285551721E+03  0.50400001928E-02 0.  1.
        1   -1    0    0  501    0  0.00000000000E+00  0.00000000000E+00 -0.10460114285E+04  0.10460114285E+04  0.50400001928E-02 0. -1.
    10030    2    1    2    0    0  0.00000000000E+00  0.00000000000E+00 -0.85315591136E+03  0.12388669457E+04  0.89828519976E+03 0.  0.
        1    1    3    3  502    0 -0.14734055260E+03  0.41525139055E+03 -0.30645659232E+03  0.53671090803E+03  0.50400001928E-02 0.  1.
       -1    1    3    3    0  502  0.14734055260E+03 -0.41525139055E+03 -0.54669931905E+03  0.70215603769E+03  0.50400001928E-02 0. -1.
</event>
<event>
 5   0  0.2129280E-03  0.9006811E+03  0.7818609E-02  0.9424730E-01
        1   -1    0    0  501    0  0.00000000000E+00  0.00000000000E+00  0.18946121684E+03  0.18946121691E+03  0.50400001928E-02 0.  1.
       -1   -1    0    0    0  501  0.00000000000E+00  0.00000000000E+00 -0.10704385543E+04  0.10704385544E+04  0.50400001928E-02 0. -1.
    10030    2    1    2    0    0  0.00000000000E+00  0.00000000000E+00 -0.88097733750E+03  0.12598997713E+04  0.90068105590E+03 0.  0.
        3    1    3    3  502    0  0.26944627017E+03  0.30290103322E+02  0.62483249362E+02  0.27824979698E+03  0.10100000352E+00 0.  1.
       -3    1    3    3    0  502 -0.26944627017E+03 -0.30290103322E+02 -0.94346058686E+03  0.98164997429E+03  0.10100000352E+00 0. -1.
</event>
<event>
 5   0  0.3685879E-03  0.8994222E+03  0.7818609E-02  0.9426304E-01
       -2   -1    0    0    0  501  0.00000000000E+00  0.00000000000E+00  0.14689529726E+03  0.14689529728E+03  0.25500000920E-02 0.  1.
        2   -1    0    0  501    0  0.00000000000E+00  0.00000000000E+00 -0.13767633575E+04  0.13767633575E+04  0.25500000920E-02 0. -1.
    10030    2    1    2    0    0  0.00000000000E+00  0.00000000000E+00 -0.12298680603E+04  0.15236586548E+04  0.89942217602E+03 0.  0.
        1    1    3    3  502    0  0.20811590907E+03 -0.39793268778E+03 -0.57422740193E+03  0.72897171740E+03  0.50400001928E-02 0.  1.
       -1    1    3    3    0  502 -0.20811590907E+03  0.39793268778E+03 -0.65564065833E+03  0.79468693741E+03  0.50400001928E-02 0. -1.
</event>
<event>
 5   0  0.1436000E-03  0.8956152E+03  0.7818609E-02  0.9431079E-01
        3   -1    0    0  501    0  0.00000000000E+00  0.00000000000E+00  0.58956252155E+03  0.58956253020E+03  0.10100000352E+00 0. -1.
       -3   -1    0    0    0  501  0.00000000000E+00  0.00000000000E+00 -0.34013636458E+03  0.34013637958E+03  0.10100000352E+00 0.  1.
    10030    2    1    2    0    0  0.00000000000E+00  0.00000000000E+00  0.24942615697E+03  0.92969890978E+03  0.89561523830E+03 0.  0.
        4    1    3    3  502    0 -0.12096070135E+03  0.11354205407E+03  0.55648300118E+03  0.58068772401E+03  0.12699999809E+01 0. -1.
       -4    1    3    3    0  502  0.12096070135E+03 -0.11354205407E+03 -0.30705684422E+03  0.34901118577E+03  0.12699999809E+01 0.  1.
</event>
<event>
 5   0  0.3663255E-03  0.9017364E+03  0.7818609E-02  0.9423413E-01
        2   -1    0    0  501    0  0.00000000000E+00  0.00000000000E+00  0.12825493404E+04  0.12825493404E+04  0.25500000920E-02 0.  1.
       -2   -1    0    0    0  501  0.00000000000E+00  0.00000000000E+00 -0.15849849602E+03  0.15849849604E+03  0.25500000920E-02 0. -1.
    10030    2    1    2    0    0  0.00000000000E+00  0.00000000000E+00  0.11240508444E+04  0.14410478365E+04  0.90173641725E+03 0.  0.
        4    1    3    3  502    0  0.31325759388E+03  0.25040525779E+03  0.89127438396E+03  0.97734576975E+03  0.12699999809E+01 0.  1.
       -4    1    3    3    0  502 -0.31325759388E+03 -0.25040525779E+03  0.23277646046E+03  0.46370206673E+03  0.12699999809E+01 0. -1.
</event>
<event>
 5   0  0.2295158E-03  0.9206555E+03  0.7818609E-02  0.9400123E-01
        1   -1    0    0  501    0  0.00000000000E+00  0.00000000000E+00  0.31781343309E+04  0.31781343309E+04  0.50400001928E-02 0. -1.
       -1   -1    0    0    0  501  0.00000000000E+00  0.00000000000E+00 -0.66674846675E+02  0.66674846865E+02  0.50400001928E-02 0.  1.
    10030    2    1    2    0    0  0.00000000000E+00  0.00000000000E+00  0.31114594842E+04  0.32448091778E+04  0.92065546116E+03 0.  0.
        4    1    3    3  502    0 -0.21642252863E+03 -0.34009465126E+03  0.23390547299E+04  0.23735378078E+04  0.12699999809E+01 0. -1.
       -4    1    3    3    0  502  0.21642252863E+03  0.34009465126E+03  0.77240475432E+03  0.87127136996E+03  0.12699999809E+01 0.  1.
</event>
<event>
 5   0  0.2130975E-03  0.8963142E+03  0.7818609E-02  0.9430201E-01
        1   -1    0    0  501    0  0.00000000000E+00  0.00000000000E+00  0.38078807881E+03  0.38078807884E+03  0.50400001928E-02 0.  1.
       -1   -1    0    0    0  501  0.00000000000E+00  0.00000000000E+00 -0.52744508962E+03  0.52744508964E+03  0.50400001928E-02 0. -1.
    10030    2    1    2    0    0  0.00000000000E+00  0.00000000000E+00 -0.14665701081E+03  0.90823316849E+03  0.89631423592E+03 0.  0.
        5    1    3    3  502    0  0.46595630155E+02  0.13319135016E+03  0.35766457725E+03  0.38452194778E+03  0.46999998093E+01 0.  1.
       -5    1    3    3    0  502 -0.46595630155E+02 -0.13319135016E+03 -0.50432158806E+03  0.52371122070E+03  0.46999998093E+01 0. -1.
</event>
<event>
 5   0  0.3685879E-03  0.8982999E+03  0.7818609E-02  0.9427709E-01
       -2   -1    0    0    0  501  0.00000000000E+00  0.00000000000E+00  0.22020443120E+03  0.22020443121E+03  0.25500000920E-02 0.  1.
        2   -1    0    0  501    0  0.00000000000E+00  0.00000000000E+00 -0.91612898965E+03  0.91612898966E+03  0.25500000920E-02 0. -1.
    10030    2    1    2    0    0  0.00000000000E+00  0.00000000000E+00 -0.69592455845E+03  0.11363334209E+04  0.89829986771E+03 0.  0.
        1    1    3    3  502    0  0.59233728959E+02  0.42952655947E+03 -0.19971648448E+03  0.47737655381E+03  0.50400001928E-02 0. -1.
       -1    1    3    3    0  502 -0.59233728959E+02 -0.42952655947E+03 -0.49620807398E+03  0.65895686706E+03  0.50400001928E-02 0.  1.
</event>
<event>
 5   0  0.2129280E-03  0.9023602E+03  0.7818609E-02  0.9422636E-01
        1   -1    0    0  501    0  0.00000000000E+00  0.00000000000E+00  0.66195005715E+03  0.66195005717E+03  0.50400001928E-02 0.  1.
       -1   -1    0    0    0  501  0.00000000000E+00  0.00000000000E+00 -0.30752094097E+03  0.30752094101E+03  0.50400001928E-02 0. -1.
    10030    2    1    2    0    0  0.00000000000E+00  0.00000000000E+00  0.35442911619E+03  0.96947099818E+03  0.90236024841E+03 0.  0.
        3    1    3    3  502    0  0.14768897351E+03 -0.33854325014E+03 -0.10117010542E+03  0.38296078852E+03  0.10100000352E+00 0. -1.
       -3    1    3    3    0  502 -0.14768897351E+03  0.33854325014E+03  0.45559922160E+03  0.58651020966E+03  0.10100000352E+00 0.  1.
</event>
<event>
 5   0  0.3806019E-03  0.9008471E+03  0.7818609E-02  0.9424523E-01
        2   -1    0    0  501    0  0.00000000000E+00  0.00000000000E+00  0.28777741687E+03  0.28777741688E+03  0.25500000920E-02 0.  1.
       -2   -1    0    0    0  501  0.00000000000E+00  0.00000000000E+00 -0.70499406169E+03  0.70499406170E+03  0.25500000920E-02 0. -1.
    10030    2    1    2    0    0  0.00000000000E+00  0.00000000000E+00 -0.41721664482E+03  0.99277147857E+03  0.90084709022E+03 0.  0.
        2    1    3    3  502    0 -0.15022486545E+03  0.37231283891E+02 -0.67477045384E+03  0.69229245560E+03  0.25500000920E-02 0. -1.
       -2    1    3    3    0  502  0.15022486545E+03 -0.37231283891E+02  0.25755380902E+03  0.30047902297E+03  0.25500000920E-02 0.  1.
</event>
<event>
 5   0  0.3806019E-03  0.8864444E+03  0.7818609E-02  0.9442687E-01
       -2   -1    0    0    0  501  0.00000000000E+00  0.00000000000E+00  0.38449289671E+03  0.38449289672E+03  0.25500000920E-02 0. -1.
        2   -1    0    0  501    0  0.00000000000E+00  0.00000000000E+00 -0.51092214770E+03  0.51092214770E+03  0.25500000920E-02 0.  1.
    10030    2    1    2    0    0  0.00000000000E+00  0.00000000000E+00 -0.12642925099E+03  0.89541504442E+03  0.88644444060E+03 0.  0.
        2    1    3    3  502    0 -0.42734148053E+03  0.11207301492E+03 -0.27290203663E+02  0.44263512838E+03  0.25500000920E-02 0. -1.
       -2    1    3    3    0  502  0.42734148053E+03 -0.11207301492E+03 -0.99139047322E+02  0.45277991604E+03  0.25500000920E-02 0.  1.
</event>
<event>
 5   0  0.3663255E-03  0.8988424E+03  0.7818609E-02  0.9427030E-01
        2   -1    0    0  501    0  0.00000000000E+00  0.00000000000E+00  0.13287292163E+04  0.13287292163E+04  0.25500000920E-02 0.  1.
       -2   -1    0    0    0  501  0.00000000000E+00  0.00000000000E+00 -0.15200947935E+03  0.15200947937E+03  0.25500000920E-02 0. -1.
    10030    2    1    2    0    0  0.00000000000E+00  0.00000000000E+00  0.11767197369E+04  0.14807386956E+04  0.89884244754E+03 0.  0.
        4    1    3    3  502    0 -0.20017749369E+03  0.98983595963E+02  0.12308587382E+04  0.12509530877E+04  0.12699999809E+01 0.  1.
       -4    1    3    3    0  502  0.20017749369E+03 -0.98983595963E+02 -0.54139001315E+02  0.22978560793E+03  0.12699999809E+01 0. -1.
</event>
<event>
 5   0  0.3815269E-03  0.9226555E+03  0.7818609E-02  0.9397696E-01
        2   -1    0    0  501    0  0.00000000000E+00  0.00000000000E+00  0.38916133872E+03  0.38916133872E+03  0.25500000920E-02 0.  1.
       -2   -1    0    0    0  501  0.00000000000E+00  0.00000000000E+00 -0.54687682045E+03  0.54687682046E+03  0.25500000920E-02 0. -1.
    10030    2    1    2    0    0  0.00000000000E+00  0.00000000000E+00 -0.15771548174E+03  0.93603815918E+03  0.92265554909E+03 0.  0.
        5    1    3    3  502    0  0.34445085708E+03 -0.10478003970E+03  0.21372783249E+03  0.41872058230E+03  0.46999998093E+01 0.  1.
       -5    1    3    3    0  502 -0.34445085708E+03  0.10478003970E+03 -0.37144331423E+03  0.51731757688E+03  0.46999998093E+01 0. -1.
</event>
<event>
 5   0  0.3685879E-03  0.8957905E+03  0.7818609E-02  0.9430859E-01
        2   -1    0    0  501    0  0.00000000000E+00  0.00000000000E+00  0.45795187377E+03  0.45795187378E+03  0.25500000920E-02 0. -1.
       -2   -1    0    0    0  501  0.00000000000E+00  0.00000000000E+00 -0.43805948288E+03  0.43805948289E+03  0.25500000920E-02 0.  1.
    10030    2    1    2    0    0  0.00000000000E+00  0.00000000000E+00  0.19892390896E+02  0.89601135667E+03  0.89579051349E+03 0.  0.
        1    1    3    3  502    0  0.18478417424E+03 -0.22084935350E+03  0.35309131006E+03  0.45562385940E+03  0.50400001928E-02 0. -1.
       -1    1    3    3    0  502 -0.18478417424E+03  0.22084935350E+03 -0.33319891916E+03  0.44038749727E+03  0.50400001928E-02 0.  1.
</event>
<event>
 5   0  0.3815269E-03  0.9002720E+03  0.7818609E-02  0.9425241E-01
        2   -1    0    0  501    0  0.00000000000E+00  0.00000000000E+00  0.46158984909E+03  0.46158984910E+03  0.25500000920E-02 0.  1.
       -2   -1    0    0    0  501  0.00000000000E+00  0.00000000000E+00 -0.43896641328E+03  0.43896641328E+03  0.25500000920E-02 0. -1.
    10030    2    1    2    0    0  0.00000000000E+00  0.00000000000E+00  0.22623435816E+02  0.90055626238E+03  0.90027204881E+03 0.  0.
        5    1    3    3  502    0 -0.25748452939E+01 -0.29333397454E+02 -0.43797734928E+03  0.43899126018E+03  0.46999998093E+01 0. -1.
       -5    1    3    3    0  502  0.25748452939E+01  0.29333397454E+02  0.46060078509E+03  0.46156500221E+03  0.46999998093E+01 0.  1.
</event>
<event>
 5   0  0.2295158E-03  0.9023154E+03  0.7818609E-02  0.9422692E-01
        1   -1    0    0  501    0  0.00000000000E+00  0.00000000000E+00  0.15191437193E+04  0.15191437194E+04  0.50400001928E-02 0. -1.
       -1   -1    0    0    0  501  0.00000000000E+00  0.00000000000E+00 -0.13398553087E+03  0.13398553096E+03  0.50400001928E-02 0.  1.
    10030    2    1    2    0    0  0.00000000000E+00  0.00000000000E+00  0.13851581885E+04  0.16531292503E+04  0.90231541666E+03 0.  0.
        4    1    3    3  502    0  0.14324950830E+03 -0.40370841769E+03  0.43321760515E+03  0.60924544681E+03  0.12699999809E+01 0.  1.
       -4    1    3    3    0  502 -0.14324950830E+03  0.40370841769E+03  0.95194058332E+03  0.10438838035E+04  0.12699999809E+01 0. -1.
</event>
<event>
 5   0  0.2130975E-03  0.8998836E+03  0.7818609E-02  0.9425727E-01
        1   -1    0    0  501    0  0.00000000000E+00  0.00000000000E+00  0.66551219489E+03  0.66551219491E+03  0.50400001928E-02 0. -1.
       -1   -1    0    0    0  501  0.00000000000E+00  0.00000000000E+00 -0.30419821605E+03  0.30419821609E+03  0.50400001928E-02 0.  1.
    10030    2    1    2    0    0  0.00000000000E+00  0.00000000000E+00  0.36131397884E+03  0.96971041100E+03  0.89988359797E+03 0.  0.
        5    1    3    3  502    0  0.11596578671E+03 -0.24662436438E+03  0.56642092324E+03  0.62859079939E+03  0.46999998093E+01 0. -1.
       -5    1    3    3    0  502 -0.11596578671E+03  0.24662436438E+03 -0.20510694440E+03  0.34111961162E+03  0.46999998093E+01 0.  1.
</event>
<event>
 5   0  0.3663255E-03  0.9013767E+03  0.7818609E-02  0.9423862E-01
       -2   -1    0    0    0  501  0.00000000000E+00  0.00000000000E+00  0.32508259505E+03  0.32508259506E+03  0.25500000920E-02 0. -1.
        2   -1    0    0  501    0  0.00000000000E+00  0.00000000000E+00 -0.62482579242E+03  0.62482579243E+03  0.25500000920E-02 0.  1.
    10030    2    1    2    0    0  0.00000000000E+00  0.00000000000E+00 -0.29974319737E+03  0.94990838749E+03  0.90137670275E+03 0.  0.
        4    1    3    3  502    0  0.42059457814E+03  0.13639563801E+03 -0.24183284963E+03  0.50397252831E+03  0.12699999809E+01 0. -1.
       -4    1    3    3    0  502 -0.42059457814E+03 -0.13639563801E+03 -0.57910347742E+02  0.44593585918E+03  0.12699999809E+01 0.  1.
</event>
<event>
 5   0  0.3806019E-03  0.8934917E+03  0.7818609E-02  0.9433754E-01
        2   -1    0    0  501    0  0.00000000000E+00  0.00000000000E+00  0.10670524956E+04  0.10670524956E+04  0.25500000920E-02 0.  1.
       -2   -1    0    0    0  501  0.00000000000E+00  0.00000000000E+00 -0.18704032515E+03  0.18704032517E+03  0.25500000920E-02 0. -1.
    10030    2    1    2    0    0  0.00000000000E+00  0.00000000000E+00  0.88001217046E+03  0.12540928208E+04  0.89349168043E+03 0.  0.
        2    1    3    3  502    0  0.10712379985E+03  0.84582883502E+02  0.10370701732E+04  0.10460135357E+04  0.25500000920E-02 0.  1.
       -2    1    3    3    0  502 -0.10712379985E+03 -0.84582883502E+02 -0.15705800272E+03  0.20807928513E+03  0.25500000920E-02 0. -1.
</event>
<event>
 5   0  0.2130975E-03  0.9009064E+03  0.7818609E-02  0.9424449E-01
       -1   -1    0    0    0  501  0.00000000000E+00  0.00000000000E+00  0.32105883770E+03  0.32105883774E+03  0.50400001928E-02 0.  1.
        1   -1    0    0  501    0  0.00000000000E+00  0.00000000000E+00 -0.63199658618E+03  0.63199658620E+03  0.50400001928E-02 0. -1.
    10030    2    1    2    0    0  0.00000000000E+00  0.00000000000E+00 -0.31093774849E+03  0.95305542394E+03  0.90090640894E+03 0.  0.
        5    1    3    3  502    0 -0.11057240956E+03  0.26116161851E+03  0.21472189959E+03  0.35575164498E+03  0.46999998093E+01 0.  1.
       -5    1    3    3    0  502  0.11057240956E+03 -0.26116161851E+03 -0.52565964808E+03  0.59730377896E+03  0.46999998093E+01 0. -1.
</event>
<event>
 5   0  0.2074970E-03  0.9028044E+03  0.7818609E-02  0.9422083E-01
        1   -1    0    0  501    0  0.00000000000E+00  0.00000000000E+00  0.13692449418E+04  0.13692449418E+04  0.50400001928E-02 0.  1.
       -1   -1    0    0    0  501  0.00000000000E+00  0.00000000000E+00 -0.14881483569E+03  0.14881483577E+03  0.50400001928E-02 0. -1.
    10030    2    1    2    0    0  0.00000000000E+00  0.00000000000E+00  0.12204301061E+04  0.15180597776E+04  0.90280443310E+03 0.  0.
        2    1    3    3  502    0 -0.44636481733E+02  0.15076221051E+03 -0.10128185371E+03  0.18702853664E+03  0.25500000920E-02 0. -1.
       -2    1    3    3    0  502  0.44636481733E+02 -0.15076221051E+03  0.13217119599E+04  0.13310312410E+04  0.25500000920E-02 0.  1.
</event>
<event>
 5   0  0.3815269E-03  0.9007674E+03  0.7818609E-02  0.9424623E-01
       -2   -1    0    0    0  501  0.00000000000E+00  0.00000000000E+00  0.32913988386E+03  0.32913988387E+03  0.25500000920E-02 0. -1.
        2   -1    0    0  501    0  0.00000000000E+00  0.00000000000E+00 -0.61628957720E+03  0.61628957721E+03  0.25500000920E-02 0.  1.
    10030    2    1    2    0    0  0.00000000000E+00  0.00000000000E+00 -0.28714969334E+03  0.94542946108E+03  0.90076740588E+03 0.  0.
        5    1    3    3  502    0 -0.14462157953E+03  0.26666981932E+03 -0.49293786720E+03  0.57882469256E+03  0.46999998093E+01 0.  1.
       -5    1    3    3    0  502  0.14462157953E+03 -0.26666981932E+03  0.20578817386E+03  0.36660476852E+03  0.46999998093E+01 0. -1.
</event>
<event>
 5   0  0.2074970E-03  0.8999517E+03  0.7818609E-02  0.9425642E-01
       -1   -1    0    0    0  501  0.00000000000E+00  0.00000000000E+00  0.19538365846E+03  0.19538365852E+03  0.50400001928E-02 0.  1.
        1   -1    0    0  501    0  0.00000000000E+00  0.00000000000E+00 -0.10363111173E+04  0.10363111173E+04  0.50400001928E-02 0. -1.
    10030    2    1    2    0    0  0.00000000000E+00  0.00000000000E+00 -0.84092745885E+03  0.12316947758E+04  0.89995168192E+03 0.  0.
        2    1    3    3  502    0 -0.16425517281E+03  0.41819776743E+03 -0.38668553805E+03  0.59278566094E+03  0.25500000920E-02 0.  1.
       -2    1    3    3    0  502  0.16425517281E+03 -0.41819776743E+03 -0.45424192080E+03  0.63890911489E+03  0.25500000920E-02 0. -1.
</event>
<event>
 5   0  0.2129280E-03  0.9013781E+03  0.7818609E-02  0.9423860E-01
       -1   -1    0    0    0  501  0.00000000000E+00  0.00000000000E+00  0.33072929901E+03  0.33072929905E+03  0.50400001928E-02 0.  1.
        1   -1    0    0  501    0  0.00000000000E+00  0.00000000000E+00 -0.61415980618E+03  0.61415980620E+03  0.50400001928E-02 0. -1.
    10030    2    1    2    0    0  0.00000000000E+00  0.00000000000E+00 -0.28343050717E+03  0.94488910525E+03  0.90137814974E+03 0.  0.
        3    1    3    3  502    0 -0.20460619050E+03 -0.38854981170E+03 -0.24803078366E+03  0.50433513581E+03  0.10100000352E+00 0.  1.
       -3    1    3    3    0  502  0.20460619050E+03  0.38854981170E+03 -0.35399723513E+02  0.44055396944E+03  0.10100000352E+00 0. -1.
</event>
<event>
 5   0  0.2134145E-03  0.9022449E+03  0.7818609E-02  0.9422780E-01
        1   -1    0    0  501    0  0.00000000000E+00  0.00000000000E+00  0.96460500104E+03  0.96460500105E+03  0.50400001928E-02 0.  1.
       -1   -1    0    0    0  501  0.00000000000E+00  0.00000000000E+00 -0.21097908101E+03  0.21097908107E+03  0.50400001928E-02 0. -1.
    10030    2    1    2    0    0  0.00000000000E+00  0.00000000000E+00  0.75362592003E+03  0.11755840821E+04  0.90224492617E+03 0.  0.
        1    1    3    3  502    0 -0.43372436995E+03  0.45292867930E+02  0.52732086362E+03  0.68427740442E+03  0.50400001928E-02 0.  1.
       -1    1    3    3    0  502  0.43372436995E+03 -0.45292867930E+02  0.22630505641E+03  0.49130667770E+03  0.50400001928E-02 0. -1.
</event>
<event>
 5   0  0.3685879E-03  0.9022476E+03  0.7818609E-02  0.9422776E-01
       -2   -1    0    0    0  501  0.00000000000E+00  0.00000000000E+00  0.13504938209E+03  0.13504938212E+03  0.25500000920E-02 0.  1.
        2   -1    0    0  501    0  0.00000000000E+00  0.00000000000E+00 -0.15069501771E+04  0.15069501771E+04  0.25500000920E-02 0. -1.
    10030    2    1    2    0    0  0.00000000000E+00  0.00000000000E+00 -0.13719007950E+04  0.16419995592E+04  0.90224761630E+03 0.  0.
        1    1    3    3  502    0  0.40750370357E+03  0.46135158940E+02 -0.10279992889E+04  0.11067837455E+04  0.50400001928E-02 0. -1.
       -1    1    3    3    0  502 -0.40750370357E+03 -0.46135158940E+02 -0.34390150610E+03  0.53521581370E+03  0.50400001928E-02 0.  1.
</event>
<event>
 5   0  0.1436000E-03  0.8984942E+03  0.7818609E-02  0.9427466E-01
       -3   -1    0    0    0  501  0.00000000000E+00  0.00000000000E+00  0.30717620750E+03  0.30717622410E+03  0.10100000352E+00 0.  1.
        3   -1    0    0  501    0  0.00000000000E+00  0.00000000000E+00 -0.65702664747E+03  0.65702665524E+03  0.10100000352E+00 0. -1.
    10030    2    1    2    0    0  0.00000000000E+00  0.00000000000E+00 -0.34985043998E+03  0.96420287934E+03  0.89849421933E+03 0.  0.
        1    1    3    3  502    0 -0.70522898727E+02  0.26887981837E+03 -0.55365587487E+03  0.61951970410E+03  0.50400001928E-02 0. -1.
       -1    1    3    3    0  502  0.70522898727E+02 -0.26887981837E+03  0.20380543489E+03  0.34468317523E+03  0.50400001928E-02 0.  1.
</event>
<event>
 5   0  0.3626546E-03  0.8971136E+03  0.7818609E-02  0.9429197E-01
        2   -1    0    0  501    0  0.00000000000E+00  0.00000000000E+00  0.26517084899E+03  0.26517084900E+03  0.25500000920E-02 0. -1.
       -2   -1    0    0    0  501  0.00000000000E+00  0.00000000000E+00 -0.75876816392E+03  0.75876816393E+03  0.25500000920E-02 0.  1.
    10030    2    1    2    0    0  0.00000000000E+00  0.00000000000E+00 -0.49359731493E+03  0.10239390129E+04  0.89711358974E+03 0.  0.
        3    1    3    3  502    0  0.31773924311E+03  0.11086866687E+02  0.11435457451E+03  0.33787294082E+03  0.10100000352E+00 0. -1.
       -3    1    3    3    0  502 -0.31773924311E+03 -0.11086866687E+02 -0.60795188944E+03  0.68606607211E+03  0.10100000352E+00 0.  1.
</event>
<event>
 5   0  0.3815269E-03  0.8997939E+03  0.7818609E-02  0.9425839E-01
        2   -1    0    0  501    0  0.00000000000E+00  0.00000000000E+00  0.11378299909E+04  0.11378299909E+04  0.25500000920E-02 0. -1.
       -2   -1    0    0    0  501  0.00000000000E+00  0.00000000000E+00 -0.17788883146E+03  0.17788883148E+03  0.25500000920E-02 0.  1.
    10030    2    1    2    0    0  0.00000000000E+00  0.00000000000E+00  0.95994115943E+03  0.13157188224E+04  0.89979385971E+03 0.  0.
        5    1    3    3  502    0 -0.17890244596E+03  0.26572591880E+03  0.18103024890E+02  0.32088340344E+03  0.46999998093E+01 0.  1.
       -5    1    3    3    0  502  0.17890244596E+03 -0.26572591880E+03  0.94183813454E+03  0.99483541893E+03  0.46999998093E+01 0. -1.
</event>
<event>
 5   0  0.3663255E-03  0.8983708E+03  0.7818609E-02  0.9427620E-01
       -2   -1    0    0    0  501  0.00000000000E+00  0.00000000000E+00  0.37750207986E+03  0.37750207986E+03  0.25500000920E-02 0. -1.
        2   -1    0    0  501    0  0.00000000000E+00  0.00000000000E+00 -0.53448055988E+03  0.53448055988E+03  0.25500000920E-02 0.  1.
    10030    2    1    2    0    0  0.00000000000E+00  0.00000000000E+00 -0.15697848002E+03  0.91198263975E+03  0.89837079873E+03 0.  0.
        4    1    3    3  502    0  0.13760697277E+03  0.40280585093E+03 -0.22411195500E+03  0.48105718348E+03  0.12699999809E+01 0.  1.
       -4    1    3    3    0  502 -0.13760697277E+03 -0.40280585093E+03  0.67133474980E+02  0.43092545627E+03  0.12699999809E+01 0. -1.
</event>
<event>
 5   0  0.3685879E-03  0.8992972E+03  0.7818609E-02  0.9426460E-01
       -2   -1    0    0    0  501  0.00000000000E+00  0.00000000000E+00  0.57565615688E+03  0.57565615688E+03  0.25500000920E-02 0. -1.
        2   -1    0    0  501    0  0.00000000000E+00  0.00000000000E+00 -0.35122332358E+03  0.35122332359E+03  0.25500000920E-02 0.  1.
    10030    2    1    2    0    0  0.00000000000E+00  0.00000000000E+00  0.22443283330E+03  0.92687948047E+03  0.89929721153E+03 0.  0.
        1    1    3    3  502    0  0.18515130036E+03  0.30566316626E+03  0.39348364564E+03  0.53154525173E+03  0.50400001928E-02 0. -1.
       -1    1    3    3    0  502 -0.18515130036E+03 -0.30566316626E+03 -0.16905081234E+03  0.39533422874E+03  0.50400001928E-02 0.  1.
</event>
<event>
 5   0  0.2074970E-03  0.9028760E+03  0.7818609E-02  0.9421993E-01
       -1   -1    0    0    0  501  0.00000000000E+00  0.00000000000E+00  0.38119398449E+03  0.38119398452E+03  0.50400001928E-02 0. -1.
        1   -1    0    0  501    0  0.00000000000E+00  0.00000000000E+00 -0.53462616380E+03  0.53462616383E+03  0.50400001928E-02 0.  1.
    10030    2    1    2    0    0  0.00000000000E+00  0.00000000000E+00 -0.15343217932E+03  0.91582014835E+03  0.90287602165E+03 0.  0.
        2    1    3    3  502    0 -0.27969557712E+03 -0.89499971349E+02  0.27106442416E+03  0.39964457056E+03  0.25500000920E-02 0. -1.
       -2    1    3    3    0  502  0.27969557712E+03  0.89499971349E+02 -0.42449660347E+03  0.51617557778E+03  0.25500000920E-02 0.  1.
</event>
<event>
 5   0  0.2129280E-03  0.8872859E+03  0.7818609E-02  0.9441616E-01
       -1   -1    0    0    0  501  0.00000000000E+00  0.00000000000E+00  0.17706730880E+03  0.17706730887E+03  0.50400001928E-02 0. -1.
        1   -1    0    0  501    0  0.00000000000E+00  0.00000000000E+00 -0.11115493639E+04  0.11115493640E+04  0.50400001928E-02 0.  1.
    10030    2    1    2    0    0  0.00000000000E+00  0.00000000000E+00 -0.93448205514E+03  0.12886166728E+04  0.88728587168E+03 0.  0.
        3    1    3    3  502    0  0.14401885653E+03  0.30507650440E+03 -0.48818782575E+02  0.34087591335E+03  0.10100000352E+00 0. -1.
       -3    1    3    3    0  502 -0.14401885653E+03 -0.30507650440E+03 -0.88566327257E+03  0.94774075946E+03  0.10100000352E+00 0.  1.
</event>
<event>
 5   0  0.1436000E-03  0.8991185E+03  0.7818609E-02  0.9426684E-01
       -3   -1    0    0    0  501  0.00000000000E+00  0.00000000000E+00  0.46012314612E+03  0.46012315720E+03  0.10100000352E+00 0. -1.
        3   -1    0    0  501    0  0.00000000000E+00  0.00000000000E+00 -0.43923785973E+03  0.43923787135E+03  0.10100000352E+00 0.  1.
    10030    2    1    2    0    0  0.00000000000E+00  0.00000000000E+00  0.20885286383E+02  0.89936102855E+03  0.89911849302E+03 0.  0.
        3    1    3    3  502    0  0.83163863203E+02  0.43563671630E+02 -0.42932295040E+03  0.43946811895E+03  0.10100000352E+00 0.  1.
       -3    1    3    3    0  502 -0.83163863203E+02 -0.43563671630E+02  0.45020823679E+03  0.45989290960E+03  0.10100000352E+00 0. -1.
</event>
<event>
 5   0  0.3626546E-03  0.9005450E+03  0.7818609E-02  0.9424900E-01
        2   -1    0    0  501    0  0.00000000000E+00  0.00000000000E+00  0.16535846738E+04  0.16535846738E+04  0.25500000920E-02 0.  1.
       -2   -1    0    0    0  501  0.00000000000E+00  0.00000000000E+00 -0.12260957229E+03  0.12260957232E+03  0.25500000920E-02 0. -1.
    10030    2    1    2    0    0  0.00000000000E+00  0.00000000000E+00  0.15309751016E+04  0.17761942462E+04  0.90054496753E+03 0.  0.
        3    1    3    3  502    0  0.36865605387E+03 -0.14644068113E+03  0.11857108899E+04  0.12503049563E+04  0.10100000352E+00 0.  1.
       -3    1    3    3    0  502 -0.36865605387E+03  0.14644068113E+03  0.34526421167E+03  0.52588928988E+03  0.10100000352E+00 0. -1.
</event>
<event>
 5   0  0.3626546E-03  0.9105341E+03  0.7818609E-02  0.9412508E-01
        2   -1    0    0  501    0  0.00000000000E+00  0.00000000000E+00  0.26542911585E+03  0.26542911587E+03  0.25500000920E-02 0.  1.
       -2   -1    0    0    0  501  0.00000000000E+00  0.00000000000E+00 -0.78087931268E+03  0.78087931269E+03  0.25500000920E-02 0. -1.
    10030    2    1    2    0    0  0.00000000000E+00  0.00000000000E+00 -0.51545019683E+03  0.10463084286E+04  0.91053414118E+03 0.  0.
        3    1    3    3  502    0  0.34862706310E+03 -0.29225847448E+03 -0.23741953965E+03  0.51315094567E+03  0.10100000352E+00 0.  1.
       -3    1    3    3    0  502 -0.34862706310E+03  0.29225847448E+03 -0.27803065717E+03  0.53315748289E+03  0.10100000352E+00 0. -1.
</event>
<event>
 5   0  0.2074970E-03  0.9009065E+03  0.7818609E-02  0.9424449E-01
        1   -1    0    0  501    0  0.00000000000E+00  0.00000000000E+00  0.22316462175E+03  0.22316462181E+03  0.50400001928E-02 0.  1.
       -1   -1    0    0    0  501  0.00000000000E+00  0.00000000000E+00 -0.90923063777E+03  0.90923063779E+03  0.50400001928E-02 0. -1.
    10030    2    1    2    0    0  0.00000000000E+00  0.00000000000E+00 -0.68606601602E+03  0.11323952596E+04  0.90090645774E+03 0.  0.
        2    1    3    3  502    0 -0.22054027017E+03  0.81030891281E+01 -0.83662349709E+03  0.86524132282E+03  0.25500000920E-02 0. -1.
       -2    1    3    3    0  502  0.22054027017E+03 -0.81030891281E+01  0.15055748107E+03  0.26715393677E+03  0.25500000920E-02 0.  1.
</event>
<event>
 5   0  0.2134145E-03  0.8984569E+03  0.7818609E-02  0.9427512E-01
        1   -1    0    0  501    0  0.00000000000E+00  0.00000000000E+00  0.32889777076E+03  0.32889777080E+03  0.50400001928E-02 0.  1.
       -1   -1    0    0    0  501  0.00000000000E+00  0.00000000000E+00 -0.61358337136E+03  0.61358337138E+03  0.50400001928E-02 0. -1.
    10030    2    1    2    0    0  0.00000000000E+00  0.00000000000E+00 -0.28468560060E+03  0.94248114218E+03  0.89845690613E+03 0.  0.
        1    1    3    3  502    0  0.30947202694E+03 -0.13006985618E+03 -0.45549182798E+03  0.56583028226E+03  0.50400001928E-02 0. -1.
       -1    1    3    3    0  502 -0.30947202694E+03  0.13006985618E+03  0.17080622738E+03  0.37665085992E+03  0.50400001928E-02 0.  1.
</event>
<event>
 5   0  0.3815269E-03  0.9010730E+03  0.7818609E-02  0.9424241E-01
       -2   -1    0    0    0  501  0.00000000000E+00  0.00000000000E+00  0.28527906808E+03  0.28527906809E+03  0.25500000920E-02 0. -1.
        2   -1    0    0  501    0  0.00000000000E+00  0.00000000000E+00 -0.71152479872E+03  0.71152479873E+03  0.25500000920E-02 0.  1.
    10030    2    1    2    0    0  0.00000000000E+00  0.00000000000E+00 -0.42624573064E+03  0.99680386682E+03  0.90107298596E+03 0.  0.
        5    1    3    3  502    0  0.36914221115E+03  0.20570893208E+03 -0.40397213915E+02  0.42454229669E+03  0.46999998093E+01 0. -1.
       -5    1    3    3    0  502 -0.36914221115E+03 -0.20570893208E+03 -0.38584851673E+03  0.57226157013E+03  0.46999998093E+01 0.  1.
</event>
<event>
 5   0  0.2295158E-03  0.9002811E+03  0.7818609E-02  0.9425230E-01
        1   -1    0    0  501    0  0.00000000000E+00  0.00000000000E+00  0.37853136481E+03  0.37853136485E+03  0.50400001928E-02 0.  1.
       -1   -1    0    0    0  501  0.00000000000E+00  0.00000000000E+00 -0.53529647910E+03  0.53529647912E+03  0.50400001928E-02 0. -1.
    10030    2    1    2    0    0  0.00000000000E+00  0.00000000000E+00 -0.15676511428E+03  0.91382784397E+03  0.90028108242E+03 0.  0.
        4    1    3    3  502    0  0.32564411345E+03 -0.30791472219E+03 -0.35686223732E+02  0.44958946188E+03  0.12699999809E+01 0.  1.
       -4    1    3    3    0  502 -0.32564411345E+03  0.30791472219E+03 -0.12107889055E+03  0.46423838209E+03  0.12699999809E+01 0. -1.
</event>
<event>
 5   0  0.2134145E-03  0.8988695E+03  0.7818609E-02  0.9426996E-01
       -1   -1    0    0    0  501  0.00000000000E+00  0.00000000000E+00  0.19986672796E+03  0.19986672803E+03  0.50400001928E-02 0. -1.
        1   -1    0    0  501    0  0.00000000000E+00  0.00000000000E+00 -0.10106313084E+04  0.10106313084E+04  0.50400001928E-02 0.  1.
    10030    2    1    2    0    0  0.00000000000E+00  0.00000000000E+00 -0.81076458043E+03  0.12104980364E+04  0.89886945177E+03 0.  0.
        1    1    3    3  502    0  0.11044862621E+03  0.18432995107E+03  0.12620219769E+03  0.24920558706E+03  0.50400001928E-02 0. -1.
       -1    1    3    3    0  502 -0.11044862621E+03 -0.18432995107E+03 -0.93696677812E+03  0.96129244938E+03  0.50400001928E-02 0.  1.
</event>
<event>
 5   0  0.3663255E-03  0.9017324E+03  0.7818609E-02  0.9423418E-01
        2   -1    0    0  501    0  0.00000000000E+00  0.00000000000E+00  0.33490753782E+03  0.33490753783E+03  0.25500000920E-02 0. -1.
       -2   -1    0    0    0  501  0.00000000000E+00  0.00000000000E+00 -0.60697448730E+03  0.60697448731E+03  0.25500000920E-02 0.  1.
    10030    2    1    2    0    0  0.00000000000E+00  0.00000000000E+00 -0.27206694948E+03  0.94188202514E+03  0.90173240170E+03 0.  0.
        4    1    3    3  502    0 -0.21475729866E+03  0.27212628393E+03 -0.43714904384E+03  0.55791962787E+03  0.12699999809E+01 0.  1.
       -4    1    3    3    0  502  0.21475729866E+03 -0.27212628393E+03  0.16508209436E+03  0.38396239726E+03  0.12699999809E+01 0. -1.
</event>
<event>
 5   0  0.2134145E-03  0.8995503E+03  0.7818609E-02  0.9426144E-01
       -1   -1    0    0    0  501  0.00000000000E+00  0.00000000000E+00  0.33183503011E+03  0.33183503015E+03  0.50400001928E-02 0.  1.
        1   -1    0    0  501    0  0.00000000000E+00  0.00000000000E+00 -0.60963329596E+03  0.60963329598E+03  0.50400001928E-02 0. -1.
    10030    2    1    2    0    0  0.00000000000E+00  0.00000000000E+00 -0.27779826585E+03  0.94146832614E+03  0.89955029465E+03 0.  0.
        1    1    3    3  502    0 -0.14422040881E+03  0.30374373697E+03 -0.45154661255E+03  0.56298679149E+03  0.50400001928E-02 0. -1.
       -1    1    3    3    0  502  0.14422040881E+03 -0.30374373697E+03  0.17374834670E+03  0.37848153465E+03  0.50400001928E-02 0.  1.
</event>
<event>
 5   0  0.2134145E-03  0.8922412E+03  0.7818609E-02  0.9435333E-01
        1   -1    0    0  501    0  0.00000000000E+00  0.00000000000E+00  0.10426421097E+04  0.10426421097E+04  0.50400001928E-02 0. -1.
       -1   -1    0    0    0  501  0.00000000000E+00  0.00000000000E+00 -0.19088391389E+03  0.19088391395E+03  0.50400001928E-02 0.  1.
    10030    2    1    2    0    0  0.00000000000E+00  0.00000000000E+00  0.85175819583E+03  0.12335260237E+04  0.89224123809E+03 0.  0.
        1    1    3    3  502    0  0.16044420088E+03 -0.39612618161E+03  0.24901968169E+03  0.49464036961E+03  0.50400001928E-02 0.  1.
       -1    1    3    3    0  502 -0.16044420088E+03  0.39612618161E+03  0.60273851414E+03  0.73888565408E+03  0.50400001928E-02 0. -1.
</event>
<event>
 5   0  0.2134145E-03  0.8990184E+03  0.7818609E-02  0.9426809E-01
        1   -1    0    0  501    0  0.00000000000E+00  0.00000000000E+00  0.95952371242E+03  0.95952371243E+03  0.50400001928E-02 0. -1.
       -1   -1    0    0    0  501  0.00000000000E+00  0.00000000000E+00 -0.21058208903E+03  0.21058208909E+03  0.50400001928E-02 0.  1.
    10030    2    1    2    0    0  0.00000000000E+00  0.00000000000E+00  0.74894162339E+03  0.11701058015E+04  0.89901837106E+03 0.  0.
        1    1    3    3  502    0  0.53770383607E-01  0.36214245734E+02  0.95762195871E+03  0.95830646994E+03  0.50400001928E-02 0. -1.
       -1    1    3    3    0  502 -0.53770383607E-01 -0.36214245734E+02 -0.20868033532E+03  0.21179933159E+03  0.50400001928E-02 0.  1.
</event>
<event>
 5   0  0.2130975E-03  0.9027476E+03  0.7818609E-02  0.9422153E-01
       -1   -1    0    0    0  501  0.00000000000E+00  0.00000000000E+00  0.43356541069E+03  0.43356541072E+03  0.50400001928E-02 0. -1.
        1   -1    0    0  501    0  0.00000000000E+00  0.00000000000E+00 -0.46991367806E+03  0.46991367809E+03  0.50400001928E-02 0.  1.
    10030    2    1    2    0    0  0.00000000000E+00  0.00000000000E+00 -0.36348267371E+02  0.90347908880E+03  0.90274762108E+03 0.  0.
        5    1    3    3  502    0  0.14931741287E+03  0.17317203825E+03  0.37128380075E+03  0.43607108975E+03  0.46999998093E+01 0. -1.
       -5    1    3    3    0  502 -0.14931741287E+03 -0.17317203825E+03 -0.40763206812E+03  0.46740799905E+03  0.46999998093E+01 0.  1.
</event>
<event>
 5   0  0.2130975E-03  0.8993827E+03  0.7818609E-02  0.9426353E-01
        1   -1    0    0  501    0  0.00000000000E+00  0.00000000000E+00  0.26724553879E+03  0.26724553884E+03  0.50400001928E-02 0. -1.
       -1   -1    0    0    0  501  0.00000000000E+00  0.00000000000E+00 -0.75669113844E+03  0.75669113845E+03  0.50400001928E-02 0.  1.
    10030    2    1    2    0    0  0.00000000000E+00  0.00000000000E+00 -0.48944559965E+03  0.10239366773E+04  0.89938274616E+03 0.  0.
        5    1    3    3  502    0 -0.25213063450E+03  0.29594255992E+02 -0.66727614720E+03  0.71395043488E+03  0.46999998093E+01 0.  1.
       -5    1    3    3    0  502  0.25213063450E+03 -0.29594255992E+02  0.17783054755E+03  0.30998624241E+03  0.46999998093E+01 0. -1.
</event>
<event>
 5   0  0.2074970E-03  0.9001034E+03  0.7818609E-02  0.9425452E-01
       -1   -1    0    0    0  501  0.00000000000E+00  0.00000000000E+00  0.20166993902E+03  0.20166993909E+03  0.50400001928E-02 0. -1.
        1   -1    0    0  501    0  0.00000000000E+00  0.00000000000E+00 -0.10043465943E+04  0.10043465943E+04  0.50400001928E-02 0.  1.
    10030    2    1    2    0    0  0.00000000000E+00  0.00000000000E+00 -0.80267665526E+03  0.12060165334E+04  0.90010336400E+03 0.  0.
        2    1    3    3  502    0  0.33804392369E+02  0.17963946811E+03 -0.95236880361E+03  0.96975224338E+03  0.25500000920E-02 0.  1.
       -2    1    3    3    0  502 -0.33804392369E+02 -0.17963946811E+03  0.14969214835E+03  0.23626429000E+03  0.25500000920E-02 0. -1.
</event>
<event>
 5   0  0.2074970E-03  0.8939143E+03  0.7818609E-02  0.9433221E-01
        1   -1    0    0  501    0  0.00000000000E+00  0.00000000000E+00  0.25344959642E+03  0.25344959647E+03  0.50400001928E-02 0. -1.
       -1   -1    0    0    0  501  0.00000000000E+00  0.00000000000E+00 -0.78820677679E+03  0.78820677681E+03  0.50400001928E-02 0.  1.
    10030    2    1    2    0    0  0.00000000000E+00  0.00000000000E+00 -0.53475718037E+03  0.10416563733E+04  0.89391429009E+03 0.  0.
        2    1    3    3  502    0 -0.32364004131E+03  0.30239338342E+03 -0.19759761122E+03  0.48500458827E+03  0.25500000920E-02 0. -1.
       -2    1    3    3    0  502  0.32364004131E+03 -0.30239338342E+03 -0.33715956915E+03  0.55665178501E+03  0.25500000920E-02 0.  1.
</event>
<event>
 5   0  0.2074970E-03  0.9019698E+03  0.7818609E-02  0.9423122E-01
       -1   -1    0    0    0  501  0.00000000000E+00  0.00000000000E+00  0.14848310891E+03  0.14848310900E+03  0.50400001928E-02 0. -1.
        1   -1    0    0  501    0  0.00000000000E+00  0.00000000000E+00 -0.13697679307E+04  0.13697679307E+04  0.50400001928E-02 0.  1.
    10030    2    1    2    0    0  0.00000000000E+00  0.00000000000E+00 -0.12212848218E+04  0.15182510397E+04  0.90196984630E+03 0.  0.
        2    1    3    3  502    0  0.14051929728E+03  0.37621093605E+03 -0.95604773358E+03  0.10369703999E+04  0.25500000920E-02 0.  1.
       -2    1    3    3    0  502 -0.14051929728E+03 -0.37621093605E+03 -0.26523708819E+03  0.48128063982E+03  0.25500000920E-02 0. -1.
</event>
<event>
 5   0  0.3815269E-03  0.8973330E+03  0.7818609E-02  0.9428921E-01
        2   -1    0    0  501    0  0.00000000000E+00  0.00000000000E+00  0.17571696647E+04  0.17571696647E+04  0.25500000920E-02 0.  1.
       -2   -1    0    0    0  501  0.00000000000E+00  0.00000000000E+00 -0.11456014548E+03  0.11456014551E+03  0.25500000920E-02 0. -1.
    10030    2    1    2    0    0  0.00000000000E+00  0.00000000000E+00  0.16426095192E+04  0.18717298102E+04  0.89733296485E+03 0.  0.
        5    1    3    3  502    0  0.10730935009E+03  0.35579058760E+03  0.29701664906E+03  0.47575541895E+03  0.46999998093E+01 0. -1.
       -5    1    3    3    0  502 -0.10730935009E+03 -0.35579058760E+03  0.13455928701E+04  0.13959743912E+04  0.46999998093E+01 0.  1.
</event>
<event>
 5   0  0.2134145E-03  0.8984685E+03  0.7818609E-02  0.9427498E-01
        1   -1    0    0  501    0  0.00000000000E+00  0.00000000000E+00  0.68620766607E+03  0.68620766609E+03  0.50400001928E-02 0. -1.
       -1   -1    0    0    0  501  0.00000000000E+00  0.00000000000E+00 -0.29409671528E+03  0.29409671532E+03  0.50400001928E-02 0.  1.
    10030    2    1    2    0    0  0.00000000000E+00  0.00000000000E+00  0.39211095079E+03  0.98030438141E+03  0.89846852058E+03 0.  0.
        1    1    3    3  502    0  0.17064083201E+03 -0.35552615703E+03  0.43081419881E+03  0.58405309331E+03  0.50400001928E-02 0. -1.
       -1    1    3    3    0  502 -0.17064083201E+03  0.35552615703E+03 -0.38703248027E+02  0.39625128809E+03  0.50400001928E-02 0.  1.
</event>
<event>
 5   0  0.1436000E-03  0.8566764E+03  0.7818609E-02  0.9481420E-01
        3   -1    0    0  501    0  0.00000000000E+00  0.00000000000E+00  0.38646222381E+03  0.38646223701E+03  0.10100000352E+00 0. -1.
       -3   -1    0    0    0  501  0.00000000000E+00  0.00000000000E+00 -0.47475167259E+03  0.47475168333E+03  0.10100000352E+00 0.  1.
    10030    2    1    2    0    0  0.00000000000E+00  0.00000000000E+00 -0.88289448778E+02  0.86121392034E+03  0.85667636236E+03 0.  0.
        2    1    3    3  502    0 -0.23190721159E+03  0.65436668689E+02  0.31186472646E+03  0.39410978167E+03  0.25500000920E-02 0. -1.
       -2    1    3    3    0  502  0.23190721159E+03 -0.65436668689E+02 -0.40015417524E+03  0.46710413867E+03  0.25500000920E-02 0.  1.
</event>
<event>
 5   0  0.3815269E-03  0.9029110E+03  0.7818609E-02  0.9421950E-01
       -2   -1    0    0    0  501  0.00000000000E+00  0.00000000000E+00  0.11931624966E+03  0.11931624969E+03  0.25500000920E-02 0.  1.
        2   -1    0    0  501    0  0.00000000000E+00  0.00000000000E+00 -0.17081669292E+04  0.17081669292E+04  0.25500000920E-02 0. -1.
    10030    2    1    2    0    0  0.00000000000E+00  0.00000000000E+00 -0.15888506795E+04  0.18274831789E+04  0.90291100738E+03 0.  0.
        5    1    3    3  502    0 -0.41114996476E+03 -0.17098143125E+03 -0.64417164461E+03  0.78310800090E+03  0.46999998093E+01 0.  1.
       -5    1    3    3    0  502  0.41114996476E+03  0.17098143125E+03 -0.94467903490E+03  0.10443751780E+04  0.46999998093E+01 0. -1.
</event>
<event>
 5   0  0.2295158E-03  0.9004196E+03  0.7818609E-02  0.9425057E-01
       -1   -1    0    0    0  501  0.00000000000E+00  0.00000000000E+00  0.41443999283E+03  0.41443999286E+03  0.50400001928E-02 0. -1.
        1   -1    0    0  501    0  0.00000000000E+00  0.00000000000E+00 -0.48906680414E+03  0.48906680417E+03  0.50400001928E-02 0.  1.
    10030    2    1    2    0    0  0.00000000000E+00  0.00000000000E+00 -0.74626811317E+02  0.90350679702E+03  0.90041955293E+03 0.  0.
        4    1    3    3  502    0 -0.12013957575E+02 -0.16466589668E+03  0.38296396730E+03  0.41703981327E+03  0.12699999809E+01 0. -1.
       -4    1    3    3    0  502  0.12013957575E+02  0.16466589668E+03 -0.45759077862E+03  0.48646698375E+03  0.12699999809E+01 0.  1.
</event>
<event>
 5   0  0.3663255E-03  0.9010651E+03  0.7818609E-02  0.9424251E-01
        2   -1    0    0  501    0  0.00000000000E+00  0.00000000000E+00  0.13792732478E+04  0.13792732478E+04  0.25500000920E-02 0.  1.
       -2   -1    0    0    0  501  0.00000000000E+00  0.00000000000E+00 -0.14716415275E+03  0.14716415277E+03  0.25500000920E-02 0. -1.
    10030    2    1    2    0    0  0.00000000000E+00  0.00000000000E+00  0.12321090951E+04  0.15264374006E+04  0.90106510074E+03 0.  0.
        4    1    3    3  502    0  0.19645109889E+03 -0.36022125020E+03  0.93128007097E+03  0.10176623049E+04  0.12699999809E+01 0.  1.
       -4    1    3    3    0  502 -0.19645109889E+03  0.36022125020E+03  0.30082902410E+03  0.50877509569E+03  0.12699999809E+01 0. -1.
</event>
<event>
 5   0  0.3685879E-03  0.9114557E+03  0.7818609E-02  0.9411373E-01
        2   -1    0    0  501    0  0.00000000000E+00  0.00000000000E+00  0.39043487951E+03  0.39043487952E+03  0.25500000920E-02 0.  1.
       -2   -1    0    0    0  501  0.00000000000E+00  0.00000000000E+00 -0.53193986525E+03  0.53193986526E+03  0.25500000920E-02 0. -1.
    10030    2    1    2    0    0  0.00000000000E+00  0.00000000000E+00 -0.14150498574E+03  0.92237474477E+03  0.91145570864E+03 0.  0.
        1    1    3    3  502    0 -0.27260525382E+03 -0.68595757366E+02  0.29224914571E+03  0.40549792297E+03  0.50400001928E-02 0.  1.
       -1    1    3    3    0  502  0.27260525382E+03  0.68595757366E+02 -0.43375413146E+03  0.51687682180E+03  0.50400001928E-02 0. -1.
</event>
<event>
 5   0  0.2129280E-03  0.8989790E+03  0.7818609E-02  0.9426859E-01
        1   -1    0    0  501    0  0.00000000000E+00  0.00000000000E+00  0.59035478608E+03  0.59035478610E+03  0.50400001928E-02 0.  1.
       -1   -1    0    0    0  501  0.00000000000E+00  0.00000000000E+00 -0.34223629124E+03  0.34223629128E+03  0.50400001928E-02 0. -1.
    10030    2    1    2    0    0  0.00000000000E+00  0.00000000000E+00  0.24811849484E+03  0.93259107738E+03  0.89897904877E+03 0.  0.
        3    1    3    3  502    0  0.10556025597E+03  0.31702092319E+03 -0.18784070246E+03  0.38331367453E+03  0.10100000352E+00 0.  1.
       -3    1    3    3    0  502 -0.10556025597E+03 -0.31702092319E+03  0.43595919730E+03  0.54927740285E+03  0.10100000352E+00 0. -1.
</event>
<event>
 5   0  0.3626546E-03  0.9004977E+03  0.7818609E-02  0.9424959E-01
        2   -1    0    0  501    0  0.00000000000E+00  0.00000000000E+00  0.29632858302E+03  0.29632858303E+03  0.25500000920E-02 0. -1.
       -2   -1    0    0    0  501  0.00000000000E+00  0.00000000000E+00 -0.68411910211E+03  0.68411910211E+03  0.25500000920E-02 0.  1.
    10030    2    1    2    0    0  0.00000000000E+00  0.00000000000E+00 -0.38779051908E+03  0.98044768514E+03  0.90049773826E+03 0.  0.
        3    1    3    3  502    0 -0.29384289879E+03  0.69193382667E+02 -0.55760892206E+03  0.63408129884E+03  0.10100000352E+00 0.  1.
       -3    1    3    3    0  502  0.29384289879E+03 -0.69193382667E+02  0.16981840298E+03  0.34636638631E+03  0.10100000352E+00 0. -1.
</event>
<event>
 5   0  0.2295158E-03  0.9007840E+03  0.7818609E-02  0.9424602E-01
       -1   -1    0    0    0  501  0.00000000000E+00  0.00000000000E+00  0.38002189320E+03  0.38002189324E+03  0.50400001928E-02 0.  1.
        1   -1    0    0  501    0  0.00000000000E+00  0.00000000000E+00 -0.53379280554E+03  0.53379280557E+03  0.50400001928E-02 0. -1.
    10030    2    1    2    0    0  0.00000000000E+00  0.00000000000E+00 -0.15377091234E+03  0.91381469880E+03  0.90078399756E+03 0.  0.
        4    1    3    3  502    0 -0.34798576651E+03 -0.11051680401E+03  0.19063997243E+03  0.41188987563E+03  0.12699999809E+01 0. -1.
       -4    1    3    3    0  502  0.34798576651E+03  0.11051680401E+03 -0.34441088477E+03  0.50192482317E+03  0.12699999809E+01 0.  1.
</event>
<event>
 5   0  0.3806019E-03  0.8967382E+03  0.7818609E-02  0.9429668E-01
       -2   -1    0    0    0  501  0.00000000000E+00  0.00000000000E+00  0.11936348399E+03  0.11936348401E+03  0.25500000920E-02 0. -1.
        2   -1    0    0  501    0  0.00000000000E+00  0.00000000000E+00 -0.16842239687E+04  0.16842239687E+04  0.25500000920E-02 0.  1.
    10030    2    1    2    0    0  0.00000000000E+00  0.00000000000E+00 -0.15648604847E+04  0.18035874527E+04  0.89673817972E+03 0.  0.
        2    1    3    3  502    0 -0.35468357138E+03 -0.11828881293E+03 -0.12801636603E+04  0.13336460086E+04  0.25500000920E-02 0. -1.
       -2    1    3    3    0  502  0.35468357138E+03  0.11828881293E+03 -0.28469682443E+03  0.46994144414E+03  0.25500000920E-02 0.  1.
</event>
<event>
 5   0  0.2295158E-03  0.8952319E+03  0.7818609E-02  0.9431561E-01
        1   -1    0    0  501    0  0.00000000000E+00  0.00000000000E+00  0.73552925408E+03  0.73552925409E+03  0.50400001928E-02 0. -1.
       -1   -1    0    0    0  501  0.00000000000E+00  0.00000000000E+00 -0.27240255630E+03  0.27240255634E+03  0.50400001928E-02 0.  1.
    10030    2    1    2    0    0  0.00000000000E+00  0.00000000000E+00  0.46312669778E+03  0.10079318104E+04  0.89523192319E+03 0.  0.
        4    1    3    3  502    0 -0.22587819814E+03  0.26905982404E+03  0.54387183195E+03  0.64746608544E+03  0.12699999809E+01 0. -1.
       -4    1    3    3    0  502  0.22587819814E+03 -0.26905982404E+03 -0.80745134166E+02  0.36046572500E+03  0.12699999809E+01 0.  1.
</event>
<event>
 5   0  0.2295158E-03  0.8891932E+03  0.7818609E-02  0.9439192E-01
        1   -1    0    0  501    0  0.00000000000E+00  0.00000000000E+00  0.77089186399E+03  0.77089186400E+03  0.50400001928E-02 0. -1.
       -1   -1    0    0    0  501  0.00000000000E+00  0.00000000000E+00 -0.25641228646E+03  0.25641228651E+03  0.50400001928E-02 0.  1.
    10030    2    1    2    0    0  0.00000000000E+00  0.00000000000E+00  0.51447957752E+03  0.10273041505E+04  0.88919321971E+03 0.  0.
        4    1    3    3  502    0  0.10155683281E+03  0.36202001117E+03  0.53135126522E+03  0.65092861262E+03  0.12699999809E+01 0. -1.
       -4    1    3    3    0  502 -0.10155683281E+03 -0.36202001117E+03 -0.16871687702E+02  0.37637553789E+03  0.12699999809E+01 0.  1.
</event>
<event>
 5   0  0.2074970E-03  0.8996854E+03  0.7818609E-02  0.9425975E-01
        1   -1    0    0  501    0  0.00000000000E+00  0.00000000000E+00  0.30429237893E+03  0.30429237897E+03  0.50400001928E-02 0. -1.
       -1   -1    0    0    0  501  0.00000000000E+00  0.00000000000E+00 -0.66501317697E+03  0.66501317699E+03  0.50400001928E-02 0.  1.
    10030    2    1    2    0    0  0.00000000000E+00  0.00000000000E+00 -0.36072079804E+03  0.96930555595E+03  0.89968537093E+03 0.  0.
        2    1    3    3  502    0  0.27393664743E+03 -0.35583587642E+03 -0.20882419037E+03  0.49524539397E+03  0.25500000920E-02 0.  1.
       -2    1    3    3    0  502 -0.27393664743E+03  0.35583587642E+03 -0.15189660767E+03  0.47406016199E+03  0.25500000920E-02 0. -1.
</event>
<event>
 5   0  0.3806019E-03  0.8972467E+03  0.7818609E-02  0.9429030E-01
       -2   -1    0    0    0  501  0.00000000000E+00  0.00000000000E+00  0.43807063911E+03  0.43807063912E+03  0.25500000920E-02 0.  1.
        2   -1    0    0  501    0  0.00000000000E+00  0.00000000000E+00 -0.45943026726E+03  0.45943026727E+03  0.25500000920E-02 0. -1.
    10030    2    1    2    0    0  0.00000000000E+00  0.00000000000E+00 -0.21359628151E+02  0.89750090638E+03  0.89724670144E+03 0.  0.
        2    1    3    3  502    0 -0.22102192981E+03 -0.37566150658E+03 -0.11696738807E+03  0.45127999165E+03  0.25500000920E-02 0.  1.
       -2    1    3    3    0  502  0.22102192981E+03  0.37566150658E+03  0.95607759923E+02  0.44622091473E+03  0.25500000920E-02 0. -1.
</event>
<event>
 5   0  0.3685879E-03  0.9007838E+03  0.7818609E-02  0.9424602E-01
        2   -1    0    0  501    0  0.00000000000E+00  0.00000000000E+00  0.10006726109E+04  0.10006726109E+04  0.25500000920E-02 0. -1.
       -2   -1    0    0    0  501  0.00000000000E+00  0.00000000000E+00 -0.20271649755E+03  0.20271649757E+03  0.25500000920E-02 0.  1.
    10030    2    1    2    0    0  0.00000000000E+00  0.00000000000E+00  0.79795611339E+03  0.12033891085E+04  0.90078376295E+03 0.  0.
        1    1    3    3  502    0 -0.41889552159E+03  0.35488363294E+02  0.61488759170E+03  0.74486215664E+03  0.50400001928E-02 0. -1.
       -1    1    3    3    0  502  0.41889552159E+03 -0.35488363294E+02  0.18306852168E+03  0.45852695187E+03  0.50400001928E-02 0.  1.
</event>
<event>
 5   0  0.1436000E-03  0.9038712E+03  0.7818609E-02  0.9420755E-01
       -4   -1    0    0    0  501  0.00000000000E+00  0.00000000000E+00  0.61491903113E+03  0.61492034260E+03  0.12699999809E+01 0.  1.
        4   -1    0    0  501    0  0.00000000000E+00  0.00000000000E+00 -0.33214781274E+03  0.33215024072E+03  0.12699999809E+01 0. -1.
    10030    2    1    2    0    0  0.00000000000E+00  0.00000000000E+00  0.28277121839E+03  0.94707058332E+03  0.90387118986E+03 0.  0.
        4    1    3    3  502    0  0.14903081477E+03  0.26052922378E+03  0.49540736135E+03  0.57923719388E+03  0.12699999809E+01 0.  1.
       -4    1    3    3    0  502 -0.14903081477E+03 -0.26052922378E+03 -0.21263614297E+03  0.36783338944E+03  0.12699999809E+01 0. -1.
</event>
<event>
 5   0  0.3685879E-03  0.9002195E+03  0.7818609E-02  0.9425307E-01
        2   -1    0    0  501    0  0.00000000000E+00  0.00000000000E+00  0.12222739797E+04  0.12222739797E+04  0.25500000920E-02 0.  1.
       -2   -1    0    0    0  501  0.00000000000E+00  0.00000000000E+00 -0.16575561236E+03  0.16575561238E+03  0.25500000920E-02 0. -1.
    10030    2    1    2    0    0  0.00000000000E+00  0.00000000000E+00  0.10565183673E+04  0.13880295920E+04  0.90021946654E+03 0.  0.
        1    1    3    3  502    0  0.17345228733E+01  0.20819284366E+03  0.11435665231E+04  0.11623646852E+04  0.50400001928E-02 0.  1.
       -1    1    3    3    0  502 -0.17345228733E+01 -0.20819284366E+03 -0.87048155769E+02  0.22566490682E+03  0.50400001928E-02 0. -1.
</event>
<event>
 5   0  0.2134145E-03  0.9029079E+03  0.7818609E-02  0.9421954E-01
        1   -1    0    0  501    0  0.00000000000E+00  0.00000000000E+00  0.43760275330E+03  0.43760275332E+03  0.50400001928E-02 0. -1.
       -1   -1    0    0    0  501  0.00000000000E+00  0.00000000000E+00 -0.46574355754E+03  0.46574355756E+03  0.50400001928E-02 0.  1.
    10030    2    1    2    0    0  0.00000000000E+00  0.00000000000E+00 -0.28140804240E+02  0.90334631089E+03  0.90290788707E+03 0.  0.
        1    1    3    3  502    0 -0.17133086102E+03  0.35640438069E+03 -0.23196576938E+03  0.45846097403E+03  0.50400001928E-02 0.  1.
       -1    1    3    3    0  502  0.17133086102E+03 -0.35640438069E+03  0.20382496514E+03  0.44488533686E+03  0.50400001928E-02 0. -1.
</event>
<event>
 5   0  0.3815269E-03  0.9007954E+03  0.7818609E-02  0.9424588E-01
       -2   -1    0    0    0  501  0.00000000000E+00  0.00000000000E+00  0.29453059240E+03  0.29453059241E+03  0.25500000920E-02 0. -1.
        2   -1    0    0  501    0  0.00000000000E+00  0.00000000000E+00 -0.68875045031E+03  0.68875045031E+03  0.25500000920E-02 0.  1.
    10030    2    1    2    0    0  0.00000000000E+00  0.00000000000E+00 -0.39421985791E+03  0.98328104273E+03  0.90079537777E+03 0.  0.
        5    1    3    3  502    0 -0.35507441756E+03 -0.23992506310E+03 -0.34833907844E+03  0.55227174604E+03  0.46999998093E+01 0.  1.
       -5    1    3    3    0  502  0.35507441756E+03  0.23992506310E+03 -0.45880779465E+02  0.43100929669E+03  0.46999998093E+01 0. -1.
</event>
<event>
 5   0  0.1436000E-03  0.8918207E+03  0.7818609E-02  0.9435864E-01
       -3   -1    0    0    0  501  0.00000000000E+00  0.00000000000E+00  0.41847064760E+03  0.41847065979E+03  0.10100000352E+00 0. -1.
        3   -1    0    0  501    0  0.00000000000E+00  0.00000000000E+00 -0.47514925736E+03  0.47514926810E+03  0.10100000352E+00 0.  1.
    10030    2    1    2    0    0  0.00000000000E+00  0.00000000000E+00 -0.56678609760E+02  0.89361992789E+03  0.89182067184E+03 0.  0.
        4    1    3    3  502    0 -0.15377180584E+03  0.14909686418E+03 -0.42022779097E+03  0.47166582702E+03  0.12699999809E+01 0.  1.
       -4    1    3    3    0  502  0.15377180584E+03 -0.14909686418E+03  0.36354918121E+03  0.42195410087E+03  0.12699999809E+01 0. -1.
</event>
<event>
 5   0  0.3663255E-03  0.9033629E+03  0.7818609E-02  0.9421387E-01
        2   -1    0    0  501    0  0.00000000000E+00  0.00000000000E+00  0.30291352063E+03  0.30291352064E+03  0.25500000920E-02 0.  1.
       -2   -1    0    0    0  501  0.00000000000E+00  0.00000000000E+00 -0.67351272465E+03  0.67351272465E+03  0.25500000920E-02 0. -1.
    10030    2    1    2    0    0  0.00000000000E+00  0.00000000000E+00 -0.37059920402E+03  0.97642624529E+03  0.90336285206E+03 0.  0.
        4    1    3    3  502    0  0.33633980783E+03 -0.83121332124E+02  0.12793332998E+03  0.36932664676E+03  0.12699999809E+01 0.  1.
       -4    1    3    3    0  502 -0.33633980783E+03  0.83121332124E+02 -0.49853253400E+03  0.60709959854E+03  0.12699999809E+01 0. -1.
</event>
<event>
 5   0  0.3663255E-03  0.8936313E+03  0.7818609E-02  0.9433578E-01
        2   -1    0    0  501    0  0.00000000000E+00  0.00000000000E+00  0.47380654079E+03  0.47380654079E+03  0.25500000920E-02 0. -1.
       -2   -1    0    0    0  501  0.00000000000E+00  0.00000000000E+00 -0.42136227864E+03  0.42136227865E+03  0.25500000920E-02 0.  1.
    10030    2    1    2    0    0  0.00000000000E+00  0.00000000000E+00  0.52444262148E+02  0.89516881944E+03  0.89363125207E+03 0.  0.
        4    1    3    3  502    0  0.44473216343E+02 -0.72546931700E+02 -0.41316872276E+03  0.42184230541E+03  0.12699999809E+01 0.  1.
       -4    1    3    3    0  502 -0.44473216343E+02  0.72546931700E+02  0.46561298491E+03  0.47332651403E+03  0.12699999809E+01 0. -1.
</event>
<event>
 5   0  0.2074970E-03  0.8971462E+03  0.7818609E-02  0.9429156E-01
        1   -1    0    0  501    0  0.00000000000E+00  0.00000000000E+00  0.57833019946E+03  0.57833019949E+03  0.50400001928E-02 0.  1.
       -1   -1    0    0    0  501  0.00000000000E+00  0.00000000000E+00 -0.34792895130E+03  0.34792895134E+03  0.50400001928E-02 0. -1.
    10030    2    1    2    0    0  0.00000000000E+00  0.00000000000E+00  0.23040124816E+03  0.92625915082E+03  0.89714618615E+03 0.  0.
        2    1    3    3  502    0  0.35103070867E+03  0.13494588728E+03  0.36764455662E+03  0.52592344589E+03  0.25500000920E-02 0.  1.
       -2    1    3    3    0  502 -0.35103070867E+03 -0.13494588728E+03 -0.13724330846E+03  0.40033570493E+03  0.25500000920E-02 0. -1.
</event>
<event>
 5   0  0.2134145E-03  0.8972969E+03  0.7818609E-02  0.9428967E-01
       -1   -1    0    0    0  501  0.00000000000E+00  0.00000000000E+00  0.11989714054E+04  0.11989714054E+04  0.50400001928E-02 0. -1.
        1   -1    0    0  501    0  0.00000000000E+00  0.00000000000E+00 -0.16788177376E+03  0.16788177384E+03  0.50400001928E-02 0.  1.
    10030    2    1    2    0    0  0.00000000000E+00  0.00000000000E+00  0.10310896316E+04  0.13668531792E+04  0.89729693253E+03 0.  0.
        1    1    3    3  502    0  0.14824405162E+03 -0.16456429860E+03 -0.78791930925E+02  0.23508695331E+03  0.50400001928E-02 0.  1.
       -1    1    3    3    0  502 -0.14824405162E+03  0.16456429860E+03  0.11098815625E+04  0.11317662259E+04  0.50400001928E-02 0. -1.
</event>
<event>
 5   0  0.2130975E-03  0.8945693E+03  0.7818609E-02  0.9432396E-01
       -1   -1    0    0    0  501  0.00000000000E+00  0.00000000000E+00  0.38110201150E+03  0.38110201153E+03  0.50400001928E-02 0. -1.
        1   -1    0    0  501    0  0.00000000000E+00  0.00000000000E+00 -0.52496059372E+03  0.52496059375E+03  0.50400001928E-02 0.  1.
    10030    2    1    2    0    0  0.00000000000E+00  0.00000000000E+00 -0.14385858222E+03  0.90606260528E+03  0.89456925557E+03 0.  0.
        5    1    3    3  502    0 -0.15761207256E+03 -0.36772941990E+03  0.13057686900E+03  0.42087872409E+03  0.46999998093E+01 0. -1.
       -5    1    3    3    0  502  0.15761207256E+03  0.36772941990E+03 -0.27443545122E+03  0.48518388119E+03  0.46999998093E+01 0.  1.
</event>
<event>
 5   0  0.3663255E-03  0.9003906E+03  0.7818609E-02  0.9425093E-01
        2   -1    0    0  501    0  0.00000000000E+00  0.00000000000E+00  0.18524373049E+04  0.18524373049E+04  0.25500000920E-02 0. -1.
       -2   -1    0    0    0  501  0.00000000000E+00  0.00000000000E+00 -0.10941033863E+03  0.10941033866E+03  0.25500000920E-02 0.  1.
    10030    2    1    2    0    0  0.00000000000E+00  0.00000000000E+00  0.17430269663E+04  0.19618476435E+04  0.90039056602E+03 0.  0.
        4    1    3    3  502    0 -0.28842896395E+03 -0.19854277186E+03  0.14880405053E+04  0.15286846169E+04  0.12699999809E+01 0. -1.
       -4    1    3    3    0  502  0.28842896395E+03  0.19854277186E+03  0.25498646094E+03  0.43316302666E+03  0.12699999809E+01 0.  1.
</event>
<event>
 5   0  0.3815269E-03  0.8943796E+03  0.7818609E-02  0.9432635E-01
        2   -1    0    0  501    0  0.00000000000E+00  0.00000000000E+00  0.18299621804E+04  0.18299621804E+04  0.25500000920E-02 0. -1.
       -2   -1    0    0    0  501  0.00000000000E+00  0.00000000000E+00 -0.10928025573E+03  0.10928025576E+03  0.25500000920E-02 0.  1.
    10030    2    1    2    0    0  0.00000000000E+00  0.00000000000E+00  0.17206819247E+04  0.19392424362E+04  0.89437963995E+03 0.  0.
        5    1    3    3  502    0  0.19592830356E+03  0.21486126733E+03  0.15969201913E+04  0.16231849715E+04  0.46999998093E+01 0. -1.
       -5    1    3    3    0  502 -0.19592830356E+03 -0.21486126733E+03  0.12376173339E+03  0.31605746468E+03  0.46999998093E+01 0.  1.
</event>
<event>
 5   0  0.3685879E-03  0.9005408E+03  0.7818609E-02  0.9424906E-01
        2   -1    0    0  501    0  0.00000000000E+00  0.00000000000E+00  0.99138188940E+03  0.99138188941E+03  0.25500000920E-02 0. -1.
       -2   -1    0    0    0  501  0.00000000000E+00  0.00000000000E+00 -0.20450586538E+03  0.20450586539E+03  0.25500000920E-02 0.  1.
    10030    2    1    2    0    0  0.00000000000E+00  0.00000000000E+00  0.78687602402E+03  0.11958877548E+04  0.90054075138E+03 0.  0.
        1    1    3    3  502    0 -0.77422921815E+02 -0.55270184678E+02  0.97788547678E+03  0.98250145438E+03  0.50400001928E-02 0. -1.
       -1    1    3    3    0  502  0.77422921815E+02  0.55270184678E+02 -0.19100945276E+03  0.21338630042E+03  0.50400001928E-02 0.  1.
</event>
<event>
 5   0  0.3685879E-03  0.8999118E+03  0.7818609E-02  0.9425692E-01
       -2   -1    0    0    0  501  0.00000000000E+00  0.00000000000E+00  0.17356468459E+03  0.17356468461E+03  0.25500000920E-02 0.  1.
        2   -1    0    0  501    0  0.00000000000E+00  0.00000000000E+00 -0.11664832107E+04  0.11664832107E+04  0.25500000920E-02 0. -1.
    10030    2    1    2    0    0  0.00000000000E+00  0.00000000000E+00 -0.99291852609E+03  0.13400478953E+04  0.89991175246E+03 0.  0.
        1    1    3    3  502    0 -0.27779082070E+03  0.26823933579E+03 -0.84037159957E+03  0.92484836958E+03  0.50400001928E-02 0.  1.
       -1    1    3    3    0  502  0.27779082070E+03 -0.26823933579E+03 -0.15254692652E+03  0.41519952571E+03  0.50400001928E-02 0. -1.
</event>
<event>
 5   0  0.2130975E-03  0.8939422E+03  0.7818609E-02  0.9433186E-01
        1   -1    0    0  501    0  0.00000000000E+00  0.00000000000E+00  0.33129326491E+03  0.33129326495E+03  0.50400001928E-02 0. -1.
       -1   -1    0    0    0  501  0.00000000000E+00  0.00000000000E+00 -0.60304022325E+03  0.60304022327E+03  0.50400001928E-02 0.  1.
    10030    2    1    2    0    0  0.00000000000E+00  0.00000000000E+00 -0.27174695834E+03  0.93433348822E+03  0.89394220050E+03 0.  0.
        5    1    3    3  502    0 -0.36084087809E+03 -0.71246439693E+02  0.12952670383E+03  0.38997621912E+03  0.46999998093E+01 0. -1.
       -5    1    3    3    0  502  0.36084087809E+03  0.71246439693E+02 -0.40127366217E+03  0.54435726910E+03  0.46999998093E+01 0.  1.
</event>
<event>
 5   0  0.2130975E-03  0.8966907E+03  0.7818609E-02  0.9429728E-01
        1   -1    0    0  501    0  0.00000000000E+00  0.00000000000E+00  0.99577824858E+03  0.99577824860E+03  0.50400001928E-02 0. -1.
       -1   -1    0    0    0  501  0.00000000000E+00  0.00000000000E+00 -0.20186577155E+03  0.20186577161E+03  0.50400001928E-02 0.  1.
    10030    2    1    2    0    0  0.00000000000E+00  0.00000000000E+00  0.79391247704E+03  0.11976440202E+04  0.89669068131E+03 0.  0.
        5    1    3    3  502    0  0.13665056126E+03 -0.42405543048E+03  0.33024077574E+03  0.55459664980E+03  0.46999998093E+01 0. -1.
       -5    1    3    3    0  502 -0.13665056126E+03  0.42405543048E+03  0.46367170130E+03  0.64304737041E+03  0.46999998093E+01 0.  1.
</event>
<event>
 5   0  0.3663255E-03  0.8995045E+03  0.7818609E-02  0.9426201E-01
        2   -1    0    0  501    0  0.00000000000E+00  0.00000000000E+00  0.12025268195E+04  0.12025268195E+04  0.25500000920E-02 0. -1.
       -2   -1    0    0    0  501  0.00000000000E+00  0.00000000000E+00 -0.16821004802E+03  0.16821004804E+03  0.25500000920E-02 0.  1.
    10030    2    1    2    0    0  0.00000000000E+00  0.00000000000E+00  0.10343167715E+04  0.13707368675E+04  0.89950451708E+03 0.  0.
        4    1    3    3  502    0  0.58961819963E+02  0.44124287905E+03  0.41953836435E+03  0.61170730467E+03  0.12699999809E+01 0.  1.
       -4    1    3    3    0  502 -0.58961819963E+02 -0.44124287905E+03  0.61477840710E+03  0.75902956284E+03  0.12699999809E+01 0. -1.
</event>
<event>
 5   0  0.2295158E-03  0.8990299E+03  0.7818609E-02  0.9426795E-01
        1   -1    0    0  501    0  0.00000000000E+00  0.00000000000E+00  0.14921826885E+04  0.14921826885E+04  0.50400001928E-02 0.  1.
       -1   -1    0    0    0  501  0.00000000000E+00  0.00000000000E+00 -0.13541483321E+03  0.13541483330E+03  0.50400001928E-02 0. -1.
    10030    2    1    2    0    0  0.00000000000E+00  0.00000000000E+00  0.13567678553E+04  0.16275975218E+04  0.89902985480E+03 0.  0.
        4    1    3    3  502    0 -0.17393626642E+03  0.39405669490E+03  0.91112722967E+03  0.10078139437E+04  0.12699999809E+01 0.  1.
       -4    1    3    3    0  502  0.17393626642E+03 -0.39405669490E+03  0.44564062558E+03  0.61978357807E+03  0.12699999809E+01 0. -1.
</event>
<event>
 5   0  0.3663255E-03  0.9001159E+03  0.7818609E-02  0.9425437E-01
        2   -1    0    0  501    0  0.00000000000E+00  0.00000000000E+00  0.16384263161E+04  0.16384263161E+04  0.25500000920E-02 0.  1.
       -2   -1    0    0    0  501  0.00000000000E+00  0.00000000000E+00 -0.12362604293E+03  0.12362604296E+03  0.25500000920E-02 0. -1.
    10030    2    1    2    0    0  0.00000000000E+00  0.00000000000E+00  0.15148002732E+04  0.17620523591E+04  0.90011590836E+03 0.  0.
        4    1    3    3  502    0  0.18058519153E+03 -0.85278204438E+00  0.15643873604E+04  0.15747765444E+04  0.12699999809E+01 0.  1.
       -4    1    3    3    0  502 -0.18058519153E+03  0.85278204438E+00 -0.49587087200E+02  0.18727581465E+03  0.12699999809E+01 0. -1.
</event>
<event>
 5   0  0.2129280E-03  0.8977937E+03  0.7818609E-02  0.9428344E-01
       -1   -1    0    0    0  501  0.00000000000E+00  0.00000000000E+00  0.54830533522E+03  0.54830533524E+03  0.50400001928E-02 0. -1.
        1   -1    0    0  501    0  0.00000000000E+00  0.00000000000E+00 -0.36751125809E+03  0.36751125813E+03  0.50400001928E-02 0.  1.
    10030    2    1    2    0    0  0.00000000000E+00  0.00000000000E+00  0.18079407712E+03  0.91581659337E+03  0.89779370368E+03 0.  0.
        3    1    3    3  502    0  0.36881027313E+03 -0.83136506349E+02 -0.15648563489E+03  0.40917045394E+03  0.10100000352E+00 0.  1.
       -3    1    3    3    0  502 -0.36881027313E+03  0.83136506349E+02  0.33727971201E+03  0.50664613942E+03  0.10100000352E+00 0. -1.
</event>
<event>
 5   0  0.2295158E-03  0.9283243E+03  0.7818609E-02  0.9390851E-01
        1   -1    0    0  501    0  0.00000000000E+00  0.00000000000E+00  0.24602239939E+04  0.24602239939E+04  0.50400001928E-02 0.  1.
       -1   -1    0    0    0  501  0.00000000000E+00  0.00000000000E+00 -0.87571902308E+02  0.87571902453E+02  0.50400001928E-02 0. -1.
    10030    2    1    2    0    0  0.00000000000E+00  0.00000000000E+00  0.23726520916E+04  0.25477958964E+04  0.92832428697E+03 0.  0.
        4    1    3    3  502    0  0.19190173634E+03 -0.24574463155E+03  0.21300075154E+04  0.21527076738E+04  0.12699999809E+01 0.  1.
       -4    1    3    3    0  502 -0.19190173634E+03  0.24574463155E+03  0.24264457622E+03  0.39508822257E+03  0.12699999809E+01 0. -1.
</event>
<event>
 5   0  0.2074970E-03  0.9009206E+03  0.7818609E-02  0.9424431E-01
       -1   -1    0    0    0  501  0.00000000000E+00  0.00000000000E+00  0.29460117306E+03  0.29460117311E+03  0.50400001928E-02 0. -1.
        1   -1    0    0  501    0  0.00000000000E+00  0.00000000000E+00 -0.68877685976E+03  0.68877685978E+03  0.50400001928E-02 0.  1.
    10030    2    1    2    0    0  0.00000000000E+00  0.00000000000E+00 -0.39417568670E+03  0.98337803289E+03  0.90092057562E+03 0.  0.
        2    1    3    3  502    0  0.27633532027E+03 -0.18857504378E+03 -0.52634658007E+03  0.62366856481E+03  0.25500000920E-02 0.  1.
       -2    1    3    3    0  502 -0.27633532027E+03  0.18857504378E+03  0.13217089337E+03  0.35970946808E+03  0.25500000920E-02 0. -1.
</event>
<event>
 5   0  0.3685879E-03  0.8929415E+03  0.7818609E-02  0.9434448E-01
       -2   -1    0    0    0  501  0.00000000000E+00  0.00000000000E+00  0.11784387144E+03  0.11784387146E+03  0.25500000920E-02 0.  1.
        2   -1    0    0  501    0  0.00000000000E+00  0.00000000000E+00 -0.16915273904E+04  0.16915273904E+04  0.25500000920E-02 0. -1.
    10030    2    1    2    0    0  0.00000000000E+00  0.00000000000E+00 -0.15736835190E+04  0.18093712619E+04  0.89294151288E+03 0.  0.
        1    1    3    3  502    0 -0.16721737334E+03 -0.31541154326E+03 -0.24354257720E+03  0.43215631257E+03  0.50400001928E-02 0.  1.
       -1    1    3    3    0  502  0.16721737334E+03  0.31541154326E+03 -0.13301409418E+04  0.13772149493E+04  0.50400001928E-02 0. -1.
</event>
<event>
 5   0  0.2134145E-03  0.9000187E+03  0.7818609E-02  0.9425558E-01
        1   -1    0    0  501    0  0.00000000000E+00  0.00000000000E+00  0.80444099021E+03  0.80444099022E+03  0.50400001928E-02 0. -1.
       -1   -1    0    0    0  501  0.00000000000E+00  0.00000000000E+00 -0.25173803873E+03  0.25173803878E+03  0.50400001928E-02 0.  1.
    10030    2    1    2    0    0  0.00000000000E+00  0.00000000000E+00  0.55270295148E+03  0.10561790290E+04  0.90001866021E+03 0.  0.
        1    1    3    3  502    0 -0.96856700846E+02  0.22784261226E+03  0.71733901651E+03  0.75886015911E+03  0.50400001928E-02 0. -1.
       -1    1    3    3    0  502  0.96856700846E+02 -0.22784261226E+03 -0.16463606503E+03  0.29731886989E+03  0.50400001928E-02 0.  1.
</event>
<event>
 5   0  0.3685879E-03  0.9021464E+03  0.7818609E-02  0.9422902E-01
       -2   -1    0    0    0  501  0.00000000000E+00  0.00000000000E+00  0.11925396773E+03  0.11925396776E+03  0.25500000920E-02 0. -1.
        2   -1    0    0  501    0  0.00000000000E+00  0.00000000000E+00 -0.17061657293E+04  0.17061657293E+04  0.25500000920E-02 0.  1.
    10030    2    1    2    0    0  0.00000000000E+00  0.00000000000E+00 -0.15869117616E+04  0.18254196971E+04  0.90214640244E+03 0.  0.
        1    1    3    3  502    0 -0.50758221089E+02 -0.44640938735E+03 -0.87462736798E+03  0.98327553156E+03  0.50400001928E-02 0.  1.
       -1    1    3    3    0  502  0.50758221089E+02  0.44640938735E+03 -0.71228439363E+03  0.84214416554E+03  0.50400001928E-02 0. -1.
</event>
<event>
 5   0  0.3806019E-03  0.8996795E+03  0.7818609E-02  0.9425982E-01
        2   -1    0    0  501    0  0.00000000000E+00  0.00000000000E+00  0.15180295203E+04  0.15180295203E+04  0.25500000920E-02 0.  1.
       -2   -1    0    0    0  501  0.00000000000E+00  0.00000000000E+00 -0.13330161792E+03  0.13330161794E+03  0.25500000920E-02 0. -1.
    10030    2    1    2    0    0  0.00000000000E+00  0.00000000000E+00  0.13847279024E+04  0.16513311383E+04  0.89967947876E+03 0.  0.
        2    1    3    3  502    0  0.10565723576E+03  0.40267454442E+03  0.37954996330E+03  0.56335460843E+03  0.25500000920E-02 0. -1.
       -2    1    3    3    0  502 -0.10565723576E+03 -0.40267454442E+03  0.10051779391E+04  0.10879765298E+04  0.25500000920E-02 0.  1.
</event>
<event>
 5   0  0.3663255E-03  0.8992195E+03  0.7818609E-02  0.9426558E-01
       -2   -1    0    0    0  501  0.00000000000E+00  0.00000000000E+00  0.80553974882E+03  0.80553974882E+03  0.25500000920E-02 0. -1.
        2   -1    0    0  501    0  0.00000000000E+00  0.00000000000E+00 -0.25094842690E+03  0.25094842692E+03  0.25500000920E-02 0.  1.
    10030    2    1    2    0    0  0.00000000000E+00  0.00000000000E+00  0.55459132192E+03  0.10564881757E+04  0.89921951221E+03 0.  0.
        4    1    3    3  502    0  0.68984441166E+02 -0.94902672138E+02  0.78723505346E+03  0.79593090943E+03  0.12699999809E+01 0. -1.
       -4    1    3    3    0  502 -0.68984441166E+02  0.94902672138E+02 -0.23264373154E+03  0.26055726631E+03  0.12699999809E+01 0.  1.
</event>
<event>
 5   0  0.2074970E-03  0.9272949E+03  0.7818609E-02  0.9392090E-01
        1   -1    0    0  501    0  0.00000000000E+00  0.00000000000E+00  0.17844911310E+04  0.17844911310E+04  0.50400001928E-02 0. -1.
       -1   -1    0    0    0  501  0.00000000000E+00  0.00000000000E+00 -0.12046514318E+03  0.12046514329E+03  0.50400001928E-02 0.  1.
    10030    2    1    2    0    0  0.00000000000E+00  0.00000000000E+00  0.16640259878E+04  0.19049562743E+04  0.92729494705E+03 0.  0.
        2    1    3    3  502    0 -0.15940184253E+03  0.20197081118E+03  0.39654672685E+02  0.26033372629E+03  0.25500000920E-02 0.  1.
       -2    1    3    3    0  502  0.15940184253E+03 -0.20197081118E+03  0.16243713151E+04  0.16446225480E+04  0.25500000920E-02 0. -1.
</event>
<event>
 5   0  0.2134145E-03  0.8977575E+03  0.7818609E-02  0.9428389E-01
       -1   -1    0    0    0  501  0.00000000000E+00  0.00000000000E+00  0.29221683745E+03  0.29221683750E+03  0.50400001928E-02 0.  1.
        1   -1    0    0  501    0  0.00000000000E+00  0.00000000000E+00 -0.68952949803E+03  0.68952949805E+03  0.50400001928E-02 0. -1.
    10030    2    1    2    0    0  0.00000000000E+00  0.00000000000E+00 -0.39731266058E+03  0.98174633554E+03  0.89775749348E+03 0.  0.
        1    1    3    3  502    0 -0.40717231002E+03 -0.39744766892E+02  0.33500466381E+01  0.40912120378E+03  0.50400001928E-02 0.  1.
       -1    1    3    3    0  502  0.40717231002E+03  0.39744766892E+02 -0.40066270722E+03  0.57262513176E+03  0.50400001928E-02 0. -1.
</event>
<event>
 5   0  0.3663255E-03  0.9000309E+03  0.7818609E-02  0.9425543E-01
        2   -1    0    0  501    0  0.00000000000E+00  0.00000000000E+00  0.75136433127E+03  0.75136433128E+03  0.25500000920E-02 0.  1.
       -2   -1    0    0    0  501  0.00000000000E+00  0.00000000000E+00 -0.26952825576E+03  0.26952825577E+03  0.25500000920E-02 0. -1.
    10030    2    1    2    0    0  0.00000000000E+00  0.00000000000E+00  0.48183607551E+03  0.10208925870E+04  0.90003092760E+03 0.  0.
        4    1    3    3  502    0 -0.16100820729E+02  0.37762914415E+03 -0.36110994442E+02  0.37969543553E+03  0.12699999809E+01 0. -1.
       -4    1    3    3    0  502  0.16100820729E+02 -0.37762914415E+03  0.51794706995E+03  0.64119715152E+03  0.12699999809E+01 0.  1.
</event>
<event>
 5   0  0.3815269E-03  0.8951787E+03  0.7818609E-02  0.9431628E-01
       -2   -1    0    0    0  501  0.00000000000E+00  0.00000000000E+00  0.20815920096E+03  0.20815920097E+03  0.25500000920E-02 0.  1.
        2   -1    0    0  501    0  0.00000000000E+00  0.00000000000E+00 -0.96241822551E+03  0.96241822551E+03  0.25500000920E-02 0. -1.
    10030    2    1    2    0    0  0.00000000000E+00  0.00000000000E+00 -0.75425902455E+03  0.11705774265E+04  0.89517866109E+03 0.  0.
        5    1    3    3  502    0 -0.32623631148E+03 -0.10569277417E+03 -0.10519900128E+01  0.34296397787E+03  0.46999998093E+01 0.  1.
       -5    1    3    3    0  502  0.32623631148E+03  0.10569277417E+03 -0.75320703454E+03  0.82761344861E+03  0.46999998093E+01 0. -1.
</event>
<event>
 5   0  0.2074970E-03  0.8942407E+03  0.7818609E-02  0.9432810E-01
       -1   -1    0    0    0  501  0.00000000000E+00  0.00000000000E+00  0.41146526667E+03  0.41146526670E+03  0.50400001928E-02 0.  1.
        1   -1    0    0  501    0  0.00000000000E+00  0.00000000000E+00 -0.48586507679E+03  0.48586507681E+03  0.50400001928E-02 0. -1.
    10030    2    1    2    0    0  0.00000000000E+00  0.00000000000E+00 -0.74399810112E+02  0.89733034352E+03  0.89424069112E+03 0.  0.
        2    1    3    3  502    0 -0.15744300867E+03 -0.19816306695E+03  0.33266510966E+03  0.41799877664E+03  0.25500000920E-02 0.  1.
       -2    1    3    3    0  502  0.15744300867E+03  0.19816306695E+03 -0.40706491977E+03  0.47933156687E+03  0.25500000920E-02 0. -1.
</event>
<event>
 5   0  0.1436000E-03  0.8982986E+03  0.7818609E-02  0.9427711E-01
        3   -1    0    0  501    0  0.00000000000E+00  0.00000000000E+00  0.51140238934E+03  0.51140239932E+03  0.10100000352E+00 0. -1.
       -3   -1    0    0    0  501  0.00000000000E+00  0.00000000000E+00 -0.39447429467E+03  0.39447430760E+03  0.10100000352E+00 0.  1.
    10030    2    1    2    0    0  0.00000000000E+00  0.00000000000E+00  0.11692809468E+03  0.90587670692E+03  0.89829863008E+03 0.  0.
        1    1    3    3  502    0  0.28343186638E+03  0.11264872933E+03  0.39096017740E+03  0.49585604709E+03  0.50400001928E-02 0. -1.
       -1    1    3    3    0  502 -0.28343186638E+03 -0.11264872933E+03 -0.27403208272E+03  0.41002065983E+03  0.50400001928E-02 0.  1.
</event>
<event>
 5   0  0.2129280E-03  0.8999353E+03  0.7818609E-02  0.9425662E-01
        1   -1    0    0  501    0  0.00000000000E+00  0.00000000000E+00  0.19517873542E+04  0.19517873542E+04  0.50400001928E-02 0.  1.
       -1   -1    0    0    0  501  0.00000000000E+00  0.00000000000E+00 -0.10373612961E+03  0.10373612973E+03  0.50400001928E-02 0. -1.
    10030    2    1    2    0    0  0.00000000000E+00  0.00000000000E+00  0.18480512246E+04  0.20555234839E+04  0.89993525562E+03 0.  0.
        3    1    3    3  502    0 -0.23035507124E+03 -0.36083842024E+03  0.60750931670E+03  0.74319271017E+03  0.10100000352E+00 0.  1.
       -3    1    3    3    0  502  0.23035507124E+03  0.36083842024E+03  0.12405419079E+04  0.13123307738E+04  0.10100000352E+00 0. -1.
</event>
<event>
 5   0  0.3806019E-03  0.9154800E+03  0.7818609E-02  0.9406435E-01
       -2   -1    0    0    0  501  0.00000000000E+00  0.00000000000E+00  0.22050682166E+03  0.22050682167E+03  0.25500000920E-02 0. -1.
        2   -1    0    0  501    0  0.00000000000E+00  0.00000000000E+00 -0.95020155070E+03  0.95020155070E+03  0.25500000920E-02 0.  1.
    10030    2    1    2    0    0  0.00000000000E+00  0.00000000000E+00 -0.72969472904E+03  0.11707083724E+04  0.91548003558E+03 0.  0.
        2    1    3    3  502    0 -0.35982410175E+02  0.34135330611E+03 -0.75211043711E+03  0.82673267932E+03  0.25500000920E-02 0.  1.
       -2    1    3    3    0  502  0.35982410175E+02 -0.34135330611E+03  0.22415708076E+02  0.34397569305E+03  0.25500000920E-02 0. -1.
</event>
<event>
 5   0  0.3663255E-03  0.9007988E+03  0.7818609E-02  0.9424583E-01
       -2   -1    0    0    0  501  0.00000000000E+00  0.00000000000E+00  0.17886767461E+03  0.17886767463E+03  0.25500000920E-02 0.  1.
        2   -1    0    0  501    0  0.00000000000E+00  0.00000000000E+00 -0.11341323302E+04  0.11341323302E+04  0.25500000920E-02 0. -1.
    10030    2    1    2    0    0  0.00000000000E+00  0.00000000000E+00 -0.95526465563E+03  0.13130000049E+04  0.90079878468E+03 0.  0.
        4    1    3    3  502    0  0.10464753111E+02 -0.43499358398E+02 -0.11308826901E+04  0.11317680756E+04  0.12699999809E+01 0. -1.
       -4    1    3    3    0  502 -0.10464753111E+02  0.43499358398E+02  0.17561803450E+03  0.18123192925E+03  0.12699999809E+01 0.  1.
</event>
<event>
 5   0  0.2134145E-03  0.9037273E+03  0.7818609E-02  0.9420934E-01
        1   -1    0    0  501    0  0.00000000000E+00  0.00000000000E+00  0.11296895038E+03  0.11296895050E+03  0.50400001928E-02 0.  1.
       -1   -1    0    0    0  501  0.00000000000E+00  0.00000000000E+00 -0.18074061750E+04  0.18074061750E+04  0.50400001928E-02 0. -1.
    10030    2    1    2    0    0  0.00000000000E+00  0.00000000000E+00 -0.16944372247E+04  0.19203751255E+04  0.90372734523E+03 0.  0.
        1    1    3    3  502    0 -0.24791049911E+02 -0.35030552563E+03 -0.24299926684E+03  0.42705643790E+03  0.50400001928E-02 0.  1.
       -1    1    3    3    0  502  0.24791049911E+02  0.35030552563E+03 -0.14514379578E+04  0.14933186876E+04  0.50400001928E-02 0. -1.
</event>
<event>
 5   0  0.2134145E-03  0.9020351E+03  0.7818609E-02  0.9423041E-01
       -1   -1    0    0    0  501  0.00000000000E+00  0.00000000000E+00  0.26940035937E+03  0.26940035942E+03  0.50400001928E-02 0.  1.
        1   -1    0    0  501    0  0.00000000000E+00  0.00000000000E+00 -0.75507255252E+03  0.75507255254E+03  0.50400001928E-02 0. -1.
    10030    2    1    2    0    0  0.00000000000E+00  0.00000000000E+00 -0.48567219315E+03  0.10244729120E+04  0.90203507035E+03 0.  0.
        1    1    3    3  502    0  0.37650900140E+03  0.23124876114E+03 -0.34556708560E+03  0.56093816801E+03  0.50400001928E-02 0.  1.
       -1    1    3    3    0  502 -0.37650900140E+03 -0.23124876114E+03 -0.14010510755E+03  0.46353474395E+03  0.50400001928E-02 0. -1.
</event>
<event>
 5   0  0.3626546E-03  0.8984369E+03  0.7818609E-02  0.9427537E-01
       -2   -1    0    0    0  501  0.00000000000E+00  0.00000000000E+00  0.23048000497E+03  0.23048000498E+03  0.25500000920E-02 0. -1.
        2   -1    0    0  501    0  0.00000000000E+00  0.00000000000E+00 -0.87555202632E+03  0.87555202633E+03  0.25500000920E-02 0.  1.
    10030    2    1    2    0    0  0.00000000000E+00  0.00000000000E+00 -0.64507202136E+03  0.11060320313E+04  0.89843694355E+03 0.  0.
        3    1    3    3  502    0 -0.34377859304E+03  0.41832591075E+02  0.29693191591E+02  0.34758507237E+03  0.10100000352E+00 0. -1.
       -3    1    3    3    0  502  0.34377859304E+03 -0.41832591075E+02 -0.67476521295E+03  0.75844695893E+03  0.10100000352E+00 0.  1.
</event>
<event>
 5   0  0.2295158E-03  0.8992324E+03  0.7818609E-02  0.9426541E-01
        1   -1    0    0  501    0  0.00000000000E+00  0.00000000000E+00  0.39893303459E+03  0.39893303463E+03  0.50400001928E-02 0.  1.
       -1   -1    0    0    0  501  0.00000000000E+00  0.00000000000E+00 -0.50673854349E+03  0.50673854352E+03  0.50400001928E-02 0. -1.
    10030    2    1    2    0    0  0.00000000000E+00  0.00000000000E+00 -0.10780550890E+03  0.90567157814E+03  0.89923243920E+03 0.  0.
        4    1    3    3  502    0 -0.76307810217E+02  0.31712432627E+02 -0.49902286266E+03  0.50582011688E+03  0.12699999809E+01 0. -1.
       -4    1    3    3    0  502  0.76307810217E+02 -0.31712432627E+02  0.39121735377E+03  0.39985146126E+03  0.12699999809E+01 0.  1.
</event>
<event>
 5   0  0.2134145E-03  0.9016440E+03  0.7818609E-02  0.9423529E-01
        1   -1    0    0  501    0  0.00000000000E+00  0.00000000000E+00  0.49440595419E+03  0.49440595422E+03  0.50400001928E-02 0.  1.
       -1   -1    0    0    0  501  0.00000000000E+00  0.00000000000E+00 -0.41108017681E+03  0.41108017684E+03  0.50400001928E-02 0. -1.
    10030    2    1    2    0    0  0.00000000000E+00  0.00000000000E+00  0.83325777382E+02  0.90548613106E+03  0.90164402530E+03 0.  0.
        1    1    3    3  502    0  0.26457295503E+03 -0.34035525386E+03 -0.90808035189E+02  0.44055266047E+03  0.50400001928E-02 0. -1.
       -1    1    3    3    0  502 -0.26457295503E+03  0.34035525386E+03  0.17413381257E+03  0.46493347059E+03  0.50400001928E-02 0.  1.
</event>
<event>
 5   0  0.1436000E-03  0.8885347E+03  0.7818609E-02  0.9440028E-01
        3   -1    0    0  501    0  0.00000000000E+00  0.00000000000E+00  0.10022269200E+03  0.10022274289E+03  0.10100000352E+00 0.  1.
       -3   -1    0    0    0  501  0.00000000000E+00  0.00000000000E+00 -0.19693488240E+04  0.19693488266E+04  0.10100000352E+00 0. -1.
    10030    2    1    2    0    0  0.00000000000E+00  0.00000000000E+00 -0.18691261320E+04  0.20695715695E+04  0.88853473983E+03 0.  0.
        3    1    3    3  502    0 -0.12482136286E+03  0.41086563778E+03 -0.11999538796E+04  0.12744725452E+04  0.10100000352E+00 0.  1.
       -3    1    3    3    0  502  0.12482136286E+03 -0.41086563778E+03 -0.66917225233E+03  0.79509902429E+03  0.10100000352E+00 0. -1.
</event>
<event>
 5   0  0.2134145E-03  0.9023899E+03  0.7818609E-02  0.9422599E-01
       -1   -1    0    0    0  501  0.00000000000E+00  0.00000000000E+00  0.16098681730E+03  0.16098681738E+03  0.50400001928E-02 0. -1.
        1   -1    0    0  501    0  0.00000000000E+00  0.00000000000E+00 -0.12645561450E+04  0.12645561450E+04  0.50400001928E-02 0.  1.
    10030    2    1    2    0    0  0.00000000000E+00  0.00000000000E+00 -0.11035693277E+04  0.14255429623E+04  0.90238986949E+03 0.  0.
        1    1    3    3  502    0  0.14799364094E+03 -0.73940783719E+02 -0.12149141032E+04  0.12261262722E+04  0.50400001928E-02 0.  1.
       -1    1    3    3    0  502 -0.14799364094E+03  0.73940783719E+02  0.11134477551E+03  0.19941669016E+03  0.50400001928E-02 0. -1.
</event>
<event>
 5   0  0.2129280E-03  0.8969910E+03  0.7818609E-02  0.9429351E-01
       -1   -1    0    0    0  501  0.00000000000E+00  0.00000000000E+00  0.22880057790E+03  0.22880057795E+03  0.50400001928E-02 0.  1.
        1   -1    0    0  501    0  0.00000000000E+00  0.00000000000E+00 -0.87914216248E+03  0.87914216249E+03  0.50400001928E-02 0. -1.
    10030    2    1    2    0    0  0.00000000000E+00  0.00000000000E+00 -0.65034158458E+03  0.11079427404E+04  0.89699104760E+03 0.  0.
        3    1    3    3  502    0 -0.42651743987E+03  0.16807273300E+02 -0.49519780668E+03  0.65377403504E+03  0.10100000352E+00 0. -1.
       -3    1    3    3    0  502  0.42651743987E+03 -0.16807273300E+02 -0.15514377789E+03  0.45416870540E+03  0.10100000352E+00 0.  1.
</event>
<event>
 5   0  0.1436000E-03  0.9023184E+03  0.7818609E-02  0.9422688E-01
       -4   -1    0    0    0  501  0.00000000000E+00  0.00000000000E+00  0.45521604064E+03  0.45521781221E+03  0.12699999809E+01 0. -1.
        4   -1    0    0  501    0  0.00000000000E+00  0.00000000000E+00 -0.44713495319E+03  0.44713675678E+03  0.12699999809E+01 0.  1.
    10030    2    1    2    0    0  0.00000000000E+00  0.00000000000E+00  0.80810874515E+01  0.90235456899E+03  0.90231838294E+03 0.  0.
        2    1    3    3  502    0 -0.18689037739E+03 -0.19435510367E+03  0.36577689972E+03  0.45441683492E+03  0.25500000920E-02 0. -1.
       -2    1    3    3    0  502  0.18689037739E+03  0.19435510367E+03 -0.35769581227E+03  0.44793773407E+03  0.25500000920E-02 0.  1.
</event>
<event>
 5   0  0.2295158E-03  0.9000077E+03  0.7818609E-02  0.9425572E-01
       -1   -1    0    0    0  501  0.00000000000E+00  0.00000000000E+00  0.40592023879E+03  0.40592023882E+03  0.50400001928E-02 0. -1.
        1   -1    0    0  501    0  0.00000000000E+00  0.00000000000E+00 -0.49887505001E+03  0.49887505003E+03  0.50400001928E-02 0.  1.
    10030    2    1    2    0    0  0.00000000000E+00  0.00000000000E+00 -0.92954811212E+02  0.90479528885E+03  0.90000773208E+03 0.  0.
        4    1    3    3  502    0  0.48312165793E+02  0.10931721027E+03 -0.48262566800E+03  0.49720565779E+03  0.12699999809E+01 0.  1.
       -4    1    3    3    0  502 -0.48312165793E+02 -0.10931721027E+03  0.38967085679E+03  0.40758963107E+03  0.12699999809E+01 0. -1.
</event>
<event>
 5   0  0.2134145E-03  0.9013328E+03  0.7818609E-02  0.9423917E-01
        1   -1    0    0  501    0  0.00000000000E+00  0.00000000000E+00  0.11262597759E+04  0.11262597759E+04  0.50400001928E-02 0.  1.
       -1   -1    0    0    0  501  0.00000000000E+00  0.00000000000E+00 -0.18033159375E+03  0.18033159382E+03  0.50400001928E-02 0. -1.
    10030    2    1    2    0    0  0.00000000000E+00  0.00000000000E+00  0.94592818216E+03  0.13065913697E+04  0.90133283623E+03 0.  0.
        1    1    3    3  502    0 -0.29533977709E+03  0.53502414425E+02  0.96028732639E+03  0.10061013078E+04  0.50400001928E-02 0.  1.
       -1    1    3    3    0  502  0.29533977709E+03 -0.53502414425E+02 -0.14359144231E+02  0.30049006195E+03  0.50400001928E-02 0. -1.
</event>
<event>
 5   0  0.2134145E-03  0.9008323E+03  0.7818609E-02  0.9424542E-01
        1   -1    0    0  501    0  0.00000000000E+00  0.00000000000E+00  0.17570236543E+04  0.17570236543E+04  0.50400001928E-02 0. -1.
       -1   -1    0    0    0  501  0.00000000000E+00  0.00000000000E+00 -0.11546497602E+03  0.11546497613E+03  0.50400001928E-02 0.  1.
    10030    2    1    2    0    0  0.00000000000E+00  0.00000000000E+00  0.16415586783E+04  0.18724886304E+04  0.90083226900E+03 0.  0.
        1    1    3    3  502    0 -0.61873426354E+02  0.86260725203E+02  0.17306490244E+04  0.17339017501E+04  0.50400001928E-02 0. -1.
       -1    1    3    3    0  502  0.61873426354E+02 -0.86260725203E+02 -0.89090346076E+02  0.13858688030E+03  0.50400001928E-02 0.  1.
</event>
<event>
 5   0  0.3815269E-03  0.9056194E+03  0.7818609E-02  0.9418584E-01
        2   -1    0    0  501    0  0.00000000000E+00  0.00000000000E+00  0.22206588245E+04  0.22206588245E+04  0.25500000920E-02 0. -1.
       -2   -1    0    0    0  501  0.00000000000E+00  0.00000000000E+00 -0.92331437993E+02  0.92331438028E+02  0.25500000920E-02 0.  1.
    10030    2    1    2    0    0  0.00000000000E+00  0.00000000000E+00  0.21283273865E+04  0.23129902625E+04  0.90561939599E+03 0.  0.
        5    1    3    3  502    0  0.12607695132E+03  0.13833997651E+03  0.21171640453E+04  0.21254267881E+04  0.46999998093E+01 0. -1.
       -5    1    3    3    0  502 -0.12607695132E+03 -0.13833997651E+03  0.11163341176E+02  0.18756347442E+03  0.46999998093E+01 0.  1.
</event>
<event>
 5   0  0.3663255E-03  0.8995526E+03  0.7818609E-02  0.9426141E-01
       -2   -1    0    0    0  501  0.00000000000E+00  0.00000000000E+00  0.48563508330E+03  0.48563508331E+03  0.25500000920E-02 0.  1.
        2   -1    0    0  501    0  0.00000000000E+00  0.00000000000E+00 -0.41656531176E+03  0.41656531176E+03  0.25500000920E-02 0. -1.
    10030    2    1    2    0    0  0.00000000000E+00  0.00000000000E+00  0.69069771544E+02  0.90220039507E+03  0.89955262188E+03 0.  0.
        4    1    3    3  502    0  0.37066222519E+03  0.19374119437E+03  0.20046362909E+03  0.46380320726E+03  0.12699999809E+01 0.  1.
       -4    1    3    3    0  502 -0.37066222519E+03 -0.19374119437E+03 -0.13139385754E+03  0.43839718781E+03  0.12699999809E+01 0. -1.
</event>
<event>
 5   0  0.2130975E-03  0.8999698E+03  0.7818609E-02  0.9425619E-01
        1   -1    0    0  501    0  0.00000000000E+00  0.00000000000E+00  0.72492057157E+03  0.72492057159E+03  0.50400001928E-02 0. -1.
       -1   -1    0    0    0  501  0.00000000000E+00  0.00000000000E+00 -0.27932218611E+03  0.27932218615E+03  0.50400001928E-02 0.  1.
    10030    2    1    2    0    0  0.00000000000E+00  0.00000000000E+00  0.44559838546E+03  0.10042427577E+04  0.89996977468E+03 0.  0.
        5    1    3    3  502    0 -0.41122725457E+03 -0.17699811938E+01  0.19010385811E+02  0.41169706399E+03  0.46999998093E+01 0.  1.
       -5    1    3    3    0  502  0.41122725457E+03  0.17699811938E+01  0.42658799965E+03  0.59254569375E+03  0.46999998093E+01 0. -1.
</event>
<event>
 5   0  0.3663255E-03  0.9078744E+03  0.7818609E-02  0.9415791E-01
        2   -1    0    0  501    0  0.00000000000E+00  0.00000000000E+00  0.55441548365E+03  0.55441548366E+03  0.25500000920E-02 0. -1.
       -2   -1    0    0    0  501  0.00000000000E+00  0.00000000000E+00 -0.37166886940E+03  0.37166886941E+03  0.25500000920E-02 0.  1.
    10030    2    1    2    0    0  0.00000000000E+00  0.00000000000E+00  0.18274661425E+03  0.92608435306E+03  0.90787438777E+03 0.  0.
        4    1    3    3  502    0 -0.21671588437E+02 -0.20262570534E+03  0.50513285543E+03  0.54469041550E+03  0.12699999809E+01 0. -1.
       -4    1    3    3    0  502  0.21671588437E+02  0.20262570534E+03 -0.32238624117E+03  0.38139393756E+03  0.12699999809E+01 0.  1.
</event>
<event>
 5   0  0.2129280E-03  0.9003444E+03  0.7818609E-02  0.9425151E-01
       -1   -1    0    0    0  501  0.00000000000E+00  0.00000000000E+00  0.14755129768E+04  0.14755129768E+04  0.50400001928E-02 0.  1.
        1   -1    0    0  501    0  0.00000000000E+00  0.00000000000E+00 -0.13734545861E+03  0.13734545871E+03  0.50400001928E-02 0. -1.
    10030    2    1    2    0    0  0.00000000000E+00  0.00000000000E+00  0.13381675182E+04  0.16128584355E+04  0.90034439315E+03 0.  0.
        3    1    3    3  502    0 -0.25494515183E+03  0.35452670087E+03  0.86506414370E+03  0.96903157585E+03  0.10100000352E+00 0.  1.
       -3    1    3    3    0  502  0.25494515183E+03 -0.35452670087E+03  0.47310337448E+03  0.64382685966E+03  0.10100000352E+00 0. -1.
</event>
<event>
 5   0  0.3806019E-03  0.9004915E+03  0.7818609E-02  0.9424967E-01
       -2   -1    0    0    0  501  0.00000000000E+00  0.00000000000E+00  0.13557129238E+04  0.13557129238E+04  0.25500000920E-02 0.  1.
        2   -1    0    0  501    0  0.00000000000E+00  0.00000000000E+00 -0.14953108318E+03  0.14953108320E+03  0.25500000920E-02 0. -1.
    10030    2    1    2    0    0  0.00000000000E+00  0.00000000000E+00  0.12061818406E+04  0.15052440070E+04  0.90049147026E+03 0.  0.
        2    1    3    3  502    0  0.27629720335E+03 -0.30982635339E+01  0.88646658775E+01  0.27645673463E+03  0.25500000920E-02 0. -1.
       -2    1    3    3    0  502 -0.27629720335E+03  0.30982635339E+01  0.11973171748E+04  0.12287872724E+04  0.25500000920E-02 0.  1.
</event>
<event>
 5   0  0.3685879E-03  0.9043067E+03  0.7818609E-02  0.9420214E-01
       -2   -1    0    0    0  501  0.00000000000E+00  0.00000000000E+00  0.14574511616E+03  0.14574511619E+03  0.25500000920E-02 0.  1.
        2   -1    0    0  501    0  0.00000000000E+00  0.00000000000E+00 -0.14027411639E+04  0.14027411639E+04  0.25500000920E-02 0. -1.
    10030    2    1    2    0    0  0.00000000000E+00  0.00000000000E+00 -0.12569960477E+04  0.15484862801E+04  0.90430674861E+03 0.  0.
        1    1    3    3  502    0  0.21305503897E+03  0.19862157970E+03 -0.12206819583E+04  0.12549531565E+04  0.50400001928E-02 0. -1.
       -1    1    3    3    0  502 -0.21305503897E+03 -0.19862157970E+03 -0.36314089436E+02  0.29353312363E+03  0.50400001928E-02 0.  1.
</event>
<event>
 5   0  0.2295158E-03  0.9031474E+03  0.7818609E-02  0.9421656E-01
       -1   -1    0    0    0  501  0.00000000000E+00  0.00000000000E+00  0.42056619637E+03  0.42056619640E+03  0.50400001928E-02 0.  1.
        1   -1    0    0  501    0  0.00000000000E+00  0.00000000000E+00 -0.48486736158E+03  0.48486736160E+03  0.50400001928E-02 0. -1.
    10030    2    1    2    0    0  0.00000000000E+00  0.00000000000E+00 -0.64301165204E+02  0.90543355801E+03  0.90314743432E+03 0.  0.
        4    1    3    3  502    0  0.20371585274E+03 -0.36074676255E+03 -0.21226847309E+03  0.46550820929E+03  0.12699999809E+01 0.  1.
       -4    1    3    3    0  502 -0.20371585274E+03  0.36074676255E+03  0.14796730789E+03  0.43992534872E+03  0.12699999809E+01 0. -1.
</event>
<event>
 5   0  0.3685879E-03  0.8984154E+03  0.7818609E-02  0.9427564E-01
        2   -1    0    0  501    0  0.00000000000E+00  0.00000000000E+00  0.83087269412E+03  0.83087269413E+03  0.25500000920E-02 0.  1.
       -2   -1    0    0    0  501  0.00000000000E+00  0.00000000000E+00 -0.24286219671E+03  0.24286219672E+03  0.25500000920E-02 0. -1.
    10030    2    1    2    0    0  0.00000000000E+00  0.00000000000E+00  0.58801049742E+03  0.10737348908E+04  0.89841542214E+03 0.  0.
        1    1    3    3  502    0 -0.16278569004E+03 -0.24555266853E+03  0.69928433935E+03  0.75881083360E+03  0.50400001928E-02 0.  1.
       -1    1    3    3    0  502  0.16278569004E+03  0.24555266853E+03 -0.11127384193E+03  0.31492405724E+03  0.50400001928E-02 0. -1.
</event>
<event>
 5   0  0.1436000E-03  0.8963691E+03  0.7818609E-02  0.9430132E-01
        4   -1    0    0  501    0  0.00000000000E+00  0.00000000000E+00  0.31556397799E+03  0.31556653356E+03  0.12699999809E+01 0.  1.
       -4   -1    0    0    0  501  0.00000000000E+00  0.00000000000E+00 -0.63653511057E+03  0.63653637751E+03  0.12699999809E+01 0. -1.
    10030    2    1    2    0    0  0.00000000000E+00  0.00000000000E+00 -0.32097113259E+03  0.95210291107E+03  0.89636905642E+03 0.  0.
        5    1    3    3  502    0  0.31508196452E+03 -0.69502429123E+02  0.16988411882E+03  0.36467785214E+03  0.46999998093E+01 0.  1.
       -5    1    3    3    0  502 -0.31508196452E+03  0.69502429123E+02 -0.49085525141E+03  0.58742505893E+03  0.46999998093E+01 0. -1.
</event>
<event>
 5   0  0.3663255E-03  0.9057963E+03  0.7818609E-02  0.9418365E-01
        2   -1    0    0  501    0  0.00000000000E+00  0.00000000000E+00  0.12397729059E+04  0.12397729059E+04  0.25500000920E-02 0. -1.
       -2   -1    0    0    0  501  0.00000000000E+00  0.00000000000E+00 -0.16544701661E+03  0.16544701663E+03  0.25500000920E-02 0.  1.
    10030    2    1    2    0    0  0.00000000000E+00  0.00000000000E+00  0.10743258893E+04  0.14052199225E+04  0.90579628739E+03 0.  0.
        4    1    3    3  502    0 -0.11840613169E+02  0.36249105481E+03  0.95796644361E+03  0.10243247946E+04  0.12699999809E+01 0. -1.
       -4    1    3    3    0  502  0.11840613169E+02 -0.36249105481E+03  0.11635944567E+03  0.38089512787E+03  0.12699999809E+01 0.  1.
</event>
<event>
 5   0  0.3626546E-03  0.9041953E+03  0.7818609E-02  0.9420352E-01
       -2   -1    0    0    0  501  0.00000000000E+00  0.00000000000E+00  0.63887408957E+03  0.63887408958E+03  0.25500000920E-02 0. -1.
        2   -1    0    0  501    0  0.00000000000E+00  0.00000000000E+00 -0.31992573972E+03  0.31992573973E+03  0.25500000920E-02 0.  1.
    10030    2    1    2    0    0  0.00000000000E+00  0.00000000000E+00  0.31894834986E+03  0.95879982931E+03  0.90419525701E+03 0.  0.
        3    1    3    3  502    0  0.22143792047E+03  0.11171502212E+03  0.56029222873E+03  0.61273353961E+03  0.10100000352E+00 0. -1.
       -3    1    3    3    0  502 -0.22143792047E+03 -0.11171502212E+03 -0.24134387888E+03  0.34606628969E+03  0.10100000352E+00 0.  1.
</event>
<event>
 5   0  0.2074970E-03  0.9004494E+03  0.7818609E-02  0.9425020E-01
        1   -1    0    0  501    0  0.00000000000E+00  0.00000000000E+00  0.17280334725E+04  0.17280334725E+04  0.50400001928E-02 0. -1.
       -1   -1    0    0    0  501  0.00000000000E+00  0.00000000000E+00 -0.11730227609E+03  0.11730227620E+03  0.50400001928E-02 0.  1.
    10030    2    1    2    0    0  0.00000000000E+00  0.00000000000E+00  0.16107311964E+04  0.18453357487E+04  0.90044935359E+03 0.  0.
        2    1    3    3  502    0 -0.35772299304E+03  0.22319571359E+03  0.48185254554E+03  0.64028426653E+03  0.25500000920E-02 0.  1.
       -2    1    3    3    0  502  0.35772299304E+03 -0.22319571359E+03  0.11288786508E+04  0.12050514822E+04  0.25500000920E-02 0. -1.
</event>
<event>
 5   0  0.2295158E-03  0.8860499E+03  0.7818609E-02  0.9443190E-01
       -1   -1    0    0    0  501  0.00000000000E+00  0.00000000000E+00  0.15054203376E+03  0.15054203385E+03  0.50400001928E-02 0. -1.
        1   -1    0    0  501    0  0.00000000000E+00  0.00000000000E+00 -0.13037629277E+04  0.13037629277E+04  0.50400001928E-02 0.  1.
    10030    2    1    2    0    0  0.00000000000E+00  0.00000000000E+00 -0.11532208940E+04  0.14543049616E+04  0.88604993708E+03 0.  0.
        4    1    3    3  502    0  0.25731182231E+02 -0.25741454626E+03  0.13689019181E+02  0.25906243361E+03  0.12699999809E+01 0. -1.
       -4    1    3    3    0  502 -0.25731182231E+02  0.25741454626E+03 -0.11669099131E+04  0.11952425280E+04  0.12699999809E+01 0.  1.
</event>
<event>
 5   0  0.2129280E-03  0.9010253E+03  0.7818609E-02  0.9424301E-01
        1   -1    0    0  501    0  0.00000000000E+00  0.00000000000E+00  0.76943342317E+03  0.76943342319E+03  0.50400001928E-02 0.  1.
       -1   -1    0    0    0  501  0.00000000000E+00  0.00000000000E+00 -0.26378064524E+03  0.26378064529E+03  0.50400001928E-02 0. -1.
    10030    2    1    2    0    0  0.00000000000E+00  0.00000000000E+00  0.50565277793E+03  0.10332140685E+04  0.90102529347E+03 0.  0.
        3    1    3    3  502    0  0.18691106435E+03 -0.91541133041E+02 -0.20534978186E+03  0.29237658614E+03  0.10100000352E+00 0. -1.
       -3    1    3    3    0  502 -0.18691106435E+03  0.91541133041E+02  0.71100255978E+03  0.74083748234E+03  0.10100000352E+00 0.  1.
</event>
<event>
 5   0  0.2129280E-03  0.8960757E+03  0.7818609E-02  0.9430500E-01
        1   -1    0    0  501    0  0.00000000000E+00  0.00000000000E+00  0.16199385514E+04  0.16199385514E+04  0.50400001928E-02 0. -1.
       -1   -1    0    0    0  501  0.00000000000E+00  0.00000000000E+00 -0.12391699052E+03  0.12391699062E+03  0.50400001928E-02 0.  1.
    10030    2    1    2    0    0  0.00000000000E+00  0.00000000000E+00  0.14960215609E+04  0.17438555420E+04  0.89607568924E+03 0.  0.
        3    1    3    3  502    0 -0.21364493108E+03  0.37198739332E+03  0.49637490809E+03  0.65605398935E+03  0.10100000352E+00 0. -1.
       -3    1    3    3    0  502  0.21364493108E+03 -0.37198739332E+03  0.99964665278E+03  0.10878015527E+04  0.10100000352E+00 0.  1.
</event>
<event>
 5   0  0.3626546E-03  0.9230867E+03  0.7818609E-02  0.9397173E-01
        2   -1    0    0  501    0  0.00000000000E+00  0.00000000000E+00  0.30349975478E+03  0.30349975479E+03  0.25500000920E-02 0. -1.
       -2   -1    0    0    0  501  0.00000000000E+00  0.00000000000E+00 -0.70188614468E+03  0.70188614468E+03  0.25500000920E-02 0.  1.
    10030    2    1    2    0    0  0.00000000000E+00  0.00000000000E+00 -0.39838638990E+03  0.10053858995E+04  0.92308671923E+03 0.  0.
        3    1    3    3  502    0 -0.97280820968E+02  0.44988007726E+03 -0.16199215335E+03  0.48795195459E+03  0.10100000352E+00 0.  1.
       -3    1    3    3    0  502  0.97280820968E+02 -0.44988007726E+03 -0.23639423655E+03  0.51743394488E+03  0.10100000352E+00 0. -1.
</event>
<event>
 5   0  0.3815269E-03  0.8963097E+03  0.7818609E-02  0.9430206E-01
       -2   -1    0    0    0  501  0.00000000000E+00  0.00000000000E+00  0.29305208409E+03  0.29305208410E+03  0.25500000920E-02 0. -1.
        2   -1    0    0  501    0  0.00000000000E+00  0.00000000000E+00 -0.68534834819E+03  0.68534834820E+03  0.25500000920E-02 0.  1.
    10030    2    1    2    0    0  0.00000000000E+00  0.00000000000E+00 -0.39229626411E+03  0.97840043229E+03  0.89630968258E+03 0.  0.
        5    1    3    3  502    0  0.11957463297E+03 -0.21863524332E+03  0.21041686064E+03  0.32618523528E+03  0.46999998093E+01 0. -1.
       -5    1    3    3    0  502 -0.11957463297E+03  0.21863524332E+03 -0.60271312475E+03  0.65221519701E+03  0.46999998093E+01 0.  1.
</event>
<event>
 5   0  0.3806019E-03  0.8997543E+03  0.7818609E-02  0.9425889E-01
       -2   -1    0    0    0  501  0.00000000000E+00  0.00000000000E+00  0.73596479477E+03  0.73596479478E+03  0.25500000920E-02 0.  1.
        2   -1    0    0  501    0  0.00000000000E+00  0.00000000000E+00 -0.27499884368E+03  0.27499884369E+03  0.25500000920E-02 0. -1.
    10030    2    1    2    0    0  0.00000000000E+00  0.00000000000E+00  0.46096595109E+03  0.10109636385E+04  0.89975433882E+03 0.  0.
        2    1    3    3  502    0  0.14951083251E+03 -0.54438621296E+02  0.70329339775E+03  0.72106771932E+03  0.25500000920E-02 0.  1.
       -2    1    3    3    0  502 -0.14951083251E+03  0.54438621296E+02 -0.24232744666E+03  0.28989591914E+03  0.25500000920E-02 0. -1.
</event>
<event>
 5   0  0.2134145E-03  0.9057404E+03  0.7818609E-02  0.9418434E-01
        1   -1    0    0  501    0  0.00000000000E+00  0.00000000000E+00  0.86922397560E+03  0.86922397562E+03  0.50400001928E-02 0.  1.
       -1   -1    0    0    0  501  0.00000000000E+00  0.00000000000E+00 -0.23594771703E+03  0.23594771709E+03  0.50400001928E-02 0. -1.
    10030    2    1    2    0    0  0.00000000000E+00  0.00000000000E+00  0.63327625857E+03  0.11051716927E+04  0.90574038813E+03 0.  0.
        1    1    3    3  502    0 -0.43247577216E+03  0.13434987841E+03  0.31968354158E+03  0.55433090309E+03  0.50400001928E-02 0. -1.
       -1    1    3    3    0  502  0.43247577216E+03 -0.13434987841E+03  0.31359271698E+03  0.55084078962E+03  0.50400001928E-02 0.  1.
</event>
<event>
 5   0  0.3806019E-03  0.8426762E+03  0.7818609E-02  0.9500220E-01
        2   -1    0    0  501    0  0.00000000000E+00  0.00000000000E+00  0.88605329805E+03  0.88605329805E+03  0.25500000920E-02 0.  1.
       -2   -1    0    0    0  501  0.00000000000E+00  0.00000000000E+00 -0.20035564702E+03  0.20035564703E+03  0.25500000920E-02 0. -1.
    10030    2    1    2    0    0  0.00000000000E+00  0.00000000000E+00  0.68569765103E+03  0.10864089451E+04  0.84267616991E+03 0.  0.
        2    1    3    3  502    0 -0.33088125096E+03  0.11820356929E+02  0.67880235477E+03  0.75524483443E+03  0.25500000920E-02 0. -1.
       -2    1    3    3    0  502  0.33088125096E+03 -0.11820356929E+02  0.68952962588E+01  0.33116411066E+03  0.25500000920E-02 0.  1.
</event>
<event>
 5   0  0.2134145E-03  0.9002071E+03  0.7818609E-02  0.9425323E-01
       -1   -1    0    0    0  501  0.00000000000E+00  0.00000000000E+00  0.35783653121E+03  0.35783653124E+03  0.50400001928E-02 0.  1.
        1   -1    0    0  501    0  0.00000000000E+00  0.00000000000E+00 -0.56616135431E+03  0.56616135433E+03  0.50400001928E-02 0. -1.
    10030    2    1    2    0    0  0.00000000000E+00  0.00000000000E+00 -0.20832482310E+03  0.92399788557E+03  0.90020712096E+03 0.  0.
        1    1    3    3  502    0 -0.34585373265E+03 -0.24016421610E+02 -0.39880560589E+03  0.52842928023E+03  0.50400001928E-02 0.  1.
       -1    1    3    3    0  502  0.34585373265E+03  0.24016421610E+02  0.19048078279E+03  0.39556860534E+03  0.50400001928E-02 0. -1.
</event>
<event>
 5   0  0.2130975E-03  0.8990977E+03  0.7818609E-02  0.9426710E-01
       -1   -1    0    0    0  501  0.00000000000E+00  0.00000000000E+00  0.19196960746E+03  0.19196960753E+03  0.50400001928E-02 0.  1.
        1   -1    0    0  501    0  0.00000000000E+00  0.00000000000E+00 -0.10527404780E+04  0.10527404780E+04  0.50400001928E-02 0. -1.
    10030    2    1    2    0    0  0.00000000000E+00  0.00000000000E+00 -0.86077087054E+03  0.12447100855E+04  0.89909771743E+03 0.  0.
        5    1    3    3  502    0 -0.42784134755E+03  0.64971636340E+02 -0.26195148162E+03  0.50587567734E+03  0.46999998093E+01 0.  1.
       -5    1    3    3    0  502  0.42784134755E+03 -0.64971636340E+02 -0.59881938892E+03  0.73883440820E+03  0.46999998093E+01 0. -1.
</event>
<event>
 5   0  0.3663255E-03  0.8998491E+03  0.7818609E-02  0.9425770E-01
       -2   -1    0    0    0  501  0.00000000000E+00  0.00000000000E+00  0.28056369226E+03  0.28056369227E+03  0.25500000920E-02 0. -1.
        2   -1    0    0  501    0  0.00000000000E+00  0.00000000000E+00 -0.72151925223E+03  0.72151925224E+03  0.25500000920E-02 0.  1.
    10030    2    1    2    0    0  0.00000000000E+00  0.00000000000E+00 -0.44095555998E+03  0.10020829445E+04  0.89984911057E+03 0.  0.
        4    1    3    3  502    0  0.42748140686E+03 -0.24539120322E+01 -0.64237879065E+02  0.43228982512E+03  0.12699999809E+01 0. -1.
       -4    1    3    3    0  502 -0.42748140686E+03  0.24539120322E+01 -0.37671768091E+03  0.56979311939E+03  0.12699999809E+01 0.  1.
</event>
<event>
 5   0  0.2134145E-03  0.9009028E+03  0.7818609E-02  0.9424454E-01
        1   -1    0    0  501    0  0.00000000000E+00  0.00000000000E+00  0.11040890665E+04  0.11040890665E+04  0.50400001928E-02 0. -1.
       -1   -1    0    0    0  501  0.00000000000E+00  0.00000000000E+00 -0.18377726445E+03  0.18377726452E+03  0.50400001928E-02 0.  1.
    10030    2    1    2    0    0  0.00000000000E+00  0.00000000000E+00  0.92031180203E+03  0.12878663310E+04  0.90090281029E+03 0.  0.
        1    1    3    3  502    0 -0.30720193015E+02  0.30620548058E+03  0.93038377366E+03  0.97995892410E+03  0.50400001928E-02 0. -1.
       -1    1    3    3    0  502  0.30720193015E+02 -0.30620548058E+03 -0.10071971634E+02  0.30790740691E+03  0.50400001928E-02 0.  1.
</event>
<event>
 5   0  0.1436000E-03  0.9033555E+03  0.7818609E-02  0.9421397E-01
        3   -1    0    0  501    0  0.00000000000E+00  0.00000000000E+00  0.23362711869E+03  0.23362714052E+03  0.10100000352E+00 0.  1.
       -3   -1    0    0    0  501  0.00000000000E+00  0.00000000000E+00 -0.87324091767E+03  0.87324092352E+03  0.10100000352E+00 0. -1.
    10030    2    1    2    0    0  0.00000000000E+00  0.00000000000E+00 -0.63961379898E+03  0.11068680640E+04  0.90335546677E+03 0.  0.
        2    1    3    3  502    0 -0.27489935352E+03 -0.29306016018E+03 -0.67033023816E+02  0.40736634414E+03  0.25500000920E-02 0.  1.
       -2    1    3    3    0  502  0.27489935352E+03  0.29306016018E+03 -0.57258077517E+03  0.69950171990E+03  0.25500000920E-02 0. -1.
</event>
<event>
 5   0  0.2134145E-03  0.9022550E+03  0.7818609E-02  0.9422767E-01
       -1   -1    0    0    0  501  0.00000000000E+00  0.00000000000E+00  0.16605148464E+03  0.16605148471E+03  0.50400001928E-02 0.  1.
        1   -1    0    0  501    0  0.00000000000E+00  0.00000000000E+00 -0.12256200749E+04  0.12256200749E+04  0.50400001928E-02 0. -1.
    10030    2    1    2    0    0  0.00000000000E+00  0.00000000000E+00 -0.10595685902E+04  0.13916715596E+04  0.90225502625E+03 0.  0.
        1    1    3    3  502    0  0.30133843739E+03 -0.11311389756E+03 -0.42226745016E+02  0.32462702551E+03  0.50400001928E-02 0.  1.
       -1    1    3    3    0  502 -0.30133843739E+03  0.11311389756E+03 -0.10173418452E+04  0.10670445341E+04  0.50400001928E-02 0. -1.
</event>
<event>
 5   0  0.2074970E-03  0.9024472E+03  0.7818609E-02  0.9422527E-01
       -1   -1    0    0    0  501  0.00000000000E+00  0.00000000000E+00  0.75840499198E+03  0.75840499200E+03  0.50400001928E-02 0. -1.
        1   -1    0    0  501    0  0.00000000000E+00  0.00000000000E+00 -0.26846176385E+03  0.26846176389E+03  0.50400001928E-02 0.  1.
    10030    2    1    2    0    0  0.00000000000E+00  0.00000000000E+00  0.48994322813E+03  0.10268667559E+04  0.90244721040E+03 0.  0.
        2    1    3    3  502    0 -0.37052054309E+03 -0.41095676395E+02 -0.44298813725E+02  0.37541538644E+03  0.25500000920E-02 0.  1.
       -2    1    3    3    0  502  0.37052054309E+03  0.41095676395E+02  0.53424204186E+03  0.65145136945E+03  0.25500000920E-02 0. -1.
</event>
<event>
 5   0  0.2295158E-03  0.8992175E+03  0.7818609E-02  0.9426560E-01
       -1   -1    0    0    0  501  0.00000000000E+00  0.00000000000E+00  0.33539456570E+03  0.33539456574E+03  0.50400001928E-02 0.  1.
        1   -1    0    0  501    0  0.00000000000E+00  0.00000000000E+00 -0.60271701153E+03  0.60271701155E+03  0.50400001928E-02 0. -1.
    10030    2    1    2    0    0  0.00000000000E+00  0.00000000000E+00 -0.26732244583E+03  0.93811157729E+03  0.89921746058E+03 0.  0.
        4    1    3    3  502    0  0.20310932443E+03  0.21344425519E+03 -0.48795985585E+03  0.57001603624E+03  0.12699999809E+01 0. -1.
       -4    1    3    3    0  502 -0.20310932443E+03 -0.21344425519E+03  0.22063741002E+03  0.36809554105E+03  0.12699999809E+01 0.  1.
</event>
<event>
 5   0  0.2130975E-03  0.8978183E+03  0.7818609E-02  0.9428313E-01
       -1   -1    0    0    0  501  0.00000000000E+00  0.00000000000E+00  0.18004607970E+03  0.18004607977E+03  0.50400001928E-02 0. -1.
        1   -1    0    0  501    0  0.00000000000E+00  0.00000000000E+00 -0.11192659015E+04  0.11192659015E+04  0.50400001928E-02 0.  1.
    10030    2    1    2    0    0  0.00000000000E+00  0.00000000000E+00 -0.93921982184E+03  0.12993119813E+04  0.89781832854E+03 0.  0.
        5    1    3    3  502    0 -0.19600839438E+03  0.24338657819E+03 -0.93595721571E+03  0.98675950300E+03  0.46999998093E+01 0.  1.
       -5    1    3    3    0  502  0.19600839438E+03 -0.24338657819E+03 -0.32626061253E+01  0.31255247832E+03  0.46999998093E+01 0. -1.
</event>
<event>
 5   0  0.3685879E-03  0.8999498E+03  0.7818609E-02  0.9425644E-01
       -2   -1    0    0    0  501  0.00000000000E+00  0.00000000000E+00  0.24409869431E+03  0.24409869432E+03  0.25500000920E-02 0.  1.
        2   -1    0    0  501    0  0.00000000000E+00  0.00000000000E+00 -0.82948991899E+03  0.82948991900E+03  0.25500000920E-02 0. -1.
    10030    2    1    2    0    0  0.00000000000E+00  0.00000000000E+00 -0.58539122468E+03  0.10735886133E+04  0.89994979011E+03 0.  0.
        1    1    3    3  502    0  0.10381957632E+03 -0.14998695692E+03  0.19801269235E+03  0.26922781808E+03  0.50400001928E-02 0.  1.
       -1    1    3    3    0  502 -0.10381957632E+03  0.14998695692E+03 -0.78340391703E+03  0.80436079524E+03  0.50400001928E-02 0. -1.
</event>
<event>
 5   0  0.2074970E-03  0.9090426E+03  0.7818609E-02  0.9414348E-01
       -1   -1    0    0    0  501  0.00000000000E+00  0.00000000000E+00  0.54935489596E+03  0.54935489599E+03  0.50400001928E-02 0. -1.
        1   -1    0    0  501    0  0.00000000000E+00  0.00000000000E+00 -0.37605852947E+03  0.37605852951E+03  0.50400001928E-02 0.  1.
    10030    2    1    2    0    0  0.00000000000E+00  0.00000000000E+00  0.17329636649E+03  0.92541342549E+03  0.90904256086E+03 0.  0.
        2    1    3    3  502    0 -0.10847345303E+03  0.28076141656E+03 -0.26006737567E+03  0.39777946520E+03  0.25500000920E-02 0.  1.
       -2    1    3    3    0  502  0.10847345303E+03 -0.28076141656E+03  0.43336374215E+03  0.52763396030E+03  0.25500000920E-02 0. -1.
</event>
<event>
 5   0  0.3626546E-03  0.8967190E+03  0.7818609E-02  0.9429692E-01
       -2   -1    0    0    0  501  0.00000000000E+00  0.00000000000E+00  0.33065405994E+03  0.33065405995E+03  0.25500000920E-02 0.  1.
        2   -1    0    0  501    0  0.00000000000E+00  0.00000000000E+00 -0.60796545423E+03  0.60796545423E+03  0.25500000920E-02 0. -1.
    10030    2    1    2    0    0  0.00000000000E+00  0.00000000000E+00 -0.27731139429E+03  0.93861951418E+03  0.89671901006E+03 0.  0.
        3    1    3    3  502    0  0.27553042711E+03 -0.29481125527E+03 -0.34322456748E+03  0.52974881445E+03  0.10100000352E+00 0. -1.
       -3    1    3    3    0  502 -0.27553042711E+03  0.29481125527E+03  0.65913173187E+02  0.40887069973E+03  0.10100000352E+00 0.  1.
</event>
<event>
 5   0  0.2295158E-03  0.8996535E+03  0.7818609E-02  0.9426015E-01
       -1   -1    0    0    0  501  0.00000000000E+00  0.00000000000E+00  0.16800870544E+03  0.16800870552E+03  0.50400001928E-02 0.  1.
        1   -1    0    0  501    0  0.00000000000E+00  0.00000000000E+00 -0.12043666943E+04  0.12043666943E+04  0.50400001928E-02 0. -1.
    10030    2    1    2    0    0  0.00000000000E+00  0.00000000000E+00 -0.10363579889E+04  0.13723753999E+04  0.89965346496E+03 0.  0.
        4    1    3    3  502    0 -0.41770087371E+03 -0.16571159559E+03 -0.54899621693E+03  0.70945952098E+03  0.12699999809E+01 0.  1.
       -4    1    3    3    0  502  0.41770087371E+03  0.16571159559E+03 -0.48736177196E+03  0.66291587888E+03  0.12699999809E+01 0. -1.
</event>
<event>
 5   0  0.3685879E-03  0.8984622E+03  0.7818609E-02  0.9427506E-01
        2   -1    0    0  501    0  0.00000000000E+00  0.00000000000E+00  0.89000191231E+03  0.89000191231E+03  0.25500000920E-02 0. -1.
       -2   -1    0    0    0  501  0.00000000000E+00  0.00000000000E+00 -0.22675072902E+03  0.22675072903E+03  0.25500000920E-02 0.  1.
    10030    2    1    2    0    0  0.00000000000E+00  0.00000000000E+00  0.66325118329E+03  0.11167526413E+04  0.89846220277E+03 0.  0.
        1    1    3    3  502    0  0.27791156964E+02  0.12537175702E+03  0.86670244259E+03  0.87616411127E+03  0.50400001928E-02 0. -1.
       -1    1    3    3    0  502 -0.27791156964E+02 -0.12537175702E+03 -0.20345125930E+03  0.24058853007E+03  0.50400001928E-02 0.  1.
</event>
<event>
 5   0  0.2129280E-03  0.8991357E+03  0.7818609E-02  0.9426662E-01
       -1   -1    0    0    0  501  0.00000000000E+00  0.00000000000E+00  0.10057037715E+03  0.10057037728E+03  0.50400001928E-02 0. -1.
        1   -1    0    0  501    0  0.00000000000E+00  0.00000000000E+00 -0.20096499266E+04  0.20096499266E+04  0.50400001928E-02 0.  1.
    10030    2    1    2    0    0  0.00000000000E+00  0.00000000000E+00 -0.19090795495E+04  0.21102203039E+04  0.89913569877E+03 0.  0.
        3    1    3    3  502    0 -0.14774957404E+03 -0.39123412599E+03 -0.56734990711E+03  0.70482622346E+03  0.10100000352E+00 0. -1.
       -3    1    3    3    0  502  0.14774957404E+03  0.39123412599E+03 -0.13417296423E+04  0.14053940804E+04  0.10100000352E+00 0.  1.
</event>
<event>
 5   0  0.3663255E-03  0.8987536E+03  0.7818609E-02  0.9427141E-01
        2   -1    0    0  501    0  0.00000000000E+00  0.00000000000E+00  0.25575179678E+03  0.25575179679E+03  0.25500000920E-02 0.  1.
       -2   -1    0    0    0  501  0.00000000000E+00  0.00000000000E+00 -0.78959172903E+03  0.78959172903E+03  0.25500000920E-02 0. -1.
    10030    2    1    2    0    0  0.00000000000E+00  0.00000000000E+00 -0.53383993225E+03  0.10453435258E+04  0.89875358898E+03 0.  0.
        4    1    3    3  502    0 -0.26461163196E+03  0.34570350447E+03 -0.39647770773E+03  0.58883479381E+03  0.12699999809E+01 0. -1.
       -4    1    3    3    0  502  0.26461163196E+03 -0.34570350447E+03 -0.13736222452E+03  0.45650873201E+03  0.12699999809E+01 0.  1.
</event>
<event>
 5   0  0.1436000E-03  0.8996652E+03  0.7818609E-02  0.9426000E-01
        3   -1    0    0  501    0  0.00000000000E+00  0.00000000000E+00  0.99387363660E+03  0.99387364173E+03  0.10100000352E+00 0.  1.
       -3   -1    0    0    0  501  0.00000000000E+00  0.00000000000E+00 -0.20359667942E+03  0.20359670448E+03  0.10100000352E+00 0. -1.
    10030    2    1    2    0    0  0.00000000000E+00  0.00000000000E+00  0.79027695717E+03  0.11974703462E+04  0.89966524941E+03 0.  0.
        1    1    3    3  502    0  0.27134604365E+03 -0.33281490399E+03  0.57348965415E+03  0.71643898496E+03  0.50400001928E-02 0. -1.
       -1    1    3    3    0  502 -0.27134604365E+03  0.33281490399E+03  0.21678730302E+03  0.48103136125E+03  0.50400001928E-02 0.  1.
</event>
<event>
 5   0  0.3663255E-03  0.9072104E+03  0.7818609E-02  0.9416613E-01
       -2   -1    0    0    0  501  0.00000000000E+00  0.00000000000E+00  0.10138481668E+03  0.10138481671E+03  0.25500000920E-02 0.  1.
        2   -1    0    0  501    0  0.00000000000E+00  0.00000000000E+00 -0.20294724358E+04  0.20294724358E+04  0.25500000920E-02 0. -1.
    10030    2    1    2    0    0  0.00000000000E+00  0.00000000000E+00 -0.19280876191E+04  0.21308572525E+04  0.90721042959E+03 0.  0.
        4    1    3    3  502    0  0.11187641752E+03  0.40191709179E+03 -0.13822518415E+04  0.14438405202E+04  0.12699999809E+01 0. -1.
       -4    1    3    3    0  502 -0.11187641752E+03 -0.40191709179E+03 -0.54583577761E+03  0.68701673232E+03  0.12699999809E+01 0.  1.
</event>
<event>
 5   0  0.3815269E-03  0.9054076E+03  0.7818609E-02  0.9418847E-01
        2   -1    0    0  501    0  0.00000000000E+00  0.00000000000E+00  0.42040601678E+03  0.42040601679E+03  0.25500000920E-02 0. -1.
       -2   -1    0    0    0  501  0.00000000000E+00  0.00000000000E+00 -0.48748282331E+03  0.48748282332E+03  0.25500000920E-02 0.  1.
    10030    2    1    2    0    0  0.00000000000E+00  0.00000000000E+00 -0.67076806531E+02  0.90788884011E+03  0.90540755907E+03 0.  0.
        5    1    3    3  502    0  0.24696002986E+03 -0.12262748595E+03 -0.39353742132E+03  0.48054193224E+03  0.46999998093E+01 0.  1.
       -5    1    3    3    0  502 -0.24696002986E+03  0.12262748595E+03  0.32646061479E+03  0.42734690787E+03  0.46999998093E+01 0. -1.
</event>
<event>
 5   0  0.3806019E-03  0.9006511E+03  0.7818609E-02  0.9424768E-01
        2   -1    0    0  501    0  0.00000000000E+00  0.00000000000E+00  0.84924395195E+03  0.84924395195E+03  0.25500000920E-02 0.  1.
       -2   -1    0    0    0  501  0.00000000000E+00  0.00000000000E+00 -0.23879254007E+03  0.23879254009E+03  0.25500000920E-02 0. -1.
    10030    2    1    2    0    0  0.00000000000E+00  0.00000000000E+00  0.61045141188E+03  0.10880364920E+04  0.90065114320E+03 0.  0.
        2    1    3    3  502    0  0.20748457790E+03 -0.56747201110E+02  0.78316856146E+03  0.81217183561E+03  0.25500000920E-02 0.  1.
       -2    1    3    3    0  502 -0.20748457790E+03  0.56747201110E+02 -0.17271714958E+03  0.27586465643E+03  0.25500000920E-02 0. -1.
</event>
<event>
 5   0  0.3626546E-03  0.8982673E+03  0.7818609E-02  0.9427750E-01
       -2   -1    0    0    0  501  0.00000000000E+00  0.00000000000E+00  0.40762354635E+03  0.40762354635E+03  0.25500000920E-02 0.  1.
        2   -1    0    0  501    0  0.00000000000E+00  0.00000000000E+00 -0.49487089371E+03  0.49487089372E+03  0.25500000920E-02 0. -1.
    10030    2    1    2    0    0  0.00000000000E+00  0.00000000000E+00 -0.87247347366E+02  0.90249444007E+03  0.89826728469E+03 0.  0.
        3    1    3    3  502    0  0.39101564716E+02 -0.34171379647E+03 -0.33381461527E+03  0.47930101046E+03  0.10100000352E+00 0. -1.
       -3    1    3    3    0  502 -0.39101564716E+02  0.34171379647E+03  0.24656726790E+03  0.42319342961E+03  0.10100000352E+00 0.  1.
</event>
<event>
 5   0  0.3626546E-03  0.9035297E+03  0.7818609E-02  0.9421180E-01
        2   -1    0    0  501    0  0.00000000000E+00  0.00000000000E+00  0.12251025957E+04  0.12251025957E+04  0.25500000920E-02 0.  1.
       -2   -1    0    0    0  501  0.00000000000E+00  0.00000000000E+00 -0.16659132860E+03  0.16659132862E+03  0.25500000920E-02 0. -1.
    10030    2    1    2    0    0  0.00000000000E+00  0.00000000000E+00  0.10585112671E+04  0.13916939243E+04  0.90352967654E+03 0.  0.
        3    1    3    3  502    0  0.38577530924E+03  0.61848380887E+02  0.17990045411E+03  0.43013020706E+03  0.10100000352E+00 0. -1.
       -3    1    3    3    0  502 -0.38577530924E+03 -0.61848380887E+02  0.87861081294E+03  0.96156371721E+03  0.10100000352E+00 0.  1.
</event>
<event>
 5   0  0.3806019E-03  0.8992759E+03  0.7818609E-02  0.9426487E-01
        2   -1    0    0  501    0  0.00000000000E+00  0.00000000000E+00  0.56078374367E+03  0.56078374368E+03  0.25500000920E-02 0. -1.
       -2   -1    0    0    0  501  0.00000000000E+00  0.00000000000E+00 -0.36052094356E+03  0.36052094357E+03  0.25500000920E-02 0.  1.
    10030    2    1    2    0    0  0.00000000000E+00  0.00000000000E+00  0.20026280011E+03  0.92130468724E+03  0.89927589628E+03 0.  0.
        2    1    3    3  502    0  0.29615212482E+03 -0.17085368881E+03 -0.19904466499E+03  0.39562083196E+03  0.25500000920E-02 0.  1.
       -2    1    3    3    0  502 -0.29615212482E+03  0.17085368881E+03  0.39930746510E+03  0.52568385528E+03  0.25500000920E-02 0. -1.
</event>
<event>
 5   0  0.1436000E-03  0.8958789E+03  0.7818609E-02  0.9430748E-01
        3   -1    0    0  501    0  0.00000000000E+00  0.00000000000E+00  0.85462697946E+03  0.85462698542E+03  0.10100000352E+00 0.  1.
       -3   -1    0    0    0  501  0.00000000000E+00  0.00000000000E+00 -0.23478049410E+03  0.23478051583E+03  0.10100000352E+00 0. -1.
    10030    2    1    2    0    0  0.00000000000E+00  0.00000000000E+00  0.61984648535E+03  0.10894075013E+04  0.89587891949E+03 0.  0.
        4    1    3    3  502    0  0.34178673774E+03  0.23810897407E+03  0.51023141435E+03  0.65867424932E+03  0.12699999809E+01 0.  1.
       -4    1    3    3    0  502 -0.34178673774E+03 -0.23810897407E+03  0.10961507100E+03  0.43073325193E+03  0.12699999809E+01 0. -1.
</event>
<event>
 5   0  0.1436000E-03  0.9128444E+03  0.7818609E-02  0.9409666E-01
        4   -1    0    0  501    0  0.00000000000E+00  0.00000000000E+00  0.54864347661E+03  0.54864494651E+03  0.12699999809E+01 0.  1.
       -4   -1    0    0    0  501  0.00000000000E+00  0.00000000000E+00 -0.37969931650E+03  0.37970144041E+03  0.12699999809E+01 0. -1.
    10030    2    1    2    0    0  0.00000000000E+00  0.00000000000E+00  0.16894416011E+03  0.92834638692E+03  0.91284439248E+03 0.  0.
        4    1    3    3  502    0  0.11580726237E+02 -0.21742898990E+03  0.49242025217E+03  0.53841322098E+03  0.12699999809E+01 0.  1.
       -4    1    3    3    0  502 -0.11580726237E+02  0.21742898990E+03 -0.32347609206E+03  0.38993316595E+03  0.12699999809E+01 0. -1.
</event>
<event>
 5   0  0.3626546E-03  0.8794966E+03  0.7818609E-02  0.9451581E-01
       -2   -1    0    0    0  501  0.00000000000E+00  0.00000000000E+00  0.22551265478E+03  0.22551265480E+03  0.25500000920E-02 0. -1.
        2   -1    0    0  501    0  0.00000000000E+00  0.00000000000E+00 -0.85750651667E+03  0.85750651667E+03  0.25500000920E-02 0.  1.
    10030    2    1    2    0    0  0.00000000000E+00  0.00000000000E+00 -0.63199386189E+03  0.10830191715E+04  0.87949660847E+03 0.  0.
        3    1    3    3  502    0  0.80617392100E+02  0.60706912962E+02 -0.84305404348E+03  0.84907280231E+03  0.10100000352E+00 0.  1.
       -3    1    3    3    0  502 -0.80617392100E+02 -0.60706912962E+02  0.21106018159E+03  0.23394636916E+03  0.10100000352E+00 0. -1.
</event>
<event>
 5   0  0.2295158E-03  0.9003255E+03  0.7818609E-02  0.9425175E-01
        1   -1    0    0  501    0  0.00000000000E+00  0.00000000000E+00  0.73035561548E+03  0.73035561550E+03  0.50400001928E-02 0.  1.
       -1   -1    0    0    0  501  0.00000000000E+00  0.00000000000E+00 -0.27746275625E+03  0.27746275630E+03  0.50400001928E-02 0. -1.
    10030    2    1    2    0    0  0.00000000000E+00  0.00000000000E+00  0.45289285923E+03  0.10078183718E+04  0.90032545703E+03 0.  0.
        4    1    3    3  502    0 -0.28550170963E+02  0.16736518661E+03 -0.24024618549E+03  0.29418711816E+03  0.12699999809E+01 0. -1.
       -4    1    3    3    0  502  0.28550170963E+02 -0.16736518661E+03  0.69313904472E+03  0.71363125363E+03  0.12699999809E+01 0.  1.
</event>
<event>
 5   0  0.3685879E-03  0.9087898E+03  0.7818609E-02  0.9414660E-01
        2   -1    0    0  501    0  0.00000000000E+00  0.00000000000E+00  0.67125248276E+03  0.67125248277E+03  0.25500000920E-02 0.  1.
       -2   -1    0    0    0  501  0.00000000000E+00  0.00000000000E+00 -0.30759624461E+03  0.30759624462E+03  0.25500000920E-02 0. -1.
    10030    2    1    2    0    0  0.00000000000E+00  0.00000000000E+00  0.36365623815E+03  0.97884872739E+03  0.90878983906E+03 0.  0.
        1    1    3    3  502    0 -0.23450512359E+02  0.58494355657E+02  0.66652261913E+03  0.66949527109E+03  0.50400001928E-02 0.  1.
       -1    1    3    3    0  502  0.23450512359E+02 -0.58494355657E+02 -0.30286638098E+03  0.30935345630E+03  0.50400001928E-02 0. -1.
</event>
<event>
 5   0  0.3806019E-03  0.9062364E+03  0.7818609E-02  0.9417819E-01
       -2   -1    0    0    0  501  0.00000000000E+00  0.00000000000E+00  0.16341983010E+03  0.16341983012E+03  0.25500000920E-02 0.  1.
        2   -1    0    0  501    0  0.00000000000E+00  0.00000000000E+00 -0.12563719407E+04  0.12563719407E+04  0.25500000920E-02 0. -1.
    10030    2    1    2    0    0  0.00000000000E+00  0.00000000000E+00 -0.10929521106E+04  0.14197917708E+04  0.90623636897E+03 0.  0.
        2    1    3    3  502    0 -0.38636103700E+03 -0.11872864610E+03 -0.22561134408E+03  0.46289504307E+03  0.25500000920E-02 0.  1.
       -2    1    3    3    0  502  0.38636103700E+03  0.11872864610E+03 -0.86734076651E+03  0.95689672775E+03  0.25500000920E-02 0. -1.
</event>
<event>
 5   0  0.2074970E-03  0.8975298E+03  0.7818609E-02  0.9428675E-01
       -1   -1    0    0    0  501  0.00000000000E+00  0.00000000000E+00  0.11346139131E+04  0.11346139132E+04  0.50400001928E-02 0. -1.
        1   -1    0    0  501    0  0.00000000000E+00  0.00000000000E+00 -0.17749645722E+03  0.17749645729E+03  0.50400001928E-02 0.  1.
    10030    2    1    2    0    0  0.00000000000E+00  0.00000000000E+00  0.95711745593E+03  0.13121103705E+04  0.89752983226E+03 0.  0.
        2    1    3    3  502    0 -0.17828631978E+03  0.37865425376E+03  0.71530238284E+03  0.82874758197E+03  0.25500000920E-02 0. -1.
       -2    1    3    3    0  502  0.17828631978E+03 -0.37865425376E+03  0.24181507309E+03  0.48336278848E+03  0.25500000920E-02 0.  1.
</event>
<event>
 5   0  0.3815269E-03  0.8993002E+03  0.7818609E-02  0.9426457E-01
        2   -1    0    0  501    0  0.00000000000E+00  0.00000000000E+00  0.27157199739E+03  0.27157199740E+03  0.25500000920E-02 0.  1.
       -2   -1    0    0    0  501  0.00000000000E+00  0.00000000000E+00 -0.74449941001E+03  0.74449941001E+03  0.25500000920E-02 0. -1.
    10030    2    1    2    0    0  0.00000000000E+00  0.00000000000E+00 -0.47292741262E+03  0.10160714074E+04  0.89930015420E+03 0.  0.
        5    1    3    3  502    0  0.26485713075E+02 -0.25191075249E+02 -0.74279017706E+03  0.74370385262E+03  0.46999998093E+01 0. -1.
       -5    1    3    3    0  502 -0.26485713075E+02  0.25191075249E+02  0.26986276444E+03  0.27236755478E+03  0.46999998093E+01 0.  1.
</event>
<event>
 5   0  0.2129280E-03  0.8989221E+03  0.7818609E-02  0.9426930E-01
       -1   -1    0    0    0  501  0.00000000000E+00  0.00000000000E+00  0.51823300550E+03  0.51823300553E+03  0.50400001928E-02 0. -1.
        1   -1    0    0  501    0  0.00000000000E+00  0.00000000000E+00 -0.38981546816E+03  0.38981546819E+03  0.50400001928E-02 0.  1.
    10030    2    1    2    0    0  0.00000000000E+00  0.00000000000E+00  0.12841753735E+03  0.90804847372E+03  0.89892211383E+03 0.  0.
        3    1    3    3  502    0  0.38237452978E+03  0.22119339360E+03  0.14798710399E+03  0.46587229103E+03  0.10100000352E+00 0.  1.
       -3    1    3    3    0  502 -0.38237452978E+03 -0.22119339360E+03 -0.19569566646E+02  0.44217618269E+03  0.10100000352E+00 0. -1.
</event>
<event>
 5   0  0.2129280E-03  0.9053297E+03  0.7818609E-02  0.9418943E-01
       -1   -1    0    0    0  501  0.00000000000E+00  0.00000000000E+00  0.41566664767E+03  0.41566664770E+03  0.50400001928E-02 0.  1.
        1   -1    0    0  501    0  0.00000000000E+00  0.00000000000E+00 -0.49295620606E+03  0.49295620608E+03  0.50400001928E-02 0. -1.
    10030    2    1    2    0    0  0.00000000000E+00  0.00000000000E+00 -0.77289558383E+02  0.90862285378E+03  0.90532967177E+03 0.  0.
        3    1    3    3  502    0  0.74279733168E+02  0.44531965770E+03 -0.71602731898E+02  0.45711490646E+03  0.10100000352E+00 0.  1.
       -3    1    3    3    0  502 -0.74279733168E+02 -0.44531965770E+03 -0.56868264845E+01  0.45150794732E+03  0.10100000352E+00 0. -1.
</event>
<event>
 5   0  0.2295158E-03  0.9086690E+03  0.7818609E-02  0.9414809E-01
       -1   -1    0    0    0  501  0.00000000000E+00  0.00000000000E+00  0.39954842439E+03  0.39954842442E+03  0.50400001928E-02 0.  1.
        1   -1    0    0  501    0  0.00000000000E+00  0.00000000000E+00 -0.51663286614E+03  0.51663286616E+03  0.50400001928E-02 0. -1.
    10030    2    1    2    0    0  0.00000000000E+00  0.00000000000E+00 -0.11708444175E+03  0.91618129058E+03  0.90866902155E+03 0.  0.
        4    1    3    3  502    0  0.19901376879E+03 -0.13696621800E+03 -0.44649855776E+03  0.50766997156E+03  0.12699999809E+01 0. -1.
       -4    1    3    3    0  502 -0.19901376879E+03  0.13696621800E+03  0.32941411601E+03  0.40851131902E+03  0.12699999809E+01 0.  1.
</event>
<event>
 5   0  0.3663255E-03  0.8989860E+03  0.7818609E-02  0.9426850E-01
       -2   -1    0    0    0  501  0.00000000000E+00  0.00000000000E+00  0.12377672890E+03  0.12377672893E+03  0.25500000920E-02 0. -1.
        2   -1    0    0  501    0  0.00000000000E+00  0.00000000000E+00 -0.16323260275E+04  0.16323260276E+04  0.25500000920E-02 0.  1.
    10030    2    1    2    0    0  0.00000000000E+00  0.00000000000E+00 -0.15085492986E+04  0.17561027565E+04  0.89898604265E+03 0.  0.
        4    1    3    3  502    0  0.18795055826E+02 -0.44859865287E+03 -0.71291190366E+03  0.84251943642E+03  0.12699999809E+01 0. -1.
       -4    1    3    3    0  502 -0.18795055826E+02  0.44859865287E+03 -0.79563739499E+03  0.91358332006E+03  0.12699999809E+01 0.  1.
</event>
<event>
 5   0  0.3806019E-03  0.9120256E+03  0.7818609E-02  0.9410672E-01
        2   -1    0    0  501    0  0.00000000000E+00  0.00000000000E+00  0.97291190090E+03  0.97291190090E+03  0.25500000920E-02 0. -1.
       -2   -1    0    0    0  501  0.00000000000E+00  0.00000000000E+00 -0.21373740727E+03  0.21373740728E+03  0.25500000920E-02 0.  1.
    10030    2    1    2    0    0  0.00000000000E+00  0.00000000000E+00  0.75917449363E+03  0.11866493082E+04  0.91202558562E+03 0.  0.
        2    1    3    3  502    0 -0.45512011732E+03 -0.18360904097E+02  0.40798085923E+03  0.61148984087E+03  0.25500000920E-02 0. -1.
       -2    1    3    3    0  502  0.45512011732E+03  0.18360904097E+02  0.35119363440E+03  0.57515946731E+03  0.25500000920E-02 0.  1.
</event>
<event>
 5   0  0.3663255E-03  0.8902862E+03  0.7818609E-02  0.9437806E-01
       -2   -1    0    0    0  501  0.00000000000E+00  0.00000000000E+00  0.19577497746E+03  0.19577497747E+03  0.25500000920E-02 0. -1.
        2   -1    0    0  501    0  0.00000000000E+00  0.00000000000E+00 -0.10121434541E+04  0.10121434541E+04  0.25500000920E-02 0.  1.
    10030    2    1    2    0    0  0.00000000000E+00  0.00000000000E+00 -0.81636847662E+03  0.12079184316E+04  0.89028616055E+03 0.  0.
        4    1    3    3  502    0  0.10175040514E+03 -0.29957253662E+03  0.16670455252E+02  0.31682229501E+03  0.12699999809E+01 0. -1.
       -4    1    3    3    0  502 -0.10175040514E+03  0.29957253662E+03 -0.83303893187E+03  0.89109613654E+03  0.12699999809E+01 0.  1.
</event>
<event>
 5   0  0.3685879E-03  0.9016368E+03  0.7818609E-02  0.9423538E-01
        2   -1    0    0  501    0  0.00000000000E+00  0.00000000000E+00  0.60110969558E+03  0.60110969559E+03  0.25500000920E-02 0. -1.
       -2   -1    0    0    0  501  0.00000000000E+00  0.00000000000E+00 -0.33810339518E+03  0.33810339519E+03  0.25500000920E-02 0.  1.
    10030    2    1    2    0    0  0.00000000000E+00  0.00000000000E+00  0.26300630041E+03  0.93921309077E+03  0.90163679818E+03 0.  0.
        1    1    3    3  502    0 -0.55668573773E+01 -0.28202783702E+03  0.49782144668E+03  0.57218605676E+03  0.50400001928E-02 0. -1.
       -1    1    3    3    0  502  0.55668573773E+01  0.28202783702E+03 -0.23481514627E+03  0.36702703401E+03  0.50400001928E-02 0.  1.
</event>
<event>
 5   0  0.3626546E-03  0.9040177E+03  0.7818609E-02  0.9420573E-01
        2   -1    0    0  501    0  0.00000000000E+00  0.00000000000E+00  0.96969465877E+03  0.96969465877E+03  0.25500000920E-02 0. -1.
       -2   -1    0    0    0  501  0.00000000000E+00  0.00000000000E+00 -0.21069727181E+03  0.21069727183E+03  0.25500000920E-02 0.  1.
    10030    2    1    2    0    0  0.00000000000E+00  0.00000000000E+00  0.75899738695E+03  0.11803919306E+04  0.90401774120E+03 0.  0.
        3    1    3    3  502    0 -0.22666210887E+03 -0.37022383958E+03  0.54399116735E+03  0.69596537511E+03  0.10100000352E+00 0. -1.
       -3    1    3    3    0  502  0.22666210887E+03  0.37022383958E+03  0.21500621960E+03  0.48442655549E+03  0.10100000352E+00 0.  1.
</event>
<event>
 5   0  0.2134145E-03  0.8997959E+03  0.7818609E-02  0.9425837E-01
        1   -1    0    0  501    0  0.00000000000E+00  0.00000000000E+00  0.67029490827E+03  0.67029490829E+03  0.50400001928E-02 0.  1.
       -1   -1    0    0    0  501  0.00000000000E+00  0.00000000000E+00 -0.30196881262E+03  0.30196881266E+03  0.50400001928E-02 0. -1.
    10030    2    1    2    0    0  0.00000000000E+00  0.00000000000E+00  0.36832609565E+03  0.97226372095E+03  0.89979588260E+03 0.  0.
        1    1    3    3  502    0  0.13304674943E+02 -0.28189905792E+03  0.56275877508E+03  0.62955661555E+03  0.50400001928E-02 0.  1.
       -1    1    3    3    0  502 -0.13304674943E+02  0.28189905792E+03 -0.19443267943E+03  0.34270710540E+03  0.50400001928E-02 0. -1.
</event>
<event>
 5   0  0.3806019E-03  0.9030264E+03  0.7818609E-02  0.9421806E-01
        2   -1    0    0  501    0  0.00000000000E+00  0.00000000000E+00  0.73762666674E+03  0.73762666675E+03  0.25500000920E-02 0. -1.
       -2   -1    0    0    0  501  0.00000000000E+00  0.00000000000E+00 -0.27637850041E+03  0.27637850042E+03  0.25500000920E-02 0.  1.
    10030    2    1    2    0    0  0.00000000000E+00  0.00000000000E+00  0.46124816633E+03  0.10140051672E+04  0.90302636069E+03 0.  0.
        2    1    3    3  502    0 -0.22298078647E+03 -0.38573743204E+03  0.31275960395E+03  0.54436418644E+03  0.25500000920E-02 0. -1.
       -2    1    3    3    0  502  0.22298078647E+03  0.38573743204E+03  0.14848856239E+03  0.46964098073E+03  0.25500000920E-02 0.  1.
</event>
<event>
 5   0  0.2074970E-03  0.8955367E+03  0.7818609E-02  0.9431178E-01
        1   -1    0    0  501    0  0.00000000000E+00  0.00000000000E+00  0.96418946579E+03  0.96418946580E+03  0.50400001928E-02 0. -1.
       -1   -1    0    0    0  501  0.00000000000E+00  0.00000000000E+00 -0.20794306598E+03  0.20794306604E+03  0.50400001928E-02 0.  1.
    10030    2    1    2    0    0  0.00000000000E+00  0.00000000000E+00  0.75624639981E+03  0.11721325318E+04  0.89553674128E+03 0.  0.
        2    1    3    3  502    0  0.31167118906E+03  0.19947130457E+03  0.70812420108E+03  0.79897910836E+03  0.25500000920E-02 0. -1.
       -2    1    3    3    0  502 -0.31167118906E+03 -0.19947130457E+03  0.48122198731E+02  0.37315342348E+03  0.25500000920E-02 0.  1.
</event>
<event>
 5   0  0.3663255E-03  0.8965643E+03  0.7818609E-02  0.9429886E-01
       -2   -1    0    0    0  501  0.00000000000E+00  0.00000000000E+00  0.16054560886E+03  0.16054560888E+03  0.25500000920E-02 0. -1.
        2   -1    0    0  501    0  0.00000000000E+00  0.00000000000E+00 -0.12517120192E+04  0.12517120192E+04  0.25500000920E-02 0.  1.
    10030    2    1    2    0    0  0.00000000000E+00  0.00000000000E+00 -0.10911664103E+04  0.14122576281E+04  0.89656426038E+03 0.  0.
        4    1    3    3  502    0  0.95758638811E+02 -0.43400205444E+03 -0.45336059607E+03  0.63487395846E+03  0.12699999809E+01 0.  1.
       -4    1    3    3    0  502 -0.95758638811E+02  0.43400205444E+03 -0.63780581424E+03  0.77738366959E+03  0.12699999809E+01 0. -1.
</event>
<event>
 5   0  0.3663255E-03  0.9016796E+03  0.7818609E-02  0.9423484E-01
       -2   -1    0    0    0  501  0.00000000000E+00  0.00000000000E+00  0.42930765168E+03  0.42930765168E+03  0.25500000920E-02 0. -1.
        2   -1    0    0  501    0  0.00000000000E+00  0.00000000000E+00 -0.47345189771E+03  0.47345189771E+03  0.25500000920E-02 0.  1.
    10030    2    1    2    0    0  0.00000000000E+00  0.00000000000E+00 -0.44144246032E+02  0.90275954940E+03  0.90167959363E+03 0.  0.
        4    1    3    3  502    0  0.10093067282E+03 -0.11342150387E+03  0.40294010596E+03  0.43059700434E+03  0.12699999809E+01 0. -1.
       -4    1    3    3    0  502 -0.10093067282E+03  0.11342150387E+03 -0.44708435199E+03  0.47216254506E+03  0.12699999809E+01 0.  1.
</event>
<event>
 5   0  0.2134145E-03  0.8984446E+03  0.7818609E-02  0.9427528E-01
        1   -1    0    0  501    0  0.00000000000E+00  0.00000000000E+00  0.69802845220E+03  0.69802845221E+03  0.50400001928E-02 0.  1.
       -1   -1    0    0    0  501  0.00000000000E+00  0.00000000000E+00 -0.28910094196E+03  0.28910094201E+03  0.50400001928E-02 0. -1.
    10030    2    1    2    0    0  0.00000000000E+00  0.00000000000E+00  0.40892751023E+03  0.98712939422E+03  0.89844461839E+03 0.  0.
        1    1    3    3  502    0 -0.31018950411E+03 -0.15107594065E+03 -0.11161183197E+03  0.36262745258E+03  0.50400001928E-02 0. -1.
       -1    1    3    3    0  502  0.31018950411E+03  0.15107594065E+03  0.52053934220E+03  0.62450194164E+03  0.50400001928E-02 0.  1.
</event>
<event>
 5   0  0.2129280E-03  0.8900084E+03  0.7818609E-02  0.9438158E-01
       -1   -1    0    0    0  501  0.00000000000E+00  0.00000000000E+00  0.31197768547E+03  0.31197768551E+03  0.50400001928E-02 0.  1.
        1   -1    0    0  501    0  0.00000000000E+00  0.00000000000E+00 -0.63475286309E+03  0.63475286311E+03  0.50400001928E-02 0. -1.
    10030    2    1    2    0    0  0.00000000000E+00  0.00000000000E+00 -0.32277517762E+03  0.94673054861E+03  0.89000837996E+03 0.  0.
        3    1    3    3  502    0  0.13528427070E+03 -0.19359867163E+03  0.23980508817E+03  0.33658397179E+03  0.10100000352E+00 0.  1.
       -3    1    3    3    0  502 -0.13528427070E+03  0.19359867163E+03 -0.56258026578E+03  0.61014657682E+03  0.10100000352E+00 0. -1.
</event>
<event>
 5   0  0.3626546E-03  0.9001715E+03  0.7818609E-02  0.9425367E-01
        2   -1    0    0  501    0  0.00000000000E+00  0.00000000000E+00  0.46043196202E+03  0.46043196203E+03  0.25500000920E-02 0.  1.
       -2   -1    0    0    0  501  0.00000000000E+00  0.00000000000E+00 -0.43997206968E+03  0.43997206968E+03  0.25500000920E-02 0. -1.
    10030    2    1    2    0    0  0.00000000000E+00  0.00000000000E+00  0.20459892349E+02  0.90040403171E+03  0.90017154650E+03 0.  0.
        3    1    3    3  502    0  0.43169116034E+03 -0.71291997486E+02 -0.95331125525E+02  0.44780335027E+03  0.10100000352E+00 0. -1.
       -3    1    3    3    0  502 -0.43169116034E+03  0.71291997486E+02  0.11579101787E+03  0.45260068144E+03  0.10100000352E+00 0.  1.
</event>
<event>
 5   0  0.2130975E-03  0.8990565E+03  0.7818609E-02  0.9426762E-01
       -1   -1    0    0    0  501  0.00000000000E+00  0.00000000000E+00  0.47497400095E+03  0.47497400097E+03  0.50400001928E-02 0.  1.
        1   -1    0    0  501    0  0.00000000000E+00  0.00000000000E+00 -0.42544574965E+03  0.42544574968E+03  0.50400001928E-02 0. -1.
    10030    2    1    2    0    0  0.00000000000E+00  0.00000000000E+00  0.49528251290E+02  0.90041975066E+03  0.89905654978E+03 0.  0.
        5    1    3    3  502    0 -0.28010419023E+02  0.16566907702E+03 -0.39278859302E+03  0.42724208063E+03  0.46999998093E+01 0. -1.
       -5    1    3    3    0  502  0.28010419023E+02 -0.16566907702E+03  0.44231684431E+03  0.47317767003E+03  0.46999998093E+01 0.  1.
</event>
<event>
 5   0  0.2295158E-03  0.8958467E+03  0.7818609E-02  0.9430788E-01
        1   -1    0    0  501    0  0.00000000000E+00  0.00000000000E+00  0.85286241998E+03  0.85286241999E+03  0.50400001928E-02 0. -1.
       -1   -1    0    0    0  501  0.00000000000E+00  0.00000000000E+00 -0.23524937209E+03  0.23524937214E+03  0.50400001928E-02 0.  1.
    10030    2    1    2    0    0  0.00000000000E+00  0.00000000000E+00  0.61761304789E+03  0.10881117921E+04  0.89584674764E+03 0.  0.
        4    1    3    3  502    0  0.14813566547E+03  0.30377767962E+03 -0.48234801210E+02  0.34139897915E+03  0.12699999809E+01 0.  1.
       -4    1    3    3    0  502 -0.14813566547E+03 -0.30377767962E+03  0.66584784910E+03  0.74671281298E+03  0.12699999809E+01 0. -1.
</event>
<event>
 5   0  0.3663255E-03  0.8914120E+03  0.7818609E-02  0.9436381E-01
        2   -1    0    0  501    0  0.00000000000E+00  0.00000000000E+00  0.16855132653E+04  0.16855132653E+04  0.25500000920E-02 0.  1.
       -2   -1    0    0    0  501  0.00000000000E+00  0.00000000000E+00 -0.11785954477E+03  0.11785954480E+03  0.25500000920E-02 0. -1.
    10030    2    1    2    0    0  0.00000000000E+00  0.00000000000E+00  0.15676537205E+04  0.18033728101E+04  0.89141197251E+03 0.  0.
        4    1    3    3  502    0  0.11417900031E+03  0.42833390803E+03  0.87753222865E+03  0.98314353281E+03  0.12699999809E+01 0.  1.
       -4    1    3    3    0  502 -0.11417900031E+03 -0.42833390803E+03  0.69012149187E+03  0.82022927729E+03  0.12699999809E+01 0. -1.
</event>
<event>
 5   0  0.3685879E-03  0.8823128E+03  0.7818609E-02  0.9447965E-01
        2   -1    0    0  501    0  0.00000000000E+00  0.00000000000E+00  0.15576546817E+04  0.15576546817E+04  0.25500000920E-02 0. -1.
       -2   -1    0    0    0  501  0.00000000000E+00  0.00000000000E+00 -0.12494358002E+03  0.12494358005E+03  0.25500000920E-02 0.  1.
    10030    2    1    2    0    0  0.00000000000E+00  0.00000000000E+00  0.14327111017E+04  0.16825982618E+04  0.88231276177E+03 0.  0.
        1    1    3    3  502    0 -0.25037382102E+03 -0.43983421170E+01  0.23726115988E+02  0.25153394258E+03  0.50400001928E-02 0.  1.
       -1    1    3    3    0  502  0.25037382102E+03  0.43983421170E+01  0.14089849857E+04  0.14310643192E+04  0.50400001928E-02 0. -1.
</event>
<event>
 5   0  0.2074970E-03  0.9007572E+03  0.7818609E-02  0.9424635E-01
        1   -1    0    0  501    0  0.00000000000E+00  0.00000000000E+00  0.64916885041E+03  0.64916885043E+03  0.50400001928E-02 0.  1.
       -1   -1    0    0    0  501  0.00000000000E+00  0.00000000000E+00 -0.31246245332E+03  0.31246245336E+03  0.50400001928E-02 0. -1.
    10030    2    1    2    0    0  0.00000000000E+00  0.00000000000E+00  0.33670639709E+03  0.96163130379E+03  0.90075721845E+03 0.  0.
        2    1    3    3  502    0 -0.85398006495E+02 -0.59680228457E+02  0.63612712282E+03  0.64460240892E+03  0.25500000920E-02 0.  1.
       -2    1    3    3    0  502  0.85398006495E+02  0.59680228457E+02 -0.29942072573E+03  0.31702889487E+03  0.25500000920E-02 0. -1.
</event>
<event>
 5   0  0.3806019E-03  0.8994279E+03  0.7818609E-02  0.9426297E-01
       -2   -1    0    0    0  501  0.00000000000E+00  0.00000000000E+00  0.77184776850E+02  0.77184776892E+02  0.25500000920E-02 0. -1.
        2   -1    0    0  501    0  0.00000000000E+00  0.00000000000E+00 -0.26202402478E+04  0.26202402478E+04  0.25500000920E-02 0.  1.
    10030    2    1    2    0    0  0.00000000000E+00  0.00000000000E+00 -0.25430554709E+04  0.26974250246E+04  0.89942794903E+03 0.  0.
        2    1    3    3  502    0  0.17536618361E+03 -0.13857989470E+03 -0.10118913532E+03  0.24535061990E+03  0.25500000920E-02 0. -1.
       -2    1    3    3    0  502 -0.17536618361E+03  0.13857989470E+03 -0.24418663356E+04  0.24520744048E+04  0.25500000920E-02 0.  1.
</event>
<event>
 5   0  0.1436000E-03  0.8975054E+03  0.7818609E-02  0.9428705E-01
        3   -1    0    0  501    0  0.00000000000E+00  0.00000000000E+00  0.35894852569E+03  0.35894853990E+03  0.10100000352E+00 0.  1.
       -3   -1    0    0    0  501  0.00000000000E+00  0.00000000000E+00 -0.56102470451E+03  0.56102471360E+03  0.10100000352E+00 0. -1.
    10030    2    1    2    0    0  0.00000000000E+00  0.00000000000E+00 -0.20207617882E+03  0.91997325350E+03  0.89750543459E+03 0.  0.
        5    1    3    3  502    0 -0.11571768820E+03  0.71488343477E+02  0.33728305230E+03  0.36370745659E+03  0.46999998093E+01 0.  1.
       -5    1    3    3    0  502  0.11571768820E+03 -0.71488343477E+02 -0.53935923112E+03  0.55626579691E+03  0.46999998093E+01 0. -1.
</event>
<event>
 5   0  0.3685879E-03  0.8980505E+03  0.7818609E-02  0.9428022E-01
       -2   -1    0    0    0  501  0.00000000000E+00  0.00000000000E+00  0.18406626201E+03  0.18406626203E+03  0.25500000920E-02 0.  1.
        2   -1    0    0  501    0  0.00000000000E+00  0.00000000000E+00 -0.10953863013E+04  0.10953863013E+04  0.25500000920E-02 0. -1.
    10030    2    1    2    0    0  0.00000000000E+00  0.00000000000E+00 -0.91132003933E+03  0.12794525634E+04  0.89805047066E+03 0.  0.
        1    1    3    3  502    0  0.60118033268E+02 -0.35449678592E+03 -0.83885272861E+03  0.91266425890E+03  0.50400001928E-02 0.  1.
       -1    1    3    3    0  502 -0.60118033268E+02  0.35449678592E+03 -0.72467310713E+02  0.36678830447E+03  0.50400001928E-02 0. -1.
</event>
<event>
 5   0  0.3626546E-03  0.9025805E+03  0.7818609E-02  0.9422361E-01
        2   -1    0    0  501    0  0.00000000000E+00  0.00000000000E+00  0.12824594016E+04  0.12824594016E+04  0.25500000920E-02 0. -1.
       -2   -1    0    0    0  501  0.00000000000E+00  0.00000000000E+00 -0.15880650258E+03  0.15880650260E+03  0.25500000920E-02 0.  1.
    10030    2    1    2    0    0  0.00000000000E+00  0.00000000000E+00  0.11236528990E+04  0.14412659042E+04  0.90258050563E+03 0.  0.
        3    1    3    3  502    0  0.34146905209E+03 -0.22856947380E+03  0.85978688708E+03  0.95293159213E+03  0.10100000352E+00 0. -1.
       -3    1    3    3    0  502 -0.34146905209E+03  0.22856947380E+03  0.26386601194E+03  0.48833431207E+03  0.10100000352E+00 0.  1.
</event>
<event>
 5   0  0.3806019E-03  0.8980517E+03  0.7818609E-02  0.9428020E-01
       -2   -1    0    0    0  501  0.00000000000E+00  0.00000000000E+00  0.64385052456E+03  0.64385052456E+03  0.25500000920E-02 0. -1.
        2   -1    0    0  501    0  0.00000000000E+00  0.00000000000E+00 -0.31315374453E+03  0.31315374454E+03  0.25500000920E-02 0.  1.
    10030    2    1    2    0    0  0.00000000000E+00  0.00000000000E+00  0.33069678003E+03  0.95700426910E+03  0.89805167488E+03 0.  0.
        2    1    3    3  502    0 -0.87180706488E+02  0.43883101392E+03  0.20594188812E+03  0.49252938557E+03  0.25500000920E-02 0.  1.
       -2    1    3    3    0  502  0.87180706488E+02 -0.43883101392E+03  0.12475489191E+03  0.46447488353E+03  0.25500000920E-02 0. -1.
</event>
<event>
 5   0  0.2130975E-03  0.9008290E+03  0.7818609E-02  0.9424546E-01
       -1   -1    0    0    0  501  0.00000000000E+00  0.00000000000E+00  0.48513538640E+03  0.48513538643E+03  0.50400001928E-02 0.  1.
        1   -1    0    0  501    0  0.00000000000E+00  0.00000000000E+00 -0.41817853070E+03  0.41817853073E+03  0.50400001928E-02 0. -1.
    10030    2    1    2    0    0  0.00000000000E+00  0.00000000000E+00  0.66956855701E+02  0.90331391716E+03  0.90082895847E+03 0.  0.
        5    1    3    3  502    0 -0.11244215364E+03  0.21722520288E+03 -0.34574608225E+03  0.42354748266E+03  0.46999998093E+01 0. -1.
       -5    1    3    3    0  502  0.11244215364E+03 -0.21722520288E+03  0.41270293795E+03  0.47976643450E+03  0.46999998093E+01 0.  1.
</event>
<event>
 5   0  0.3663255E-03  0.9060560E+03  0.7818609E-02  0.9418043E-01
        2   -1    0    0  501    0  0.00000000000E+00  0.00000000000E+00  0.65502997600E+03  0.65502997601E+03  0.25500000920E-02 0.  1.
       -2   -1    0    0    0  501  0.00000000000E+00  0.00000000000E+00 -0.31332059329E+03  0.31332059330E+03  0.25500000920E-02 0. -1.
    10030    2    1    2    0    0  0.00000000000E+00  0.00000000000E+00  0.34170938271E+03  0.96835056931E+03  0.90605602633E+03 0.  0.
        4    1    3    3  502    0  0.26411079206E+02  0.42207309752E+03 -0.27627411899E+01  0.42290955344E+03  0.12699999809E+01 0.  1.
       -4    1    3    3    0  502 -0.26411079206E+02 -0.42207309752E+03  0.34447212390E+03  0.54544101587E+03  0.12699999809E+01 0. -1.
</event>
<event>
 5   0  0.2129280E-03  0.9046779E+03  0.7818609E-02  0.9419753E-01
       -1   -1    0    0    0  501  0.00000000000E+00  0.00000000000E+00  0.77642924986E+03  0.77642924988E+03  0.50400001928E-02 0.  1.
        1   -1    0    0  501    0  0.00000000000E+00  0.00000000000E+00 -0.26352760829E+03  0.26352760834E+03  0.50400001928E-02 0. -1.
    10030    2    1    2    0    0  0.00000000000E+00  0.00000000000E+00  0.51290164157E+03  0.10399568582E+04  0.90467793885E+03 0.  0.
        3    1    3    3  502    0  0.95286169696E+02 -0.99807452478E+02  0.75164403217E+03  0.76420530161E+03  0.10100000352E+00 0.  1.
       -3    1    3    3    0  502 -0.95286169696E+02  0.99807452478E+02 -0.23874239060E+03  0.27575155662E+03  0.10100000352E+00 0. -1.
</event>
<event>
 5   0  0.2134145E-03  0.8905948E+03  0.7818609E-02  0.9437415E-01
       -1   -1    0    0    0  501  0.00000000000E+00  0.00000000000E+00  0.13955798858E+04  0.13955798858E+04  0.50400001928E-02 0.  1.
        1   -1    0    0  501    0  0.00000000000E+00  0.00000000000E+00 -0.14208414099E+03  0.14208414108E+03  0.50400001928E-02 0. -1.
    10030    2    1    2    0    0  0.00000000000E+00  0.00000000000E+00  0.12534957448E+04  0.15376640269E+04  0.89059478852E+03 0.  0.
        1    1    3    3  502    0  0.47422712175E+02 -0.26258957902E+03  0.11241093404E+02  0.26707407745E+03  0.50400001928E-02 0. -1.
       -1    1    3    3    0  502 -0.47422712175E+02  0.26258957902E+03  0.12422546514E+04  0.12705899494E+04  0.50400001928E-02 0.  1.
</event>
<event>
 5   0  0.3626546E-03  0.8989365E+03  0.7818609E-02  0.9426912E-01
        2   -1    0    0  501    0  0.00000000000E+00  0.00000000000E+00  0.10775916673E+04  0.10775916673E+04  0.25500000920E-02 0. -1.
       -2   -1    0    0    0  501  0.00000000000E+00  0.00000000000E+00 -0.18747519476E+03  0.18747519478E+03  0.25500000920E-02 0.  1.
    10030    2    1    2    0    0  0.00000000000E+00  0.00000000000E+00  0.89011647256E+03  0.12650668621E+04  0.89893649990E+03 0.  0.
        3    1    3    3  502    0  0.78594669127E+02 -0.29837150905E+03 -0.14889786051E+02  0.30890839315E+03  0.10100000352E+00 0.  1.
       -3    1    3    3    0  502 -0.78594669127E+02  0.29837150905E+03  0.90500625861E+03  0.95615846896E+03  0.10100000352E+00 0. -1.
</event>
<event>
 5   0  0.1436000E-03  0.8995966E+03  0.7818609E-02  0.9426086E-01
        3   -1    0    0  501    0  0.00000000000E+00  0.00000000000E+00  0.59729551619E+03  0.59729552473E+03  0.10100000352E+00 0.  1.
       -3   -1    0    0    0  501  0.00000000000E+00  0.00000000000E+00 -0.33872429873E+03  0.33872431379E+03  0.10100000352E+00 0. -1.
    10030    2    1    2    0    0  0.00000000000E+00  0.00000000000E+00  0.25857121746E+03  0.93601983852E+03  0.89959661160E+03 0.  0.
        2    1    3    3  502    0  0.71581140750E+01 -0.13022778062E+03  0.57718897848E+03  0.59174118526E+03  0.25500000920E-02 0.  1.
       -2    1    3    3    0  502 -0.71581140750E+01  0.13022778062E+03 -0.31861776103E+03  0.34427865326E+03  0.25500000920E-02 0. -1.
</event>
<event>
 5   0  0.2129280E-03  0.9046376E+03  0.7818609E-02  0.9419803E-01
       -1   -1    0    0    0  501  0.00000000000E+00  0.00000000000E+00  0.71606391931E+03  0.71606391933E+03  0.50400001928E-02 0. -1.
        1   -1    0    0  501    0  0.00000000000E+00  0.00000000000E+00 -0.28571791014E+03  0.28571791018E+03  0.50400001928E-02 0.  1.
    10030    2    1    2    0    0  0.00000000000E+00  0.00000000000E+00  0.43034600917E+03  0.10017818295E+04  0.90463757734E+03 0.  0.
        3    1    3    3  502    0  0.21873423983E+03  0.33066692202E+03 -0.25939504170E+02  0.39731366585E+03  0.10100000352E+00 0.  1.
       -3    1    3    3    0  502 -0.21873423983E+03 -0.33066692202E+03  0.45628551334E+03  0.60446816366E+03  0.10100000352E+00 0. -1.
</event>
<event>
 5   0  0.2295158E-03  0.8965667E+03  0.7818609E-02  0.9429883E-01
        1   -1    0    0  501    0  0.00000000000E+00  0.00000000000E+00  0.71164352024E+03  0.71164352026E+03  0.50400001928E-02 0.  1.
       -1   -1    0    0    0  501  0.00000000000E+00  0.00000000000E+00 -0.28238568778E+03  0.28238568782E+03  0.50400001928E-02 0. -1.
    10030    2    1    2    0    0  0.00000000000E+00  0.00000000000E+00  0.42925783246E+03  0.99402920808E+03  0.89656666221E+03 0.  0.
        4    1    3    3  502    0  0.16893319290E+03  0.22635233471E+02  0.67431516731E+03  0.69552378480E+03  0.12699999809E+01 0.  1.
       -4    1    3    3    0  502 -0.16893319290E+03 -0.22635233471E+02 -0.24505733485E+03  0.29850542327E+03  0.12699999809E+01 0. -1.
</event>
<event>
 5   0  0.2130975E-03  0.8971636E+03  0.7818609E-02  0.9429134E-01
        1   -1    0    0  501    0  0.00000000000E+00  0.00000000000E+00  0.76963304399E+03  0.76963304401E+03  0.50400001928E-02 0. -1.
       -1   -1    0    0    0  501  0.00000000000E+00  0.00000000000E+00 -0.26145659920E+03  0.26145659925E+03  0.50400001928E-02 0.  1.
    10030    2    1    2    0    0  0.00000000000E+00  0.00000000000E+00  0.50817644480E+03  0.10310896433E+04  0.89716361573E+03 0.  0.
        5    1    3    3  502    0  0.22082028302E+03 -0.38763699103E+03  0.30774253280E+03  0.54198855219E+03  0.46999998093E+01 0. -1.
       -5    1    3    3    0  502 -0.22082028302E+03  0.38763699103E+03  0.20043391199E+03  0.48910109107E+03  0.46999998093E+01 0.  1.
</event>
<event>
 5   0  0.2295158E-03  0.8966346E+03  0.7818609E-02  0.9429798E-01
       -1   -1    0    0    0  501  0.00000000000E+00  0.00000000000E+00  0.27158888222E+03  0.27158888227E+03  0.50400001928E-02 0.  1.
        1   -1    0    0  501    0  0.00000000000E+00  0.00000000000E+00 -0.74004642591E+03  0.74004642592E+03  0.50400001928E-02 0. -1.
    10030    2    1    2    0    0  0.00000000000E+00  0.00000000000E+00 -0.46845754368E+03  0.10116353082E+04  0.89663455574E+03 0.  0.
        4    1    3    3  502    0  0.47579866169E+02 -0.17318920417E+03 -0.69767850054E+03  0.72042712825E+03  0.12699999809E+01 0. -1.
       -4    1    3    3    0  502 -0.47579866169E+02  0.17318920417E+03  0.22922095685E+03  0.29120817994E+03  0.12699999809E+01 0.  1.
</event>
<event>
 5   0  0.3626546E-03  0.8837800E+03  0.7818609E-02  0.9446087E-01
        2   -1    0    0  501    0  0.00000000000E+00  0.00000000000E+00  0.11031087621E+04  0.11031087621E+04  0.25500000920E-02 0.  1.
       -2   -1    0    0    0  501  0.00000000000E+00  0.00000000000E+00 -0.17701498210E+03  0.17701498212E+03  0.25500000920E-02 0. -1.
    10030    2    1    2    0    0  0.00000000000E+00  0.00000000000E+00  0.92609378001E+03  0.12801237442E+04  0.88378001289E+03 0.  0.
        3    1    3    3  502    0  0.11060477895E+02 -0.35040980012E+03  0.73419687481E+02  0.35818964656E+03  0.10100000352E+00 0. -1.
       -3    1    3    3    0  502 -0.11060477895E+02  0.35040980012E+03  0.85267409253E+03  0.92193409768E+03  0.10100000352E+00 0.  1.
</event>
<event>
 5   0  0.2295158E-03  0.8948775E+03  0.7818609E-02  0.9432008E-01
       -1   -1    0    0    0  501  0.00000000000E+00  0.00000000000E+00  0.24795477180E+03  0.24795477186E+03  0.50400001928E-02 0. -1.
        1   -1    0    0  501    0  0.00000000000E+00  0.00000000000E+00 -0.80741112214E+03  0.80741112216E+03  0.50400001928E-02 0.  1.
    10030    2    1    2    0    0  0.00000000000E+00  0.00000000000E+00 -0.55945635034E+03  0.10553658940E+04  0.89487751246E+03 0.  0.
        4    1    3    3  502    0 -0.39730251715E+03 -0.33534426745E+02 -0.40272599896E+02  0.40074598328E+03  0.12699999809E+01 0. -1.
       -4    1    3    3    0  502  0.39730251715E+03  0.33534426745E+02 -0.51918375044E+03  0.65461991073E+03  0.12699999809E+01 0.  1.
</event>
<event>
 5   0  0.3626546E-03  0.9030919E+03  0.7818609E-02  0.9421725E-01
       -2   -1    0    0    0  501  0.00000000000E+00  0.00000000000E+00  0.28689139141E+03  0.28689139142E+03  0.25500000920E-02 0.  1.
        2   -1    0    0  501    0  0.00000000000E+00  0.00000000000E+00 -0.71070004784E+03  0.71070004784E+03  0.25500000920E-02 0. -1.
    10030    2    1    2    0    0  0.00000000000E+00  0.00000000000E+00 -0.42380865643E+03  0.99759143926E+03  0.90309185714E+03 0.  0.
        3    1    3    3  502    0  0.30866433808E+02  0.45016450581E+03 -0.19299928002E+03  0.49076425228E+03  0.10100000352E+00 0. -1.
       -3    1    3    3    0  502 -0.30866433808E+02 -0.45016450581E+03 -0.23080937641E+03  0.50682718698E+03  0.10100000352E+00 0.  1.
</event>
<event>
 5   0  0.3663255E-03  0.8990171E+03  0.7818609E-02  0.9426811E-01
        2   -1    0    0  501    0  0.00000000000E+00  0.00000000000E+00  0.27651347717E+03  0.27651347719E+03  0.25500000920E-02 0. -1.
       -2   -1    0    0    0  501  0.00000000000E+00  0.00000000000E+00 -0.73073442380E+03  0.73073442381E+03  0.25500000920E-02 0.  1.
    10030    2    1    2    0    0  0.00000000000E+00  0.00000000000E+00 -0.45422094663E+03  0.10072479010E+04  0.89901705529E+03 0.  0.
        4    1    3    3  502    0  0.26888219435E+03  0.18064932883E+03 -0.57627716964E+03  0.66108154081E+03  0.12699999809E+01 0.  1.
       -4    1    3    3    0  502 -0.26888219435E+03 -0.18064932883E+03  0.12205622301E+03  0.34616636018E+03  0.12699999809E+01 0. -1.
</event>
<event>
 5   0  0.2295158E-03  0.8997836E+03  0.7818609E-02  0.9425852E-01
       -1   -1    0    0    0  501  0.00000000000E+00  0.00000000000E+00  0.38977119769E+03  0.38977119772E+03  0.50400001928E-02 0.  1.
        1   -1    0    0  501    0  0.00000000000E+00  0.00000000000E+00 -0.51928579095E+03  0.51928579098E+03  0.50400001928E-02 0. -1.
    10030    2    1    2    0    0  0.00000000000E+00  0.00000000000E+00 -0.12951459326E+03  0.90905698870E+03  0.89978362890E+03 0.  0.
        4    1    3    3  502    0  0.39875705435E+03  0.18083118215E+03 -0.16923452188E+03  0.46941350761E+03  0.12699999809E+01 0. -1.
       -4    1    3    3    0  502 -0.39875705435E+03 -0.18083118215E+03  0.39719928616E+02  0.43964348109E+03  0.12699999809E+01 0.  1.
</event>
<event>
 5   0  0.2134145E-03  0.9004663E+03  0.7818609E-02  0.9424999E-01
       -1   -1    0    0    0  501  0.00000000000E+00  0.00000000000E+00  0.13516655790E+03  0.13516655799E+03  0.50400001928E-02 0. -1.
        1   -1    0    0  501    0  0.00000000000E+00  0.00000000000E+00 -0.14997043083E+04  0.14997043083E+04  0.50400001928E-02 0.  1.
    10030    2    1    2    0    0  0.00000000000E+00  0.00000000000E+00 -0.13645377504E+04  0.16348708663E+04  0.90046625546E+03 0.  0.
        1    1    3    3  502    0  0.36737600277E+03  0.26011174762E+03 -0.66537121221E+03  0.80333187334E+03  0.50400001928E-02 0. -1.
       -1    1    3    3    0  502 -0.36737600277E+03 -0.26011174762E+03 -0.69916653820E+03  0.83153899297E+03  0.50400001928E-02 0.  1.
</event>
<event>
 5   0  0.3806019E-03  0.8986718E+03  0.7818609E-02  0.9427243E-01
        2   -1    0    0  501    0  0.00000000000E+00  0.00000000000E+00  0.78846430910E+03  0.78846430910E+03  0.25500000920E-02 0. -1.
       -2   -1    0    0    0  501  0.00000000000E+00  0.00000000000E+00 -0.25607086240E+03  0.25607086241E+03  0.25500000920E-02 0.  1.
    10030    2    1    2    0    0  0.00000000000E+00  0.00000000000E+00  0.53239344670E+03  0.10445351715E+04  0.89867176569E+03 0.  0.
        2    1    3    3  502    0 -0.28904782207E+03 -0.21459957485E+03  0.57872870604E+03  0.68156330313E+03  0.25500000920E-02 0. -1.
       -2    1    3    3    0  502  0.28904782207E+03  0.21459957485E+03 -0.46335259344E+02  0.36297186838E+03  0.25500000920E-02 0.  1.
</event>
<event>
 5   0  0.3626546E-03  0.9003175E+03  0.7818609E-02  0.9425185E-01
        2   -1    0    0  501    0  0.00000000000E+00  0.00000000000E+00  0.36705079844E+03  0.36705079845E+03  0.25500000920E-02 0. -1.
       -2   -1    0    0    0  501  0.00000000000E+00  0.00000000000E+00 -0.55208407414E+03  0.55208407414E+03  0.25500000920E-02 0.  1.
    10030    2    1    2    0    0  0.00000000000E+00  0.00000000000E+00 -0.18503327569E+03  0.91913487259E+03  0.90031750005E+03 0.  0.
        3    1    3    3  502    0 -0.32968089369E+02 -0.16542630385E+03  0.33356746150E+03  0.37379141041E+03  0.10100000352E+00 0. -1.
       -3    1    3    3    0  502  0.32968089369E+02  0.16542630385E+03 -0.51860073720E+03  0.54534346218E+03  0.10100000352E+00 0.  1.
</event>
<event>
 5   0  0.2295158E-03  0.8992564E+03  0.7818609E-02  0.9426511E-01
        1   -1    0    0  501    0  0.00000000000E+00  0.00000000000E+00  0.12499097420E+04  0.12499097420E+04  0.50400001928E-02 0.  1.
       -1   -1    0    0    0  501  0.00000000000E+00  0.00000000000E+00 -0.16174409092E+03  0.16174409100E+03  0.50400001928E-02 0. -1.
    10030    2    1    2    0    0  0.00000000000E+00  0.00000000000E+00  0.10881656511E+04  0.14116538330E+04  0.89925639284E+03 0.  0.
        4    1    3    3  502    0  0.42046370908E+03  0.76643531618E+02  0.76329330964E+03  0.87480412152E+03  0.12699999809E+01 0. -1.
       -4    1    3    3    0  502 -0.42046370908E+03 -0.76643531618E+02  0.32487234143E+03  0.53684971148E+03  0.12699999809E+01 0.  1.
</event>
<event>
 5   0  0.2074970E-03  0.9053993E+03  0.7818609E-02  0.9418857E-01
        1   -1    0    0  501    0  0.00000000000E+00  0.00000000000E+00  0.50806858670E+03  0.50806858672E+03  0.50400001928E-02 0.  1.
       -1   -1    0    0    0  501  0.00000000000E+00  0.00000000000E+00 -0.40336480274E+03  0.40336480277E+03  0.50400001928E-02 0. -1.
    10030    2    1    2    0    0  0.00000000000E+00  0.00000000000E+00  0.10470378396E+03  0.91143338950E+03  0.90539932688E+03 0.  0.
        2    1    3    3  502    0 -0.15377189093E+03 -0.20876970630E+03  0.42591315108E+03  0.49863072206E+03  0.25500000920E-02 0.  1.
       -2    1    3    3    0  502  0.15377189093E+03  0.20876970630E+03 -0.32120936712E+03  0.41280266744E+03  0.25500000920E-02 0. -1.
</event>
<event>
 5   0  0.2134145E-03  0.8993543E+03  0.7818609E-02  0.9426389E-01
        1   -1    0    0  501    0  0.00000000000E+00  0.00000000000E+00  0.38981450164E+03  0.38981450167E+03  0.50400001928E-02 0.  1.
       -1   -1    0    0    0  501  0.00000000000E+00  0.00000000000E+00 -0.51873276981E+03  0.51873276984E+03  0.50400001928E-02 0. -1.
    10030    2    1    2    0    0  0.00000000000E+00  0.00000000000E+00 -0.12891826817E+03  0.90854727151E+03  0.89935433768E+03 0.  0.
        1    1    3    3  502    0  0.12758031215E+02  0.44862755464E+03 -0.36243260139E+02  0.45026994578E+03  0.50400001928E-02 0. -1.
       -1    1    3    3    0  502 -0.12758031215E+02 -0.44862755464E+03 -0.92675008032E+02  0.45827732573E+03  0.50400001928E-02 0.  1.
</event>
<event>
 5   0  0.3806019E-03  0.8999458E+03  0.7818609E-02  0.9425649E-01
       -2   -1    0    0    0  501  0.00000000000E+00  0.00000000000E+00  0.29975474285E+03  0.29975474286E+03  0.25500000920E-02 0.  1.
        2   -1    0    0  501    0  0.00000000000E+00  0.00000000000E+00 -0.67547086144E+03  0.67547086145E+03  0.25500000920E-02 0. -1.
    10030    2    1    2    0    0  0.00000000000E+00  0.00000000000E+00 -0.37571611859E+03  0.97522560431E+03  0.89994576366E+03 0.  0.
        2    1    3    3  502    0 -0.38008222298E+03 -0.28169667276E+02 -0.44707360612E+03  0.58747837039E+03  0.25500000920E-02 0. -1.
       -2    1    3    3    0  502  0.38008222298E+03  0.28169667276E+02  0.71357487534E+02  0.38774723392E+03  0.25500000920E-02 0.  1.
</event>
<event>
 5   0  0.2130975E-03  0.9002960E+03  0.7818609E-02  0.9425212E-01
       -1   -1    0    0    0  501  0.00000000000E+00  0.00000000000E+00  0.36545541600E+03  0.36545541603E+03  0.50400001928E-02 0. -1.
        1   -1    0    0  501    0  0.00000000000E+00  0.00000000000E+00 -0.55446767097E+03  0.55446767099E+03  0.50400001928E-02 0.  1.
    10030    2    1    2    0    0  0.00000000000E+00  0.00000000000E+00 -0.18901225497E+03  0.91992308702E+03  0.90029598106E+03 0.  0.
        5    1    3    3  502    0 -0.22862872475E+03  0.38770649370E+03 -0.89531275369E+02  0.45893938413E+03  0.46999998093E+01 0. -1.
       -5    1    3    3    0  502  0.22862872475E+03 -0.38770649370E+03 -0.99480979600E+02  0.46098370290E+03  0.46999998093E+01 0.  1.
</event>
<event>
 5   0  0.2129280E-03  0.8995209E+03  0.7818609E-02  0.9426181E-01
       -1   -1    0    0    0  501  0.00000000000E+00  0.00000000000E+00  0.21596556345E+03  0.21596556351E+03  0.50400001928E-02 0. -1.
        1   -1    0    0  501    0  0.00000000000E+00  0.00000000000E+00 -0.93665139847E+03  0.93665139849E+03  0.50400001928E-02 0.  1.
    10030    2    1    2    0    0  0.00000000000E+00  0.00000000000E+00 -0.72068583502E+03  0.11526169620E+04  0.89952086595E+03 0.  0.
        3    1    3    3  502    0 -0.77175895607E+02 -0.29549372867E+02  0.20615370676E+03  0.22210052974E+03  0.10100000352E+00 0. -1.
       -3    1    3    3    0  502  0.77175895607E+02  0.29549372867E+02 -0.92683954178E+03  0.93051643226E+03  0.10100000352E+00 0.  1.
</event>
<event>
 5   0  0.3626546E-03  0.9036785E+03  0.7818609E-02  0.9420995E-01
       -2   -1    0    0    0  501  0.00000000000E+00  0.00000000000E+00  0.12460733456E+03  0.12460733458E+03  0.25500000920E-02 0.  1.
        2   -1    0    0  501    0  0.00000000000E+00  0.00000000000E+00 -0.16384162911E+04  0.16384162911E+04  0.25500000920E-02 0. -1.
    10030    2    1    2    0    0  0.00000000000E+00  0.00000000000E+00 -0.15138089565E+04  0.17630236257E+04  0.90367845376E+03 0.  0.
        3    1    3    3  502    0 -0.65032963086E+02 -0.81337857226E+02  0.10087439458E+03  0.14498547165E+03  0.10100000352E+00 0.  1.
       -3    1    3    3    0  502  0.65032963086E+02  0.81337857226E+02 -0.16146833511E+04  0.16180381540E+04  0.10100000352E+00 0. -1.
</event>
<event>
 5   0  0.3626546E-03  0.9017106E+03  0.7818609E-02  0.9423446E-01
        2   -1    0    0  501    0  0.00000000000E+00  0.00000000000E+00  0.36228097762E+03  0.36228097762E+03  0.25500000920E-02 0.  1.
       -2   -1    0    0    0  501  0.00000000000E+00  0.00000000000E+00 -0.56108524100E+03  0.56108524101E+03  0.25500000920E-02 0. -1.
    10030    2    1    2    0    0  0.00000000000E+00  0.00000000000E+00 -0.19880426339E+03  0.92336621863E+03  0.90171061798E+03 0.  0.
        3    1    3    3  502    0  0.24945369193E+03 -0.30187695951E+03 -0.32818130715E+03  0.51094013707E+03  0.10100000352E+00 0. -1.
       -3    1    3    3    0  502 -0.24945369193E+03  0.30187695951E+03  0.12937704377E+03  0.41242608157E+03  0.10100000352E+00 0.  1.
</event>
<event>
 5   0  0.2134145E-03  0.9017111E+03  0.7818609E-02  0.9423445E-01
       -1   -1    0    0    0  501  0.00000000000E+00  0.00000000000E+00  0.22598754357E+03  0.22598754363E+03  0.50400001928E-02 0.  1.
        1   -1    0    0  501    0  0.00000000000E+00  0.00000000000E+00 -0.89947761418E+03  0.89947761419E+03  0.50400001928E-02 0. -1.
    10030    2    1    2    0    0  0.00000000000E+00  0.00000000000E+00 -0.67349007061E+03  0.11254651578E+04  0.90171112129E+03 0.  0.
        1    1    3    3  502    0 -0.32643336844E+03 -0.29790745929E+03 -0.22536515286E+03  0.49608169739E+03  0.50400001928E-02 0.  1.
       -1    1    3    3    0  502  0.32643336844E+03  0.29790745929E+03 -0.44812491775E+03  0.62938346043E+03  0.50400001928E-02 0. -1.
</event>
<event>
 5   0  0.3685879E-03  0.8985774E+03  0.7818609E-02  0.9427361E-01
       -2   -1    0    0    0  501  0.00000000000E+00  0.00000000000E+00  0.52036028242E+03  0.52036028242E+03  0.25500000920E-02 0.  1.
        2   -1    0    0  501    0  0.00000000000E+00  0.00000000000E+00 -0.38792420828E+03  0.38792420829E+03  0.25500000920E-02 0. -1.
    10030    2    1    2    0    0  0.00000000000E+00  0.00000000000E+00  0.13243607414E+03  0.90828449071E+03  0.89857743258E+03 0.  0.
        1    1    3    3  502    0  0.11410040829E+03 -0.23533459053E+03  0.43548499715E+03  0.50798470001E+03  0.50400001928E-02 0.  1.
       -1    1    3    3    0  502 -0.11410040829E+03  0.23533459053E+03 -0.30304892301E+03  0.40029979070E+03  0.50400001928E-02 0. -1.
</event>
<event>
 5   0  0.2074970E-03  0.9026372E+03  0.7818609E-02  0.9422291E-01
       -1   -1    0    0    0  501  0.00000000000E+00  0.00000000000E+00  0.20061021143E+03  0.20061021149E+03  0.50400001928E-02 0.  1.
        1   -1    0    0  501    0  0.00000000000E+00  0.00000000000E+00 -0.10153444359E+04  0.10153444359E+04  0.50400001928E-02 0. -1.
    10030    2    1    2    0    0  0.00000000000E+00  0.00000000000E+00 -0.81473422450E+03  0.12159546474E+04  0.90263716301E+03 0.  0.
        2    1    3    3  502    0  0.23846138835E+03 -0.13822979996E+03 -0.88879226550E+03  0.93054983883E+03  0.25500000920E-02 0. -1.
       -2    1    3    3    0  502 -0.23846138835E+03  0.13822979996E+03  0.74058041001E+02  0.28540480860E+03  0.25500000920E-02 0.  1.
</event>
<event>
 5   0  0.2134145E-03  0.8990049E+03  0.7818609E-02  0.9426826E-01
       -1   -1    0    0    0  501  0.00000000000E+00  0.00000000000E+00  0.21212383963E+03  0.21212383969E+03  0.50400001928E-02 0.  1.
        1   -1    0    0  501    0  0.00000000000E+00  0.00000000000E+00 -0.95252110489E+03  0.95252110490E+03  0.50400001928E-02 0. -1.
    10030    2    1    2    0    0  0.00000000000E+00  0.00000000000E+00 -0.74039726525E+03  0.11646449446E+04  0.89900485904E+03 0.  0.
        1    1    3    3  502    0 -0.29731620004E+03  0.20494171087E+03 -0.71697776707E+03  0.80277963736E+03  0.50400001928E-02 0. -1.
       -1    1    3    3    0  502  0.29731620004E+03 -0.20494171087E+03 -0.23419498181E+02  0.36186530723E+03  0.50400001928E-02 0.  1.
</event>
<event>
 5   0  0.1436000E-03  0.8959438E+03  0.7818609E-02  0.9430666E-01
       -4   -1    0    0    0  501  0.00000000000E+00  0.00000000000E+00  0.26058514445E+03  0.26058823919E+03  0.12699999809E+01 0. -1.
        4   -1    0    0  501    0  0.00000000000E+00  0.00000000000E+00 -0.77010028571E+03  0.77010133291E+03  0.12699999809E+01 0.  1.
    10030    2    1    2    0    0  0.00000000000E+00  0.00000000000E+00 -0.50951514127E+03  0.10306895721E+04  0.89594381234E+03 0.  0.
        1    1    3    3  502    0 -0.10307280013E+03  0.37526758326E+03 -0.51000296386E+03  0.64152379873E+03  0.50400001928E-02 0. -1.
       -1    1    3    3    0  502  0.10307280013E+03 -0.37526758326E+03  0.48782259618E+00  0.38916577337E+03  0.50400001928E-02 0.  1.
</event>
<event>
 5   0  0.3685879E-03  0.8997602E+03  0.7818609E-02  0.9425881E-01
        2   -1    0    0  501    0  0.00000000000E+00  0.00000000000E+00  0.76010227488E+03  0.76010227488E+03  0.25500000920E-02 0.  1.
       -2   -1    0    0    0  501  0.00000000000E+00  0.00000000000E+00 -0.26626954914E+03  0.26626954915E+03  0.25500000920E-02 0. -1.
    10030    2    1    2    0    0  0.00000000000E+00  0.00000000000E+00  0.49383272574E+03  0.10263718240E+04  0.89976016813E+03 0.  0.
        1    1    3    3  502    0 -0.31642279827E+03  0.15812362690E+03 -0.70165286602E+02  0.36062395389E+03  0.50400001928E-02 0. -1.
       -1    1    3    3    0  502  0.31642279827E+03 -0.15812362690E+03  0.56399801234E+03  0.66574787014E+03  0.50400001928E-02 0.  1.
</event>
<event>
 5   0  0.2074970E-03  0.9038949E+03  0.7818609E-02  0.9420726E-01
        1   -1    0    0  501    0  0.00000000000E+00  0.00000000000E+00  0.49492760527E+03  0.49492760529E+03  0.50400001928E-02 0. -1.
       -1   -1    0    0    0  501  0.00000000000E+00  0.00000000000E+00 -0.41269971501E+03  0.41269971504E+03  0.50400001928E-02 0.  1.
    10030    2    1    2    0    0  0.00000000000E+00  0.00000000000E+00  0.82227890253E+02  0.90762732034E+03  0.90389486484E+03 0.  0.
        2    1    3    3  502    0 -0.11556812783E+02  0.98071176563E+02 -0.40173436114E+03  0.41369313811E+03  0.25500000920E-02 0.  1.
       -2    1    3    3    0  502  0.11556812783E+02 -0.98071176563E+02  0.48396225139E+03  0.49393418223E+03  0.25500000920E-02 0. -1.
</event>
<event>
 5   0  0.2074970E-03  0.8929403E+03  0.7818609E-02  0.9434450E-01
       -1   -1    0    0    0  501  0.00000000000E+00  0.00000000000E+00  0.30834982077E+03  0.30834982081E+03  0.50400001928E-02 0.  1.
        1   -1    0    0  501    0  0.00000000000E+00  0.00000000000E+00 -0.64645927247E+03  0.64645927249E+03  0.50400001928E-02 0. -1.
    10030    2    1    2    0    0  0.00000000000E+00  0.00000000000E+00 -0.33810945171E+03  0.95480909330E+03  0.89294031341E+03 0.  0.
        2    1    3    3  502    0 -0.38280019960E+03  0.70039893413E+02 -0.40306491503E+03  0.56027038581E+03  0.25500000920E-02 0. -1.
       -2    1    3    3    0  502  0.38280019960E+03 -0.70039893413E+02  0.64955463319E+02  0.39453870749E+03  0.25500000920E-02 0.  1.
</event>
<event>
 5   0  0.3806019E-03  0.8979522E+03  0.7818609E-02  0.9428145E-01
       -2   -1    0    0    0  501  0.00000000000E+00  0.00000000000E+00  0.53280741540E+03  0.53280741541E+03  0.25500000920E-02 0.  1.
        2   -1    0    0  501    0  0.00000000000E+00  0.00000000000E+00 -0.37833471621E+03  0.37833471622E+03  0.25500000920E-02 0. -1.
    10030    2    1    2    0    0  0.00000000000E+00  0.00000000000E+00  0.15447269919E+03  0.91114213163E+03  0.89795220877E+03 0.  0.
        2    1    3    3  502    0  0.39276719842E+03  0.18348434767E+03  0.19577253137E+03  0.47566738593E+03  0.25500000920E-02 0.  1.
       -2    1    3    3    0  502 -0.39276719842E+03 -0.18348434767E+03 -0.41299832172E+02  0.43547474570E+03  0.25500000920E-02 0. -1.
</event>
<event>
 5   0  0.1436000E-03  0.9002891E+03  0.7818609E-02  0.9425220E-01
        3   -1    0    0  501    0  0.00000000000E+00  0.00000000000E+00  0.72045797045E+03  0.72045797752E+03  0.10100000352E+00 0. -1.
       -3   -1    0    0    0  501  0.00000000000E+00  0.00000000000E+00 -0.28125177551E+03  0.28125179365E+03  0.10100000352E+00 0.  1.
    10030    2    1    2    0    0  0.00000000000E+00  0.00000000000E+00  0.43920619493E+03  0.10017097712E+04  0.90028905580E+03 0.  0.
        1    1    3    3  502    0 -0.28535990462E+03 -0.44821855690E+02 -0.16452966274E+03  0.33242936673E+03  0.50400001928E-02 0.  1.
       -1    1    3    3    0  502  0.28535990462E+03  0.44821855690E+02  0.60373585767E+03  0.66928040445E+03  0.50400001928E-02 0. -1.
</event>
<event>
 5   0  0.2129280E-03  0.9025570E+03  0.7818609E-02  0.9422391E-01
       -1   -1    0    0    0  501  0.00000000000E+00  0.00000000000E+00  0.35343665812E+03  0.35343665816E+03  0.50400001928E-02 0. -1.
        1   -1    0    0  501    0  0.00000000000E+00  0.00000000000E+00 -0.57620585242E+03  0.57620585244E+03  0.50400001928E-02 0.  1.
    10030    2    1    2    0    0  0.00000000000E+00  0.00000000000E+00 -0.22276919430E+03  0.92964251060E+03  0.90255696972E+03 0.  0.
        3    1    3    3  502    0  0.32567653444E+03  0.12537129168E+03  0.18332979512E+03  0.39419917534E+03  0.10100000352E+00 0. -1.
       -3    1    3    3    0  502 -0.32567653444E+03 -0.12537129168E+03 -0.40609898942E+03  0.53544333526E+03  0.10100000352E+00 0.  1.
</event>
<event>
 5   0  0.3815269E-03  0.8969435E+03  0.7818609E-02  0.9429410E-01
       -2   -1    0    0    0  501  0.00000000000E+00  0.00000000000E+00  0.14511411479E+03  0.14511411481E+03  0.25500000920E-02 0. -1.
        2   -1    0    0  501    0  0.00000000000E+00  0.00000000000E+00 -0.13859914910E+04  0.13859914910E+04  0.25500000920E-02 0.  1.
    10030    2    1    2    0    0  0.00000000000E+00  0.00000000000E+00 -0.12408773762E+04  0.15311056059E+04  0.89694353969E+03 0.  0.
        5    1    3    3  502    0 -0.27198622202E+03  0.61845861439E+02 -0.12198536880E+04  0.12513458857E+04  0.46999998093E+01 0.  1.
       -5    1    3    3    0  502  0.27198622202E+03 -0.61845861439E+02 -0.21023688239E+02  0.27975972014E+03  0.46999998093E+01 0. -1.
</event>
<event>
 5   0  0.2129280E-03  0.9012500E+03  0.7818609E-02  0.9424020E-01
       -1   -1    0    0    0  501  0.00000000000E+00  0.00000000000E+00  0.43468130394E+03  0.43468130397E+03  0.50400001928E-02 0. -1.
        1   -1    0    0  501    0  0.00000000000E+00  0.00000000000E+00 -0.46715351432E+03  0.46715351435E+03  0.50400001928E-02 0.  1.
    10030    2    1    2    0    0  0.00000000000E+00  0.00000000000E+00 -0.32472210382E+02  0.90183481832E+03  0.90125001808E+03 0.  0.
        3    1    3    3  502    0 -0.37536943258E+03 -0.21166552157E+03  0.11560060763E+03  0.44617038744E+03  0.10100000352E+00 0. -1.
       -3    1    3    3    0  502  0.37536943258E+03  0.21166552157E+03 -0.14807281802E+03  0.45566443089E+03  0.10100000352E+00 0.  1.
</event>
<event>
 5   0  0.3806019E-03  0.9004511E+03  0.7818609E-02  0.9425018E-01
        2   -1    0    0  501    0  0.00000000000E+00  0.00000000000E+00  0.17896128291E+04  0.17896128291E+04  0.25500000920E-02 0. -1.
       -2   -1    0    0    0  501  0.00000000000E+00  0.00000000000E+00 -0.11326642202E+03  0.11326642205E+03  0.25500000920E-02 0.  1.
    10030    2    1    2    0    0  0.00000000000E+00  0.00000000000E+00  0.16763464071E+04  0.19028792512E+04  0.90045109138E+03 0.  0.
        2    1    3    3  502    0  0.35376482702E+03 -0.23770527270E+03  0.53157191227E+03  0.68133842356E+03  0.25500000920E-02 0.  1.
       -2    1    3    3    0  502 -0.35376482702E+03  0.23770527270E+03  0.11447744948E+04  0.12215408276E+04  0.25500000920E-02 0. -1.
</event>
<event>
 5   0  0.3663255E-03  0.9081389E+03  0.7818609E-02  0.9415464E-01
       -2   -1    0    0    0  501  0.00000000000E+00  0.00000000000E+00  0.97679276871E+03  0.97679276871E+03  0.25500000920E-02 0. -1.
        2   -1    0    0  501    0  0.00000000000E+00  0.00000000000E+00 -0.21107757390E+03  0.21107757392E+03  0.25500000920E-02 0.  1.
    10030    2    1    2    0    0  0.00000000000E+00  0.00000000000E+00  0.76571519481E+03  0.11878703426E+04  0.90813886127E+03 0.  0.
        4    1    3    3  502    0 -0.26642133046E+03  0.36555665446E+03  0.43461056624E+03  0.62729574375E+03  0.12699999809E+01 0.  1.
       -4    1    3    3    0  502  0.26642133046E+03 -0.36555665446E+03  0.33110462857E+03  0.56057459888E+03  0.12699999809E+01 0. -1.
</event>
<event>
 5   0  0.2134145E-03  0.8988192E+03  0.7818609E-02  0.9427059E-01
       -1   -1    0    0    0  501  0.00000000000E+00  0.00000000000E+00  0.67254422900E+03  0.67254422901E+03  0.50400001928E-02 0.  1.
        1   -1    0    0  501    0  0.00000000000E+00  0.00000000000E+00 -0.30030591429E+03  0.30030591434E+03  0.50400001928E-02 0. -1.
    10030    2    1    2    0    0  0.00000000000E+00  0.00000000000E+00  0.37223831470E+03  0.97285014335E+03  0.89881924684E+03 0.  0.
        1    1    3    3  502    0  0.39171899564E+03 -0.25473879331E+02 -0.50709341395E+02  0.39580819522E+03  0.50400001928E-02 0. -1.
       -1    1    3    3    0  502 -0.39171899564E+03  0.25473879331E+02  0.42294765610E+03  0.57704194813E+03  0.50400001928E-02 0.  1.
</event>
<event>
 5   0  0.3626546E-03  0.9006012E+03  0.7818609E-02  0.9424830E-01
       -2   -1    0    0    0  501  0.00000000000E+00  0.00000000000E+00  0.24979476084E+03  0.24979476085E+03  0.25500000920E-02 0.  1.
        2   -1    0    0  501    0  0.00000000000E+00  0.00000000000E+00 -0.81174900608E+03  0.81174900608E+03  0.25500000920E-02 0. -1.
    10030    2    1    2    0    0  0.00000000000E+00  0.00000000000E+00 -0.56195424524E+03  0.10615437669E+04  0.90060124105E+03 0.  0.
        3    1    3    3  502    0 -0.34151970625E+02 -0.43844568502E+03 -0.16688193020E+03  0.47037279326E+03  0.10100000352E+00 0.  1.
       -3    1    3    3    0  502  0.34151970625E+02  0.43844568502E+03 -0.39507231504E+03  0.59117097368E+03  0.10100000352E+00 0. -1.
</event>
<event>
 5   0  0.3806019E-03  0.9033741E+03  0.7818609E-02  0.9421373E-01
        2   -1    0    0  501    0  0.00000000000E+00  0.00000000000E+00  0.37162665066E+03  0.37162665067E+03  0.25500000920E-02 0. -1.
       -2   -1    0    0    0  501  0.00000000000E+00  0.00000000000E+00 -0.54899505542E+03  0.54899505543E+03  0.25500000920E-02 0.  1.
    10030    2    1    2    0    0  0.00000000000E+00  0.00000000000E+00 -0.17736840476E+03  0.92062170610E+03  0.90337410564E+03 0.  0.
        2    1    3    3  502    0  0.35821900352E+03  0.26689203812E+03 -0.15681096291E+03  0.47343626032E+03  0.25500000920E-02 0. -1.
       -2    1    3    3    0  502 -0.35821900352E+03 -0.26689203812E+03 -0.20557441851E+02  0.44718544578E+03  0.25500000920E-02 0.  1.
</event>
<event>
 5   0  0.2129280E-03  0.8983247E+03  0.7818609E-02  0.9427678E-01
       -1   -1    0    0    0  501  0.00000000000E+00  0.00000000000E+00  0.20860437400E+03  0.20860437406E+03  0.50400001928E-02 0. -1.
        1   -1    0    0  501    0  0.00000000000E+00  0.00000000000E+00 -0.96712659231E+03  0.96712659233E+03  0.50400001928E-02 0.  1.
    10030    2    1    2    0    0  0.00000000000E+00  0.00000000000E+00 -0.75852221831E+03  0.11757309664E+04  0.89832474620E+03 0.  0.
        3    1    3    3  502    0 -0.34854286253E+03 -0.17887951054E+03 -0.91720663949E+02  0.40235891529E+03  0.10100000352E+00 0. -1.
       -3    1    3    3    0  502  0.34854286253E+03  0.17887951054E+03 -0.66680155436E+03  0.77337205110E+03  0.10100000352E+00 0.  1.
</event>
<event>
 5   0  0.2129280E-03  0.8916712E+03  0.7818609E-02  0.9436053E-01
       -1   -1    0    0    0  501  0.00000000000E+00  0.00000000000E+00  0.26667964248E+03  0.26667964253E+03  0.50400001928E-02 0.  1.
        1   -1    0    0  501    0  0.00000000000E+00  0.00000000000E+00 -0.74534888153E+03  0.74534888155E+03  0.50400001928E-02 0. -1.
    10030    2    1    2    0    0  0.00000000000E+00  0.00000000000E+00 -0.47866923905E+03  0.10120285241E+04  0.89167117994E+03 0.  0.
        3    1    3    3  502    0 -0.24042061936E+03  0.34321659684E+03 -0.41209645969E+03  0.58772715510E+03  0.10100000352E+00 0. -1.
       -3    1    3    3    0  502  0.24042061936E+03 -0.34321659684E+03 -0.66572779368E+02  0.42430136897E+03  0.10100000352E+00 0.  1.
</event>
<event>
 5   0  0.2295158E-03  0.9093014E+03  0.7818609E-02  0.9414028E-01
        1   -1    0    0  501    0  0.00000000000E+00  0.00000000000E+00  0.42579563194E+03  0.42579563197E+03  0.50400001928E-02 0.  1.
       -1   -1    0    0    0  501  0.00000000000E+00  0.00000000000E+00 -0.48546124843E+03  0.48546124845E+03  0.50400001928E-02 0. -1.
    10030    2    1    2    0    0  0.00000000000E+00  0.00000000000E+00 -0.59665616490E+02  0.91125688042E+03  0.90930144414E+03 0.  0.
        4    1    3    3  502    0 -0.15256020462E+03 -0.18492228346E+03 -0.41697276076E+03  0.48097688413E+03  0.12699999809E+01 0. -1.
       -4    1    3    3    0  502  0.15256020462E+03  0.18492228346E+03  0.35730714427E+03  0.43027999628E+03  0.12699999809E+01 0.  1.
</event>
<event>
 5   0  0.3626546E-03  0.9008126E+03  0.7818609E-02  0.9424566E-01
        2   -1    0    0  501    0  0.00000000000E+00  0.00000000000E+00  0.25374380537E+04  0.25374380537E+04  0.25500000920E-02 0.  1.
       -2   -1    0    0    0  501  0.00000000000E+00  0.00000000000E+00 -0.79949076711E+02  0.79949076752E+02  0.25500000920E-02 0. -1.
    10030    2    1    2    0    0  0.00000000000E+00  0.00000000000E+00  0.24574889770E+04  0.26173871304E+04  0.90081258796E+03 0.  0.
        3    1    3    3  502    0 -0.65902333857E+02  0.21784308343E+03  0.23580682139E+04  0.23690260527E+04  0.10100000352E+00 0.  1.
       -3    1    3    3    0  502  0.65902333857E+02 -0.21784308343E+03  0.99420763028E+02  0.24836107773E+03  0.10100000352E+00 0. -1.
</event>
<event>
 5   0  0.3806019E-03  0.9020578E+03  0.7818609E-02  0.9423013E-01
       -2   -1    0    0    0  501  0.00000000000E+00  0.00000000000E+00  0.26247944645E+03  0.26247944646E+03  0.25500000920E-02 0. -1.
        2   -1    0    0  501    0  0.00000000000E+00  0.00000000000E+00 -0.77502090710E+03  0.77502090711E+03  0.25500000920E-02 0.  1.
    10030    2    1    2    0    0  0.00000000000E+00  0.00000000000E+00 -0.51254146065E+03  0.10375003536E+04  0.90205777795E+03 0.  0.
        2    1    3    3  502    0  0.23809399576E+02  0.32235626547E+03  0.10551743478E+03  0.34002114411E+03  0.25500000920E-02 0. -1.
       -2    1    3    3    0  502 -0.23809399576E+02 -0.32235626547E+03 -0.61805889543E+03  0.69747920945E+03  0.25500000920E-02 0.  1.
</event>
<event>
 5   0  0.3663255E-03  0.8975543E+03  0.7818609E-02  0.9428644E-01
       -2   -1    0    0    0  501  0.00000000000E+00  0.00000000000E+00  0.76832688274E+02  0.76832688316E+02  0.25500000920E-02 0. -1.
        2   -1    0    0  501    0  0.00000000000E+00  0.00000000000E+00 -0.26212924252E+04  0.26212924252E+04  0.25500000920E-02 0.  1.
    10030    2    1    2    0    0  0.00000000000E+00  0.00000000000E+00 -0.25444597369E+04  0.26981251135E+04  0.89755433003E+03 0.  0.
        4    1    3    3  502    0 -0.10052474838E+03  0.43189111261E+03 -0.14797188736E+04  0.15447345131E+04  0.12699999809E+01 0.  1.
       -4    1    3    3    0  502  0.10052474838E+03 -0.43189111261E+03 -0.10647408633E+04  0.11533906004E+04  0.12699999809E+01 0. -1.
</event>
<event>
 5   0  0.2074970E-03  0.8981888E+03  0.7818609E-02  0.9427848E-01
       -1   -1    0    0    0  501  0.00000000000E+00  0.00000000000E+00  0.20807672398E+03  0.20807672404E+03  0.50400001928E-02 0.  1.
        1   -1    0    0  501    0  0.00000000000E+00  0.00000000000E+00 -0.96928564571E+03  0.96928564572E+03  0.50400001928E-02 0. -1.
    10030    2    1    2    0    0  0.00000000000E+00  0.00000000000E+00 -0.76120892173E+03  0.11773623698E+04  0.89818880376E+03 0.  0.
        2    1    3    3  502    0 -0.77673670947E+02 -0.39354461028E+03 -0.64529638006E+03  0.75981443627E+03  0.25500000920E-02 0.  1.
       -2    1    3    3    0  502  0.77673670947E+02  0.39354461028E+03 -0.11591254168E+03  0.41754793349E+03  0.25500000920E-02 0. -1.
</event>
<event>
 5   0  0.1436000E-03  0.9019140E+03  0.7818609E-02  0.9423192E-01
       -3   -1    0    0    0  501  0.00000000000E+00  0.00000000000E+00  0.12835209707E+04  0.12835209747E+04  0.10100000352E+00 0. -1.
        3   -1    0    0  501    0  0.00000000000E+00  0.00000000000E+00 -0.15844089435E+03  0.15844092655E+03  0.10100000352E+00 0.  1.
    10030    2    1    2    0    0  0.00000000000E+00  0.00000000000E+00  0.11250800763E+04  0.14419619012E+04  0.90191404600E+03 0.  0.
        2    1    3    3  502    0  0.83354947413E+02  0.22769652993E+03  0.11704306582E+04  0.11952830973E+04  0.25500000920E-02 0. -1.
       -2    1    3    3    0  502 -0.83354947413E+02 -0.22769652993E+03 -0.45350581899E+02  0.24667880389E+03  0.25500000920E-02 0.  1.
</event>
<event>
 5   0  0.3626546E-03  0.8999616E+03  0.7818609E-02  0.9425629E-01
       -2   -1    0    0    0  501  0.00000000000E+00  0.00000000000E+00  0.19349777905E+03  0.19349777907E+03  0.25500000920E-02 0.  1.
        2   -1    0    0  501    0  0.00000000000E+00  0.00000000000E+00 -0.10464342784E+04  0.10464342784E+04  0.25500000920E-02 0. -1.
    10030    2    1    2    0    0  0.00000000000E+00  0.00000000000E+00 -0.85293649936E+03  0.12399320575E+04  0.89996157431E+03 0.  0.
        3    1    3    3  502    0  0.37265787011E+03 -0.17984064037E+03 -0.18284924937E+03  0.45238302607E+03  0.10100000352E+00 0.  1.
       -3    1    3    3    0  502 -0.37265787011E+03  0.17984064037E+03 -0.67008724999E+03  0.78754903142E+03  0.10100000352E+00 0. -1.
</event>
<event>
 5   0  0.3806019E-03  0.8995685E+03  0.7818609E-02  0.9426121E-01
       -2   -1    0    0    0  501  0.00000000000E+00  0.00000000000E+00  0.36668663869E+03  0.36668663870E+03  0.25500000920E-02 0. -1.
        2   -1    0    0  501    0  0.00000000000E+00  0.00000000000E+00 -0.55171327179E+03  0.55171327180E+03  0.25500000920E-02 0.  1.
    10030    2    1    2    0    0  0.00000000000E+00  0.00000000000E+00 -0.18502663311E+03  0.91839991049E+03  0.89956853026E+03 0.  0.
        2    1    3    3  502    0 -0.22536766157E+02  0.76098491582E+02 -0.54450804349E+03  0.55026166110E+03  0.25500000920E-02 0.  1.
       -2    1    3    3    0  502  0.22536766157E+02 -0.76098491582E+02  0.35948141038E+03  0.36813824939E+03  0.25500000920E-02 0. -1.
</event>
<event>
 5   0  0.2134145E-03  0.8983349E+03  0.7818609E-02  0.9427665E-01
        1   -1    0    0  501    0  0.00000000000E+00  0.00000000000E+00  0.53204586480E+03  0.53204586482E+03  0.50400001928E-02 0. -1.
       -1   -1    0    0    0  501  0.00000000000E+00  0.00000000000E+00 -0.37919921854E+03  0.37919921858E+03  0.50400001928E-02 0.  1.
    10030    2    1    2    0    0  0.00000000000E+00  0.00000000000E+00  0.15284664625E+03  0.91124508340E+03  0.89833485113E+03 0.  0.
        1    1    3    3  502    0 -0.20241519883E+03 -0.13544890856E+03  0.45925013504E+03  0.51983555680E+03  0.50400001928E-02 0. -1.
       -1    1    3    3    0  502  0.20241519883E+03  0.13544890856E+03 -0.30640348879E+03  0.39140952660E+03  0.50400001928E-02 0.  1.
</event>
<event>
 5   0  0.2129280E-03  0.9170069E+03  0.7818609E-02  0.9404568E-01
        1   -1    0    0  501    0  0.00000000000E+00  0.00000000000E+00  0.55757361351E+03  0.55757361354E+03  0.50400001928E-02 0. -1.
       -1   -1    0    0    0  501  0.00000000000E+00  0.00000000000E+00 -0.37703612040E+03  0.37703612043E+03  0.50400001928E-02 0.  1.
    10030    2    1    2    0    0  0.00000000000E+00  0.00000000000E+00  0.18053749311E+03  0.93460973397E+03  0.91700685298E+03 0.  0.
        3    1    3    3  502    0  0.25527030100E+03  0.25745583939E+02 -0.29702523139E+03  0.39249173233E+03  0.10100000352E+00 0.  1.
       -3    1    3    3    0  502 -0.25527030100E+03 -0.25745583939E+02  0.47756272451E+03  0.54211800164E+03  0.10100000352E+00 0. -1.
</event>
<event>
 5   0  0.2295158E-03  0.8985667E+03  0.7818609E-02  0.9427375E-01
        1   -1    0    0  501    0  0.00000000000E+00  0.00000000000E+00  0.18327238984E+04  0.18327238984E+04  0.50400001928E-02 0. -1.
       -1   -1    0    0    0  501  0.00000000000E+00  0.00000000000E+00 -0.11013963792E+03  0.11013963803E+03  0.50400001928E-02 0.  1.
    10030    2    1    2    0    0  0.00000000000E+00  0.00000000000E+00  0.17225842605E+04  0.19428635365E+04  0.89856674030E+03 0.  0.
        4    1    3    3  502    0  0.43453670341E+03  0.22866877382E+02  0.11031172428E+04  0.11858390721E+04  0.12699999809E+01 0.  1.
       -4    1    3    3    0  502 -0.43453670341E+03 -0.22866877382E+02  0.61946701771E+03  0.75702446435E+03  0.12699999809E+01 0. -1.
</event>
<event>
 5   0  0.1436000E-03  0.8995433E+03  0.7818609E-02  0.9426152E-01
        3   -1    0    0  501    0  0.00000000000E+00  0.00000000000E+00  0.28118773243E+03  0.28118775057E+03  0.10100000352E+00 0.  1.
       -3   -1    0    0    0  501  0.00000000000E+00  0.00000000000E+00 -0.71942874391E+03  0.71942875100E+03  0.10100000352E+00 0. -1.
    10030    2    1    2    0    0  0.00000000000E+00  0.00000000000E+00 -0.43824101147E+03  0.10006165016E+04  0.89954332807E+03 0.  0.
        1    1    3    3  502    0  0.82339439135E+02 -0.10922420184E+03 -0.69573141846E+03  0.70905000963E+03  0.50400001928E-02 0. -1.
       -1    1    3    3    0  502 -0.82339439135E+02  0.10922420184E+03  0.25749040699E+03  0.29156649194E+03  0.50400001928E-02 0.  1.
</event>
<event>
 5   0  0.2134145E-03  0.9071647E+03  0.7818609E-02  0.9416669E-01
        1   -1    0    0  501    0  0.00000000000E+00  0.00000000000E+00  0.24517524072E+03  0.24517524077E+03  0.50400001928E-02 0.  1.
       -1   -1    0    0    0  501  0.00000000000E+00  0.00000000000E+00 -0.83914242096E+03  0.83914242097E+03  0.50400001928E-02 0. -1.
    10030    2    1    2    0    0  0.00000000000E+00  0.00000000000E+00 -0.59396718024E+03  0.10843176617E+04  0.90716469307E+03 0.  0.
        1    1    3    3  502    0 -0.31431792622E+02 -0.54769703494E+02 -0.83386253894E+03  0.83625020890E+03  0.50400001928E-02 0. -1.
       -1    1    3    3    0  502  0.31431792622E+02  0.54769703494E+02  0.23989535870E+03  0.24806745284E+03  0.50400001928E-02 0.  1.
</event>
<event>
 5   0  0.3626546E-03  0.9438849E+03  0.7818609E-02  0.9372327E-01
        2   -1    0    0  501    0  0.00000000000E+00  0.00000000000E+00  0.12296352240E+04  0.12296352240E+04  0.25500000920E-02 0.  1.
       -2   -1    0    0    0  501  0.00000000000E+00  0.00000000000E+00 -0.18113474214E+03  0.18113474216E+03  0.25500000920E-02 0. -1.
    10030    2    1    2    0    0  0.00000000000E+00  0.00000000000E+00  0.10485004818E+04  0.14107699661E+04  0.94388486424E+03 0.  0.
        3    1    3    3  502    0 -0.45672841587E+03 -0.11805747043E+03  0.50358107404E+03  0.69002342027E+03  0.10100000352E+00 0. -1.
       -3    1    3    3    0  502  0.45672841587E+03  0.11805747043E+03  0.54491940777E+03  0.72074654585E+03  0.10100000352E+00 0.  1.
</event>
<event>
 5   0  0.2074970E-03  0.9012115E+03  0.7818609E-02  0.9424068E-01
        1   -1    0    0  501    0  0.00000000000E+00  0.00000000000E+00  0.92712452666E+03  0.92712452667E+03  0.50400001928E-02 0.  1.
       -1   -1    0    0    0  501  0.00000000000E+00  0.00000000000E+00 -0.21900570485E+03  0.21900570491E+03  0.50400001928E-02 0. -1.
    10030    2    1    2    0    0  0.00000000000E+00  0.00000000000E+00  0.70811882181E+03  0.11461302316E+04  0.90121154117E+03 0.  0.
        2    1    3    3  502    0 -0.65693618644E+02 -0.16931690939E+03  0.87851711887E+03  0.89709319220E+03  0.25500000920E-02 0.  1.
       -2    1    3    3    0  502  0.65693618644E+02  0.16931690939E+03 -0.17039829706E+03  0.24903703938E+03  0.25500000920E-02 0. -1.
</event>
<event>
 5   0  0.3685879E-03  0.8932098E+03  0.7818609E-02  0.9434110E-01
       -2   -1    0    0    0  501  0.00000000000E+00  0.00000000000E+00  0.32203833624E+03  0.32203833625E+03  0.25500000920E-02 0. -1.
        2   -1    0    0  501    0  0.00000000000E+00  0.00000000000E+00 -0.61935462016E+03  0.61935462017E+03  0.25500000920E-02 0.  1.
    10030    2    1    2    0    0  0.00000000000E+00  0.00000000000E+00 -0.29731628392E+03  0.94139295642E+03  0.89320978819E+03 0.  0.
        1    1    3    3  502    0  0.14798399139E+03  0.35046855516E+03 -0.39521897626E+03  0.54856677723E+03  0.50400001928E-02 0.  1.
       -1    1    3    3    0  502 -0.14798399139E+03 -0.35046855516E+03  0.97902692338E+02  0.39282617919E+03  0.50400001928E-02 0. -1.
</event>
<event>
 5   0  0.2074970E-03  0.9028483E+03  0.7818609E-02  0.9422028E-01
        1   -1    0    0  501    0  0.00000000000E+00  0.00000000000E+00  0.78707049774E+03  0.78707049775E+03  0.50400001928E-02 0.  1.
       -1   -1    0    0    0  501  0.00000000000E+00  0.00000000000E+00 -0.25891426123E+03  0.25891426128E+03  0.50400001928E-02 0. -1.
    10030    2    1    2    0    0  0.00000000000E+00  0.00000000000E+00  0.52815623651E+03  0.10459847590E+04  0.90284832944E+03 0.  0.
        2    1    3    3  502    0 -0.32194387582E+03  0.27048021032E+03  0.45436214695E+03  0.61907379523E+03  0.25500000920E-02 0.  1.
       -2    1    3    3    0  502  0.32194387582E+03 -0.27048021032E+03  0.73794089552E+02  0.42691096380E+03  0.25500000920E-02 0. -1.
</event>
<event>
 5   0  0.2129280E-03  0.8988142E+03  0.7818609E-02  0.9427065E-01
        1   -1    0    0  501    0  0.00000000000E+00  0.00000000000E+00  0.17313018196E+04  0.17313018196E+04  0.50400001928E-02 0. -1.
       -1   -1    0    0    0  501  0.00000000000E+00  0.00000000000E+00 -0.11665600716E+03  0.11665600727E+03  0.50400001928E-02 0.  1.
    10030    2    1    2    0    0  0.00000000000E+00  0.00000000000E+00  0.16146458124E+04  0.18479578269E+04  0.89881423568E+03 0.  0.
        3    1    3    3  502    0 -0.44503928246E+03  0.14116125797E+02  0.68213458061E+03  0.81459611110E+03  0.10100000352E+00 0.  1.
       -3    1    3    3    0  502  0.44503928246E+03 -0.14116125797E+02  0.93251123182E+03  0.10333617158E+04  0.10100000352E+00 0. -1.
</event>
<event>
 5   0  0.3685879E-03  0.8996879E+03  0.7818609E-02  0.9425972E-01
        2   -1    0    0  501    0  0.00000000000E+00  0.00000000000E+00  0.10551972858E+04  0.10551972858E+04  0.25500000920E-02 0.  1.
       -2   -1    0    0    0  501  0.00000000000E+00  0.00000000000E+00 -0.19177417108E+03  0.19177417109E+03  0.25500000920E-02 0. -1.
    10030    2    1    2    0    0  0.00000000000E+00  0.00000000000E+00  0.86342311475E+03  0.12469714569E+04  0.89968791217E+03 0.  0.
        1    1    3    3  502    0 -0.80876614376E+02  0.29014738269E+03 -0.31373780728E+02  0.30283798404E+03  0.50400001928E-02 0. -1.
       -1    1    3    3    0  502  0.80876614376E+02 -0.29014738269E+03  0.89479689548E+03  0.94413347288E+03  0.50400001928E-02 0.  1.
</event>
<event>
 5   0  0.2295158E-03  0.9024699E+03  0.7818609E-02  0.9422499E-01
        1   -1    0    0  501    0  0.00000000000E+00  0.00000000000E+00  0.80502005267E+03  0.80502005269E+03  0.50400001928E-02 0. -1.
       -1   -1    0    0    0  501  0.00000000000E+00  0.00000000000E+00 -0.25292906668E+03  0.25292906673E+03  0.50400001928E-02 0.  1.
    10030    2    1    2    0    0  0.00000000000E+00  0.00000000000E+00  0.55209098600E+03  0.10579491194E+04  0.90246987897E+03 0.  0.
        4    1    3    3  502    0 -0.16205888741E+03 -0.28739567858E+03 -0.84804129648E+02  0.34066510294E+03  0.12699999809E+01 0.  1.
       -4    1    3    3    0  502  0.16205888741E+03  0.28739567858E+03  0.63689511564E+03  0.71728401647E+03  0.12699999809E+01 0. -1.
</event>
<event>
 5   0  0.3806019E-03  0.9022258E+03  0.7818609E-02  0.9422803E-01
        2   -1    0    0  501    0  0.00000000000E+00  0.00000000000E+00  0.40407617463E+03  0.40407617464E+03  0.25500000920E-02 0. -1.
       -2   -1    0    0    0  501  0.00000000000E+00  0.00000000000E+00 -0.50362494066E+03  0.50362494067E+03  0.25500000920E-02 0.  1.
    10030    2    1    2    0    0  0.00000000000E+00  0.00000000000E+00 -0.99548766027E+02  0.90770111531E+03  0.90222577990E+03 0.  0.
        2    1    3    3  502    0 -0.27277453888E+03  0.75489723101E+02  0.30363822199E+03  0.41509133600E+03  0.25500000920E-02 0. -1.
       -2    1    3    3    0  502  0.27277453888E+03 -0.75489723101E+02 -0.40318698802E+03  0.49260977931E+03  0.25500000920E-02 0.  1.
</event>
<event>
 5   0  0.2130975E-03  0.9009204E+03  0.7818609E-02  0.9424432E-01
        1   -1    0    0  501    0  0.00000000000E+00  0.00000000000E+00  0.49939847861E+03  0.49939847863E+03  0.50400001928E-02 0. -1.
       -1   -1    0    0    0  501  0.00000000000E+00  0.00000000000E+00 -0.40631760076E+03  0.40631760079E+03  0.50400001928E-02 0.  1.
    10030    2    1    2    0    0  0.00000000000E+00  0.00000000000E+00  0.93080877849E+02  0.90571607942E+03  0.90092039976E+03 0.  0.
        5    1    3    3  502    0  0.36346972329E+03 -0.27080591487E+02  0.31261644186E+03  0.48020279873E+03  0.46999998093E+01 0. -1.
       -5    1    3    3    0  502 -0.36346972329E+03  0.27080591487E+02 -0.21953556402E+03  0.42551328070E+03  0.46999998093E+01 0.  1.
</event>
<event>
 5   0  0.3626546E-03  0.8996468E+03  0.7818609E-02  0.9426023E-01
       -2   -1    0    0    0  501  0.00000000000E+00  0.00000000000E+00  0.12065160947E+03  0.12065160950E+03  0.25500000920E-02 0.  1.
        2   -1    0    0  501    0  0.00000000000E+00  0.00000000000E+00 -0.16770690318E+04  0.16770690318E+04  0.25500000920E-02 0. -1.
    10030    2    1    2    0    0  0.00000000000E+00  0.00000000000E+00 -0.15564174224E+04  0.17977206413E+04  0.89964677048E+03 0.  0.
        3    1    3    3  502    0 -0.11914128007E+03 -0.76475636450E+02 -0.16313893918E+04  0.16375208473E+04  0.10100000352E+00 0. -1.
       -3    1    3    3    0  502  0.11914128007E+03  0.76475636450E+02  0.74971969448E+02  0.16019979398E+03  0.10100000352E+00 0.  1.
</event>
<event>
 5   0  0.2074970E-03  0.9060515E+03  0.7818609E-02  0.9418048E-01
        1   -1    0    0  501    0  0.00000000000E+00  0.00000000000E+00  0.52521140372E+03  0.52521140374E+03  0.50400001928E-02 0.  1.
       -1   -1    0    0    0  501  0.00000000000E+00  0.00000000000E+00 -0.39076138441E+03  0.39076138445E+03  0.50400001928E-02 0. -1.
    10030    2    1    2    0    0  0.00000000000E+00  0.00000000000E+00  0.13445001931E+03  0.91597278819E+03  0.90605151124E+03 0.  0.
        2    1    3    3  502    0  0.12585882091E+03  0.19946352518E+03  0.45824996115E+03  0.51538254489E+03  0.25500000920E-02 0.  1.
       -2    1    3    3    0  502 -0.12585882091E+03 -0.19946352518E+03 -0.32379994185E+03  0.40059024330E+03  0.25500000920E-02 0. -1.
</event>
<event>
 5   0  0.3806019E-03  0.8992304E+03  0.7818609E-02  0.9426544E-01
       -2   -1    0    0    0  501  0.00000000000E+00  0.00000000000E+00  0.18519908234E+03  0.18519908236E+03  0.25500000920E-02 0. -1.
        2   -1    0    0  501    0  0.00000000000E+00  0.00000000000E+00 -0.10915487106E+04  0.10915487106E+04  0.25500000920E-02 0.  1.
    10030    2    1    2    0    0  0.00000000000E+00  0.00000000000E+00 -0.90634962827E+03  0.12767477930E+04  0.89923038105E+03 0.  0.
        2    1    3    3  502    0  0.66199525358E+02  0.72664463635E+02 -0.10761054895E+04  0.10805857328E+04  0.25500000920E-02 0.  1.
       -2    1    3    3    0  502 -0.66199525358E+02 -0.72664463635E+02  0.16975586121E+03  0.19616206018E+03  0.25500000920E-02 0. -1.
</event>
<event>
 5   0  0.3685879E-03  0.9043833E+03  0.7818609E-02  0.9420119E-01
        2   -1    0    0  501    0  0.00000000000E+00  0.00000000000E+00  0.76076703176E+03  0.76076703176E+03  0.25500000920E-02 0.  1.
       -2   -1    0    0    0  501  0.00000000000E+00  0.00000000000E+00 -0.26877780018E+03  0.26877780019E+03  0.25500000920E-02 0. -1.
    10030    2    1    2    0    0  0.00000000000E+00  0.00000000000E+00  0.49198923157E+03  0.10295448320E+04  0.90438330205E+03 0.  0.
        1    1    3    3  502    0  0.21571911004E+03  0.38763183381E+03  0.34578522865E+03  0.56245941844E+03  0.50400001928E-02 0. -1.
       -1    1    3    3    0  502 -0.21571911004E+03 -0.38763183381E+03  0.14620400292E+03  0.46708541351E+03  0.50400001928E-02 0.  1.
</event>
<event>
 5   0  0.2129280E-03  0.9367057E+03  0.7818609E-02  0.9380826E-01
        1   -1    0    0  501    0  0.00000000000E+00  0.00000000000E+00  0.43887456459E+03  0.43887456462E+03  0.50400001928E-02 0.  1.
       -1   -1    0    0    0  501  0.00000000000E+00  0.00000000000E+00 -0.49981110556E+03  0.49981110558E+03  0.50400001928E-02 0. -1.
    10030    2    1    2    0    0  0.00000000000E+00  0.00000000000E+00 -0.60936540971E+02  0.93868567020E+03  0.93670567705E+03 0.  0.
        3    1    3    3  502    0 -0.11466253796E+03  0.24300872582E+03 -0.41488522133E+03  0.49429798251E+03  0.10100000352E+00 0. -1.
       -3    1    3    3    0  502  0.11466253796E+03 -0.24300872582E+03  0.35394868036E+03  0.44438768769E+03  0.10100000352E+00 0.  1.
</event>
<event>
 5   0  0.2074970E-03  0.8997118E+03  0.7818609E-02  0.9425942E-01
        1   -1    0    0  501    0  0.00000000000E+00  0.00000000000E+00  0.69284691488E+03  0.69284691490E+03  0.50400001928E-02 0.  1.
       -1   -1    0    0    0  501  0.00000000000E+00  0.00000000000E+00 -0.29208518972E+03  0.29208518976E+03  0.50400001928E-02 0. -1.
    10030    2    1    2    0    0  0.00000000000E+00  0.00000000000E+00  0.40076172516E+03  0.98493210465E+03  0.89971178186E+03 0.  0.
        2    1    3    3  502    0 -0.43789780278E+03  0.48424471407E+02  0.29993962007E+03  0.53297578819E+03  0.25500000920E-02 0.  1.
       -2    1    3    3    0  502  0.43789780278E+03 -0.48424471407E+02  0.10082210509E+03  0.45195631646E+03  0.25500000920E-02 0. -1.
</event>
<event>
 5   0  0.3806019E-03  0.9016039E+03  0.7818609E-02  0.9423579E-01
        2   -1    0    0  501    0  0.00000000000E+00  0.00000000000E+00  0.23634578671E+04  0.23634578671E+04  0.25500000920E-02 0. -1.
       -2   -1    0    0    0  501  0.00000000000E+00  0.00000000000E+00 -0.85985192368E+02  0.85985192406E+02  0.25500000920E-02 0.  1.
    10030    2    1    2    0    0  0.00000000000E+00  0.00000000000E+00  0.22774726748E+04  0.24494430595E+04  0.90160385848E+03 0.  0.
        2    1    3    3  502    0  0.11677254498E+02 -0.31021637686E+03  0.25067584499E+03  0.39900994726E+03  0.25500000920E-02 0.  1.
       -2    1    3    3    0  502 -0.11677254498E+02  0.31021637686E+03  0.20267968298E+04  0.20504331123E+04  0.25500000920E-02 0. -1.
</event>
<event>
 5   0  0.3663255E-03  0.8995018E+03  0.7818609E-02  0.9426204E-01
       -2   -1    0    0    0  501  0.00000000000E+00  0.00000000000E+00  0.71589653103E+03  0.71589653103E+03  0.25500000920E-02 0. -1.
        2   -1    0    0  501    0  0.00000000000E+00  0.00000000000E+00 -0.28254903878E+03  0.28254903879E+03  0.25500000920E-02 0.  1.
    10030    2    1    2    0    0  0.00000000000E+00  0.00000000000E+00  0.43334749225E+03  0.99844556982E+03  0.89950181037E+03 0.  0.
        4    1    3    3  502    0 -0.47950066653E+02 -0.39519454189E+03 -0.15621973439E+02  0.39840129742E+03  0.12699999809E+01 0.  1.
       -4    1    3    3    0  502  0.47950066653E+02  0.39519454189E+03  0.44896946569E+03  0.60004427241E+03  0.12699999809E+01 0. -1.
</event>
<event>
 5   0  0.3626546E-03  0.9114637E+03  0.7818609E-02  0.9411364E-01
        2   -1    0    0  501    0  0.00000000000E+00  0.00000000000E+00  0.14300502932E+04  0.14300502932E+04  0.25500000920E-02 0. -1.
       -2   -1    0    0    0  501  0.00000000000E+00  0.00000000000E+00 -0.14523373251E+03  0.14523373253E+03  0.25500000920E-02 0.  1.
    10030    2    1    2    0    0  0.00000000000E+00  0.00000000000E+00  0.12848165607E+04  0.15752840257E+04  0.91146374976E+03 0.  0.
        3    1    3    3  502    0 -0.16409831215E+03 -0.10012591164E+03 -0.71733861151E+02  0.20518092326E+03  0.10100000352E+00 0.  1.
       -3    1    3    3    0  502  0.16409831215E+03  0.10012591164E+03  0.13565504218E+04  0.13701031025E+04  0.10100000352E+00 0. -1.
</event>
<event>
 5   0  0.3815269E-03  0.9006804E+03  0.7818609E-02  0.9424731E-01
        2   -1    0    0  501    0  0.00000000000E+00  0.00000000000E+00  0.22128251108E+03  0.22128251110E+03  0.25500000920E-02 0. -1.
       -2   -1    0    0    0  501  0.00000000000E+00  0.00000000000E+00 -0.91650397848E+03  0.91650397848E+03  0.25500000920E-02 0.  1.
    10030    2    1    2    0    0  0.00000000000E+00  0.00000000000E+00 -0.69522146740E+03  0.11377864896E+04  0.90068041343E+03 0.  0.
        5    1    3    3  502    0  0.10125989945E+03 -0.42352939467E+03 -0.20272999247E+03  0.48036679239E+03  0.46999998093E+01 0. -1.
       -5    1    3    3    0  502 -0.10125989945E+03  0.42352939467E+03 -0.49249147492E+03  0.65741969719E+03  0.46999998093E+01 0.  1.
</event>
<event>
 5   0  0.2295158E-03  0.8995211E+03  0.7818609E-02  0.9426180E-01
       -1   -1    0    0    0  501  0.00000000000E+00  0.00000000000E+00  0.31066313615E+03  0.31066313619E+03  0.50400001928E-02 0. -1.
        1   -1    0    0  501    0  0.00000000000E+00  0.00000000000E+00 -0.65113793689E+03  0.65113793691E+03  0.50400001928E-02 0.  1.
    10030    2    1    2    0    0  0.00000000000E+00  0.00000000000E+00 -0.34047480074E+03  0.96180107309E+03  0.89952110273E+03 0.  0.
        4    1    3    3  502    0  0.17113224680E+03  0.27816556459E+03  0.16039823836E+03  0.36385647581E+03  0.12699999809E+01 0. -1.
       -4    1    3    3    0  502 -0.17113224680E+03 -0.27816556459E+03 -0.50087303910E+03  0.59794459728E+03  0.12699999809E+01 0.  1.
</event>
<event>
 5   0  0.2129280E-03  0.8739752E+03  0.7818609E-02  0.9458711E-01
       -1   -1    0    0    0  501  0.00000000000E+00  0.00000000000E+00  0.32674495732E+03  0.32674495736E+03  0.50400001928E-02 0.  1.
        1   -1    0    0  501    0  0.00000000000E+00  0.00000000000E+00 -0.58442574745E+03  0.58442574747E+03  0.50400001928E-02 0. -1.
    10030    2    1    2    0    0  0.00000000000E+00  0.00000000000E+00 -0.25768079012E+03  0.91117070483E+03  0.87397520774E+03 0.  0.
        3    1    3    3  502    0  0.17234613936E+03  0.23150967954E+03 -0.47091769641E+03  0.55232545702E+03  0.10100000352E+00 0. -1.
       -3    1    3    3    0  502 -0.17234613936E+03 -0.23150967954E+03  0.21323690629E+03  0.35884524782E+03  0.10100000352E+00 0.  1.
</event>
<event>
 5   0  0.2134145E-03  0.9018561E+03  0.7818609E-02  0.9423264E-01
       -1   -1    0    0    0  501  0.00000000000E+00  0.00000000000E+00  0.33907417524E+03  0.33907417528E+03  0.50400001928E-02 0.  1.
        1   -1    0    0  501    0  0.00000000000E+00  0.00000000000E+00 -0.59968031028E+03  0.59968031030E+03  0.50400001928E-02 0. -1.
    10030    2    1    2    0    0  0.00000000000E+00  0.00000000000E+00 -0.26060613504E+03  0.93875448558E+03  0.90185610081E+03 0.  0.
        1    1    3    3  502    0 -0.19516888409E+03  0.40486432182E+03 -0.16826567022E+03  0.47991598036E+03  0.50400001928E-02 0.  1.
       -1    1    3    3    0  502  0.19516888409E+03 -0.40486432182E+03 -0.92340464817E+02  0.45883850522E+03  0.50400001928E-02 0. -1.
</event>
<event>
 5   0  0.3663255E-03  0.8980430E+03  0.7818609E-02  0.9428031E-01
       -2   -1    0    0    0  501  0.00000000000E+00  0.00000000000E+00  0.31194849104E+03  0.31194849105E+03  0.25500000920E-02 0.  1.
        2   -1    0    0  501    0  0.00000000000E+00  0.00000000000E+00 -0.64632558601E+03  0.64632558601E+03  0.25500000920E-02 0. -1.
    10030    2    1    2    0    0  0.00000000000E+00  0.00000000000E+00 -0.33437709497E+03  0.95827407707E+03  0.89804296397E+03 0.  0.
        4    1    3    3  502    0 -0.27954283756E+03 -0.21889090146E+03  0.12613180795E+03  0.37678677080E+03  0.12699999809E+01 0.  1.
       -4    1    3    3    0  502  0.27954283756E+03  0.21889090146E+03 -0.46050890292E+03  0.58148730626E+03  0.12699999809E+01 0. -1.
</event>
<event>
 5   0  0.3663255E-03  0.8982714E+03  0.7818609E-02  0.9427745E-01
       -2   -1    0    0    0  501  0.00000000000E+00  0.00000000000E+00  0.19029579719E+03  0.19029579721E+03  0.25500000920E-02 0. -1.
        2   -1    0    0  501    0  0.00000000000E+00  0.00000000000E+00 -0.10600491151E+04  0.10600491151E+04  0.25500000920E-02 0.  1.
    10030    2    1    2    0    0  0.00000000000E+00  0.00000000000E+00 -0.86975331790E+03  0.12503449123E+04  0.89827143210E+03 0.  0.
        4    1    3    3  502    0 -0.65899449408E+02 -0.36906118767E+03 -0.90606059926E+02  0.38569413876E+03  0.12699999809E+01 0. -1.
       -4    1    3    3    0  502  0.65899449408E+02  0.36906118767E+03 -0.77914725797E+03  0.86465077354E+03  0.12699999809E+01 0.  1.
</event>
<event>
 5   0  0.2130975E-03  0.8999293E+03  0.7818609E-02  0.9425670E-01
       -1   -1    0    0    0  501  0.00000000000E+00  0.00000000000E+00  0.15298512784E+03  0.15298512792E+03  0.50400001928E-02 0. -1.
        1   -1    0    0  501    0  0.00000000000E+00  0.00000000000E+00 -0.13234501283E+04  0.13234501283E+04  0.50400001928E-02 0.  1.
    10030    2    1    2    0    0  0.00000000000E+00  0.00000000000E+00 -0.11704650005E+04  0.14764352563E+04  0.89992930198E+03 0.  0.
        5    1    3    3  502    0 -0.31582733985E+03  0.27689874518E+03 -0.84990694390E+03  0.94804204915E+03  0.46999998093E+01 0.  1.
       -5    1    3    3    0  502  0.31582733985E+03 -0.27689874518E+03 -0.32055805660E+03  0.52839320712E+03  0.46999998093E+01 0. -1.
</event>
<event>
 5   0  0.3806019E-03  0.8932409E+03  0.7818609E-02  0.9434070E-01
        2   -1    0    0  501    0  0.00000000000E+00  0.00000000000E+00  0.12282846653E+04  0.12282846653E+04  0.25500000920E-02 0. -1.
       -2   -1    0    0    0  501  0.00000000000E+00  0.00000000000E+00 -0.16239706721E+03  0.16239706723E+03  0.25500000920E-02 0.  1.
    10030    2    1    2    0    0  0.00000000000E+00  0.00000000000E+00  0.10658875981E+04  0.13906817326E+04  0.89324090224E+03 0.  0.
        2    1    3    3  502    0  0.26575048267E+03 -0.19792297239E+03  0.99916284459E+03  0.10526743143E+04  0.25500000920E-02 0. -1.
       -2    1    3    3    0  502 -0.26575048267E+03  0.19792297239E+03  0.66724753529E+02  0.33800741823E+03  0.25500000920E-02 0.  1.
</event>
<event>
 5   0  0.2074970E-03  0.9002039E+03  0.7818609E-02  0.9425327E-01
        1   -1    0    0  501    0  0.00000000000E+00  0.00000000000E+00  0.76901239000E+03  0.76901239002E+03  0.50400001928E-02 0. -1.
       -1   -1    0    0    0  501  0.00000000000E+00  0.00000000000E+00 -0.26344411041E+03  0.26344411046E+03  0.50400001928E-02 0.  1.
    10030    2    1    2    0    0  0.00000000000E+00  0.00000000000E+00  0.50556827959E+03  0.10324565005E+04  0.90020394358E+03 0.  0.
        2    1    3    3  502    0 -0.29600462865E+03  0.23210239583E+02 -0.13519557253E+03  0.32624423097E+03  0.25500000920E-02 0.  1.
       -2    1    3    3    0  502  0.29600462865E+03 -0.23210239583E+02  0.64076385213E+03  0.70621226951E+03  0.25500000920E-02 0. -1.
</event>
<event>
 5   0  0.2129280E-03  0.8956325E+03  0.7818609E-02  0.9431058E-01
       -1   -1    0    0    0  501  0.00000000000E+00  0.00000000000E+00  0.13654464411E+03  0.13654464421E+03  0.50400001928E-02 0.  1.
        1   -1    0    0  501    0  0.00000000000E+00  0.00000000000E+00 -0.14686727395E+04  0.14686727395E+04  0.50400001928E-02 0. -1.
    10030    2    1    2    0    0  0.00000000000E+00  0.00000000000E+00 -0.13321280954E+04  0.16052173837E+04  0.89563250636E+03 0.  0.
        3    1    3    3  502    0 -0.21055466085E+03 -0.25953938786E+03 -0.12002857747E+04  0.12459453882E+04  0.10100000352E+00 0. -1.
       -3    1    3    3    0  502  0.21055466085E+03  0.25953938786E+03 -0.13184232062E+03  0.35927199552E+03  0.10100000352E+00 0.  1.
</event>
<event>
 5   0  0.3815269E-03  0.9012572E+03  0.7818609E-02  0.9424011E-01
       -2   -1    0    0    0  501  0.00000000000E+00  0.00000000000E+00  0.62109104055E+03  0.62109104056E+03  0.25500000920E-02 0.  1.
        2   -1    0    0  501    0  0.00000000000E+00  0.00000000000E+00 -0.32695070094E+03  0.32695070095E+03  0.25500000920E-02 0. -1.
    10030    2    1    2    0    0  0.00000000000E+00  0.00000000000E+00  0.29414033962E+03  0.94804174150E+03  0.90125723533E+03 0.  0.
        5    1    3    3  502    0 -0.83986946338E+02 -0.27200449638E+03  0.51449236531E+03  0.58801763338E+03  0.46999998093E+01 0.  1.
       -5    1    3    3    0  502  0.83986946338E+02  0.27200449638E+03 -0.22035202569E+03  0.36002410812E+03  0.46999998093E+01 0. -1.
</event>
<event>
 5   0  0.3685879E-03  0.8985713E+03  0.7818609E-02  0.9427369E-01
        2   -1    0    0  501    0  0.00000000000E+00  0.00000000000E+00  0.36300135114E+03  0.36300135115E+03  0.25500000920E-02 0.  1.
       -2   -1    0    0    0  501  0.00000000000E+00  0.00000000000E+00 -0.55607943197E+03  0.55607943197E+03  0.25500000920E-02 0. -1.
    10030    2    1    2    0    0  0.00000000000E+00  0.00000000000E+00 -0.19307808082E+03  0.91908078312E+03  0.89857127742E+03 0.  0.
        1    1    3    3  502    0  0.39950417097E+03 -0.12453426503E+03  0.70733339195E+02  0.42440024869E+03  0.50400001928E-02 0. -1.
       -1    1    3    3    0  502 -0.39950417097E+03  0.12453426503E+03 -0.26381142002E+03  0.49468053443E+03  0.50400001928E-02 0.  1.
</event>
<event>
 5   0  0.2295158E-03  0.8988789E+03  0.7818609E-02  0.9426984E-01
        1   -1    0    0  501    0  0.00000000000E+00  0.00000000000E+00  0.62592161987E+03  0.62592161989E+03  0.50400001928E-02 0. -1.
       -1   -1    0    0    0  501  0.00000000000E+00  0.00000000000E+00 -0.32271743127E+03  0.32271743131E+03  0.50400001928E-02 0.  1.
    10030    2    1    2    0    0  0.00000000000E+00  0.00000000000E+00  0.30320418860E+03  0.94863905120E+03  0.89887889588E+03 0.  0.
        4    1    3    3  502    0  0.35362968697E+03 -0.36666429505E+02 -0.13856536774E+03  0.38157614783E+03  0.12699999809E+01 0.  1.
       -4    1    3    3    0  502 -0.35362968697E+03  0.36666429505E+02  0.44176955634E+03  0.56706290336E+03  0.12699999809E+01 0. -1.
</event>
<event>
 5   0  0.2295158E-03  0.8912185E+03  0.7818609E-02  0.9436626E-01
        1   -1    0    0  501    0  0.00000000000E+00  0.00000000000E+00  0.69860348891E+03  0.69860348893E+03  0.50400001928E-02 0.  1.
       -1   -1    0    0    0  501  0.00000000000E+00  0.00000000000E+00 -0.28423502984E+03  0.28423502989E+03  0.50400001928E-02 0. -1.
    10030    2    1    2    0    0  0.00000000000E+00  0.00000000000E+00  0.41436845907E+03  0.98283851881E+03  0.89121845481E+03 0.  0.
        4    1    3    3  502    0 -0.19967892119E+03  0.38722602485E+03  0.10402464430E+03  0.44792678577E+03  0.12699999809E+01 0. -1.
       -4    1    3    3    0  502  0.19967892119E+03 -0.38722602485E+03  0.31034381477E+03  0.53491173305E+03  0.12699999809E+01 0.  1.
</event>
<event>
 5   0  0.2129280E-03  0.8994079E+03  0.7818609E-02  0.9426322E-01
       -1   -1    0    0    0  501  0.00000000000E+00  0.00000000000E+00  0.23012780571E+03  0.23012780577E+03  0.50400001928E-02 0.  1.
        1   -1    0    0  501    0  0.00000000000E+00  0.00000000000E+00 -0.87878842323E+03  0.87878842325E+03  0.50400001928E-02 0. -1.
    10030    2    1    2    0    0  0.00000000000E+00  0.00000000000E+00 -0.64866061752E+03  0.11089162290E+04  0.89940791983E+03 0.  0.
        3    1    3    3  502    0  0.17262872701E+03  0.41521449269E+03 -0.31758971795E+03  0.55051520549E+03  0.10100000352E+00 0.  1.
       -3    1    3    3    0  502 -0.17262872701E+03 -0.41521449269E+03 -0.33107089957E+03  0.55840102353E+03  0.10100000352E+00 0. -1.
</event>
<event>
 5   0  0.3663255E-03  0.9005783E+03  0.7818609E-02  0.9424859E-01
        2   -1    0    0  501    0  0.00000000000E+00  0.00000000000E+00  0.78112536031E+03  0.78112536032E+03  0.25500000920E-02 0.  1.
       -2   -1    0    0    0  501  0.00000000000E+00  0.00000000000E+00 -0.25957461498E+03  0.25957461500E+03  0.25500000920E-02 0. -1.
    10030    2    1    2    0    0  0.00000000000E+00  0.00000000000E+00  0.52155074533E+03  0.10406999753E+04  0.90057829125E+03 0.  0.
        4    1    3    3  502    0 -0.22789751201E+03  0.12268645384E+01 -0.18800455499E+03  0.29544222239E+03  0.12699999809E+01 0. -1.
       -4    1    3    3    0  502  0.22789751201E+03 -0.12268645384E+01  0.70955530032E+03  0.74525775292E+03  0.12699999809E+01 0.  1.
</event>
<event>
 5   0  0.2130975E-03  0.8909897E+03  0.7818609E-02  0.9436915E-01
        1   -1    0    0  501    0  0.00000000000E+00  0.00000000000E+00  0.10177991211E+04  0.10177991212E+04  0.50400001928E-02 0. -1.
       -1   -1    0    0    0  501  0.00000000000E+00  0.00000000000E+00 -0.19499493040E+03  0.19499493046E+03  0.50400001928E-02 0.  1.
    10030    2    1    2    0    0  0.00000000000E+00  0.00000000000E+00  0.82280419074E+03  0.12127940516E+04  0.89098971673E+03 0.  0.
        5    1    3    3  502    0  0.25016784439E+03 -0.21547957798E+03  0.43485305226E+01  0.33023688257E+03  0.46999998093E+01 0.  1.
       -5    1    3    3    0  502 -0.25016784439E+03  0.21547957798E+03  0.81845566022E+03  0.88255716905E+03  0.46999998093E+01 0. -1.
</event>
<event>
 5   0  0.3626546E-03  0.8903485E+03  0.7818609E-02  0.9437727E-01
       -2   -1    0    0    0  501  0.00000000000E+00  0.00000000000E+00  0.15379569714E+03  0.15379569716E+03  0.25500000920E-02 0. -1.
        2   -1    0    0  501    0  0.00000000000E+00  0.00000000000E+00 -0.12885934188E+04  0.12885934188E+04  0.25500000920E-02 0.  1.
    10030    2    1    2    0    0  0.00000000000E+00  0.00000000000E+00 -0.11347977216E+04  0.14423891159E+04  0.89034852318E+03 0.  0.
        3    1    3    3  502    0  0.83321032162E+02  0.26574875465E+03 -0.47679001783E+01  0.27854539679E+03  0.10100000352E+00 0. -1.
       -3    1    3    3    0  502 -0.83321032162E+02 -0.26574875465E+03 -0.11300298215E+04  0.11638437191E+04  0.10100000352E+00 0.  1.
</event>
<event>
 5   0  0.3626546E-03  0.9018804E+03  0.7818609E-02  0.9423234E-01
        2   -1    0    0  501    0  0.00000000000E+00  0.00000000000E+00  0.11319140472E+04  0.11319140472E+04  0.25500000920E-02 0. -1.
       -2   -1    0    0    0  501  0.00000000000E+00  0.00000000000E+00 -0.17964886579E+03  0.17964886581E+03  0.25500000920E-02 0.  1.
    10030    2    1    2    0    0  0.00000000000E+00  0.00000000000E+00  0.95226518140E+03  0.13115629130E+04  0.90188042393E+03 0.  0.
        3    1    3    3  502    0  0.33216003320E+03 -0.30498546762E+03  0.47729731260E+03  0.65662710721E+03  0.10100000352E+00 0. -1.
       -3    1    3    3    0  502 -0.33216003320E+03  0.30498546762E+03  0.47496786880E+03  0.65493580579E+03  0.10100000352E+00 0.  1.
</event>
<event>
 5   0  0.1436000E-03  0.8944733E+03  0.7818609E-02  0.9432517E-01
        3   -1    0    0  501    0  0.00000000000E+00  0.00000000000E+00  0.48121865491E+03  0.48121866551E+03  0.10100000352E+00 0. -1.
       -3   -1    0    0    0  501  0.00000000000E+00  0.00000000000E+00 -0.41565427146E+03  0.41565428373E+03  0.10100000352E+00 0.  1.
    10030    2    1    2    0    0  0.00000000000E+00  0.00000000000E+00  0.65564383447E+02  0.89687294924E+03  0.89447325209E+03 0.  0.
        2    1    3    3  502    0 -0.36137050290E+03 -0.26303588762E+03  0.17117182098E+02  0.44729131053E+03  0.25500000920E-02 0. -1.
       -2    1    3    3    0  502  0.36137050290E+03  0.26303588762E+03  0.48447201349E+02  0.44958163871E+03  0.25500000920E-02 0.  1.
</event>
<event>
 5   0  0.1436000E-03  0.8968070E+03  0.7818609E-02  0.9429582E-01
        3   -1    0    0  501    0  0.00000000000E+00  0.00000000000E+00  0.23217470555E+03  0.23217472752E+03  0.10100000352E+00 0. -1.
       -3   -1    0    0    0  501  0.00000000000E+00  0.00000000000E+00 -0.86601026631E+03  0.86601027220E+03  0.10100000352E+00 0.  1.
    10030    2    1    2    0    0  0.00000000000E+00  0.00000000000E+00 -0.63383556076E+03  0.10981849997E+04  0.89680698899E+03 0.  0.
        5    1    3    3  502    0 -0.39238755212E+03 -0.47553992203E+02 -0.57614732425E+03  0.69871110086E+03  0.46999998093E+01 0.  1.
       -5    1    3    3    0  502  0.39238755212E+03  0.47553992203E+02 -0.57688236515E+02  0.39947389885E+03  0.46999998093E+01 0. -1.
</event>
<event>
 5   0  0.2130975E-03  0.8992450E+03  0.7818609E-02  0.9426526E-01
       -1   -1    0    0    0  501  0.00000000000E+00  0.00000000000E+00  0.29580702517E+03  0.29580702521E+03  0.50400001928E-02 0.  1.
        1   -1    0    0  501    0  0.00000000000E+00  0.00000000000E+00 -0.68341988212E+03  0.68341988214E+03  0.50400001928E-02 0. -1.
    10030    2    1    2    0    0  0.00000000000E+00  0.00000000000E+00 -0.38761285695E+03  0.97922690735E+03  0.89924502178E+03 0.  0.
        5    1    3    3  502    0  0.57609928226E+02  0.44292091569E+03 -0.24976234199E+03  0.51176279550E+03  0.46999998093E+01 0.  1.
       -5    1    3    3    0  502 -0.57609928226E+02 -0.44292091569E+03 -0.13785051496E+03  0.46746411184E+03  0.46999998093E+01 0. -1.
</event>
<event>
 5   0  0.3626546E-03  0.9025001E+03  0.7818609E-02  0.9422462E-01
       -2   -1    0    0    0  501  0.00000000000E+00  0.00000000000E+00  0.46719031671E+03  0.46719031672E+03  0.25500000920E-02 0. -1.
        2   -1    0    0  501    0  0.00000000000E+00  0.00000000000E+00 -0.43585365259E+03  0.43585365259E+03  0.25500000920E-02 0.  1.
    10030    2    1    2    0    0  0.00000000000E+00  0.00000000000E+00  0.31336664129E+02  0.90304396931E+03  0.90250009640E+03 0.  0.
        3    1    3    3  502    0  0.22198663557E+03  0.27975245812E+03 -0.26033678354E+03  0.44194428977E+03  0.10100000352E+00 0.  1.
       -3    1    3    3    0  502 -0.22198663557E+03 -0.27975245812E+03  0.29167344767E+03  0.46109967954E+03  0.10100000352E+00 0. -1.
</event>
<event>
 5   0  0.1436000E-03  0.8961752E+03  0.7818609E-02  0.9430375E-01
       -3   -1    0    0    0  501  0.00000000000E+00  0.00000000000E+00  0.60143119477E+03  0.60143120325E+03  0.10100000352E+00 0.  1.
        3   -1    0    0  501    0  0.00000000000E+00  0.00000000000E+00 -0.33384119341E+03  0.33384120868E+03  0.10100000352E+00 0. -1.
    10030    2    1    2    0    0  0.00000000000E+00  0.00000000000E+00  0.26759000136E+03  0.93527241194E+03  0.89617524832E+03 0.  0.
        4    1    3    3  502    0 -0.92577721862E+02  0.43662155509E+03  0.92418274357E+02  0.45579794568E+03  0.12699999809E+01 0. -1.
       -4    1    3    3    0  502  0.92577721862E+02 -0.43662155509E+03  0.17517172701E+03  0.47947446626E+03  0.12699999809E+01 0.  1.
</event>
<event>
 5   0  0.3806019E-03  0.8995992E+03  0.7818609E-02  0.9426083E-01
        2   -1    0    0  501    0  0.00000000000E+00  0.00000000000E+00  0.11456869662E+04  0.11456869662E+04  0.25500000920E-02 0.  1.
       -2   -1    0    0    0  501  0.00000000000E+00  0.00000000000E+00 -0.17659244829E+03  0.17659244831E+03  0.25500000920E-02 0. -1.
    10030    2    1    2    0    0  0.00000000000E+00  0.00000000000E+00  0.96909451788E+03  0.13222794145E+04  0.89959916928E+03 0.  0.
        2    1    3    3  502    0  0.38804769789E+03 -0.95989907026E+02  0.78765306096E+03  0.88328501772E+03  0.25500000920E-02 0.  1.
       -2    1    3    3    0  502 -0.38804769789E+03  0.95989907026E+02  0.18144145692E+03  0.43899439675E+03  0.25500000920E-02 0. -1.
</event>
<event>
 5   0  0.3685879E-03  0.9041234E+03  0.7818609E-02  0.9420442E-01
       -2   -1    0    0    0  501  0.00000000000E+00  0.00000000000E+00  0.15300064176E+03  0.15300064178E+03  0.25500000920E-02 0.  1.
        2   -1    0    0  501    0  0.00000000000E+00  0.00000000000E+00 -0.13356791328E+04  0.13356791328E+04  0.25500000920E-02 0. -1.
    10030    2    1    2    0    0  0.00000000000E+00  0.00000000000E+00 -0.11826784911E+04  0.14886797746E+04  0.90412336442E+03 0.  0.
        1    1    3    3  502    0  0.97424978999E+01 -0.41253643721E+03 -0.89529758381E+03  0.98581894478E+03  0.50400001928E-02 0. -1.
       -1    1    3    3    0  502 -0.97424978999E+01  0.41253643721E+03 -0.28738090724E+03  0.50286082981E+03  0.50400001928E-02 0.  1.
</event>
<event>
 5   0  0.2134145E-03  0.9007824E+03  0.7818609E-02  0.9424604E-01
        1   -1    0    0  501    0  0.00000000000E+00  0.00000000000E+00  0.43618519160E+03  0.43618519163E+03  0.50400001928E-02 0. -1.
       -1   -1    0    0    0  501  0.00000000000E+00  0.00000000000E+00 -0.46505992865E+03  0.46505992868E+03  0.50400001928E-02 0.  1.
    10030    2    1    2    0    0  0.00000000000E+00  0.00000000000E+00 -0.28874737047E+02  0.90124512031E+03  0.90078244679E+03 0.  0.
        1    1    3    3  502    0  0.43926396991E+03 -0.82315997029E+02 -0.70354315455E+02  0.45241406737E+03  0.50400001928E-02 0. -1.
       -1    1    3    3    0  502 -0.43926396991E+03  0.82315997029E+02  0.41479578409E+02  0.44883105293E+03  0.50400001928E-02 0.  1.
</event>
<event>
 5   0  0.3663255E-03  0.9001901E+03  0.7818609E-02  0.9425344E-01
       -2   -1    0    0    0  501  0.00000000000E+00  0.00000000000E+00  0.16384591997E+03  0.16384591999E+03  0.25500000920E-02 0.  1.
        2   -1    0    0  501    0  0.00000000000E+00  0.00000000000E+00 -0.12364394534E+04  0.12364394534E+04  0.25500000920E-02 0. -1.
    10030    2    1    2    0    0  0.00000000000E+00  0.00000000000E+00 -0.10725935335E+04  0.14002853734E+04  0.90019011269E+03 0.  0.
        4    1    3    3  502    0  0.93231658559E+02  0.21126946508E+03  0.64668945061E+02  0.23981370768E+03  0.12699999809E+01 0.  1.
       -4    1    3    3    0  502 -0.93231658559E+02 -0.21126946508E+03 -0.11372624785E+04  0.11604716657E+04  0.12699999809E+01 0. -1.
</event>
<event>
 5   0  0.3663255E-03  0.9018575E+03  0.7818609E-02  0.9423262E-01
        2   -1    0    0  501    0  0.00000000000E+00  0.00000000000E+00  0.86851164807E+03  0.86851164808E+03  0.25500000920E-02 0. -1.
       -2   -1    0    0    0  501  0.00000000000E+00  0.00000000000E+00 -0.23412091711E+03  0.23412091713E+03  0.25500000920E-02 0.  1.
    10030    2    1    2    0    0  0.00000000000E+00  0.00000000000E+00  0.63439073096E+03  0.11026325652E+04  0.90185751331E+03 0.  0.
        4    1    3    3  502    0 -0.42793351778E+03 -0.87511404467E+01  0.49066778795E+03  0.65112223824E+03  0.12699999809E+01 0. -1.
       -4    1    3    3    0  502  0.42793351778E+03  0.87511404467E+01  0.14372294301E+03  0.45151032696E+03  0.12699999809E+01 0.  1.
</event>
<event>
 5   0  0.3815269E-03  0.8915844E+03  0.7818609E-02  0.9436163E-01
       -2   -1    0    0    0  501  0.00000000000E+00  0.00000000000E+00  0.23647213229E+03  0.23647213231E+03  0.25500000920E-02 0.  1.
        2   -1    0    0  501    0  0.00000000000E+00  0.00000000000E+00 -0.84039800014E+03  0.84039800015E+03  0.25500000920E-02 0. -1.
    10030    2    1    2    0    0  0.00000000000E+00  0.00000000000E+00 -0.60392586785E+03  0.10768701325E+04  0.89158444823E+03 0.  0.
        5    1    3    3  502    0 -0.33759070201E+03  0.90562472597E+01 -0.65339203412E+03  0.73552208529E+03  0.46999998093E+01 0. -1.
       -5    1    3    3    0  502  0.33759070201E+03 -0.90562472597E+01  0.49466166273E+02  0.34134804716E+03  0.46999998093E+01 0.  1.
</event>
<event>
 5   0  0.2295158E-03  0.8999044E+03  0.7818609E-02  0.9425701E-01
       -1   -1    0    0    0  501  0.00000000000E+00  0.00000000000E+00  0.33856780420E+03  0.33856780424E+03  0.50400001928E-02 0. -1.
        1   -1    0    0  501    0  0.00000000000E+00  0.00000000000E+00 -0.59798055292E+03  0.59798055294E+03  0.50400001928E-02 0.  1.
    10030    2    1    2    0    0  0.00000000000E+00  0.00000000000E+00 -0.25941274872E+03  0.93654835718E+03  0.89990435666E+03 0.  0.
        4    1    3    3  502    0 -0.15720047470E+03 -0.21151573933E+02  0.30850463666E+03  0.34689494385E+03  0.12699999809E+01 0. -1.
       -4    1    3    3    0  502  0.15720047470E+03  0.21151573933E+02 -0.56791738539E+03  0.58965341333E+03  0.12699999809E+01 0.  1.
</event>
<event>
 5   0  0.2074970E-03  0.8987519E+03  0.7818609E-02  0.9427143E-01
        1   -1    0    0  501    0  0.00000000000E+00  0.00000000000E+00  0.12019415293E+04  0.12019415293E+04  0.50400001928E-02 0.  1.
       -1   -1    0    0    0  501  0.00000000000E+00  0.00000000000E+00 -0.16801043902E+03  0.16801043910E+03  0.50400001928E-02 0. -1.
    10030    2    1    2    0    0  0.00000000000E+00  0.00000000000E+00  0.10339310902E+04  0.13699519684E+04  0.89875185467E+03 0.  0.
        2    1    3    3  502    0 -0.41338880577E+03  0.11029207699E+03  0.30749960112E+03  0.52688770310E+03  0.25500000920E-02 0.  1.
       -2    1    3    3    0  502  0.41338880577E+03 -0.11029207699E+03  0.72643148913E+03  0.84306426528E+03  0.25500000920E-02 0. -1.
</event>
<event>
 5   0  0.3626546E-03  0.8997330E+03  0.7818609E-02  0.9425915E-01
        2   -1    0    0  501    0  0.00000000000E+00  0.00000000000E+00  0.98155089186E+03  0.98155089187E+03  0.25500000920E-02 0. -1.
       -2   -1    0    0    0  501  0.00000000000E+00  0.00000000000E+00 -0.20618379273E+03  0.20618379274E+03  0.25500000920E-02 0.  1.
    10030    2    1    2    0    0  0.00000000000E+00  0.00000000000E+00  0.77536709913E+03  0.11877346846E+04  0.89973303963E+03 0.  0.
        3    1    3    3  502    0 -0.12334815761E+03 -0.21444080629E+03  0.88369618588E+03  0.91767019486E+03  0.10100000352E+00 0. -1.
       -3    1    3    3    0  502  0.12334815761E+03  0.21444080629E+03 -0.10832908675E+03  0.27006448975E+03  0.10100000352E+00 0.  1.
</event>
<event>
 5   0  0.3685879E-03  0.8979553E+03  0.7818609E-02  0.9428141E-01
        2   -1    0    0  501    0  0.00000000000E+00  0.00000000000E+00  0.98750857876E+03  0.98750857876E+03  0.25500000920E-02 0.  1.
       -2   -1    0    0    0  501  0.00000000000E+00  0.00000000000E+00 -0.20413083045E+03  0.20413083047E+03  0.25500000920E-02 0. -1.
    10030    2    1    2    0    0  0.00000000000E+00  0.00000000000E+00  0.78337774831E+03  0.11916394092E+04  0.89795533580E+03 0.  0.
        1    1    3    3  502    0  0.33170680021E+03 -0.17422603375E+03  0.63401182835E+02  0.38000502911E+03  0.50400001928E-02 0. -1.
       -1    1    3    3    0  502 -0.33170680021E+03  0.17422603375E+03  0.71997656547E+03  0.81163438012E+03  0.50400001928E-02 0.  1.
</event>
<event>
 5   0  0.3663255E-03  0.9003793E+03  0.7818609E-02  0.9425107E-01
       -2   -1    0    0    0  501  0.00000000000E+00  0.00000000000E+00  0.39186081085E+03  0.39186081085E+03  0.25500000920E-02 0.  1.
        2   -1    0    0  501    0  0.00000000000E+00  0.00000000000E+00 -0.51720083666E+03  0.51720083666E+03  0.25500000920E-02 0. -1.
    10030    2    1    2    0    0  0.00000000000E+00  0.00000000000E+00 -0.12534002581E+03  0.90906164752E+03  0.90037934056E+03 0.  0.
        4    1    3    3  502    0  0.26173081881E+03  0.12741118467E+03  0.28405450840E+03  0.40672497850E+03  0.12699999809E+01 0.  1.
       -4    1    3    3    0  502 -0.26173081881E+03 -0.12741118467E+03 -0.40939453421E+03  0.50233666901E+03  0.12699999809E+01 0. -1.
</event>
<event>
 5   0  0.2129280E-03  0.8992783E+03  0.7818609E-02  0.9426484E-01
       -1   -1    0    0    0  501  0.00000000000E+00  0.00000000000E+00  0.31625573101E+03  0.31625573105E+03  0.50400001928E-02 0. -1.
        1   -1    0    0  501    0  0.00000000000E+00  0.00000000000E+00 -0.63927804703E+03  0.63927804705E+03  0.50400001928E-02 0.  1.
    10030    2    1    2    0    0  0.00000000000E+00  0.00000000000E+00 -0.32302231602E+03  0.95553377810E+03  0.89927825752E+03 0.  0.
        3    1    3    3  502    0  0.67284852393E+02  0.37323670128E+03  0.95140621412E+02  0.39100464778E+03  0.10100000352E+00 0.  1.
       -3    1    3    3    0  502 -0.67284852393E+02 -0.37323670128E+03 -0.41816293743E+03  0.56452913032E+03  0.10100000352E+00 0. -1.
</event>
<event>
 5   0  0.2134145E-03  0.8991114E+03  0.7818609E-02  0.9426693E-01
        1   -1    0    0  501    0  0.00000000000E+00  0.00000000000E+00  0.15981290784E+04  0.15981290784E+04  0.50400001928E-02 0.  1.
       -1   -1    0    0    0  501  0.00000000000E+00  0.00000000000E+00 -0.12646056445E+03  0.12646056455E+03  0.50400001928E-02 0. -1.
    10030    2    1    2    0    0  0.00000000000E+00  0.00000000000E+00  0.14716685140E+04  0.17245896430E+04  0.89911135109E+03 0.  0.
        1    1    3    3  502    0  0.18323233792E+03  0.12082100720E+03  0.14883781082E+04  0.15044737280E+04  0.50400001928E-02 0.  1.
       -1    1    3    3    0  502 -0.18323233792E+03 -0.12082100720E+03 -0.16709594217E+02  0.22011591493E+03  0.50400001928E-02 0. -1.
</event>
<event>
 5   0  0.2074970E-03  0.9008519E+03  0.7818609E-02  0.9424517E-01
       -1   -1    0    0    0  501  0.00000000000E+00  0.00000000000E+00  0.50512337607E+03  0.50512337610E+03  0.50400001928E-02 0.  1.
        1   -1    0    0  501    0  0.00000000000E+00  0.00000000000E+00 -0.40165140541E+03  0.40165140545E+03  0.50400001928E-02 0. -1.
    10030    2    1    2    0    0  0.00000000000E+00  0.00000000000E+00  0.10347197066E+03  0.90677478154E+03  0.90085185005E+03 0.  0.
        2    1    3    3  502    0  0.31020087238E+02  0.12171445650E+03 -0.38366650926E+03  0.40370365997E+03  0.25500000920E-02 0. -1.
       -2    1    3    3    0  502 -0.31020087238E+02 -0.12171445650E+03  0.48713847992E+03  0.50307112157E+03  0.25500000920E-02 0.  1.
</event>
<event>
 5   0  0.3685879E-03  0.8941868E+03  0.7818609E-02  0.9432878E-01
        2   -1    0    0  501    0  0.00000000000E+00  0.00000000000E+00  0.47833344467E+03  0.47833344467E+03  0.25500000920E-02 0.  1.
       -2   -1    0    0    0  501  0.00000000000E+00  0.00000000000E+00 -0.41789365619E+03  0.41789365619E+03  0.25500000920E-02 0. -1.
    10030    2    1    2    0    0  0.00000000000E+00  0.00000000000E+00  0.60439788481E+02  0.89622710087E+03  0.89418680839E+03 0.  0.
        1    1    3    3  502    0 -0.16789201122E+03  0.33186579648E+03 -0.21847906015E+03  0.43134178334E+03  0.50400001928E-02 0. -1.
       -1    1    3    3    0  502  0.16789201122E+03 -0.33186579648E+03  0.27891884863E+03  0.46488531753E+03  0.50400001928E-02 0.  1.
</event>
<event>
 5   0  0.3663255E-03  0.9008252E+03  0.7818609E-02  0.9424550E-01
       -2   -1    0    0    0  501  0.00000000000E+00  0.00000000000E+00  0.17421554758E+03  0.17421554760E+03  0.25500000920E-02 0.  1.
        2   -1    0    0  501    0  0.00000000000E+00  0.00000000000E+00 -0.11644856908E+04  0.11644856908E+04  0.25500000920E-02 0. -1.
    10030    2    1    2    0    0  0.00000000000E+00  0.00000000000E+00 -0.99027014321E+03  0.13387012384E+04  0.90082520455E+03 0.  0.
        4    1    3    3  502    0  0.93792640537E+02 -0.36206734556E+03 -0.12219012173E+03  0.39347409176E+03  0.12699999809E+01 0.  1.
       -4    1    3    3    0  502 -0.93792640537E+02  0.36206734556E+03 -0.86808002149E+03  0.94522714664E+03  0.12699999809E+01 0. -1.
</event>
<event>
 5   0  0.2130975E-03  0.8829122E+03  0.7818609E-02  0.9447198E-01
       -1   -1    0    0    0  501  0.00000000000E+00  0.00000000000E+00  0.27282823424E+03  0.27282823429E+03  0.50400001928E-02 0. -1.
        1   -1    0    0  501    0  0.00000000000E+00  0.00000000000E+00 -0.71430832010E+03  0.71430832012E+03  0.50400001928E-02 0.  1.
    10030    2    1    2    0    0  0.00000000000E+00  0.00000000000E+00 -0.44148008586E+03  0.98713655441E+03  0.88291217618E+03 0.  0.
        5    1    3    3  502    0  0.14782600642E+03 -0.39026569107E+03 -0.59875192576E+02  0.42162420054E+03  0.46999998093E+01 0. -1.
       -5    1    3    3    0  502 -0.14782600642E+03  0.39026569107E+03 -0.38160489329E+03  0.56551235387E+03  0.46999998093E+01 0.  1.
</event>
<event>
 5   0  0.3685879E-03  0.8973169E+03  0.7818609E-02  0.9428942E-01
       -2   -1    0    0    0  501  0.00000000000E+00  0.00000000000E+00  0.32387313124E+03  0.32387313125E+03  0.25500000920E-02 0. -1.
        2   -1    0    0  501    0  0.00000000000E+00  0.00000000000E+00 -0.62152239490E+03  0.62152239490E+03  0.25500000920E-02 0.  1.
    10030    2    1    2    0    0  0.00000000000E+00  0.00000000000E+00 -0.29764926366E+03  0.94539552615E+03  0.89731689871E+03 0.  0.
        1    1    3    3  502    0  0.18055906177E+03 -0.42757845156E+02  0.28155310437E+03  0.33719721042E+03  0.50400001928E-02 0. -1.
       -1    1    3    3    0  502 -0.18055906177E+03  0.42757845156E+02 -0.57920236802E+03  0.60819831573E+03  0.50400001928E-02 0.  1.
</event>
<event>
 5   0  0.2129280E-03  0.8982553E+03  0.7818609E-02  0.9427765E-01
        1   -1    0    0  501    0  0.00000000000E+00  0.00000000000E+00  0.35411821109E+03  0.35411821113E+03  0.50400001928E-02 0. -1.
       -1   -1    0    0    0  501  0.00000000000E+00  0.00000000000E+00 -0.56962798068E+03  0.56962798070E+03  0.50400001928E-02 0.  1.
    10030    2    1    2    0    0  0.00000000000E+00  0.00000000000E+00 -0.21550976959E+03  0.92374619183E+03  0.89825529007E+03 0.  0.
        3    1    3    3  502    0 -0.57676680184E+02 -0.13084656950E+03  0.33008336301E+03  0.35972553554E+03  0.10100000352E+00 0. -1.
       -3    1    3    3    0  502  0.57676680184E+02  0.13084656950E+03 -0.54559313260E+03  0.56402065629E+03  0.10100000352E+00 0.  1.
</event>
<event>
 5   0  0.2130975E-03  0.8999546E+03  0.7818609E-02  0.9425638E-01
        1   -1    0    0  501    0  0.00000000000E+00  0.00000000000E+00  0.98906476132E+03  0.98906476133E+03  0.50400001928E-02 0. -1.
       -1   -1    0    0    0  501  0.00000000000E+00  0.00000000000E+00 -0.20471822960E+03  0.20471822967E+03  0.50400001928E-02 0.  1.
    10030    2    1    2    0    0  0.00000000000E+00  0.00000000000E+00  0.78434653172E+03  0.11937829910E+04  0.89995463651E+03 0.  0.
        5    1    3    3  502    0 -0.32985791633E+03  0.16885116793E+03  0.53617332978E+02  0.37445142578E+03  0.46999998093E+01 0.  1.
       -5    1    3    3    0  502  0.32985791633E+03 -0.16885116793E+03  0.73072919874E+03  0.81933156522E+03  0.46999998093E+01 0. -1.
</event>
<event>
 5   0  0.2130975E-03  0.8996309E+03  0.7818609E-02  0.9426043E-01
        1   -1    0    0  501    0  0.00000000000E+00  0.00000000000E+00  0.37500893678E+03  0.37500893681E+03  0.50400001928E-02 0. -1.
       -1   -1    0    0    0  501  0.00000000000E+00  0.00000000000E+00 -0.53954427851E+03  0.53954427853E+03  0.50400001928E-02 0.  1.
    10030    2    1    2    0    0  0.00000000000E+00  0.00000000000E+00 -0.16453534173E+03  0.91455321534E+03  0.89963087153E+03 0.  0.
        5    1    3    3  502    0 -0.50423518021E+02  0.11888060761E+03 -0.52027013906E+03  0.53607670872E+03  0.46999998093E+01 0.  1.
       -5    1    3    3    0  502  0.50423518021E+02 -0.11888060761E+03  0.35573479733E+03  0.37847650662E+03  0.46999998093E+01 0. -1.
</event>
<event>
 5   0  0.1436000E-03  0.8861220E+03  0.7818609E-02  0.9443098E-01
        4   -1    0    0  501    0  0.00000000000E+00  0.00000000000E+00  0.48633531931E+03  0.48633697752E+03  0.12699999809E+01 0.  1.
       -4   -1    0    0    0  501  0.00000000000E+00  0.00000000000E+00 -0.40363386413E+03  0.40363586210E+03  0.12699999809E+01 0. -1.
    10030    2    1    2    0    0  0.00000000000E+00  0.00000000000E+00  0.82701455181E+02  0.88997283962E+03  0.88612195807E+03 0.  0.
        4    1    3    3  502    0 -0.91330610682E+01 -0.22385784219E+03  0.42524956102E+03  0.48066053339E+03  0.12699999809E+01 0.  1.
       -4    1    3    3    0  502  0.91330610682E+01  0.22385784219E+03 -0.34254810584E+03  0.40931230623E+03  0.12699999809E+01 0. -1.
</event>
<event>
 5   0  0.3815269E-03  0.9060881E+03  0.7818609E-02  0.9418003E-01
       -2   -1    0    0    0  501  0.00000000000E+00  0.00000000000E+00  0.27842096634E+03  0.27842096635E+03  0.25500000920E-02 0.  1.
        2   -1    0    0  501    0  0.00000000000E+00  0.00000000000E+00 -0.73718907185E+03  0.73718907186E+03  0.25500000920E-02 0. -1.
    10030    2    1    2    0    0  0.00000000000E+00  0.00000000000E+00 -0.45876810551E+03  0.10156100382E+04  0.90608806143E+03 0.  0.
        5    1    3    3  502    0 -0.40209243433E+03 -0.20868034941E+03 -0.23049919302E+03  0.50830874668E+03  0.46999998093E+01 0.  1.
       -5    1    3    3    0  502  0.40209243433E+03  0.20868034941E+03 -0.22826891250E+03  0.50730129153E+03  0.46999998093E+01 0. -1.
</event>
<event>
 5   0  0.3663255E-03  0.8983166E+03  0.7818609E-02  0.9427688E-01
        2   -1    0    0  501    0  0.00000000000E+00  0.00000000000E+00  0.13922383102E+04  0.13922383102E+04  0.25500000920E-02 0.  1.
       -2   -1    0    0    0  501  0.00000000000E+00  0.00000000000E+00 -0.14490562273E+03  0.14490562275E+03  0.25500000920E-02 0. -1.
    10030    2    1    2    0    0  0.00000000000E+00  0.00000000000E+00  0.12473326875E+04  0.15371439330E+04  0.89831655746E+03 0.  0.
        4    1    3    3  502    0  0.38848804786E+03 -0.16170393763E+03  0.35490091824E+03  0.55047924706E+03  0.12699999809E+01 0. -1.
       -4    1    3    3    0  502 -0.38848804786E+03  0.16170393763E+03  0.89243176925E+03  0.98666468592E+03  0.12699999809E+01 0.  1.
</event>
<event>
 5   0  0.2134145E-03  0.8991903E+03  0.7818609E-02  0.9426594E-01
       -1   -1    0    0    0  501  0.00000000000E+00  0.00000000000E+00  0.24382231225E+03  0.24382231230E+03  0.50400001928E-02 0.  1.
        1   -1    0    0  501    0  0.00000000000E+00  0.00000000000E+00 -0.82902921169E+03  0.82902921170E+03  0.50400001928E-02 0. -1.
    10030    2    1    2    0    0  0.00000000000E+00  0.00000000000E+00 -0.58520689944E+03  0.10728515240E+04  0.89919034548E+03 0.  0.
        1    1    3    3  502    0  0.25333627721E+03 -0.97794855508E+02  0.13491826714E+03  0.30322605750E+03  0.50400001928E-02 0.  1.
       -1    1    3    3    0  502 -0.25333627721E+03  0.97794855508E+02 -0.72012516658E+03  0.76962546650E+03  0.50400001928E-02 0. -1.
</event>
<event>
 5   0  0.3815269E-03  0.9067720E+03  0.7818609E-02  0.9417155E-01
       -2   -1    0    0    0  501  0.00000000000E+00  0.00000000000E+00  0.21087563582E+03  0.21087563583E+03  0.25500000920E-02 0. -1.
        2   -1    0    0  501    0  0.00000000000E+00  0.00000000000E+00 -0.97478714811E+03  0.97478714811E+03  0.25500000920E-02 0.  1.
    10030    2    1    2    0    0  0.00000000000E+00  0.00000000000E+00 -0.76391151229E+03  0.11856627839E+04  0.90677198822E+03 0.  0.
        5    1    3    3  502    0  0.18579189781E+03 -0.20628896090E+03  0.86698031237E+02  0.29088211238E+03  0.46999998093E+01 0. -1.
       -5    1    3    3    0  502 -0.18579189781E+03  0.20628896090E+03 -0.85060954353E+03  0.89478067157E+03  0.46999998093E+01 0.  1.
</event>
<event>
 5   0  0.2130975E-03  0.8817710E+03  0.7818609E-02  0.9448660E-01
       -1   -1    0    0    0  501  0.00000000000E+00  0.00000000000E+00  0.28570184388E+03  0.28570184392E+03  0.50400001928E-02 0.  1.
        1   -1    0    0  501    0  0.00000000000E+00  0.00000000000E+00 -0.68035963483E+03  0.68035963485E+03  0.50400001928E-02 0. -1.
    10030    2    1    2    0    0  0.00000000000E+00  0.00000000000E+00 -0.39465779095E+03  0.96606147877E+03  0.88177095030E+03 0.  0.
        5    1    3    3  502    0 -0.40856914456E+03  0.92255189942E+02 -0.34802022595E+03  0.54459152915E+03  0.46999998093E+01 0. -1.
       -5    1    3    3    0  502  0.40856914456E+03 -0.92255189942E+02 -0.46637565003E+02  0.42146994961E+03  0.46999998093E+01 0.  1.
</event>
<event>
 5   0  0.3626546E-03  0.9021001E+03  0.7818609E-02  0.9422960E-01
       -2   -1    0    0    0  501  0.00000000000E+00  0.00000000000E+00  0.35314511195E+03  0.35314511196E+03  0.25500000920E-02 0. -1.
        2   -1    0    0  501    0  0.00000000000E+00  0.00000000000E+00 -0.57609791575E+03  0.57609791575E+03  0.25500000920E-02 0.  1.
    10030    2    1    2    0    0  0.00000000000E+00  0.00000000000E+00 -0.22295280380E+03  0.92924302771E+03  0.90210013403E+03 0.  0.
        3    1    3    3  502    0  0.36355782724E+03  0.21230009695E+02  0.16265326473E+03  0.39884972331E+03  0.10100000352E+00 0. -1.
       -3    1    3    3    0  502 -0.36355782724E+03 -0.21230009695E+02 -0.38560606853E+03  0.53039330439E+03  0.10100000352E+00 0.  1.
</event>
<event>
 5   0  0.3815269E-03  0.9148232E+03  0.7818609E-02  0.9407239E-01
        2   -1    0    0  501    0  0.00000000000E+00  0.00000000000E+00  0.60622744898E+03  0.60622744898E+03  0.25500000920E-02 0.  1.
       -2   -1    0    0    0  501  0.00000000000E+00  0.00000000000E+00 -0.34512688751E+03  0.34512688752E+03  0.25500000920E-02 0. -1.
    10030    2    1    2    0    0  0.00000000000E+00  0.00000000000E+00  0.26110056147E+03  0.95135433650E+03  0.91482324543E+03 0.  0.
        5    1    3    3  502    0 -0.13320314046E+03  0.42431678098E+03  0.24166011288E+03  0.50617142097E+03  0.46999998093E+01 0.  1.
       -5    1    3    3    0  502  0.13320314046E+03 -0.42431678098E+03  0.19440448584E+02  0.44518291554E+03  0.46999998093E+01 0. -1.
</event>
<event>
 5   0  0.2295158E-03  0.9163183E+03  0.7818609E-02  0.9405410E-01
       -1   -1    0    0    0  501  0.00000000000E+00  0.00000000000E+00  0.30384105486E+03  0.30384105490E+03  0.50400001928E-02 0.  1.
        1   -1    0    0  501    0  0.00000000000E+00  0.00000000000E+00 -0.69085396206E+03  0.69085396207E+03  0.50400001928E-02 0. -1.
    10030    2    1    2    0    0  0.00000000000E+00  0.00000000000E+00 -0.38701290719E+03  0.99469501698E+03  0.91631827793E+03 0.  0.
        4    1    3    3  502    0 -0.89856722163E+02 -0.34166694335E+01  0.29416591169E+03  0.30760543014E+03  0.12699999809E+01 0.  1.
       -4    1    3    3    0  502  0.89856722163E+02  0.34166694335E+01 -0.68117881888E+03  0.68708958684E+03  0.12699999809E+01 0. -1.
</event>
<event>
 5   0  0.3626546E-03  0.9050587E+03  0.7818609E-02  0.9419280E-01
       -2   -1    0    0    0  501  0.00000000000E+00  0.00000000000E+00  0.34627485540E+03  0.34627485541E+03  0.25500000920E-02 0.  1.
        2   -1    0    0  501    0  0.00000000000E+00  0.00000000000E+00 -0.59138802738E+03  0.59138802739E+03  0.25500000920E-02 0. -1.
    10030    2    1    2    0    0  0.00000000000E+00  0.00000000000E+00 -0.24511317198E+03  0.93766288280E+03  0.90505868025E+03 0.  0.
        3    1    3    3  502    0  0.40670950130E+03 -0.98019612863E+02  0.56175882962E+02  0.42210923110E+03  0.10100000352E+00 0.  1.
       -3    1    3    3    0  502 -0.40670950130E+03  0.98019612863E+02 -0.30128905495E+03  0.51555365170E+03  0.10100000352E+00 0. -1.
</event>
<event>
 5   0  0.3806019E-03  0.9012671E+03  0.7818609E-02  0.9423999E-01
       -2   -1    0    0    0  501  0.00000000000E+00  0.00000000000E+00  0.39131351156E+03  0.39131351156E+03  0.25500000920E-02 0.  1.
        2   -1    0    0  501    0  0.00000000000E+00  0.00000000000E+00 -0.51894605721E+03  0.51894605722E+03  0.25500000920E-02 0. -1.
    10030    2    1    2    0    0  0.00000000000E+00  0.00000000000E+00 -0.12763254566E+03  0.91025956878E+03  0.90126711681E+03 0.  0.
        2    1    3    3  502    0  0.25702189627E+02 -0.17383561486E+03 -0.48291580757E+03  0.51389405596E+03  0.25500000920E-02 0. -1.
       -2    1    3    3    0  502 -0.25702189627E+02  0.17383561486E+03  0.35528326192E+03  0.39636551282E+03  0.25500000920E-02 0.  1.
</event>
<event>
 5   0  0.3663255E-03  0.9006550E+03  0.7818609E-02  0.9424763E-01
        2   -1    0    0  501    0  0.00000000000E+00  0.00000000000E+00  0.17445452369E+04  0.17445452369E+04  0.25500000920E-02 0. -1.
       -2   -1    0    0    0  501  0.00000000000E+00  0.00000000000E+00 -0.11624512508E+03  0.11624512511E+03  0.25500000920E-02 0.  1.
    10030    2    1    2    0    0  0.00000000000E+00  0.00000000000E+00  0.16283001119E+04  0.18607903620E+04  0.90065504895E+03 0.  0.
        4    1    3    3  502    0  0.13765682269E+03  0.35608333734E+03  0.13076205161E+04  0.13622106192E+04  0.12699999809E+01 0. -1.
       -4    1    3    3    0  502 -0.13765682269E+03 -0.35608333734E+03  0.32067959576E+03  0.49857974287E+03  0.12699999809E+01 0.  1.
</event>
<event>
 5   0  0.3815269E-03  0.8960272E+03  0.7818609E-02  0.9430561E-01
       -2   -1    0    0    0  501  0.00000000000E+00  0.00000000000E+00  0.21194445206E+03  0.21194445207E+03  0.25500000920E-02 0.  1.
        2   -1    0    0  501    0  0.00000000000E+00  0.00000000000E+00 -0.94702267712E+03  0.94702267712E+03  0.25500000920E-02 0. -1.
    10030    2    1    2    0    0  0.00000000000E+00  0.00000000000E+00 -0.73507822506E+03  0.11589671292E+04  0.89602723708E+03 0.  0.
        5    1    3    3  502    0  0.24421211099E+03  0.23577484952E+01  0.11823560767E+03  0.27137955533E+03  0.46999998093E+01 0.  1.
       -5    1    3    3    0  502 -0.24421211099E+03 -0.23577484952E+01 -0.85331383273E+03  0.88758757386E+03  0.46999998093E+01 0. -1.
</event>
<event>
 5   0  0.3685879E-03  0.8972300E+03  0.7818609E-02  0.9429051E-01
        2   -1    0    0  501    0  0.00000000000E+00  0.00000000000E+00  0.36453035420E+03  0.36453035421E+03  0.25500000920E-02 0. -1.
       -2   -1    0    0    0  501  0.00000000000E+00  0.00000000000E+00 -0.55209505068E+03  0.55209505068E+03  0.25500000920E-02 0.  1.
    10030    2    1    2    0    0  0.00000000000E+00  0.00000000000E+00 -0.18756469648E+03  0.91662540489E+03  0.89722996914E+03 0.  0.
        1    1    3    3  502    0 -0.41650080942E+03  0.13554466781E+03 -0.19288511326E+03  0.47859162985E+03  0.50400001928E-02 0.  1.
       -1    1    3    3    0  502  0.41650080942E+03 -0.13554466781E+03  0.53204167770E+01  0.43803377504E+03  0.50400001928E-02 0. -1.
</event>
<event>
 5   0  0.3685879E-03  0.8992224E+03  0.7818609E-02  0.9426554E-01
        2   -1    0    0  501    0  0.00000000000E+00  0.00000000000E+00  0.64219206302E+03  0.64219206303E+03  0.25500000920E-02 0. -1.
       -2   -1    0    0    0  501  0.00000000000E+00  0.00000000000E+00 -0.31478156516E+03  0.31478156517E+03  0.25500000920E-02 0.  1.
    10030    2    1    2    0    0  0.00000000000E+00  0.00000000000E+00  0.32741049787E+03  0.95697362820E+03  0.89922238126E+03 0.  0.
        1    1    3    3  502    0 -0.24532795596E+03  0.24127719394E+02 -0.23645167610E+03  0.34158066101E+03  0.50400001928E-02 0.  1.
       -1    1    3    3    0  502  0.24532795596E+03 -0.24127719394E+02  0.56386217396E+03  0.61539296719E+03  0.50400001928E-02 0. -1.
</event>
<event>
 5   0  0.2134145E-03  0.8907184E+03  0.7818609E-02  0.9437259E-01
       -1   -1    0    0    0  501  0.00000000000E+00  0.00000000000E+00  0.10071675121E+03  0.10071675134E+03  0.50400001928E-02 0. -1.
        1   -1    0    0  501    0  0.00000000000E+00  0.00000000000E+00 -0.19693330896E+04  0.19693330896E+04  0.50400001928E-02 0.  1.
    10030    2    1    2    0    0  0.00000000000E+00  0.00000000000E+00 -0.18686163383E+04  0.20700498409E+04  0.89071843130E+03 0.  0.
        1    1    3    3  502    0  0.18444074570E+03  0.89747434596E+02 -0.15593340445E+02  0.20570887920E+03  0.50400001928E-02 0. -1.
       -1    1    3    3    0  502 -0.18444074570E+03 -0.89747434596E+02 -0.18530229979E+04  0.18643409617E+04  0.50400001928E-02 0.  1.
</event>
<event>
 5   0  0.2074970E-03  0.9014507E+03  0.7818609E-02  0.9423770E-01
        1   -1    0    0  501    0  0.00000000000E+00  0.00000000000E+00  0.27463390524E+03  0.27463390529E+03  0.50400001928E-02 0. -1.
       -1   -1    0    0    0  501  0.00000000000E+00  0.00000000000E+00 -0.73972415816E+03  0.73972415817E+03  0.50400001928E-02 0.  1.
    10030    2    1    2    0    0  0.00000000000E+00  0.00000000000E+00 -0.46509025291E+03  0.10143580635E+04  0.90145068504E+03 0.  0.
        2    1    3    3  502    0  0.73624751078E+02  0.22024557179E+03 -0.66722501944E+03  0.70648279698E+03  0.25500000920E-02 0.  1.
       -2    1    3    3    0  502 -0.73624751078E+02 -0.22024557179E+03  0.20213476653E+03  0.30787526648E+03  0.25500000920E-02 0. -1.
</event>
<event>
 5   0  0.3685879E-03  0.8817617E+03  0.7818609E-02  0.9448672E-01
        2   -1    0    0  501    0  0.00000000000E+00  0.00000000000E+00  0.54925709267E+03  0.54925709267E+03  0.25500000920E-02 0.  1.
       -2   -1    0    0    0  501  0.00000000000E+00  0.00000000000E+00 -0.35388878028E+03  0.35388878029E+03  0.25500000920E-02 0. -1.
    10030    2    1    2    0    0  0.00000000000E+00  0.00000000000E+00  0.19536831239E+03  0.90314587297E+03  0.88176169704E+03 0.  0.
        1    1    3    3  502    0  0.62726949863E+02 -0.26071476749E+03 -0.26075864990E+03  0.37403466918E+03  0.50400001928E-02 0. -1.
       -1    1    3    3    0  502 -0.62726949863E+02  0.26071476749E+03  0.45612696228E+03  0.52911120379E+03  0.50400001928E-02 0.  1.
</event>
<event>
 5   0  0.2129280E-03  0.8997711E+03  0.7818609E-02  0.9425868E-01
       -1   -1    0    0    0  501  0.00000000000E+00  0.00000000000E+00  0.53660404092E+03  0.53660404095E+03  0.50400001928E-02 0.  1.
        1   -1    0    0  501    0  0.00000000000E+00  0.00000000000E+00 -0.37718132233E+03  0.37718132236E+03  0.50400001928E-02 0. -1.
    10030    2    1    2    0    0  0.00000000000E+00  0.00000000000E+00  0.15942271860E+03  0.91378536330E+03  0.89977113034E+03 0.  0.
        3    1    3    3  502    0 -0.79557723074E+02 -0.44227154998E+03  0.57848017375E+02  0.45307831392E+03  0.10100000352E+00 0.  1.
       -3    1    3    3    0  502  0.79557723074E+02  0.44227154998E+03  0.10157470122E+03  0.46070704939E+03  0.10100000352E+00 0. -1.
</event>
<event>
 5   0  0.3815269E-03  0.8998193E+03  0.7818609E-02  0.9425807E-01
        2   -1    0    0  501    0  0.00000000000E+00  0.00000000000E+00  0.96725938903E+03  0.96725938903E+03  0.25500000920E-02 0.  1.
       -2   -1    0    0    0  501  0.00000000000E+00  0.00000000000E+00 -0.20927032533E+03  0.20927032534E+03  0.25500000920E-02 0. -1.
    10030    2    1    2    0    0  0.00000000000E+00  0.00000000000E+00  0.75798906370E+03  0.11765297144E+04  0.89981928636E+03 0.  0.
        5    1    3    3  502    0 -0.17112570872E+02 -0.27084833467E+03  0.84814556983E+03  0.89051931933E+03  0.46999998093E+01 0.  1.
       -5    1    3    3    0  502  0.17112570872E+02  0.27084833467E+03 -0.90156506134E+02  0.28601039504E+03  0.46999998093E+01 0. -1.
</event>
<event>
 5   0  0.2129280E-03  0.8989189E+03  0.7818609E-02  0.9426934E-01
        1   -1    0    0  501    0  0.00000000000E+00  0.00000000000E+00  0.59061145987E+03  0.59061145990E+03  0.50400001928E-02 0.  1.
       -1   -1    0    0    0  501  0.00000000000E+00  0.00000000000E+00 -0.34204177360E+03  0.34204177364E+03  0.50400001928E-02 0. -1.
    10030    2    1    2    0    0  0.00000000000E+00  0.00000000000E+00  0.24856968627E+03  0.93265323353E+03  0.89891888682E+03 0.  0.
        3    1    3    3  502    0 -0.40350290376E+03  0.19389324971E+03  0.16584550669E+03  0.47740331787E+03  0.10100000352E+00 0.  1.
       -3    1    3    3    0  502  0.40350290376E+03 -0.19389324971E+03  0.82724179579E+02  0.45524991566E+03  0.10100000352E+00 0. -1.
</event>
<event>
 5   0  0.3806019E-03  0.8990641E+03  0.7818609E-02  0.9426752E-01
        2   -1    0    0  501    0  0.00000000000E+00  0.00000000000E+00  0.26335185317E+03  0.26335185319E+03  0.25500000920E-02 0. -1.
       -2   -1    0    0    0  501  0.00000000000E+00  0.00000000000E+00 -0.76733484835E+03  0.76733484835E+03  0.25500000920E-02 0.  1.
    10030    2    1    2    0    0  0.00000000000E+00  0.00000000000E+00 -0.50398299518E+03  0.10306867015E+04  0.89906407853E+03 0.  0.
        2    1    3    3  502    0 -0.13217744963E+03 -0.31440312529E+03  0.83727179578E+02  0.35118434474E+03  0.25500000920E-02 0. -1.
       -2    1    3    3    0  502  0.13217744963E+03  0.31440312529E+03 -0.58771017475E+03  0.67950235680E+03  0.25500000920E-02 0.  1.
</event>
<event>
 5   0  0.2295158E-03  0.9124102E+03  0.7818609E-02  0.9410200E-01
        1   -1    0    0  501    0  0.00000000000E+00  0.00000000000E+00  0.11113681618E+04  0.11113681618E+04  0.50400001928E-02 0. -1.
       -1   -1    0    0    0  501  0.00000000000E+00  0.00000000000E+00 -0.18726746616E+03  0.18726746623E+03  0.50400001928E-02 0.  1.
    10030    2    1    2    0    0  0.00000000000E+00  0.00000000000E+00  0.92410069566E+03  0.12986356281E+04  0.91241021408E+03 0.  0.
        4    1    3    3  502    0  0.24299832564E+03 -0.22957983746E+02 -0.86514525271E+02  0.25896260592E+03  0.12699999809E+01 0.  1.
       -4    1    3    3    0  502 -0.24299832564E+03  0.22957983746E+02  0.10106152209E+04  0.10396730221E+04  0.12699999809E+01 0. -1.
</event>
<event>
 5   0  0.2130975E-03  0.9002919E+03  0.7818609E-02  0.9425217E-01
        1   -1    0    0  501    0  0.00000000000E+00  0.00000000000E+00  0.65492044195E+03  0.65492044197E+03  0.50400001928E-02 0.  1.
       -1   -1    0    0    0  501  0.00000000000E+00  0.00000000000E+00 -0.30939846870E+03  0.30939846874E+03  0.50400001928E-02 0. -1.
    10030    2    1    2    0    0  0.00000000000E+00  0.00000000000E+00  0.34552197325E+03  0.96431891071E+03  0.90029191241E+03 0.  0.
        5    1    3    3  502    0 -0.29562347397E+03 -0.99906455110E+02  0.52023067868E+03  0.60666019086E+03  0.46999998093E+01 0.  1.
       -5    1    3    3    0  502  0.29562347397E+03  0.99906455110E+02 -0.17470870543E+03  0.35765871985E+03  0.46999998093E+01 0. -1.
</event>
<event>
 5   0  0.2134145E-03  0.9006546E+03  0.7818609E-02  0.9424763E-01
        1   -1    0    0  501    0  0.00000000000E+00  0.00000000000E+00  0.11891595670E+04  0.11891595670E+04  0.50400001928E-02 0.  1.
       -1   -1    0    0    0  501  0.00000000000E+00  0.00000000000E+00 -0.17053614806E+03  0.17053614813E+03  0.50400001928E-02 0. -1.
    10030    2    1    2    0    0  0.00000000000E+00  0.00000000000E+00  0.10186234189E+04  0.13596957151E+04  0.90065463312E+03 0.  0.
        1    1    3    3  502    0 -0.18218770223E+03 -0.10043281221E+02 -0.11222984617E+03  0.21421663040E+03  0.50400001928E-02 0. -1.
       -1    1    3    3    0  502  0.18218770223E+03  0.10043281221E+02  0.11308532651E+04  0.11454790847E+04  0.50400001928E-02 0.  1.
</event>
<event>
 5   0  0.2074970E-03  0.8998717E+03  0.7818609E-02  0.9425742E-01
       -1   -1    0    0    0  501  0.00000000000E+00  0.00000000000E+00  0.16939818901E+03  0.16939818908E+03  0.50400001928E-02 0. -1.
        1   -1    0    0  501    0  0.00000000000E+00  0.00000000000E+00 -0.11950675088E+04  0.11950675089E+04  0.50400001928E-02 0.  1.
    10030    2    1    2    0    0  0.00000000000E+00  0.00000000000E+00 -0.10256693198E+04  0.13644656979E+04  0.89987170597E+03 0.  0.
        2    1    3    3  502    0  0.32275366898E+03 -0.31173052017E+03 -0.46262685406E+03  0.64449162458E+03  0.25500000920E-02 0. -1.
       -2    1    3    3    0  502 -0.32275366898E+03  0.31173052017E+03 -0.56304246577E+03  0.71997407336E+03  0.25500000920E-02 0.  1.
</event>
<event>
 5   0  0.3626546E-03  0.9010390E+03  0.7818609E-02  0.9424284E-01
       -2   -1    0    0    0  501  0.00000000000E+00  0.00000000000E+00  0.18955416307E+03  0.18955416308E+03  0.25500000920E-02 0.  1.
        2   -1    0    0  501    0  0.00000000000E+00  0.00000000000E+00 -0.10707642897E+04  0.10707642897E+04  0.25500000920E-02 0. -1.
    10030    2    1    2    0    0  0.00000000000E+00  0.00000000000E+00 -0.88121012661E+03  0.12603184528E+04  0.90103901976E+03 0.  0.
        3    1    3    3  502    0 -0.19235956961E+03 -0.10909371105E+01  0.12922347824E+03  0.23173716080E+03  0.10100000352E+00 0.  1.
       -3    1    3    3    0  502  0.19235956961E+03  0.10909371105E+01 -0.10104336049E+04  0.10285812920E+04  0.10100000352E+00 0. -1.
</event>
<event>
 5   0  0.3685879E-03  0.8916484E+03  0.7818609E-02  0.9436082E-01
        2   -1    0    0  501    0  0.00000000000E+00  0.00000000000E+00  0.19074939424E+03  0.19074939426E+03  0.25500000920E-02 0. -1.
       -2   -1    0    0    0  501  0.00000000000E+00  0.00000000000E+00 -0.10419913355E+04  0.10419913355E+04  0.25500000920E-02 0.  1.
    10030    2    1    2    0    0  0.00000000000E+00  0.00000000000E+00 -0.85124194131E+03  0.12327407298E+04  0.89164839723E+03 0.  0.
        1    1    3    3  502    0 -0.17798432840E+03 -0.27605930535E+03 -0.84238793470E+03  0.90415960636E+03  0.50400001928E-02 0.  1.
       -1    1    3    3    0  502  0.17798432840E+03  0.27605930535E+03 -0.88540066072E+01  0.32858112344E+03  0.50400001928E-02 0. -1.
</event>
<event>
 5   0  0.2074970E-03  0.8871478E+03  0.7818609E-02  0.9441791E-01
       -1   -1    0    0    0  501  0.00000000000E+00  0.00000000000E+00  0.53765108207E+03  0.53765108209E+03  0.50400001928E-02 0.  1.
        1   -1    0    0  501    0  0.00000000000E+00  0.00000000000E+00 -0.36595814994E+03  0.36595814998E+03  0.50400001928E-02 0. -1.
    10030    2    1    2    0    0  0.00000000000E+00  0.00000000000E+00  0.17169293212E+03  0.90360923206E+03  0.88714777874E+03 0.  0.
        2    1    3    3  502    0 -0.60815065474E+02  0.60894182654E+02 -0.35737291776E+03  0.36758941229E+03  0.25500000920E-02 0. -1.
       -2    1    3    3    0  502  0.60815065474E+02 -0.60894182654E+02  0.52906584989E+03  0.53601981978E+03  0.25500000920E-02 0.  1.
</event>
<event>
 5   0  0.2295158E-03  0.8999392E+03  0.7818609E-02  0.9425657E-01
        1   -1    0    0  501    0  0.00000000000E+00  0.00000000000E+00  0.52867828603E+03  0.52867828605E+03  0.50400001928E-02 0.  1.
       -1   -1    0    0    0  501  0.00000000000E+00  0.00000000000E+00 -0.38297892250E+03  0.38297892253E+03  0.50400001928E-02 0. -1.
    10030    2    1    2    0    0  0.00000000000E+00  0.00000000000E+00  0.14569936353E+03  0.91165720858E+03  0.89993919874E+03 0.  0.
        4    1    3    3  502    0  0.32418640211E+03  0.12530461910E+03 -0.21665629912E+03  0.40956029560E+03  0.12699999809E+01 0. -1.
       -4    1    3    3    0  502 -0.32418640211E+03 -0.12530461910E+03  0.36235566265E+03  0.50209691299E+03  0.12699999809E+01 0.  1.
</event>
<event>
 5   0  0.2129280E-03  0.8982844E+03  0.7818609E-02  0.9427729E-01
        1   -1    0    0  501    0  0.00000000000E+00  0.00000000000E+00  0.30918604469E+03  0.30918604473E+03  0.50400001928E-02 0. -1.
       -1   -1    0    0    0  501  0.00000000000E+00  0.00000000000E+00 -0.65245094487E+03  0.65245094489E+03  0.50400001928E-02 0.  1.
    10030    2    1    2    0    0  0.00000000000E+00  0.00000000000E+00 -0.34326490018E+03  0.96163698962E+03  0.89828442495E+03 0.  0.
        3    1    3    3  502    0 -0.16027148224E+03 -0.15431747225E+03 -0.58931314191E+03  0.62991334300E+03  0.10100000352E+00 0.  1.
       -3    1    3    3    0  502  0.16027148224E+03  0.15431747225E+03  0.24604824173E+03  0.33172364661E+03  0.10100000352E+00 0. -1.
</event>
<event>
 5   0  0.2295158E-03  0.8979455E+03  0.7818609E-02  0.9428153E-01
       -1   -1    0    0    0  501  0.00000000000E+00  0.00000000000E+00  0.67814120798E+03  0.67814120800E+03  0.50400001928E-02 0.  1.
        1   -1    0    0  501    0  0.00000000000E+00  0.00000000000E+00 -0.29724863976E+03  0.29724863981E+03  0.50400001928E-02 0. -1.
    10030    2    1    2    0    0  0.00000000000E+00  0.00000000000E+00  0.38089256821E+03  0.97538984780E+03  0.89794554772E+03 0.  0.
        4    1    3    3  502    0  0.20115936383E+03  0.10049289809E+03 -0.23167044038E+03  0.32285711711E+03  0.12699999809E+01 0. -1.
       -4    1    3    3    0  502 -0.20115936383E+03 -0.10049289809E+03  0.61256300859E+03  0.65253273069E+03  0.12699999809E+01 0.  1.
</event>
<event>
 5   0  0.3806019E-03  0.8987095E+03  0.7818609E-02  0.9427196E-01
       -2   -1    0    0    0  501  0.00000000000E+00  0.00000000000E+00  0.60677422466E+03  0.60677422467E+03  0.25500000920E-02 0. -1.
        2   -1    0    0  501    0  0.00000000000E+00  0.00000000000E+00 -0.33277562550E+03  0.33277562551E+03  0.25500000920E-02 0.  1.
    10030    2    1    2    0    0  0.00000000000E+00  0.00000000000E+00  0.27399859916E+03  0.93954985017E+03  0.89870945729E+03 0.  0.
        2    1    3    3  502    0  0.23649510080E+02  0.43056816064E+03  0.26912047913E+03  0.50830509792E+03  0.25500000920E-02 0.  1.
       -2    1    3    3    0  502 -0.23649510080E+02 -0.43056816064E+03  0.48781200331E+01  0.43124475225E+03  0.25500000920E-02 0. -1.
</event>
<event>
 5   0  0.3685879E-03  0.8999732E+03  0.7818609E-02  0.9425615E-01
       -2   -1    0    0    0  501  0.00000000000E+00  0.00000000000E+00  0.29385518442E+03  0.29385518443E+03  0.25500000920E-02 0. -1.
        2   -1    0    0  501    0  0.00000000000E+00  0.00000000000E+00 -0.68907383490E+03  0.68907383490E+03  0.25500000920E-02 0.  1.
    10030    2    1    2    0    0  0.00000000000E+00  0.00000000000E+00 -0.39521865048E+03  0.98292901933E+03  0.89997315257E+03 0.  0.
        1    1    3    3  502    0  0.43076711784E+03 -0.88426018115E+02 -0.93374029650E+02  0.44955331156E+03  0.50400001928E-02 0. -1.
       -1    1    3    3    0  502 -0.43076711784E+03  0.88426018115E+02 -0.30184462083E+03  0.53337570777E+03  0.50400001928E-02 0.  1.
</event>
<event>
 5   0  0.1436000E-03  0.8989908E+03  0.7818609E-02  0.9426844E-01
       -3   -1    0    0    0  501  0.00000000000E+00  0.00000000000E+00  0.37044076133E+03  0.37044077510E+03  0.10100000352E+00 0.  1.
        3   -1    0    0  501    0  0.00000000000E+00  0.00000000000E+00 -0.54542087282E+03  0.54542088217E+03  0.10100000352E+00 0. -1.
    10030    2    1    2    0    0  0.00000000000E+00  0.00000000000E+00 -0.17498011149E+03  0.91586165727E+03  0.89899084303E+03 0.  0.
        3    1    3    3  502    0  0.27545323740E+03  0.20701464809E+03  0.20657289389E+03  0.40174857960E+03  0.10100000352E+00 0.  1.
       -3    1    3    3    0  502 -0.27545323740E+03 -0.20701464809E+03 -0.38155300538E+03  0.51411307767E+03  0.10100000352E+00 0. -1.
</event>
<event>
 5   0  0.2134145E-03  0.8805803E+03  0.7818609E-02  0.9450188E-01
       -1   -1    0    0    0  501  0.00000000000E+00  0.00000000000E+00  0.35272537915E+03  0.35272537919E+03  0.50400001928E-02 0.  1.
        1   -1    0    0  501    0  0.00000000000E+00  0.00000000000E+00 -0.54959305655E+03  0.54959305657E+03  0.50400001928E-02 0. -1.
    10030    2    1    2    0    0  0.00000000000E+00  0.00000000000E+00 -0.19686767740E+03  0.90231843576E+03  0.88058030702E+03 0.  0.
        1    1    3    3  502    0  0.38303906440E+03  0.11567461621E+03 -0.28669709379E+03  0.49223446172E+03  0.50400001928E-02 0. -1.
       -1    1    3    3    0  502 -0.38303906440E+03 -0.11567461621E+03  0.89829416391E+02  0.41008397404E+03  0.50400001928E-02 0.  1.
</event>
<event>
 5   0  0.3806019E-03  0.8859836E+03  0.7818609E-02  0.9443274E-01
        2   -1    0    0  501    0  0.00000000000E+00  0.00000000000E+00  0.19960392373E+04  0.19960392373E+04  0.25500000920E-02 0. -1.
       -2   -1    0    0    0  501  0.00000000000E+00  0.00000000000E+00 -0.98315564567E+02  0.98315564600E+02  0.25500000920E-02 0.  1.
    10030    2    1    2    0    0  0.00000000000E+00  0.00000000000E+00  0.18977236727E+04  0.20943548019E+04  0.88598357671E+03 0.  0.
        2    1    3    3  502    0 -0.44143005000E+03 -0.21656208207E+02  0.87746480936E+03  0.98248357343E+03  0.25500000920E-02 0.  1.
       -2    1    3    3    0  502  0.44143005000E+03  0.21656208207E+02  0.10202588634E+04  0.11118712285E+04  0.25500000920E-02 0. -1.
</event>
<event>
 5   0  0.2129280E-03  0.8999297E+03  0.7818609E-02  0.9425669E-01
       -1   -1    0    0    0  501  0.00000000000E+00  0.00000000000E+00  0.52396318137E+03  0.52396318140E+03  0.50400001928E-02 0.  1.
        1   -1    0    0  501    0  0.00000000000E+00  0.00000000000E+00 -0.38641713031E+03  0.38641713035E+03  0.50400001928E-02 0. -1.
    10030    2    1    2    0    0  0.00000000000E+00  0.00000000000E+00  0.13754605106E+03  0.91038031174E+03  0.89992966161E+03 0.  0.
        3    1    3    3  502    0 -0.40335238947E+03 -0.17718565947E+03  0.16138080297E+03  0.46918192823E+03  0.10100000352E+00 0.  1.
       -3    1    3    3    0  502  0.40335238947E+03  0.17718565947E+03 -0.23834751907E+02  0.44119838351E+03  0.10100000352E+00 0. -1.
</event>
<event>
 5   0  0.3685879E-03  0.9017264E+03  0.7818609E-02  0.9423426E-01
       -2   -1    0    0    0  501  0.00000000000E+00  0.00000000000E+00  0.44242390885E+03  0.44242390886E+03  0.25500000920E-02 0.  1.
        2   -1    0    0  501    0  0.00000000000E+00  0.00000000000E+00 -0.45946350655E+03  0.45946350655E+03  0.25500000920E-02 0. -1.
    10030    2    1    2    0    0  0.00000000000E+00  0.00000000000E+00 -0.17039597691E+02  0.90188741541E+03  0.90172643423E+03 0.  0.
        1    1    3    3  502    0  0.34414343973E+03 -0.11314290303E+03 -0.27697341073E+03  0.45601567286E+03  0.50400001928E-02 0. -1.
       -1    1    3    3    0  502 -0.34414343973E+03  0.11314290303E+03  0.25993381304E+03  0.44587174255E+03  0.50400001928E-02 0.  1.
</event>
<event>
 5   0  0.2129280E-03  0.9044830E+03  0.7818609E-02  0.9419995E-01
       -1   -1    0    0    0  501  0.00000000000E+00  0.00000000000E+00  0.31078538410E+03  0.31078538414E+03  0.50400001928E-02 0. -1.
        1   -1    0    0  501    0  0.00000000000E+00  0.00000000000E+00 -0.65808238898E+03  0.65808238900E+03  0.50400001928E-02 0.  1.
    10030    2    1    2    0    0  0.00000000000E+00  0.00000000000E+00 -0.34729700488E+03  0.96886777314E+03  0.90448303038E+03 0.  0.
        3    1    3    3  502    0  0.40541575191E+03  0.64155274604E+01 -0.38820451539E+03  0.56134289598E+03  0.10100000352E+00 0.  1.
       -3    1    3    3    0  502 -0.40541575191E+03 -0.64155274604E+01  0.40907510510E+02  0.40752487717E+03  0.10100000352E+00 0. -1.
</event>
<event>
 5   0  0.3815269E-03  0.8863808E+03  0.7818609E-02  0.9442768E-01
       -2   -1    0    0    0  501  0.00000000000E+00  0.00000000000E+00  0.16595398670E+03  0.16595398672E+03  0.25500000920E-02 0. -1.
        2   -1    0    0  501    0  0.00000000000E+00  0.00000000000E+00 -0.11835673869E+04  0.11835673869E+04  0.25500000920E-02 0.  1.
    10030    2    1    2    0    0  0.00000000000E+00  0.00000000000E+00 -0.10176134002E+04  0.13495213736E+04  0.88638079040E+03 0.  0.
        5    1    3    3  502    0  0.20663196884E+03 -0.37813869761E+03 -0.66636960866E+03  0.79357179292E+03  0.46999998093E+01 0.  1.
       -5    1    3    3    0  502 -0.20663196884E+03  0.37813869761E+03 -0.35124379151E+03  0.55594958068E+03  0.46999998093E+01 0. -1.
</event>
<event>
 5   0  0.3685879E-03  0.9021244E+03  0.7818609E-02  0.9422930E-01
       -2   -1    0    0    0  501  0.00000000000E+00  0.00000000000E+00  0.99764699439E+02  0.99764699472E+02  0.25500000920E-02 0. -1.
        2   -1    0    0  501    0  0.00000000000E+00  0.00000000000E+00 -0.20393697359E+04  0.20393697359E+04  0.25500000920E-02 0.  1.
    10030    2    1    2    0    0  0.00000000000E+00  0.00000000000E+00 -0.19396050365E+04  0.21391344354E+04  0.90212440115E+03 0.  0.
        1    1    3    3  502    0  0.16516841280E+03 -0.34245626844E+03 -0.39432274397E+03  0.54776575908E+03  0.50400001928E-02 0. -1.
       -1    1    3    3    0  502 -0.16516841280E+03  0.34245626844E+03 -0.15452822925E+04  0.15913686763E+04  0.50400001928E-02 0.  1.
</event>
<event>
 5   0  0.2074970E-03  0.8938963E+03  0.7818609E-02  0.9433244E-01
       -1   -1    0    0    0  501  0.00000000000E+00  0.00000000000E+00  0.25818238248E+03  0.25818238253E+03  0.50400001928E-02 0. -1.
        1   -1    0    0  501    0  0.00000000000E+00  0.00000000000E+00 -0.77372688167E+03  0.77372688168E+03  0.50400001928E-02 0.  1.
    10030    2    1    2    0    0  0.00000000000E+00  0.00000000000E+00 -0.51554449919E+03  0.10319092642E+04  0.89389630210E+03 0.  0.
        2    1    3    3  502    0 -0.15438445066E+03 -0.10776184153E+03  0.21017145207E+03  0.28216876576E+03  0.25500000920E-02 0. -1.
       -2    1    3    3    0  502  0.15438445066E+03  0.10776184153E+03 -0.72571595126E+03  0.74974049845E+03  0.25500000920E-02 0.  1.
</event>
<event>
 5   0  0.3806019E-03  0.9039117E+03  0.7818609E-02  0.9420705E-01
       -2   -1    0    0    0  501  0.00000000000E+00  0.00000000000E+00  0.21880041932E+03  0.21880041934E+03  0.25500000920E-02 0.  1.
        2   -1    0    0  501    0  0.00000000000E+00  0.00000000000E+00 -0.93356354308E+03  0.93356354308E+03  0.25500000920E-02 0. -1.
    10030    2    1    2    0    0  0.00000000000E+00  0.00000000000E+00 -0.71476312376E+03  0.11523639624E+04  0.90391170963E+03 0.  0.
        2    1    3    3  502    0 -0.41802842787E+03 -0.17053903714E+03 -0.38390255115E+03  0.59263184059E+03  0.25500000920E-02 0. -1.
       -2    1    3    3    0  502  0.41802842787E+03  0.17053903714E+03 -0.33086057261E+03  0.55973212183E+03  0.25500000920E-02 0.  1.
</event>
<event>
 5   0  0.3685879E-03  0.8923817E+03  0.7818609E-02  0.9435155E-01
        2   -1    0    0  501    0  0.00000000000E+00  0.00000000000E+00  0.26575149722E+04  0.26575149722E+04  0.25500000920E-02 0. -1.
       -2   -1    0    0    0  501  0.00000000000E+00  0.00000000000E+00 -0.74914449086E+02  0.74914449130E+02  0.25500000920E-02 0.  1.
    10030    2    1    2    0    0  0.00000000000E+00  0.00000000000E+00  0.25826005231E+04  0.27324294213E+04  0.89238168996E+03 0.  0.
        1    1    3    3  502    0 -0.36627242454E+03 -0.20203814771E+03  0.17667550526E+04  0.18155986115E+04  0.50400001928E-02 0. -1.
       -1    1    3    3    0  502  0.36627242454E+03  0.20203814771E+03  0.81584547054E+03  0.91683080987E+03  0.50400001928E-02 0.  1.
</event>
<event>
 5   0  0.2074970E-03  0.9071068E+03  0.7818609E-02  0.9416741E-01
       -1   -1    0    0    0  501  0.00000000000E+00  0.00000000000E+00  0.24502005096E+04  0.24502005096E+04  0.50400001928E-02 0.  1.
        1   -1    0    0  501    0  0.00000000000E+00  0.00000000000E+00 -0.83956671428E+02  0.83956671579E+02  0.50400001928E-02 0. -1.
    10030    2    1    2    0    0  0.00000000000E+00  0.00000000000E+00  0.23662438382E+04  0.25341571812E+04  0.90710678382E+03 0.  0.
        2    1    3    3  502    0  0.21384414002E+03 -0.18540789633E+03  0.21732219479E+04  0.21915745570E+04  0.25500000920E-02 0.  1.
       -2    1    3    3    0  502 -0.21384414002E+03  0.18540789633E+03  0.19302189030E+03  0.34258262417E+03  0.25500000920E-02 0. -1.
</event>
<event>
 5   0  0.2295158E-03  0.9073338E+03  0.7818609E-02  0.9416460E-01
        1   -1    0    0  501    0  0.00000000000E+00  0.00000000000E+00  0.10830900397E+04  0.10830900397E+04  0.50400001928E-02 0.  1.
       -1   -1    0    0    0  501  0.00000000000E+00  0.00000000000E+00 -0.19002450915E+03  0.19002450922E+03  0.50400001928E-02 0. -1.
    10030    2    1    2    0    0  0.00000000000E+00  0.00000000000E+00  0.89306553050E+03  0.12731145489E+04  0.90733379350E+03 0.  0.
        4    1    3    3  502    0  0.31495273216E+03 -0.32411977770E+03  0.39105668149E+03  0.59764186167E+03  0.12699999809E+01 0.  1.
       -4    1    3    3    0  502 -0.31495273216E+03  0.32411977770E+03  0.50200884901E+03  0.67547268721E+03  0.12699999809E+01 0. -1.
</event>
<event>
 5   0  0.3815269E-03  0.9006824E+03  0.7818609E-02  0.9424729E-01
       -2   -1    0    0    0  501  0.00000000000E+00  0.00000000000E+00  0.39227460106E+03  0.39227460107E+03  0.25500000920E-02 0.  1.
        2   -1    0    0  501    0  0.00000000000E+00  0.00000000000E+00 -0.51700312514E+03  0.51700312515E+03  0.25500000920E-02 0. -1.
    10030    2    1    2    0    0  0.00000000000E+00  0.00000000000E+00 -0.12472852409E+03  0.90927772621E+03  0.90068239611E+03 0.  0.
        5    1    3    3  502    0 -0.11192918797E+02 -0.36837887578E+03  0.19886529315E+03  0.41880517234E+03  0.46999998093E+01 0.  1.
       -5    1    3    3    0  502  0.11192918797E+02  0.36837887578E+03 -0.32359381724E+03  0.49047255388E+03  0.46999998093E+01 0. -1.
</event>
<event>
 5   0  0.2129280E-03  0.9008740E+03  0.7818609E-02  0.9424490E-01
        1   -1    0    0  501    0  0.00000000000E+00  0.00000000000E+00  0.25976759178E+03  0.25976759183E+03  0.50400001928E-02 0. -1.
       -1   -1    0    0    0  501  0.00000000000E+00  0.00000000000E+00 -0.78105774533E+03  0.78105774535E+03  0.50400001928E-02 0.  1.
    10030    2    1    2    0    0  0.00000000000E+00  0.00000000000E+00 -0.52129015355E+03  0.10408253372E+04  0.90087399692E+03 0.  0.
        3    1    3    3  502    0  0.10991914786E+03  0.21969628354E+03  0.17555877773E+03  0.30194299248E+03  0.10100000352E+00 0. -1.
       -3    1    3    3    0  502 -0.10991914786E+03 -0.21969628354E+03 -0.69684893128E+03  0.73888234469E+03  0.10100000352E+00 0.  1.
</event>
<event>
 5   0  0.2129280E-03  0.8921834E+03  0.7818609E-02  0.9435406E-01
       -1   -1    0    0    0  501  0.00000000000E+00  0.00000000000E+00  0.51993008220E+03  0.51993008223E+03  0.50400001928E-02 0. -1.
        1   -1    0    0  501    0  0.00000000000E+00  0.00000000000E+00 -0.38273956396E+03  0.38273956399E+03  0.50400001928E-02 0.  1.
    10030    2    1    2    0    0  0.00000000000E+00  0.00000000000E+00  0.13719051825E+03  0.90266964622E+03  0.89218341831E+03 0.  0.
        3    1    3    3  502    0  0.58894802760E+02  0.19408022252E+03  0.47058372400E+03  0.51243027044E+03  0.10100000352E+00 0. -1.
       -3    1    3    3    0  502 -0.58894802760E+02 -0.19408022252E+03 -0.33339320575E+03  0.39023937578E+03  0.10100000352E+00 0.  1.
</event>
<event>
 5   0  0.3626546E-03  0.8678109E+03  0.7818609E-02  0.9466739E-01
       -2   -1    0    0    0  501  0.00000000000E+00  0.00000000000E+00  0.46452420229E+03  0.46452420230E+03  0.25500000920E-02 0. -1.
        2   -1    0    0  501    0  0.00000000000E+00  0.00000000000E+00 -0.40530489563E+03  0.40530489564E+03  0.25500000920E-02 0.  1.
    10030    2    1    2    0    0  0.00000000000E+00  0.00000000000E+00  0.59219306657E+02  0.86982909793E+03  0.86781088570E+03 0.  0.
        3    1    3    3  502    0  0.28731776333E+03 -0.87862726033E+02 -0.28417201286E+03  0.41355180914E+03  0.10100000352E+00 0.  1.
       -3    1    3    3    0  502 -0.28731776333E+03  0.87862726033E+02  0.34339131951E+03  0.45627728879E+03  0.10100000352E+00 0. -1.
</event>
<event>
 5   0  0.3815269E-03  0.8931919E+03  0.7818609E-02  0.9434132E-01
        2   -1    0    0  501    0  0.00000000000E+00  0.00000000000E+00  0.11929419628E+04  0.11929419628E+04  0.25500000920E-02 0. -1.
       -2   -1    0    0    0  501  0.00000000000E+00  0.00000000000E+00 -0.16718999306E+03  0.16718999308E+03  0.25500000920E-02 0.  1.
    10030    2    1    2    0    0  0.00000000000E+00  0.00000000000E+00  0.10257519698E+04  0.13601319559E+04  0.89319193571E+03 0.  0.
        5    1    3    3  502    0 -0.26836782848E+03  0.18998431622E+03  0.97302309498E+03  0.10270887815E+04  0.46999998093E+01 0. -1.
       -5    1    3    3    0  502  0.26836782848E+03 -0.18998431622E+03  0.52728874783E+02  0.33304317439E+03  0.46999998093E+01 0.  1.
</event>
<event>
 5   0  0.2130975E-03  0.8993781E+03  0.7818609E-02  0.9426359E-01
        1   -1    0    0  501    0  0.00000000000E+00  0.00000000000E+00  0.11541181923E+04  0.11541181923E+04  0.50400001928E-02 0.  1.
       -1   -1    0    0    0  501  0.00000000000E+00  0.00000000000E+00 -0.17521624322E+03  0.17521624329E+03  0.50400001928E-02 0. -1.
    10030    2    1    2    0    0  0.00000000000E+00  0.00000000000E+00  0.97890194904E+03  0.13293344356E+04  0.89937812723E+03 0.  0.
        5    1    3    3  502    0  0.29502746289E+03  0.32739236150E+03  0.62141447678E+03  0.76184316245E+03  0.46999998093E+01 0. -1.
       -5    1    3    3    0  502 -0.29502746289E+03 -0.32739236150E+03  0.35748747226E+03  0.56749127311E+03  0.46999998093E+01 0.  1.
</event>
<event>
 5   0  0.2074970E-03  0.8986875E+03  0.7818609E-02  0.9427224E-01
        1   -1    0    0  501    0  0.00000000000E+00  0.00000000000E+00  0.19402501755E+04  0.19402501755E+04  0.50400001928E-02 0.  1.
       -1   -1    0    0    0  501  0.00000000000E+00  0.00000000000E+00 -0.10406380752E+03  0.10406380765E+03  0.50400001928E-02 0. -1.
    10030    2    1    2    0    0  0.00000000000E+00  0.00000000000E+00  0.18361863679E+04  0.20443139831E+04  0.89868753399E+03 0.  0.
        2    1    3    3  502    0 -0.24192374278E+03 -0.20819940409E+03  0.16375694273E+04  0.16683847633E+04  0.25500000920E-02 0.  1.
       -2    1    3    3    0  502  0.24192374278E+03  0.20819940409E+03  0.19861694061E+03  0.37592921979E+03  0.25500000920E-02 0. -1.
</event>
<event>
 5   0  0.3663255E-03  0.8998353E+03  0.7818609E-02  0.9425787E-01
       -2   -1    0    0    0  501  0.00000000000E+00  0.00000000000E+00  0.19314237255E+03  0.19314237257E+03  0.25500000920E-02 0.  1.
        2   -1    0    0  501    0  0.00000000000E+00  0.00000000000E+00 -0.10480656294E+04  0.10480656294E+04  0.25500000920E-02 0. -1.
    10030    2    1    2    0    0  0.00000000000E+00  0.00000000000E+00 -0.85492325687E+03  0.12412080020E+04  0.89983527886E+03 0.  0.
        4    1    3    3  502    0 -0.93068958348E+02  0.43968662615E+03 -0.45633335201E+03  0.64049036002E+03  0.12699999809E+01 0. -1.
       -4    1    3    3    0  502  0.93068958348E+02 -0.43968662615E+03 -0.39858990487E+03  0.60071764198E+03  0.12699999809E+01 0.  1.
</event>
<event>
 5   0  0.3815269E-03  0.9178779E+03  0.7818609E-02  0.9403505E-01
        2   -1    0    0  501    0  0.00000000000E+00  0.00000000000E+00  0.82219476256E+03  0.82219476257E+03  0.25500000920E-02 0.  1.
       -2   -1    0    0    0  501  0.00000000000E+00  0.00000000000E+00 -0.25617405982E+03  0.25617405983E+03  0.25500000920E-02 0. -1.
    10030    2    1    2    0    0  0.00000000000E+00  0.00000000000E+00  0.56602070274E+03  0.10783688224E+04  0.91787792281E+03 0.  0.
        5    1    3    3  502    0  0.30567102033E+03  0.22055273663E+03  0.59055321023E+03  0.70060935365E+03  0.46999998093E+01 0.  1.
       -5    1    3    3    0  502 -0.30567102033E+03 -0.22055273663E+03 -0.24532507490E+02  0.37775946875E+03  0.46999998093E+01 0. -1.
</event>
<event>
 5   0  0.2134145E-03  0.9061958E+03  0.7818609E-02  0.9417869E-01
       -1   -1    0    0    0  501  0.00000000000E+00  0.00000000000E+00  0.11530441595E+03  0.11530441606E+03  0.50400001928E-02 0.  1.
        1   -1    0    0  501    0  0.00000000000E+00  0.00000000000E+00 -0.17804842253E+04  0.17804842253E+04  0.50400001928E-02 0. -1.
    10030    2    1    2    0    0  0.00000000000E+00  0.00000000000E+00 -0.16651798093E+04  0.18957886413E+04  0.90619577093E+03 0.  0.
        1    1    3    3  502    0 -0.98374121924E+02 -0.28440764323E+03 -0.15412062227E+04  0.15703126428E+04  0.50400001928E-02 0. -1.
       -1    1    3    3    0  502  0.98374121924E+02  0.28440764323E+03 -0.12397358663E+03  0.32547599850E+03  0.50400001928E-02 0.  1.
</event>
<event>
 5   0  0.3806019E-03  0.9026299E+03  0.7818609E-02  0.9422300E-01
        2   -1    0    0  501    0  0.00000000000E+00  0.00000000000E+00  0.76767241051E+03  0.76767241051E+03  0.25500000920E-02 0.  1.
       -2   -1    0    0    0  501  0.00000000000E+00  0.00000000000E+00 -0.26532824846E+03  0.26532824847E+03  0.25500000920E-02 0. -1.
    10030    2    1    2    0    0  0.00000000000E+00  0.00000000000E+00  0.50234416204E+03  0.10330006590E+04  0.90262988224E+03 0.  0.
        2    1    3    3  502    0  0.32855589848E+03  0.19584989021E+03 -0.22964787659E+02  0.38318864727E+03  0.25500000920E-02 0. -1.
       -2    1    3    3    0  502 -0.32855589848E+03 -0.19584989021E+03  0.52530894970E+03  0.64981201171E+03  0.25500000920E-02 0.  1.
</event>
<event>
 5   0  0.2074970E-03  0.9063678E+03  0.7818609E-02  0.9417656E-01
        1   -1    0    0  501    0  0.00000000000E+00  0.00000000000E+00  0.45348005737E+03  0.45348005739E+03  0.50400001928E-02 0. -1.
       -1   -1    0    0    0  501  0.00000000000E+00  0.00000000000E+00 -0.45288791381E+03  0.45288791384E+03  0.50400001928E-02 0.  1.
    10030    2    1    2    0    0  0.00000000000E+00  0.00000000000E+00  0.59214355483E+00  0.90636797123E+03  0.90636777781E+03 0.  0.
        2    1    3    3  502    0  0.22662106250E+03  0.33118058964E+03  0.21086189797E+03  0.45332155137E+03  0.25500000920E-02 0.  1.
       -2    1    3    3    0  502 -0.22662106250E+03 -0.33118058964E+03 -0.21026975441E+03  0.45304641986E+03  0.25500000920E-02 0. -1.
</event>
<event>
 5   0  0.3685879E-03  0.9012765E+03  0.7818609E-02  0.9423987E-01
        2   -1    0    0  501    0  0.00000000000E+00  0.00000000000E+00  0.86406489063E+03  0.86406489064E+03  0.25500000920E-02 0.  1.
       -2   -1    0    0    0  501  0.00000000000E+00  0.00000000000E+00 -0.23502267690E+03  0.23502267692E+03  0.25500000920E-02 0. -1.
    10030    2    1    2    0    0  0.00000000000E+00  0.00000000000E+00  0.62904221373E+03  0.10990875676E+04  0.90127652499E+03 0.  0.
        1    1    3    3  502    0  0.61124846585E+02  0.19276559800E+03 -0.17658226054E+03  0.26846995625E+03  0.50400001928E-02 0. -1.
       -1    1    3    3    0  502 -0.61124846585E+02 -0.19276559800E+03  0.80562447427E+03  0.83061761131E+03  0.50400001928E-02 0.  1.
</event>
<event>
 5   0  0.2129280E-03  0.8978334E+03  0.7818609E-02  0.9428294E-01
        1   -1    0    0  501    0  0.00000000000E+00  0.00000000000E+00  0.97063771221E+03  0.97063771223E+03  0.50400001928E-02 0.  1.
       -1   -1    0    0    0  501  0.00000000000E+00  0.00000000000E+00 -0.20762247682E+03  0.20762247688E+03  0.50400001928E-02 0. -1.
    10030    2    1    2    0    0  0.00000000000E+00  0.00000000000E+00  0.76301523539E+03  0.11782601891E+04  0.89783340538E+03 0.  0.
        3    1    3    3  502    0  0.28305507552E+03  0.21347524427E+03  0.74289950567E+03  0.82315948723E+03  0.10100000352E+00 0.  1.
       -3    1    3    3    0  502 -0.28305507552E+03 -0.21347524427E+03  0.20115729723E+02  0.35510070188E+03  0.10100000352E+00 0. -1.
</event>
<event>
 5   0  0.2129280E-03  0.8918996E+03  0.7818609E-02  0.9435764E-01
        1   -1    0    0  501    0  0.00000000000E+00  0.00000000000E+00  0.22516047953E+03  0.22516047958E+03  0.50400001928E-02 0. -1.
       -1   -1    0    0    0  501  0.00000000000E+00  0.00000000000E+00 -0.88324219576E+03  0.88324219578E+03  0.50400001928E-02 0.  1.
    10030    2    1    2    0    0  0.00000000000E+00  0.00000000000E+00 -0.65808171624E+03  0.11084026754E+04  0.89189962748E+03 0.  0.
        3    1    3    3  502    0  0.24187831721E+02  0.24361826269E+03  0.13418145832E+03  0.27917661627E+03  0.10100000352E+00 0. -1.
       -3    1    3    3    0  502 -0.24187831721E+02 -0.24361826269E+03 -0.79226317455E+03  0.82922605909E+03  0.10100000352E+00 0.  1.
</event>
<event>
 5   0  0.3663255E-03  0.8994733E+03  0.7818609E-02  0.9426240E-01
       -2   -1    0    0    0  501  0.00000000000E+00  0.00000000000E+00  0.73601615571E+03  0.73601615571E+03  0.25500000920E-02 0.  1.
        2   -1    0    0  501    0  0.00000000000E+00  0.00000000000E+00 -0.27480790211E+03  0.27480790213E+03  0.25500000920E-02 0. -1.
    10030    2    1    2    0    0  0.00000000000E+00  0.00000000000E+00  0.46120825359E+03  0.10108240578E+04  0.89947330295E+03 0.  0.
        4    1    3    3  502    0  0.64615293296E+02 -0.36614802391E+03  0.51495310850E+03  0.63515181523E+03  0.12699999809E+01 0.  1.
       -4    1    3    3    0  502 -0.64615293296E+02  0.36614802391E+03 -0.53744854903E+02  0.37567224261E+03  0.12699999809E+01 0. -1.
</event>
<event>
 5   0  0.3685879E-03  0.8938722E+03  0.7818609E-02  0.9433274E-01
        2   -1    0    0  501    0  0.00000000000E+00  0.00000000000E+00  0.10557862054E+04  0.10557862054E+04  0.25500000920E-02 0.  1.
       -2   -1    0    0    0  501  0.00000000000E+00  0.00000000000E+00 -0.18919727723E+03  0.18919727725E+03  0.25500000920E-02 0. -1.
    10030    2    1    2    0    0  0.00000000000E+00  0.00000000000E+00  0.86658892820E+03  0.12449834827E+04  0.89387219539E+03 0.  0.
        1    1    3    3  502    0 -0.96998668432E+01 -0.29916637823E+03  0.89556342723E+03  0.94426080163E+03  0.50400001928E-02 0.  1.
       -1    1    3    3    0  502  0.96998668432E+01  0.29916637823E+03 -0.28974499028E+02  0.30072268106E+03  0.50400001928E-02 0. -1.
</event>
<event>
 5   0  0.1436000E-03  0.9026309E+03  0.7818609E-02  0.9422299E-01
        4   -1    0    0  501    0  0.00000000000E+00  0.00000000000E+00  0.59422981409E+03  0.59423117122E+03  0.12699999809E+01 0.  1.
       -4   -1    0    0    0  501  0.00000000000E+00  0.00000000000E+00 -0.34276953632E+03  0.34277188906E+03  0.12699999809E+01 0. -1.
    10030    2    1    2    0    0  0.00000000000E+00  0.00000000000E+00  0.25146027776E+03  0.93700306028E+03  0.90263085682E+03 0.  0.
        1    1    3    3  502    0 -0.12606649257E+03 -0.42853257553E+03  0.58834865130E+02  0.45054907638E+03  0.50400001928E-02 0. -1.
       -1    1    3    3    0  502  0.12606649257E+03  0.42853257553E+03  0.19262541263E+03  0.48645398391E+03  0.50400001928E-02 0.  1.
</event>
<event>
 5   0  0.2295158E-03  0.8962416E+03  0.7818609E-02  0.9430292E-01
        1   -1    0    0  501    0  0.00000000000E+00  0.00000000000E+00  0.11251564651E+04  0.11251564651E+04  0.50400001928E-02 0.  1.
       -1   -1    0    0    0  501  0.00000000000E+00  0.00000000000E+00 -0.17847495169E+03  0.17847495176E+03  0.50400001928E-02 0. -1.
    10030    2    1    2    0    0  0.00000000000E+00  0.00000000000E+00  0.94668151339E+03  0.13036314169E+04  0.89624158753E+03 0.  0.
        4    1    3    3  502    0 -0.18309623574E+03 -0.13336461866E+03 -0.89066257911E+02  0.24340247379E+03  0.12699999809E+01 0. -1.
       -4    1    3    3    0  502  0.18309623574E+03  0.13336461866E+03  0.10357477713E+04  0.10602289431E+04  0.12699999809E+01 0.  1.
</event>
<event>
 5   0  0.2130975E-03  0.8993899E+03  0.7818609E-02  0.9426344E-01
       -1   -1    0    0    0  501  0.00000000000E+00  0.00000000000E+00  0.32056790680E+03  0.32056790684E+03  0.50400001928E-02 0.  1.
        1   -1    0    0  501    0  0.00000000000E+00  0.00000000000E+00 -0.63083526080E+03  0.63083526082E+03  0.50400001928E-02 0. -1.
    10030    2    1    2    0    0  0.00000000000E+00  0.00000000000E+00 -0.31026735400E+03  0.95140316766E+03  0.89938988013E+03 0.  0.
        5    1    3    3  502    0 -0.22468821983E+03 -0.15053223574E+03  0.22488963432E+03  0.35177007796E+03  0.46999998093E+01 0.  1.
       -5    1    3    3    0  502  0.22468821983E+03  0.15053223574E+03 -0.53515698832E+03  0.59963308971E+03  0.46999998093E+01 0. -1.
</event>
<event>
 5   0  0.3806019E-03  0.8918432E+03  0.7818609E-02  0.9435836E-01
       -2   -1    0    0    0  501  0.00000000000E+00  0.00000000000E+00  0.32434878230E+03  0.32434878231E+03  0.25500000920E-02 0.  1.
        2   -1    0    0  501    0  0.00000000000E+00  0.00000000000E+00 -0.61306250666E+03  0.61306250666E+03  0.25500000920E-02 0. -1.
    10030    2    1    2    0    0  0.00000000000E+00  0.00000000000E+00 -0.28871372436E+03  0.93741128898E+03  0.89184320935E+03 0.  0.
        2    1    3    3  502    0  0.36487449861E+03  0.16032559577E+03  0.65884014444E+02  0.40395346237E+03  0.25500000920E-02 0.  1.
       -2    1    3    3    0  502 -0.36487449861E+03 -0.16032559577E+03 -0.35459773880E+03  0.53345782660E+03  0.25500000920E-02 0. -1.
</event>
<event>
 5   0  0.2295158E-03  0.9036979E+03  0.7818609E-02  0.9420971E-01
        1   -1    0    0  501    0  0.00000000000E+00  0.00000000000E+00  0.53266201266E+03  0.53266201268E+03  0.50400001928E-02 0.  1.
       -1   -1    0    0    0  501  0.00000000000E+00  0.00000000000E+00 -0.38329647320E+03  0.38329647323E+03  0.50400001928E-02 0. -1.
    10030    2    1    2    0    0  0.00000000000E+00  0.00000000000E+00  0.14936553946E+03  0.91595848591E+03  0.90369789396E+03 0.  0.
        4    1    3    3  502    0  0.36619168851E+03 -0.53248236501E+01  0.34292624009E+03  0.50172176106E+03  0.12699999809E+01 0.  1.
       -4    1    3    3    0  502 -0.36619168851E+03  0.53248236501E+01 -0.19356070063E+03  0.41423672485E+03  0.12699999809E+01 0. -1.
</event>
<event>
 5   0  0.3815269E-03  0.8996328E+03  0.7818609E-02  0.9426041E-01
        2   -1    0    0  501    0  0.00000000000E+00  0.00000000000E+00  0.33061778814E+03  0.33061778815E+03  0.25500000920E-02 0. -1.
       -2   -1    0    0    0  501  0.00000000000E+00  0.00000000000E+00 -0.61199001051E+03  0.61199001052E+03  0.25500000920E-02 0.  1.
    10030    2    1    2    0    0  0.00000000000E+00  0.00000000000E+00 -0.28137222237E+03  0.94260779866E+03  0.89963277763E+03 0.  0.
        5    1    3    3  502    0 -0.43138651457E+03  0.11999735775E+03 -0.95998983063E+02  0.45796461170E+03  0.46999998093E+01 0. -1.
       -5    1    3    3    0  502  0.43138651457E+03 -0.11999735775E+03 -0.18537323931E+03  0.48464318696E+03  0.46999998093E+01 0.  1.
</event>
<event>
 5   0  0.2130975E-03  0.9064254E+03  0.7818609E-02  0.9417585E-01
       -1   -1    0    0    0  501  0.00000000000E+00  0.00000000000E+00  0.19850742810E+03  0.19850742817E+03  0.50400001928E-02 0.  1.
        1   -1    0    0  501    0  0.00000000000E+00  0.00000000000E+00 -0.10347308673E+04  0.10347308674E+04  0.50400001928E-02 0. -1.
    10030    2    1    2    0    0  0.00000000000E+00  0.00000000000E+00 -0.83622343924E+03  0.12332382955E+04  0.90642542616E+03 0.  0.
        5    1    3    3  502    0 -0.17107850459E+03  0.41535065778E+03 -0.33652798020E+03  0.56129955915E+03  0.46999998093E+01 0.  1.
       -5    1    3    3    0  502  0.17107850459E+03 -0.41535065778E+03 -0.49969545904E+03  0.67193873637E+03  0.46999998093E+01 0. -1.
</event>
<event>
 5   0  0.2134145E-03  0.8941661E+03  0.7818609E-02  0.9432904E-01
        1   -1    0    0  501    0  0.00000000000E+00  0.00000000000E+00  0.46803340457E+03  0.46803340459E+03  0.50400001928E-02 0. -1.
       -1   -1    0    0    0  501  0.00000000000E+00  0.00000000000E+00 -0.42707045051E+03  0.42707045054E+03  0.50400001928E-02 0.  1.
    10030    2    1    2    0    0  0.00000000000E+00  0.00000000000E+00  0.40962954055E+02  0.89510385514E+03  0.89416606281E+03 0.  0.
        1    1    3    3  502    0 -0.17672672767E+03 -0.61715616830E+02  0.42691478528E+03  0.46615167869E+03  0.50400001928E-02 0. -1.
       -1    1    3    3    0  502  0.17672672767E+03  0.61715616830E+02 -0.38595183122E+03  0.42895217645E+03  0.50400001928E-02 0.  1.
</event>
<event>
 5   0  0.3806019E-03  0.8987407E+03  0.7818609E-02  0.9427157E-01
        2   -1    0    0  501    0  0.00000000000E+00  0.00000000000E+00  0.10165288088E+04  0.10165288088E+04  0.25500000920E-02 0.  1.
       -2   -1    0    0    0  501  0.00000000000E+00  0.00000000000E+00 -0.19865027311E+03  0.19865027312E+03  0.25500000920E-02 0. -1.
    10030    2    1    2    0    0  0.00000000000E+00  0.00000000000E+00  0.81787853574E+03  0.12151790820E+04  0.89874073127E+03 0.  0.
        2    1    3    3  502    0 -0.20491385639E+03  0.27991327168E+03  0.79515613752E+03  0.86753352168E+03  0.25500000920E-02 0.  1.
       -2    1    3    3    0  502  0.20491385639E+03 -0.27991327168E+03  0.22722398218E+02  0.34764556029E+03  0.25500000920E-02 0. -1.
</event>
<event>
 5   0  0.2130975E-03  0.9030053E+03  0.7818609E-02  0.9421832E-01
       -1   -1    0    0    0  501  0.00000000000E+00  0.00000000000E+00  0.91639898883E+03  0.91639898884E+03  0.50400001928E-02 0. -1.
        1   -1    0    0  501    0  0.00000000000E+00  0.00000000000E+00 -0.22245183156E+03  0.22245183161E+03  0.50400001928E-02 0.  1.
    10030    2    1    2    0    0  0.00000000000E+00  0.00000000000E+00  0.69394715727E+03  0.11388508205E+04  0.90300527914E+03 0.  0.
        5    1    3    3  502    0 -0.30032782080E+03  0.15834309488E+03 -0.28347727661E+02  0.34072719191E+03  0.46999998093E+01 0.  1.
       -5    1    3    3    0  502  0.30032782080E+03 -0.15834309488E+03  0.72229488493E+03  0.79812362854E+03  0.46999998093E+01 0. -1.
</event>
<event>
 5   0  0.3685879E-03  0.9120824E+03  0.7818609E-02  0.9410603E-01
       -2   -1    0    0    0  501  0.00000000000E+00  0.00000000000E+00  0.61055679480E+03  0.61055679481E+03  0.25500000920E-02 0. -1.
        2   -1    0    0  501    0  0.00000000000E+00  0.00000000000E+00 -0.34062938717E+03  0.34062938718E+03  0.25500000920E-02 0.  1.
    10030    2    1    2    0    0  0.00000000000E+00  0.00000000000E+00  0.26992740763E+03  0.95118618199E+03  0.91208242359E+03 0.  0.
        1    1    3    3  502    0  0.25165923659E+03  0.31539003133E+03  0.35660880811E+03  0.53849149043E+03  0.50400001928E-02 0. -1.
       -1    1    3    3    0  502 -0.25165923659E+03 -0.31539003133E+03 -0.86681400482E+02  0.41269469156E+03  0.50400001928E-02 0.  1.
</event>
<event>
 5   0  0.2134145E-03  0.9035996E+03  0.7818609E-02  0.9421093E-01
        1   -1    0    0  501    0  0.00000000000E+00  0.00000000000E+00  0.18165786278E+04  0.18165786278E+04  0.50400001928E-02 0. -1.
       -1   -1    0    0    0  501  0.00000000000E+00  0.00000000000E+00 -0.11236675758E+03  0.11236675770E+03  0.50400001928E-02 0.  1.
    10030    2    1    2    0    0  0.00000000000E+00  0.00000000000E+00  0.17042118702E+04  0.19289453855E+04  0.90359958037E+03 0.  0.
        1    1    3    3  502    0  0.14184668531E+03 -0.37142678735E+03  0.39403389766E+03  0.55976874960E+03  0.50400001928E-02 0.  1.
       -1    1    3    3    0  502 -0.14184668531E+03  0.37142678735E+03  0.13101779725E+04  0.13691766359E+04  0.50400001928E-02 0. -1.
</event>
<event>
 5   0  0.2074970E-03  0.9022898E+03  0.7818609E-02  0.9422724E-01
       -1   -1    0    0    0  501  0.00000000000E+00  0.00000000000E+00  0.22859393444E+03  0.22859393450E+03  0.50400001928E-02 0. -1.
        1   -1    0    0  501    0  0.00000000000E+00  0.00000000000E+00 -0.89036353082E+03  0.89036353083E+03  0.50400001928E-02 0.  1.
    10030    2    1    2    0    0  0.00000000000E+00  0.00000000000E+00 -0.66176959637E+03  0.11189574653E+04  0.90228975974E+03 0.  0.
        2    1    3    3  502    0  0.14128112508E+03 -0.21800269888E+03 -0.78830012114E+03  0.83000157471E+03  0.25500000920E-02 0.  1.
       -2    1    3    3    0  502 -0.14128112508E+03  0.21800269888E+03  0.12653052477E+03  0.28895589062E+03  0.25500000920E-02 0. -1.
</event>
<event>
 5   0  0.3663255E-03  0.9065177E+03  0.7818609E-02  0.9417470E-01
        2   -1    0    0  501    0  0.00000000000E+00  0.00000000000E+00  0.12126044189E+04  0.12126044189E+04  0.25500000920E-02 0.  1.
       -2   -1    0    0    0  501  0.00000000000E+00  0.00000000000E+00 -0.16942343109E+03  0.16942343111E+03  0.25500000920E-02 0. -1.
    10030    2    1    2    0    0  0.00000000000E+00  0.00000000000E+00  0.10431809878E+04  0.13820278500E+04  0.90651773556E+03 0.  0.
        4    1    3    3  502    0  0.20249846020E+03  0.38545145442E+03  0.32957312290E+03  0.54607555003E+03  0.12699999809E+01 0. -1.
       -4    1    3    3    0  502 -0.20249846020E+03 -0.38545145442E+03  0.71360786491E+03  0.83595229999E+03  0.12699999809E+01 0.  1.
</event>
<event>
 5   0  0.3806019E-03  0.8940608E+03  0.7818609E-02  0.9433036E-01
       -2   -1    0    0    0  501  0.00000000000E+00  0.00000000000E+00  0.58777939311E+03  0.58777939312E+03  0.25500000920E-02 0.  1.
        2   -1    0    0  501    0  0.00000000000E+00  0.00000000000E+00 -0.33998498259E+03  0.33998498260E+03  0.25500000920E-02 0. -1.
    10030    2    1    2    0    0  0.00000000000E+00  0.00000000000E+00  0.24779441052E+03  0.92776437572E+03  0.89406077365E+03 0.  0.
        2    1    3    3  502    0 -0.82061306975E+02  0.38670796429E+03 -0.92678579197E+02  0.40603746969E+03  0.25500000920E-02 0. -1.
       -2    1    3    3    0  502  0.82061306975E+02 -0.38670796429E+03  0.34047298972E+03  0.52172690603E+03  0.25500000920E-02 0.  1.
</event>
<event>
 5   0  0.3663255E-03  0.8976632E+03  0.7818609E-02  0.9428507E-01
       -2   -1    0    0    0  501  0.00000000000E+00  0.00000000000E+00  0.20579570313E+03  0.20579570315E+03  0.25500000920E-02 0.  1.
        2   -1    0    0  501    0  0.00000000000E+00  0.00000000000E+00 -0.97888257258E+03  0.97888257259E+03  0.25500000920E-02 0. -1.
    10030    2    1    2    0    0  0.00000000000E+00  0.00000000000E+00 -0.77308686945E+03  0.11846782757E+04  0.89766324937E+03 0.  0.
        4    1    3    3  502    0  0.42318766453E+03 -0.26941681665E+02 -0.58065929487E+03  0.71901354872E+03  0.12699999809E+01 0. -1.
       -4    1    3    3    0  502 -0.42318766453E+03  0.26941681665E+02 -0.19242757458E+03  0.46566472701E+03  0.12699999809E+01 0.  1.
</event>
<event>
 5   0  0.2074970E-03  0.9194833E+03  0.7818609E-02  0.9401549E-01
        1   -1    0    0  501    0  0.00000000000E+00  0.00000000000E+00  0.63742705352E+03  0.63742705354E+03  0.50400001928E-02 0. -1.
       -1   -1    0    0    0  501  0.00000000000E+00  0.00000000000E+00 -0.33158678490E+03  0.33158678493E+03  0.50400001928E-02 0.  1.
    10030    2    1    2    0    0  0.00000000000E+00  0.00000000000E+00  0.30584026862E+03  0.96901383847E+03  0.91948330558E+03 0.  0.
        2    1    3    3  502    0  0.95814855462E+02 -0.34441924766E+02  0.62539582107E+03  0.63362975445E+03  0.25500000920E-02 0. -1.
       -2    1    3    3    0  502 -0.95814855462E+02  0.34441924766E+02 -0.31955555245E+03  0.33538408402E+03  0.25500000920E-02 0.  1.
</event>
<event>
 5   0  0.3685879E-03  0.9014215E+03  0.7818609E-02  0.9423806E-01
        2   -1    0    0  501    0  0.00000000000E+00  0.00000000000E+00  0.22536318004E+04  0.22536318004E+04  0.25500000920E-02 0.  1.
       -2   -1    0    0    0  501  0.00000000000E+00  0.00000000000E+00 -0.90139027144E+02  0.90139027180E+02  0.25500000920E-02 0. -1.
    10030    2    1    2    0    0  0.00000000000E+00  0.00000000000E+00  0.21634927733E+04  0.23437708276E+04  0.90142149536E+03 0.  0.
        1    1    3    3  502    0  0.57274307965E+02 -0.28891481393E+03  0.19687828090E+04  0.19906928104E+04  0.50400001928E-02 0.  1.
       -1    1    3    3    0  502 -0.57274307965E+02  0.28891481393E+03  0.19470996425E+03  0.35307801725E+03  0.50400001928E-02 0. -1.
</event>
<event>
 5   0  0.2295158E-03  0.8991476E+03  0.7818609E-02  0.9426648E-01
        1   -1    0    0  501    0  0.00000000000E+00  0.00000000000E+00  0.50360624360E+03  0.50360624362E+03  0.50400001928E-02 0.  1.
       -1   -1    0    0    0  501  0.00000000000E+00  0.00000000000E+00 -0.40133859356E+03  0.40133859359E+03  0.50400001928E-02 0. -1.
    10030    2    1    2    0    0  0.00000000000E+00  0.00000000000E+00  0.10226765004E+03  0.90494483721E+03  0.89914764425E+03 0.  0.
        4    1    3    3  502    0  0.19226382038E+03  0.57224647064E+02  0.45606475302E+03  0.49823358849E+03  0.12699999809E+01 0.  1.
       -4    1    3    3    0  502 -0.19226382038E+03 -0.57224647064E+02 -0.35379710298E+03  0.40671124872E+03  0.12699999809E+01 0. -1.
</event>
<event>
 5   0  0.2074970E-03  0.9005912E+03  0.7818609E-02  0.9424843E-01
        1   -1    0    0  501    0  0.00000000000E+00  0.00000000000E+00  0.85438763680E+03  0.85438763681E+03  0.50400001928E-02 0. -1.
       -1   -1    0    0    0  501  0.00000000000E+00  0.00000000000E+00 -0.23732336442E+03  0.23732336447E+03  0.50400001928E-02 0.  1.
    10030    2    1    2    0    0  0.00000000000E+00  0.00000000000E+00  0.61706427238E+03  0.10917110013E+04  0.90059124695E+03 0.  0.
        2    1    3    3  502    0 -0.26399012234E+03  0.24294591759E+03  0.63840778132E+03  0.73231004282E+03  0.25500000920E-02 0. -1.
       -2    1    3    3    0  502  0.26399012234E+03 -0.24294591759E+03 -0.21343508934E+02  0.35940095846E+03  0.25500000920E-02 0.  1.
</event>
<event>
 5   0  0.2134145E-03  0.8996019E+03  0.7818609E-02  0.9426079E-01
        1   -1    0    0  501    0  0.00000000000E+00  0.00000000000E+00  0.17902900466E+04  0.17902900466E+04  0.50400001928E-02 0. -1.
       -1   -1    0    0    0  501  0.00000000000E+00  0.00000000000E+00 -0.11301011070E+03  0.11301011082E+03  0.50400001928E-02 0.  1.
    10030    2    1    2    0    0  0.00000000000E+00  0.00000000000E+00  0.16772799359E+04  0.19033001574E+04  0.89960185964E+03 0.  0.
        1    1    3    3  502    0  0.10602775934E+03  0.22320816736E+03  0.43466118387E+02  0.25090451411E+03  0.50400001928E-02 0.  1.
       -1    1    3    3    0  502 -0.10602775934E+03 -0.22320816736E+03  0.16338138175E+04  0.16523956433E+04  0.50400001928E-02 0. -1.
</event>
<event>
 5   0  0.3685879E-03  0.8785190E+03  0.7818609E-02  0.9452839E-01
       -2   -1    0    0    0  501  0.00000000000E+00  0.00000000000E+00  0.20229968390E+03  0.20229968391E+03  0.25500000920E-02 0.  1.
        2   -1    0    0  501    0  0.00000000000E+00  0.00000000000E+00 -0.95377751758E+03  0.95377751758E+03  0.25500000920E-02 0. -1.
    10030    2    1    2    0    0  0.00000000000E+00  0.00000000000E+00 -0.75147783368E+03  0.11560772015E+04  0.87851895899E+03 0.  0.
        1    1    3    3  502    0  0.58575883317E+02  0.25604979678E+03  0.87569219049E+02  0.27687723035E+03  0.50400001928E-02 0.  1.
       -1    1    3    3    0  502 -0.58575883317E+02 -0.25604979678E+03 -0.83904705273E+03  0.87919997114E+03  0.50400001928E-02 0. -1.
</event>
<event>
 5   0  0.2129280E-03  0.9001203E+03  0.7818609E-02  0.9425431E-01
        1   -1    0    0  501    0  0.00000000000E+00  0.00000000000E+00  0.64302547599E+03  0.64302547601E+03  0.50400001928E-02 0.  1.
       -1   -1    0    0    0  501  0.00000000000E+00  0.00000000000E+00 -0.31500171837E+03  0.31500171841E+03  0.50400001928E-02 0. -1.
    10030    2    1    2    0    0  0.00000000000E+00  0.00000000000E+00  0.32802375761E+03  0.95802719442E+03  0.90012028068E+03 0.  0.
        3    1    3    3  502    0  0.29369136063E+03  0.31423284896E+02 -0.19741021381E+03  0.35526446608E+03  0.10100000352E+00 0.  1.
       -3    1    3    3    0  502 -0.29369136063E+03 -0.31423284896E+02  0.52543397143E+03  0.60276272834E+03  0.10100000352E+00 0. -1.
</event>
<event>
 5   0  0.2130975E-03  0.8998708E+03  0.7818609E-02  0.9425743E-01
       -1   -1    0    0    0  501  0.00000000000E+00  0.00000000000E+00  0.25260197182E+03  0.25260197187E+03  0.50400001928E-02 0.  1.
        1   -1    0    0  501    0  0.00000000000E+00  0.00000000000E+00 -0.80142622557E+03  0.80142622558E+03  0.50400001928E-02 0. -1.
    10030    2    1    2    0    0  0.00000000000E+00  0.00000000000E+00 -0.54882425375E+03  0.10540281975E+04  0.89987075712E+03 0.  0.
        5    1    3    3  502    0 -0.47993737164E+02 -0.24237132480E+03 -0.71481947331E+03  0.75633076581E+03  0.46999998093E+01 0. -1.
       -5    1    3    3    0  502  0.47993737164E+02  0.24237132480E+03  0.16599521956E+03  0.29769743164E+03  0.46999998093E+01 0.  1.
</event>
<event>
 5   0  0.2129280E-03  0.9009119E+03  0.7818609E-02  0.9424442E-01
       -1   -1    0    0    0  501  0.00000000000E+00  0.00000000000E+00  0.59404748849E+03  0.59404748851E+03  0.50400001928E-02 0. -1.
        1   -1    0    0  501    0  0.00000000000E+00  0.00000000000E+00 -0.34157294559E+03  0.34157294563E+03  0.50400001928E-02 0.  1.
    10030    2    1    2    0    0  0.00000000000E+00  0.00000000000E+00  0.25247454290E+03  0.93562043414E+03  0.90091187248E+03 0.  0.
        3    1    3    3  502    0  0.89904563202E+02 -0.40379332652E+03 -0.58896297460E+02  0.41785244415E+03  0.10100000352E+00 0.  1.
       -3    1    3    3    0  502 -0.89904563202E+02  0.40379332652E+03  0.31137084036E+03  0.51776798999E+03  0.10100000352E+00 0. -1.
</event>
<event>
 5   0  0.3806019E-03  0.8969015E+03  0.7818609E-02  0.9429463E-01
       -2   -1    0    0    0  501  0.00000000000E+00  0.00000000000E+00  0.89871478394E+03  0.89871478394E+03  0.25500000920E-02 0. -1.
        2   -1    0    0  501    0  0.00000000000E+00  0.00000000000E+00 -0.22377297002E+03  0.22377297004E+03  0.25500000920E-02 0.  1.
    10030    2    1    2    0    0  0.00000000000E+00  0.00000000000E+00  0.67494181392E+03  0.11224877540E+04  0.89690150276E+03 0.  0.
        2    1    3    3  502    0  0.20629173723E+03  0.29272075081E+03  0.67530260059E+03  0.76437904287E+03  0.25500000920E-02 0. -1.
       -2    1    3    3    0  502 -0.20629173723E+03 -0.29272075081E+03 -0.36078667245E+00  0.35810871111E+03  0.25500000920E-02 0.  1.
</event>
<event>
 5   0  0.3663255E-03  0.8990603E+03  0.7818609E-02  0.9426757E-01
       -2   -1    0    0    0  501  0.00000000000E+00  0.00000000000E+00  0.12042781402E+03  0.12042781405E+03  0.25500000920E-02 0.  1.
        2   -1    0    0  501    0  0.00000000000E+00  0.00000000000E+00 -0.16779958521E+04  0.16779958521E+04  0.25500000920E-02 0. -1.
    10030    2    1    2    0    0  0.00000000000E+00  0.00000000000E+00 -0.15575680381E+04  0.17984236661E+04  0.89906033709E+03 0.  0.
        4    1    3    3  502    0 -0.12533646321E+02  0.44837197217E+02  0.11558876606E+03  0.12461878784E+03  0.12699999809E+01 0.  1.
       -4    1    3    3    0  502  0.12533646321E+02 -0.44837197217E+02 -0.16731568041E+04  0.16738048783E+04  0.12699999809E+01 0. -1.
</event>
<event>
 5   0  0.3663255E-03  0.9009539E+03  0.7818609E-02  0.9424390E-01
        2   -1    0    0  501    0  0.00000000000E+00  0.00000000000E+00  0.87255990152E+03  0.87255990152E+03  0.25500000920E-02 0. -1.
       -2   -1    0    0    0  501  0.00000000000E+00  0.00000000000E+00 -0.23256798581E+03  0.23256798582E+03  0.25500000920E-02 0.  1.
    10030    2    1    2    0    0  0.00000000000E+00  0.00000000000E+00  0.63999191571E+03  0.11051278873E+04  0.90095393623E+03 0.  0.
        4    1    3    3  502    0  0.15139582590E+03 -0.15934587462E+02  0.84004986262E+03  0.85373297451E+03  0.12699999809E+01 0. -1.
       -4    1    3    3    0  502 -0.15139582590E+03  0.15934587462E+02 -0.20005794691E+03  0.25139491283E+03  0.12699999809E+01 0.  1.
</event>
<event>
 5   0  0.1436000E-03  0.8924187E+03  0.7818609E-02  0.9435108E-01
        3   -1    0    0  501    0  0.00000000000E+00  0.00000000000E+00  0.24612004345E+03  0.24612006417E+03  0.10100000352E+00 0.  1.
       -3   -1    0    0    0  501  0.00000000000E+00  0.00000000000E+00 -0.80896611572E+03  0.80896612202E+03  0.10100000352E+00 0. -1.
    10030    2    1    2    0    0  0.00000000000E+00  0.00000000000E+00 -0.56284607227E+03  0.10550861862E+04  0.89241871296E+03 0.  0.
        2    1    3    3  502    0 -0.23911883533E+03 -0.29166991950E+03 -0.56332517424E+03  0.67792655302E+03  0.25500000920E-02 0. -1.
       -2    1    3    3    0  502  0.23911883533E+03  0.29166991950E+03  0.47910197494E+00  0.37715963317E+03  0.25500000920E-02 0.  1.
</event>
<event>
 5   0  0.2129280E-03  0.9023984E+03  0.7818609E-02  0.9422588E-01
       -1   -1    0    0    0  501  0.00000000000E+00  0.00000000000E+00  0.24446735752E+03  0.24446735757E+03  0.50400001928E-02 0.  1.
        1   -1    0    0  501    0  0.00000000000E+00  0.00000000000E+00 -0.83275222248E+03  0.83275222250E+03  0.50400001928E-02 0. -1.
    10030    2    1    2    0    0  0.00000000000E+00  0.00000000000E+00 -0.58828486496E+03  0.10772195801E+04  0.90239843824E+03 0.  0.
        3    1    3    3  502    0  0.15168570469E+03 -0.86567278409E+02  0.20248097694E+03  0.26739671449E+03  0.10100000352E+00 0.  1.
       -3    1    3    3    0  502 -0.15168570469E+03  0.86567278409E+02 -0.79076584190E+03  0.80982286558E+03  0.10100000352E+00 0. -1.
</event>
<event>
 5   0  0.2295158E-03  0.8972020E+03  0.7818609E-02  0.9429086E-01
        1   -1    0    0  501    0  0.00000000000E+00  0.00000000000E+00  0.12755846725E+04  0.12755846725E+04  0.50400001928E-02 0.  1.
       -1   -1    0    0    0  501  0.00000000000E+00  0.00000000000E+00 -0.15776519541E+03  0.15776519549E+03  0.50400001928E-02 0. -1.
    10030    2    1    2    0    0  0.00000000000E+00  0.00000000000E+00  0.11178194771E+04  0.14333498680E+04  0.89720201779E+03 0.  0.
        4    1    3    3  502    0 -0.32324677764E+03  0.19364670563E+03  0.17002598213E+03  0.41339808097E+03  0.12699999809E+01 0. -1.
       -4    1    3    3    0  502  0.32324677764E+03 -0.19364670563E+03  0.94779349497E+03  0.10199517870E+04  0.12699999809E+01 0.  1.
</event>
<event>
 5   0  0.3815269E-03  0.9003968E+03  0.7818609E-02  0.9425086E-01
       -2   -1    0    0    0  501  0.00000000000E+00  0.00000000000E+00  0.14246058384E+03  0.14246058386E+03  0.25500000920E-02 0.  1.
        2   -1    0    0  501    0  0.00000000000E+00  0.00000000000E+00 -0.14226995221E+04  0.14226995221E+04  0.25500000920E-02 0. -1.
    10030    2    1    2    0    0  0.00000000000E+00  0.00000000000E+00 -0.12802389383E+04  0.15651601060E+04  0.90039681157E+03 0.  0.
        5    1    3    3  502    0 -0.15753052309E+03  0.11632575098E+03  0.64501325667E+02  0.20622816747E+03  0.46999998093E+01 0.  1.
       -5    1    3    3    0  502  0.15753052309E+03 -0.11632575098E+03 -0.13447402639E+04  0.13589319385E+04  0.46999998093E+01 0. -1.
</event>
<event>
 5   0  0.2129280E-03  0.9006497E+03  0.7818609E-02  0.9424770E-01
       -1   -1    0    0    0  501  0.00000000000E+00  0.00000000000E+00  0.28176844418E+03  0.28176844423E+03  0.50400001928E-02 0. -1.
        1   -1    0    0  501    0  0.00000000000E+00  0.00000000000E+00 -0.71971320566E+03  0.71971320568E+03  0.50400001928E-02 0.  1.
    10030    2    1    2    0    0  0.00000000000E+00  0.00000000000E+00 -0.43794476148E+03  0.10014816499E+04  0.90064969938E+03 0.  0.
        3    1    3    3  502    0  0.22664056775E+03  0.29341089493E+03  0.65254546313E+02  0.37644928773E+03  0.10100000352E+00 0. -1.
       -3    1    3    3    0  502 -0.22664056775E+03 -0.29341089493E+03 -0.50319930779E+03  0.62503236218E+03  0.10100000352E+00 0.  1.
</event>
<event>
 5   0  0.2074970E-03  0.8956655E+03  0.7818609E-02  0.9431016E-01
       -1   -1    0    0    0  501  0.00000000000E+00  0.00000000000E+00  0.41796283728E+03  0.41796283731E+03  0.50400001928E-02 0. -1.
        1   -1    0    0  501    0  0.00000000000E+00  0.00000000000E+00 -0.47983733790E+03  0.47983733792E+03  0.50400001928E-02 0.  1.
    10030    2    1    2    0    0  0.00000000000E+00  0.00000000000E+00 -0.61874500618E+02  0.89780017523E+03  0.89566550722E+03 0.  0.
        2    1    3    3  502    0 -0.44450479398E+03  0.21143176850E+01 -0.85520616946E+02  0.45266185849E+03  0.25500000920E-02 0. -1.
       -2    1    3    3    0  502  0.44450479398E+03 -0.21143176850E+01  0.23646116328E+02  0.44513831674E+03  0.25500000920E-02 0.  1.
</event>
<event>
 5   0  0.3626546E-03  0.8973616E+03  0.7818609E-02  0.9428886E-01
        2   -1    0    0  501    0  0.00000000000E+00  0.00000000000E+00  0.20407289032E+04  0.20407289032E+04  0.25500000920E-02 0.  1.
       -2   -1    0    0    0  501  0.00000000000E+00  0.00000000000E+00 -0.98648305951E+02  0.98648305984E+02  0.25500000920E-02 0. -1.
    10030    2    1    2    0    0  0.00000000000E+00  0.00000000000E+00  0.19420805972E+04  0.21393772092E+04  0.89736157538E+03 0.  0.
        3    1    3    3  502    0  0.28505149554E+03  0.20461111240E+03  0.30437529665E+03  0.46450446052E+03  0.10100000352E+00 0. -1.
       -3    1    3    3    0  502 -0.28505149554E+03 -0.20461111240E+03  0.16377053006E+04  0.16748727487E+04  0.10100000352E+00 0.  1.
</event>
<event>
 5   0  0.2129280E-03  0.8992572E+03  0.7818609E-02  0.9426510E-01
        1   -1    0    0  501    0  0.00000000000E+00  0.00000000000E+00  0.13492123069E+04  0.13492123069E+04  0.50400001928E-02 0. -1.
       -1   -1    0    0    0  501  0.00000000000E+00  0.00000000000E+00 -0.14983992665E+03  0.14983992674E+03  0.50400001928E-02 0.  1.
    10030    2    1    2    0    0  0.00000000000E+00  0.00000000000E+00  0.11993723803E+04  0.14990522337E+04  0.89925718941E+03 0.  0.
        3    1    3    3  502    0 -0.39768588589E+03  0.19107273118E+03  0.74408068157E+03  0.86505428923E+03  0.10100000352E+00 0.  1.
       -3    1    3    3    0  502  0.39768588589E+03 -0.19107273118E+03  0.45529169872E+03  0.63399794444E+03  0.10100000352E+00 0. -1.
</event>
<event>
 5   0  0.2129280E-03  0.8982470E+03  0.7818609E-02  0.9427775E-01
       -1   -1    0    0    0  501  0.00000000000E+00  0.00000000000E+00  0.40031048375E+03  0.40031048379E+03  0.50400001928E-02 0. -1.
        1   -1    0    0  501    0  0.00000000000E+00  0.00000000000E+00 -0.50388861714E+03  0.50388861717E+03  0.50400001928E-02 0.  1.
    10030    2    1    2    0    0  0.00000000000E+00  0.00000000000E+00 -0.10357813339E+03  0.90419910095E+03  0.89824695070E+03 0.  0.
        3    1    3    3  502    0 -0.34066763321E+03  0.21377384737E+03 -0.25300910750E+03  0.47514977935E+03  0.10100000352E+00 0.  1.
       -3    1    3    3    0  502  0.34066763321E+03 -0.21377384737E+03  0.14943097412E+03  0.42904932160E+03  0.10100000352E+00 0. -1.
</event>
<event>
 5   0  0.2129280E-03  0.8996471E+03  0.7818609E-02  0.9426023E-01
        1   -1    0    0  501    0  0.00000000000E+00  0.00000000000E+00  0.69387124664E+03  0.69387124666E+03  0.50400001928E-02 0. -1.
       -1   -1    0    0    0  501  0.00000000000E+00  0.00000000000E+00 -0.29161207899E+03  0.29161207904E+03  0.50400001928E-02 0.  1.
    10030    2    1    2    0    0  0.00000000000E+00  0.00000000000E+00  0.40225916765E+03  0.98548332570E+03  0.89964712375E+03 0.  0.
        3    1    3    3  502    0  0.31900729859E+02 -0.17861058491E+03  0.65201041038E+03  0.67678429581E+03  0.10100000352E+00 0. -1.
       -3    1    3    3    0  502 -0.31900729859E+02  0.17861058491E+03 -0.24975124273E+03  0.30869902989E+03  0.10100000352E+00 0.  1.
</event>
<event>
 5   0  0.1436000E-03  0.8960852E+03  0.7818609E-02  0.9430488E-01
        4   -1    0    0  501    0  0.00000000000E+00  0.00000000000E+00  0.18348398061E+03  0.18348837576E+03  0.12699999809E+01 0.  1.
       -4   -1    0    0    0  501  0.00000000000E+00  0.00000000000E+00 -0.10940405490E+04  0.10940412862E+04  0.12699999809E+01 0. -1.
    10030    2    1    2    0    0  0.00000000000E+00  0.00000000000E+00 -0.91055656843E+03  0.12775296619E+04  0.89608524862E+03 0.  0.
        1    1    3    3  502    0 -0.19223811518E+03  0.39555722941E+03 -0.33329167420E+03  0.55181913231E+03  0.50400001928E-02 0.  1.
       -1    1    3    3    0  502  0.19223811518E+03 -0.39555722941E+03 -0.57726489422E+03  0.72571052962E+03  0.50400001928E-02 0. -1.
</event>
<event>
 5   0  0.2295158E-03  0.8950442E+03  0.7818609E-02  0.9431798E-01
        1   -1    0    0  501    0  0.00000000000E+00  0.00000000000E+00  0.37758872101E+03  0.37758872105E+03  0.50400001928E-02 0.  1.
       -1   -1    0    0    0  501  0.00000000000E+00  0.00000000000E+00 -0.53040783995E+03  0.53040783997E+03  0.50400001928E-02 0. -1.
    10030    2    1    2    0    0  0.00000000000E+00  0.00000000000E+00 -0.15281911893E+03  0.90799656102E+03  0.89504417305E+03 0.  0.
        4    1    3    3  502    0 -0.30844949465E+03 -0.29665070956E+03  0.56372559311E+02  0.43165056767E+03  0.12699999809E+01 0.  1.
       -4    1    3    3    0  502  0.30844949465E+03  0.29665070956E+03 -0.20919167825E+03  0.47634599335E+03  0.12699999809E+01 0. -1.
</event>
<event>
 5   0  0.2295158E-03  0.9307243E+03  0.7818609E-02  0.9387969E-01
        1   -1    0    0  501    0  0.00000000000E+00  0.00000000000E+00  0.62833121907E+03  0.62833121909E+03  0.50400001928E-02 0.  1.
       -1   -1    0    0    0  501  0.00000000000E+00  0.00000000000E+00 -0.34466202917E+03  0.34466202920E+03  0.50400001928E-02 0. -1.
    10030    2    1    2    0    0  0.00000000000E+00  0.00000000000E+00  0.28366918991E+03  0.97299324830E+03  0.93072426203E+03 0.  0.
        4    1    3    3  502    0 -0.27186840152E+03 -0.27460078548E+02 -0.25196070313E+03  0.37168843469E+03  0.12699999809E+01 0. -1.
       -4    1    3    3    0  502  0.27186840152E+03  0.27460078548E+02  0.53562989304E+03  0.60130481361E+03  0.12699999809E+01 0.  1.
</event>
<event>
 5   0  0.3626546E-03  0.9005926E+03  0.7818609E-02  0.9424841E-01
        2   -1    0    0  501    0  0.00000000000E+00  0.00000000000E+00  0.10405425373E+04  0.10405425373E+04  0.25500000920E-02 0. -1.
       -2   -1    0    0    0  501  0.00000000000E+00  0.00000000000E+00 -0.19486638924E+03  0.19486638926E+03  0.25500000920E-02 0.  1.
    10030    2    1    2    0    0  0.00000000000E+00  0.00000000000E+00  0.84567614810E+03  0.12354089266E+04  0.90059262070E+03 0.  0.
        3    1    3    3  502    0 -0.31420456482E+03 -0.24292728580E+03  0.13174860953E+03  0.41844459735E+03  0.10100000352E+00 0. -1.
       -3    1    3    3    0  502  0.31420456482E+03  0.24292728580E+03  0.71392753857E+03  0.81696432925E+03  0.10100000352E+00 0.  1.
</event>
<event>
 5   0  0.3663255E-03  0.9032282E+03  0.7818609E-02  0.9421555E-01
       -2   -1    0    0    0  501  0.00000000000E+00  0.00000000000E+00  0.12082012839E+03  0.12082012842E+03  0.25500000920E-02 0. -1.
        2   -1    0    0  501    0  0.00000000000E+00  0.00000000000E+00 -0.16880904248E+04  0.16880904248E+04  0.25500000920E-02 0.  1.
    10030    2    1    2    0    0  0.00000000000E+00  0.00000000000E+00 -0.15672702964E+04  0.18089105532E+04  0.90322821455E+03 0.  0.
        4    1    3    3  502    0  0.41886387690E+03  0.82902826096E+02 -0.48906642313E+03  0.64923601647E+03  0.12699999809E+01 0.  1.
       -4    1    3    3    0  502 -0.41886387690E+03 -0.82902826096E+02 -0.10782038733E+04  0.11596745368E+04  0.12699999809E+01 0. -1.
</event>
<event>
 5   0  0.3663255E-03  0.8983306E+03  0.7818609E-02  0.9427671E-01
        2   -1    0    0  501    0  0.00000000000E+00  0.00000000000E+00  0.14275185703E+04  0.14275185703E+04  0.25500000920E-02 0.  1.
       -2   -1    0    0    0  501  0.00000000000E+00  0.00000000000E+00 -0.14132879856E+03  0.14132879858E+03  0.25500000920E-02 0. -1.
    10030    2    1    2    0    0  0.00000000000E+00  0.00000000000E+00  0.12861897717E+04  0.15688473689E+04  0.89833063953E+03 0.  0.
        4    1    3    3  502    0  0.28940468300E+03 -0.17058009157E+03  0.11637902589E+04  0.12113059142E+04  0.12699999809E+01 0. -1.
       -4    1    3    3    0  502 -0.28940468300E+03  0.17058009157E+03  0.12239951287E+03  0.35754145470E+03  0.12699999809E+01 0.  1.
</event>
<event>
 5   0  0.2130975E-03  0.9014561E+03  0.7818609E-02  0.9423763E-01
        1   -1    0    0  501    0  0.00000000000E+00  0.00000000000E+00  0.35309466915E+03  0.35309466919E+03  0.50400001928E-02 0.  1.
       -1   -1    0    0    0  501  0.00000000000E+00  0.00000000000E+00 -0.57535774593E+03  0.57535774595E+03  0.50400001928E-02 0. -1.
    10030    2    1    2    0    0  0.00000000000E+00  0.00000000000E+00 -0.22226307677E+03  0.92845241514E+03  0.90145605099E+03 0.  0.
        5    1    3    3  502    0 -0.33438409091E+03 -0.27435446064E+03  0.19353391872E+02  0.43298930022E+03  0.46999998093E+01 0.  1.
       -5    1    3    3    0  502  0.33438409091E+03  0.27435446064E+03 -0.24161646864E+03  0.49546311492E+03  0.46999998093E+01 0. -1.
</event>
<event>
 5   0  0.2129280E-03  0.9085874E+03  0.7818609E-02  0.9414910E-01
       -1   -1    0    0    0  501  0.00000000000E+00  0.00000000000E+00  0.23577952591E+03  0.23577952597E+03  0.50400001928E-02 0. -1.
        1   -1    0    0  501    0  0.00000000000E+00  0.00000000000E+00 -0.87532096457E+03  0.87532096459E+03  0.50400001928E-02 0.  1.
    10030    2    1    2    0    0  0.00000000000E+00  0.00000000000E+00 -0.63954143866E+03  0.11111004906E+04  0.90858739169E+03 0.  0.
        3    1    3    3  502    0  0.15289317454E+03  0.42725537247E+03 -0.29356335203E+03  0.54046547344E+03  0.10100000352E+00 0. -1.
       -3    1    3    3    0  502 -0.15289317454E+03 -0.42725537247E+03 -0.34597808663E+03  0.57063501711E+03  0.10100000352E+00 0.  1.
</event>
<event>
 5   0  0.3663255E-03  0.8986109E+03  0.7818609E-02  0.9427319E-01
        2   -1    0    0  501    0  0.00000000000E+00  0.00000000000E+00  0.46736539561E+03  0.46736539561E+03  0.25500000920E-02 0. -1.
       -2   -1    0    0    0  501  0.00000000000E+00  0.00000000000E+00 -0.43194342176E+03  0.43194342177E+03  0.25500000920E-02 0.  1.
    10030    2    1    2    0    0  0.00000000000E+00  0.00000000000E+00  0.35421973842E+02  0.89930881738E+03  0.89861094629E+03 0.  0.
        4    1    3    3  502    0 -0.28002840756E+03  0.34719875014E+03 -0.36283801782E+02  0.44752766207E+03  0.12699999809E+01 0.  1.
       -4    1    3    3    0  502  0.28002840756E+03 -0.34719875014E+03  0.71705775623E+02  0.45178115532E+03  0.12699999809E+01 0. -1.
</event>
<event>
 5   0  0.3815269E-03  0.8978044E+03  0.7818609E-02  0.9428330E-01
        2   -1    0    0  501    0  0.00000000000E+00  0.00000000000E+00  0.10914701417E+04  0.10914701417E+04  0.25500000920E-02 0.  1.
       -2   -1    0    0    0  501  0.00000000000E+00  0.00000000000E+00 -0.18462548507E+03  0.18462548509E+03  0.25500000920E-02 0. -1.
    10030    2    1    2    0    0  0.00000000000E+00  0.00000000000E+00  0.90684465660E+03  0.12760956268E+04  0.89780444276E+03 0.  0.
        5    1    3    3  502    0  0.27005329960E+03 -0.16309512221E+03 -0.43704068615E+00  0.31551716992E+03  0.46999998093E+01 0. -1.
       -5    1    3    3    0  502 -0.27005329960E+03  0.16309512221E+03  0.90728169729E+03  0.96057845684E+03  0.46999998093E+01 0.  1.
</event>
<event>
 5   0  0.2130975E-03  0.9003395E+03  0.7818609E-02  0.9425157E-01
       -1   -1    0    0    0  501  0.00000000000E+00  0.00000000000E+00  0.17783477167E+03  0.17783477174E+03  0.50400001928E-02 0.  1.
        1   -1    0    0  501    0  0.00000000000E+00  0.00000000000E+00 -0.11395566075E+04  0.11395566075E+04  0.50400001928E-02 0. -1.
    10030    2    1    2    0    0  0.00000000000E+00  0.00000000000E+00 -0.96172183583E+03  0.13173913793E+04  0.90033946743E+03 0.  0.
        5    1    3    3  502    0  0.27598675678E+03  0.34895843385E+03 -0.58106742122E+03  0.73184842452E+03  0.46999998093E+01 0.  1.
       -5    1    3    3    0  502 -0.27598675678E+03 -0.34895843385E+03 -0.38065441462E+03  0.58554295473E+03  0.46999998093E+01 0. -1.
</event>
<event>
 5   0  0.2129280E-03  0.9062688E+03  0.7818609E-02  0.9417779E-01
        1   -1    0    0  501    0  0.00000000000E+00  0.00000000000E+00  0.14025937278E+04  0.14025937278E+04  0.50400001928E-02 0. -1.
       -1   -1    0    0    0  501  0.00000000000E+00  0.00000000000E+00 -0.14639361740E+03  0.14639361748E+03  0.50400001928E-02 0.  1.
    10030    2    1    2    0    0  0.00000000000E+00  0.00000000000E+00  0.12562001104E+04  0.15489873453E+04  0.90626876725E+03 0.  0.
        3    1    3    3  502    0  0.43583420962E+03 -0.11642968665E+03  0.55511476980E+03  0.71530395502E+03  0.10100000352E+00 0.  1.
       -3    1    3    3    0  502 -0.43583420962E+03  0.11642968665E+03  0.70108534059E+03  0.83368339027E+03  0.10100000352E+00 0. -1.
</event>
<event>
 5   0  0.3806019E-03  0.8961899E+03  0.7818609E-02  0.9430357E-01
        2   -1    0    0  501    0  0.00000000000E+00  0.00000000000E+00  0.13790836082E+04  0.13790836082E+04  0.25500000920E-02 0.  1.
       -2   -1    0    0    0  501  0.00000000000E+00  0.00000000000E+00 -0.14559603528E+03  0.14559603530E+03  0.25500000920E-02 0. -1.
    10030    2    1    2    0    0  0.00000000000E+00  0.00000000000E+00  0.12334875730E+04  0.15246796435E+04  0.89618994793E+03 0.  0.
        2    1    3    3  502    0 -0.28542210748E+03 -0.30962793639E+03  0.35619697365E+03  0.55155373490E+03  0.25500000920E-02 0.  1.
       -2    1    3    3    0  502  0.28542210748E+03  0.30962793639E+03  0.87729059931E+03  0.97312590865E+03  0.25500000920E-02 0. -1.
</event>
<event>
 5   0  0.3815269E-03  0.8998929E+03  0.7818609E-02  0.9425715E-01
       -2   -1    0    0    0  501  0.00000000000E+00  0.00000000000E+00  0.18624509094E+03  0.18624509096E+03  0.25500000920E-02 0.  1.
        2   -1    0    0  501    0  0.00000000000E+00  0.00000000000E+00 -0.10870181175E+04  0.10870181175E+04  0.25500000920E-02 0. -1.
    10030    2    1    2    0    0  0.00000000000E+00  0.00000000000E+00 -0.90077302652E+03  0.12732632084E+04  0.89989285618E+03 0.  0.
        5    1    3    3  502    0 -0.18456484774E+03  0.80989752743E+02 -0.10195341434E+04  0.10392764226E+04  0.46999998093E+01 0. -1.
       -5    1    3    3    0  502  0.18456484774E+03 -0.80989752743E+02  0.11876111684E+03  0.23398678583E+03  0.46999998093E+01 0.  1.
</event>
<event>
 5   0  0.3685879E-03  0.9101798E+03  0.7818609E-02  0.9412945E-01
       -2   -1    0    0    0  501  0.00000000000E+00  0.00000000000E+00  0.20435093903E+03  0.20435093904E+03  0.25500000920E-02 0. -1.
        2   -1    0    0  501    0  0.00000000000E+00  0.00000000000E+00 -0.10134860796E+04  0.10134860796E+04  0.25500000920E-02 0.  1.
    10030    2    1    2    0    0  0.00000000000E+00  0.00000000000E+00 -0.80913514054E+03  0.12178370186E+04  0.91017983292E+03 0.  0.
        1    1    3    3  502    0  0.38196849722E+03  0.12070635441E+03 -0.69352022207E+03  0.80089965371E+03  0.50400001928E-02 0.  1.
       -1    1    3    3    0  502 -0.38196849722E+03 -0.12070635441E+03 -0.11561491847E+03  0.41693736491E+03  0.50400001928E-02 0. -1.
</event>
<event>
 5   0  0.3663255E-03  0.9027805E+03  0.7818609E-02  0.9422112E-01
        2   -1    0    0  501    0  0.00000000000E+00  0.00000000000E+00  0.13161367797E+04  0.13161367797E+04  0.25500000920E-02 0.  1.
       -2   -1    0    0    0  501  0.00000000000E+00  0.00000000000E+00 -0.15481152055E+03  0.15481152057E+03  0.25500000920E-02 0. -1.
    10030    2    1    2    0    0  0.00000000000E+00  0.00000000000E+00  0.11613252592E+04  0.14709483003E+04  0.90278045202E+03 0.  0.
        4    1    3    3  502    0 -0.12728692754E+03 -0.30227234663E+03  0.10859749452E+04  0.11344222000E+04  0.12699999809E+01 0.  1.
       -4    1    3    3    0  502  0.12728692754E+03  0.30227234663E+03  0.75350314042E+02  0.33652610031E+03  0.12699999809E+01 0. -1.
</event>
<event>
 5   0  0.3815269E-03  0.9006495E+03  0.7818609E-02  0.9424770E-01
        2   -1    0    0  501    0  0.00000000000E+00  0.00000000000E+00  0.12048929028E+04  0.12048929028E+04  0.25500000920E-02 0.  1.
       -2   -1    0    0    0  501  0.00000000000E+00  0.00000000000E+00 -0.16830740815E+03  0.16830740817E+03  0.25500000920E-02 0. -1.
    10030    2    1    2    0    0  0.00000000000E+00  0.00000000000E+00  0.10365854946E+04  0.13732003110E+04  0.90064954689E+03 0.  0.
        5    1    3    3  502    0  0.31443320647E+03 -0.98782802213E+02  0.98610807458E+03  0.10397391539E+04  0.46999998093E+01 0.  1.
       -5    1    3    3    0  502 -0.31443320647E+03  0.98782802213E+02  0.50477420048E+02  0.33346115708E+03  0.46999998093E+01 0. -1.
</event>
<event>
 5   0  0.3626546E-03  0.9006354E+03  0.7818609E-02  0.9424787E-01
       -2   -1    0    0    0  501  0.00000000000E+00  0.00000000000E+00  0.88601774711E+03  0.88601774712E+03  0.25500000920E-02 0. -1.
        2   -1    0    0  501    0  0.00000000000E+00  0.00000000000E+00 -0.22887357407E+03  0.22887357409E+03  0.25500000920E-02 0.  1.
    10030    2    1    2    0    0  0.00000000000E+00  0.00000000000E+00  0.65714417304E+03  0.11148913212E+04  0.90063543897E+03 0.  0.
        3    1    3    3  502    0 -0.19401769215E+03 -0.18575449622E+03  0.77599579850E+03  0.82116812360E+03  0.10100000352E+00 0. -1.
       -3    1    3    3    0  502  0.19401769215E+03  0.18575449622E+03 -0.11885162546E+03  0.29372319760E+03  0.10100000352E+00 0.  1.
</event>
<event>
 5   0  0.2074970E-03  0.8938950E+03  0.7818609E-02  0.9433245E-01
       -1   -1    0    0    0  501  0.00000000000E+00  0.00000000000E+00  0.33109297817E+03  0.33109297821E+03  0.50400001928E-02 0.  1.
        1   -1    0    0  501    0  0.00000000000E+00  0.00000000000E+00 -0.60334131591E+03  0.60334131593E+03  0.50400001928E-02 0. -1.
    10030    2    1    2    0    0  0.00000000000E+00  0.00000000000E+00 -0.27224833774E+03  0.93443429414E+03  0.89389501210E+03 0.  0.
        2    1    3    3  502    0 -0.15987915649E+03 -0.21486943331E+03 -0.51016694705E+03  0.57619487321E+03  0.25500000920E-02 0. -1.
       -2    1    3    3    0  502  0.15987915649E+03  0.21486943331E+03  0.23791860930E+03  0.35823942093E+03  0.25500000920E-02 0.  1.
</event>
<event>
 5   0  0.3815269E-03  0.8994218E+03  0.7818609E-02  0.9426305E-01
        2   -1    0    0  501    0  0.00000000000E+00  0.00000000000E+00  0.40411591574E+03  0.40411591575E+03  0.25500000920E-02 0.  1.
       -2   -1    0    0    0  501  0.00000000000E+00  0.00000000000E+00 -0.50045017540E+03  0.50045017541E+03  0.25500000920E-02 0. -1.
    10030    2    1    2    0    0  0.00000000000E+00  0.00000000000E+00 -0.96334259661E+02  0.90456609115E+03  0.89942177185E+03 0.  0.
        5    1    3    3  502    0 -0.38676779731E+03  0.12972763052E+03 -0.23845608924E+03  0.47254839291E+03  0.46999998093E+01 0. -1.
       -5    1    3    3    0  502  0.38676779731E+03 -0.12972763052E+03  0.14212182957E+03  0.43201769824E+03  0.46999998093E+01 0.  1.
</event>
<event>
 5   0  0.2130975E-03  0.8920414E+03  0.7818609E-02  0.9435585E-01
       -1   -1    0    0    0  501  0.00000000000E+00  0.00000000000E+00  0.18338472006E+03  0.18338472012E+03  0.50400001928E-02 0. -1.
        1   -1    0    0  501    0  0.00000000000E+00  0.00000000000E+00 -0.10847929229E+04  0.10847929229E+04  0.50400001928E-02 0.  1.
    10030    2    1    2    0    0  0.00000000000E+00  0.00000000000E+00 -0.90140820287E+03  0.12681776431E+04  0.89204135899E+03 0.  0.
        5    1    3    3  502    0 -0.10875213692E+03 -0.16491724770E+03  0.11775933412E+03  0.23003059937E+03  0.46999998093E+01 0. -1.
       -5    1    3    3    0  502  0.10875213692E+03  0.16491724770E+03 -0.10191675370E+04  0.10381470437E+04  0.46999998093E+01 0.  1.
</event>
<event>
 5   0  0.2130975E-03  0.9016634E+03  0.7818609E-02  0.9423505E-01
       -1   -1    0    0    0  501  0.00000000000E+00  0.00000000000E+00  0.43316444535E+03  0.43316444538E+03  0.50400001928E-02 0.  1.
        1   -1    0    0  501    0  0.00000000000E+00  0.00000000000E+00 -0.46921949504E+03  0.46921949507E+03  0.50400001928E-02 0. -1.
    10030    2    1    2    0    0  0.00000000000E+00  0.00000000000E+00 -0.36055049692E+02  0.90238394045E+03  0.90166335701E+03 0.  0.
        5    1    3    3  502    0 -0.20159404627E+02  0.21641061580E+03  0.37724020296E+03  0.43539891703E+03  0.46999998093E+01 0.  1.
       -5    1    3    3    0  502  0.20159404627E+02 -0.21641061580E+03 -0.41329525265E+03  0.46698502341E+03  0.46999998093E+01 0. -1.
</event>
<event>
 5   0  0.2130975E-03  0.9020856E+03  0.7818609E-02  0.9422978E-01
        1   -1    0    0  501    0  0.00000000000E+00  0.00000000000E+00  0.58583631776E+03  0.58583631778E+03  0.50400001928E-02 0.  1.
       -1   -1    0    0    0  501  0.00000000000E+00  0.00000000000E+00 -0.34726352555E+03  0.34726352559E+03  0.50400001928E-02 0. -1.
    10030    2    1    2    0    0  0.00000000000E+00  0.00000000000E+00  0.23857279221E+03  0.93309984337E+03  0.90208555055E+03 0.  0.
        5    1    3    3  502    0  0.20147080969E+03 -0.11261008656E+03  0.52009518795E+03  0.56902777900E+03  0.46999998093E+01 0.  1.
       -5    1    3    3    0  502 -0.20147080969E+03  0.11261008656E+03 -0.28152239574E+03  0.36407206437E+03  0.46999998093E+01 0. -1.
</event>
<event>
 5   0  0.2134145E-03  0.9031346E+03  0.7818609E-02  0.9421671E-01
       -1   -1    0    0    0  501  0.00000000000E+00  0.00000000000E+00  0.89256018165E+02  0.89256018307E+02  0.50400001928E-02 0. -1.
        1   -1    0    0  501    0  0.00000000000E+00  0.00000000000E+00 -0.22845859242E+04  0.22845859242E+04  0.50400001928E-02 0.  1.
    10030    2    1    2    0    0  0.00000000000E+00  0.00000000000E+00 -0.21953299060E+04  0.23738419425E+04  0.90313463653E+03 0.  0.
        1    1    3    3  502    0 -0.22100489981E+03 -0.11695425438E+03 -0.20860156517E+04  0.21009480628E+04  0.50400001928E-02 0.  1.
       -1    1    3    3    0  502  0.22100489981E+03  0.11695425438E+03 -0.10931425431E+03  0.27289387970E+03  0.50400001928E-02 0. -1.
</event>
<event>
 5   0  0.3626546E-03  0.9009023E+03  0.7818609E-02  0.9424454E-01
        2   -1    0    0  501    0  0.00000000000E+00  0.00000000000E+00  0.61640058984E+03  0.61640058985E+03  0.25500000920E-02 0.  1.
       -2   -1    0    0    0  501  0.00000000000E+00  0.00000000000E+00 -0.32917919382E+03  0.32917919383E+03  0.25500000920E-02 0. -1.
    10030    2    1    2    0    0  0.00000000000E+00  0.00000000000E+00  0.28722139602E+03  0.94557978367E+03  0.90090232376E+03 0.  0.
        3    1    3    3  502    0  0.14861247910E+03 -0.57063060987E+00 -0.30270688591E+03  0.33722020038E+03  0.10100000352E+00 0. -1.
       -3    1    3    3    0  502 -0.14861247910E+03  0.57063060987E+00  0.58992828193E+03  0.60835958330E+03  0.10100000352E+00 0.  1.
</event>
<event>
 5   0  0.1436000E-03  0.8994519E+03  0.7818609E-02  0.9426267E-01
       -4   -1    0    0    0  501  0.00000000000E+00  0.00000000000E+00  0.47848776619E+03  0.47848945160E+03  0.12699999809E+01 0.  1.
        4   -1    0    0  501    0  0.00000000000E+00  0.00000000000E+00 -0.42268958157E+03  0.42269148947E+03  0.12699999809E+01 0. -1.
    10030    2    1    2    0    0  0.00000000000E+00  0.00000000000E+00  0.55798184622E+02  0.90118094107E+03  0.89945186149E+03 0.  0.
        4    1    3    3  502    0 -0.20354432585E+03  0.38728756801E+02 -0.37201931145E+03  0.42582882733E+03  0.12699999809E+01 0. -1.
       -4    1    3    3    0  502  0.20354432585E+03 -0.38728756801E+02  0.42781749607E+03  0.47535211374E+03  0.12699999809E+01 0.  1.
</event>
<event>
 5   0  0.2295158E-03  0.9020721E+03  0.7818609E-02  0.9422995E-01
       -1   -1    0    0    0  501  0.00000000000E+00  0.00000000000E+00  0.31060569451E+03  0.31060569455E+03  0.50400001928E-02 0. -1.
        1   -1    0    0  501    0  0.00000000000E+00  0.00000000000E+00 -0.65495743839E+03  0.65495743841E+03  0.50400001928E-02 0.  1.
    10030    2    1    2    0    0  0.00000000000E+00  0.00000000000E+00 -0.34435174388E+03  0.96556313297E+03  0.90207208150E+03 0.  0.
        4    1    3    3  502    0  0.41205686098E+03 -0.53152438214E+02 -0.36007578146E+03  0.54979288797E+03  0.12699999809E+01 0.  1.
       -4    1    3    3    0  502 -0.41205686098E+03  0.53152438214E+02  0.15724037574E+02  0.41577024500E+03  0.12699999809E+01 0. -1.
</event>
<event>
 5   0  0.3663255E-03  0.8971972E+03  0.7818609E-02  0.9429092E-01
        2   -1    0    0  501    0  0.00000000000E+00  0.00000000000E+00  0.93394519850E+03  0.93394519850E+03  0.25500000920E-02 0.  1.
       -2   -1    0    0    0  501  0.00000000000E+00  0.00000000000E+00 -0.21547376314E+03  0.21547376316E+03  0.25500000920E-02 0. -1.
    10030    2    1    2    0    0  0.00000000000E+00  0.00000000000E+00  0.71847143536E+03  0.11494189617E+04  0.89719716116E+03 0.  0.
        4    1    3    3  502    0 -0.27913421727E+03 -0.34068982956E+03  0.46834641700E+03  0.64291169723E+03  0.12699999809E+01 0. -1.
       -4    1    3    3    0  502  0.27913421727E+03  0.34068982956E+03  0.25012501835E+03  0.50650726443E+03  0.12699999809E+01 0.  1.
</event>
<event>
 5   0  0.3806019E-03  0.9163782E+03  0.7818609E-02  0.9405336E-01
       -2   -1    0    0    0  501  0.00000000000E+00  0.00000000000E+00  0.22067446682E+03  0.22067446684E+03  0.25500000920E-02 0.  1.
        2   -1    0    0  501    0  0.00000000000E+00  0.00000000000E+00 -0.95134361696E+03  0.95134361697E+03  0.25500000920E-02 0. -1.
    10030    2    1    2    0    0  0.00000000000E+00  0.00000000000E+00 -0.73066915014E+03  0.11720180838E+04  0.91637818710E+03 0.  0.
        2    1    3    3  502    0  0.18437778374E+03 -0.37167642009E+03 -0.61399009208E+03  0.74102790876E+03  0.25500000920E-02 0. -1.
       -2    1    3    3    0  502 -0.18437778374E+03  0.37167642009E+03 -0.11667905806E+03  0.43099017504E+03  0.25500000920E-02 0.  1.
</event>
<event>
 5   0  0.2134145E-03  0.8938816E+03  0.7818609E-02  0.9433262E-01
        1   -1    0    0  501    0  0.00000000000E+00  0.00000000000E+00  0.30203128518E+03  0.30203128522E+03  0.50400001928E-02 0. -1.
       -1   -1    0    0    0  501  0.00000000000E+00  0.00000000000E+00 -0.66137540730E+03  0.66137540732E+03  0.50400001928E-02 0.  1.
    10030    2    1    2    0    0  0.00000000000E+00  0.00000000000E+00 -0.35934412212E+03  0.96340669254E+03  0.89388156773E+03 0.  0.
        1    1    3    3  502    0 -0.39234468053E+03 -0.15476821161E+03 -0.33905408561E+03  0.54115175382E+03  0.50400001928E-02 0.  1.
       -1    1    3    3    0  502  0.39234468053E+03  0.15476821161E+03 -0.20290036510E+02  0.42225493872E+03  0.50400001928E-02 0. -1.
</event>
<event>
 5   0  0.3815269E-03  0.8989840E+03  0.7818609E-02  0.9426852E-01
       -2   -1    0    0    0  501  0.00000000000E+00  0.00000000000E+00  0.30570957139E+03  0.30570957140E+03  0.25500000920E-02 0. -1.
        2   -1    0    0  501    0  0.00000000000E+00  0.00000000000E+00 -0.66089863580E+03  0.66089863580E+03  0.25500000920E-02 0.  1.
    10030    2    1    2    0    0  0.00000000000E+00  0.00000000000E+00 -0.35518906441E+03  0.96660820720E+03  0.89898395690E+03 0.  0.
        5    1    3    3  502    0  0.29529231156E+03  0.93225536228E+02  0.17269126367E+03  0.35458837040E+03  0.46999998093E+01 0. -1.
       -5    1    3    3    0  502 -0.29529231156E+03 -0.93225536228E+02 -0.52788032808E+03  0.61201983681E+03  0.46999998093E+01 0.  1.
</event>
<event>
 5   0  0.2129280E-03  0.9327107E+03  0.7818609E-02  0.9385591E-01
        1   -1    0    0  501    0  0.00000000000E+00  0.00000000000E+00  0.20370644498E+04  0.20370644498E+04  0.50400001928E-02 0. -1.
       -1   -1    0    0    0  501  0.00000000000E+00  0.00000000000E+00 -0.10676506103E+03  0.10676506115E+03  0.50400001928E-02 0.  1.
    10030    2    1    2    0    0  0.00000000000E+00  0.00000000000E+00  0.19302993888E+04  0.21438295110E+04  0.93271069562E+03 0.  0.
        3    1    3    3  502    0 -0.28895546705E+03 -0.36597048897E+03  0.94769937461E+03  0.10562025258E+04  0.10100000352E+00 0. -1.
       -3    1    3    3    0  502  0.28895546705E+03  0.36597048897E+03  0.98260001416E+03  0.10876269851E+04  0.10100000352E+00 0.  1.
</event>
<event>
 5   0  0.3663255E-03  0.8906902E+03  0.7818609E-02  0.9437294E-01
       -2   -1    0    0    0  501  0.00000000000E+00  0.00000000000E+00  0.82865442348E+02  0.82865442388E+02  0.25500000920E-02 0. -1.
        2   -1    0    0  501    0  0.00000000000E+00  0.00000000000E+00 -0.23934255719E+04  0.23934255719E+04  0.25500000920E-02 0.  1.
    10030    2    1    2    0    0  0.00000000000E+00  0.00000000000E+00 -0.23105601296E+04  0.24762910143E+04  0.89069022403E+03 0.  0.
        4    1    3    3  502    0 -0.24176547728E+03  0.35749585039E+03 -0.14608083452E+04  0.15232256771E+04  0.12699999809E+01 0.  1.
       -4    1    3    3    0  502  0.24176547728E+03 -0.35749585039E+03 -0.84975178435E+03  0.95306533719E+03  0.12699999809E+01 0. -1.
</event>
<event>
 5   0  0.1436000E-03  0.8919486E+03  0.7818609E-02  0.9435702E-01
       -3   -1    0    0    0  501  0.00000000000E+00  0.00000000000E+00  0.41542877106E+03  0.41542878334E+03  0.10100000352E+00 0. -1.
        3   -1    0    0  501    0  0.00000000000E+00  0.00000000000E+00 -0.47876571552E+03  0.47876572617E+03  0.10100000352E+00 0.  1.
    10030    2    1    2    0    0  0.00000000000E+00  0.00000000000E+00 -0.63336944461E+02  0.89419450951E+03  0.89194857044E+03 0.  0.
        4    1    3    3  502    0  0.33244388674E+03  0.13952247958E+03 -0.29482895451E+03  0.46573724938E+03  0.12699999809E+01 0. -1.
       -4    1    3    3    0  502 -0.33244388674E+03 -0.13952247958E+03  0.23149201005E+03  0.42845726013E+03  0.12699999809E+01 0.  1.
</event>
<event>
 5   0  0.1436000E-03  0.8988175E+03  0.7818609E-02  0.9427061E-01
        4   -1    0    0  501    0  0.00000000000E+00  0.00000000000E+00  0.64906085069E+03  0.64906209318E+03  0.12699999809E+01 0. -1.
       -4   -1    0    0    0  501  0.00000000000E+00  0.00000000000E+00 -0.31116712727E+03  0.31116971896E+03  0.12699999809E+01 0.  1.
    10030    2    1    2    0    0  0.00000000000E+00  0.00000000000E+00  0.33789372342E+03  0.96023181213E+03  0.89881753694E+03 0.  0.
        4    1    3    3  502    0  0.29524759972E+03 -0.12615255016E+03  0.50488631820E+03  0.59832885461E+03  0.12699999809E+01 0. -1.
       -4    1    3    3    0  502 -0.29524759972E+03  0.12615255016E+03 -0.16699259479E+03  0.36190295752E+03  0.12699999809E+01 0.  1.
</event>
<event>
 5   0  0.2134145E-03  0.9005269E+03  0.7818609E-02  0.9424923E-01
       -1   -1    0    0    0  501  0.00000000000E+00  0.00000000000E+00  0.53361417588E+03  0.53361417590E+03  0.50400001928E-02 0. -1.
        1   -1    0    0  501    0  0.00000000000E+00  0.00000000000E+00 -0.37993211966E+03  0.37993211969E+03  0.50400001928E-02 0.  1.
    10030    2    1    2    0    0  0.00000000000E+00  0.00000000000E+00  0.15368205622E+03  0.91354629559E+03  0.90052687899E+03 0.  0.
        1    1    3    3  502    0  0.30412769962E+03  0.32353685583E+02  0.41206782677E+03  0.51316694411E+03  0.50400001928E-02 0. -1.
       -1    1    3    3    0  502 -0.30412769962E+03 -0.32353685583E+02 -0.25838577055E+03  0.40037935148E+03  0.50400001928E-02 0.  1.
</event>
<event>
 5   0  0.2134145E-03  0.9009541E+03  0.7818609E-02  0.9424390E-01
        1   -1    0    0  501    0  0.00000000000E+00  0.00000000000E+00  0.77649422703E+03  0.77649422705E+03  0.50400001928E-02 0. -1.
       -1   -1    0    0    0  501  0.00000000000E+00  0.00000000000E+00 -0.26134074739E+03  0.26134074744E+03  0.50400001928E-02 0.  1.
    10030    2    1    2    0    0  0.00000000000E+00  0.00000000000E+00  0.51515347964E+03  0.10378349745E+04  0.90095412019E+03 0.  0.
        1    1    3    3  502    0 -0.29432563458E+03 -0.31643214054E+03  0.40406975931E+03  0.59163269784E+03  0.50400001928E-02 0. -1.
       -1    1    3    3    0  502  0.29432563458E+03  0.31643214054E+03  0.11108372033E+03  0.44620227665E+03  0.50400001928E-02 0.  1.
</event>
<event>
 5   0  0.2129280E-03  0.8987878E+03  0.7818609E-02  0.9427098E-01
        1   -1    0    0  501    0  0.00000000000E+00  0.00000000000E+00  0.26238908095E+03  0.26238908100E+03  0.50400001928E-02 0.  1.
       -1   -1    0    0    0  501  0.00000000000E+00  0.00000000000E+00 -0.76967719082E+03  0.76967719083E+03  0.50400001928E-02 0. -1.
    10030    2    1    2    0    0  0.00000000000E+00  0.00000000000E+00 -0.50728810986E+03  0.10320662718E+04  0.89878782983E+03 0.  0.
        3    1    3    3  502    0  0.50516916570E+02 -0.25505726494E+03 -0.67453265028E+03  0.72291111054E+03  0.10100000352E+00 0. -1.
       -3    1    3    3    0  502 -0.50516916570E+02  0.25505726494E+03  0.16724454041E+03  0.30915516129E+03  0.10100000352E+00 0.  1.
</event>
<event>
 5   0  0.3663255E-03  0.8952392E+03  0.7818609E-02  0.9431552E-01
        2   -1    0    0  501    0  0.00000000000E+00  0.00000000000E+00  0.49590624665E+03  0.49590624665E+03  0.25500000920E-02 0.  1.
       -2   -1    0    0    0  501  0.00000000000E+00  0.00000000000E+00 -0.40403465785E+03  0.40403465786E+03  0.25500000920E-02 0. -1.
    10030    2    1    2    0    0  0.00000000000E+00  0.00000000000E+00  0.91871588798E+02  0.89994090451E+03  0.89523920981E+03 0.  0.
        4    1    3    3  502    0  0.74423601784E+01  0.25018110504E+02  0.49513876465E+03  0.49582789730E+03  0.12699999809E+01 0.  1.
       -4    1    3    3    0  502 -0.74423601784E+01 -0.25018110504E+02 -0.40326717585E+03  0.40411300721E+03  0.12699999809E+01 0. -1.
</event>
<event>
 5   0  0.3685879E-03  0.9022233E+03  0.7818609E-02  0.9422806E-01
       -2   -1    0    0    0  501  0.00000000000E+00  0.00000000000E+00  0.96445853332E+02  0.96445853366E+02  0.25500000920E-02 0. -1.
        2   -1    0    0  501    0  0.00000000000E+00  0.00000000000E+00 -0.21100102569E+04  0.21100102569E+04  0.25500000920E-02 0.  1.
    10030    2    1    2    0    0  0.00000000000E+00  0.00000000000E+00 -0.20135644036E+04  0.22064561103E+04  0.90222334221E+03 0.  0.
        1    1    3    3  502    0 -0.10004392911E+03  0.12407952309E+03 -0.20388537584E+04  0.20450743663E+04  0.50400001928E-02 0.  1.
       -1    1    3    3    0  502  0.10004392911E+03 -0.12407952309E+03  0.25289354752E+02  0.16138174398E+03  0.50400001928E-02 0. -1.
</event>
<event>
 5   0  0.1436000E-03  0.8951595E+03  0.7818609E-02  0.9431653E-01
        4   -1    0    0  501    0  0.00000000000E+00  0.00000000000E+00  0.59576965864E+03  0.59577101227E+03  0.12699999809E+01 0.  1.
       -4   -1    0    0    0  501  0.00000000000E+00  0.00000000000E+00 -0.33624723286E+03  0.33624963124E+03  0.12699999809E+01 0. -1.
    10030    2    1    2    0    0  0.00000000000E+00  0.00000000000E+00  0.25952242578E+03  0.93202064350E+03  0.89515953351E+03 0.  0.
        1    1    3    3  502    0 -0.19402376193E+03  0.13686461827E+03  0.52479267373E+03  0.57600737353E+03  0.50400001928E-02 0.  1.
       -1    1    3    3    0  502  0.19402376193E+03 -0.13686461827E+03 -0.26527024795E+03  0.35601326998E+03  0.50400001928E-02 0. -1.
</event>
<event>
 5   0  0.2074970E-03  0.9025040E+03  0.7818609E-02  0.9422457E-01
       -1   -1    0    0    0  501  0.00000000000E+00  0.00000000000E+00  0.35077814444E+03  0.35077814448E+03  0.50400001928E-02 0. -1.
        1   -1    0    0  501    0  0.00000000000E+00  0.00000000000E+00 -0.58050476420E+03  0.58050476423E+03  0.50400001928E-02 0.  1.
    10030    2    1    2    0    0  0.00000000000E+00  0.00000000000E+00 -0.22972661976E+03  0.93128290870E+03  0.90250403667E+03 0.  0.
        2    1    3    3  502    0  0.17975162512E+03  0.23596496789E+01 -0.54196037485E+03  0.57099672731E+03  0.25500000920E-02 0.  1.
       -2    1    3    3    0  502 -0.17975162512E+03 -0.23596496789E+01  0.31223375509E+03  0.36028618139E+03  0.25500000920E-02 0. -1.
</event>
<event>
 5   0  0.2130975E-03  0.9047106E+03  0.7818609E-02  0.9419712E-01
       -1   -1    0    0    0  501  0.00000000000E+00  0.00000000000E+00  0.17430996598E+03  0.17430996605E+03  0.50400001928E-02 0.  1.
        1   -1    0    0  501    0  0.00000000000E+00  0.00000000000E+00 -0.11739163310E+04  0.11739163311E+04  0.50400001928E-02 0. -1.
    10030    2    1    2    0    0  0.00000000000E+00  0.00000000000E+00 -0.99960636506E+03  0.13482262971E+04  0.90471059634E+03 0.  0.
        5    1    3    3  502    0 -0.68023473871E+02 -0.57357671816E+02  0.16110325895E+03  0.18410172611E+03  0.46999998093E+01 0.  1.
       -5    1    3    3    0  502  0.68023473871E+02  0.57357671816E+02 -0.11607096240E+04  0.11641245710E+04  0.46999998093E+01 0. -1.
</event>
<event>
 5   0  0.3663255E-03  0.9009686E+03  0.7818609E-02  0.9424371E-01
       -2   -1    0    0    0  501  0.00000000000E+00  0.00000000000E+00  0.13740167672E+03  0.13740167675E+03  0.25500000920E-02 0. -1.
        2   -1    0    0  501    0  0.00000000000E+00  0.00000000000E+00 -0.14769550745E+04  0.14769550745E+04  0.25500000920E-02 0.  1.
    10030    2    1    2    0    0  0.00000000000E+00  0.00000000000E+00 -0.13395533977E+04  0.16143567512E+04  0.90096859812E+03 0.  0.
        4    1    3    3  502    0  0.35327342754E+03  0.13783645511E+03 -0.23405758933E+03  0.44562940993E+03  0.12699999809E+01 0. -1.
       -4    1    3    3    0  502 -0.35327342754E+03 -0.13783645511E+03 -0.11054958084E+04  0.11687273413E+04  0.12699999809E+01 0.  1.
</event>
<event>
 5   0  0.2129280E-03  0.9015009E+03  0.7818609E-02  0.9423707E-01
        1   -1    0    0  501    0  0.00000000000E+00  0.00000000000E+00  0.71596858097E+03  0.71596858099E+03  0.50400001928E-02 0.  1.
       -1   -1    0    0    0  501  0.00000000000E+00  0.00000000000E+00 -0.28377779954E+03  0.28377779959E+03  0.50400001928E-02 0. -1.
    10030    2    1    2    0    0  0.00000000000E+00  0.00000000000E+00  0.43219078143E+03  0.99974638057E+03  0.90150094505E+03 0.  0.
        3    1    3    3  502    0  0.16510818793E+03 -0.30112650483E+02 -0.24783542060E+03  0.29931570514E+03  0.10100000352E+00 0. -1.
       -3    1    3    3    0  502 -0.16510818793E+03  0.30112650483E+02  0.68002620203E+03  0.70043067543E+03  0.10100000352E+00 0.  1.
</event>
<event>
 5   0  0.3663255E-03  0.9007671E+03  0.7818609E-02  0.9424623E-01
        2   -1    0    0  501    0  0.00000000000E+00  0.00000000000E+00  0.65536571406E+03  0.65536571406E+03  0.25500000920E-02 0.  1.
       -2   -1    0    0    0  501  0.00000000000E+00  0.00000000000E+00 -0.30951475024E+03  0.30951475025E+03  0.25500000920E-02 0. -1.
    10030    2    1    2    0    0  0.00000000000E+00  0.00000000000E+00  0.34585096382E+03  0.96488046431E+03  0.90076712931E+03 0.  0.
        4    1    3    3  502    0  0.36082309451E+03  0.44515507678E+02 -0.11183181526E+03  0.38037205965E+03  0.12699999809E+01 0. -1.
       -4    1    3    3    0  502 -0.36082309451E+03 -0.44515507678E+02  0.45768277908E+03  0.58450840466E+03  0.12699999809E+01 0.  1.
</event>
<event>
 5   0  0.2129280E-03  0.8913909E+03  0.7818609E-02  0.9436408E-01
       -1   -1    0    0    0  501  0.00000000000E+00  0.00000000000E+00  0.32056867761E+03  0.32056867765E+03  0.50400001928E-02 0. -1.
        1   -1    0    0  501    0  0.00000000000E+00  0.00000000000E+00 -0.61966261999E+03  0.61966262001E+03  0.50400001928E-02 0.  1.
    10030    2    1    2    0    0  0.00000000000E+00  0.00000000000E+00 -0.29909394238E+03  0.94023129766E+03  0.89139088325E+03 0.  0.
        3    1    3    3  502    0 -0.28640090356E+03  0.28219363418E+03 -0.35240088368E+03  0.53464485198E+03  0.10100000352E+00 0.  1.
       -3    1    3    3    0  502  0.28640090356E+03 -0.28219363418E+03  0.53306941296E+02  0.40558644568E+03  0.10100000352E+00 0. -1.
</event>
<event>
 5   0  0.2134145E-03  0.9015531E+03  0.7818609E-02  0.9423642E-01
       -1   -1    0    0    0  501  0.00000000000E+00  0.00000000000E+00  0.27690644242E+03  0.27690644247E+03  0.50400001928E-02 0.  1.
        1   -1    0    0  501    0  0.00000000000E+00  0.00000000000E+00 -0.73382003009E+03  0.73382003010E+03  0.50400001928E-02 0. -1.
    10030    2    1    2    0    0  0.00000000000E+00  0.00000000000E+00 -0.45691358766E+03  0.10107264726E+04  0.90155309093E+03 0.  0.
        1    1    3    3  502    0 -0.24975885892E+03 -0.37188894194E+03 -0.28471990702E+03  0.53079779410E+03  0.50400001928E-02 0. -1.
       -1    1    3    3    0  502  0.24975885892E+03  0.37188894194E+03 -0.17219368064E+03  0.47992867847E+03  0.50400001928E-02 0.  1.
</event>
<event>
 5   0  0.3685879E-03  0.8974177E+03  0.7818609E-02  0.9428815E-01
        2   -1    0    0  501    0  0.00000000000E+00  0.00000000000E+00  0.33769977367E+03  0.33769977368E+03  0.25500000920E-02 0. -1.
       -2   -1    0    0    0  501  0.00000000000E+00  0.00000000000E+00 -0.59620897969E+03  0.59620897970E+03  0.25500000920E-02 0.  1.
    10030    2    1    2    0    0  0.00000000000E+00  0.00000000000E+00 -0.25850920602E+03  0.93390875337E+03  0.89741771212E+03 0.  0.
        1    1    3    3  502    0 -0.37671252771E+03 -0.89870697310E+02 -0.36507557745E+03  0.53223044637E+03  0.50400001928E-02 0.  1.
       -1    1    3    3    0  502  0.37671252771E+03  0.89870697310E+02  0.10656637142E+03  0.40167830700E+03  0.50400001928E-02 0. -1.
</event>
<event>
 5   0  0.3685879E-03  0.9015254E+03  0.7818609E-02  0.9423677E-01
       -2   -1    0    0    0  501  0.00000000000E+00  0.00000000000E+00  0.18361654136E+03  0.18361654138E+03  0.25500000920E-02 0. -1.
        2   -1    0    0  501    0  0.00000000000E+00  0.00000000000E+00 -0.11065834702E+04  0.11065834702E+04  0.25500000920E-02 0.  1.
    10030    2    1    2    0    0  0.00000000000E+00  0.00000000000E+00 -0.92296692882E+03  0.12902000116E+04  0.90152543955E+03 0.  0.
        1    1    3    3  502    0 -0.42415949277E+02 -0.11865391836E+03  0.15789851894E+03  0.20201437425E+03  0.50400001928E-02 0. -1.
       -1    1    3    3    0  502  0.42415949277E+02  0.11865391836E+03 -0.10808654478E+04  0.10881856373E+04  0.50400001928E-02 0.  1.
</event>
<event>
 5   0  0.3663255E-03  0.9001473E+03  0.7818609E-02  0.9425397E-01
        2   -1    0    0  501    0  0.00000000000E+00  0.00000000000E+00  0.11621529207E+04  0.11621529207E+04  0.25500000920E-02 0.  1.
       -2   -1    0    0    0  501  0.00000000000E+00  0.00000000000E+00 -0.17430261521E+03  0.17430261522E+03  0.25500000920E-02 0. -1.
    10030    2    1    2    0    0  0.00000000000E+00  0.00000000000E+00  0.98785030547E+03  0.13364555359E+04  0.90014730652E+03 0.  0.
        4    1    3    3  502    0 -0.15571583758E+03 -0.41587694047E+03  0.38518992117E+03  0.58785537334E+03  0.12699999809E+01 0. -1.
       -4    1    3    3    0  502  0.15571583758E+03  0.41587694047E+03  0.60266038430E+03  0.74860016257E+03  0.12699999809E+01 0.  1.
</event>
<event>
 5   0  0.3663255E-03  0.9147142E+03  0.7818609E-02  0.9407373E-01
        2   -1    0    0  501    0  0.00000000000E+00  0.00000000000E+00  0.91084112356E+03  0.91084112356E+03  0.25500000920E-02 0. -1.
       -2   -1    0    0    0  501  0.00000000000E+00  0.00000000000E+00 -0.22965093979E+03  0.22965093980E+03  0.25500000920E-02 0.  1.
    10030    2    1    2    0    0  0.00000000000E+00  0.00000000000E+00  0.68119018377E+03  0.11404920634E+04  0.91471420680E+03 0.  0.
        4    1    3    3  502    0  0.26995907079E+03  0.15045024910E+03  0.76094607079E+03  0.82131218967E+03  0.12699999809E+01 0. -1.
       -4    1    3    3    0  502 -0.26995907079E+03 -0.15045024910E+03 -0.79755887020E+02  0.31917987369E+03  0.12699999809E+01 0.  1.
</event>
<event>
 5   0  0.2134145E-03  0.9025714E+03  0.7818609E-02  0.9422373E-01
       -1   -1    0    0    0  501  0.00000000000E+00  0.00000000000E+00  0.26033538668E+03  0.26033538673E+03  0.50400001928E-02 0. -1.
        1   -1    0    0  501    0  0.00000000000E+00  0.00000000000E+00 -0.78229387268E+03  0.78229387270E+03  0.50400001928E-02 0.  1.
    10030    2    1    2    0    0  0.00000000000E+00  0.00000000000E+00 -0.52195848600E+03  0.10426292594E+04  0.90257138860E+03 0.  0.
        1    1    3    3  502    0 -0.29020784807E+03 -0.28829005054E+03 -0.48115185243E+03  0.63153689792E+03  0.50400001928E-02 0.  1.
       -1    1    3    3    0  502  0.29020784807E+03  0.28829005054E+03 -0.40806633571E+02  0.41109236151E+03  0.50400001928E-02 0. -1.
</event>
<event>
 5   0  0.2129280E-03  0.9008276E+03  0.7818609E-02  0.9424547E-01
       -1   -1    0    0    0  501  0.00000000000E+00  0.00000000000E+00  0.51140811662E+03  0.51140811665E+03  0.50400001928E-02 0. -1.
        1   -1    0    0  501    0  0.00000000000E+00  0.00000000000E+00 -0.39669410984E+03  0.39669410987E+03  0.50400001928E-02 0.  1.
    10030    2    1    2    0    0  0.00000000000E+00  0.00000000000E+00  0.11471400678E+03  0.90810222651E+03  0.90082759197E+03 0.  0.
        3    1    3    3  502    0  0.11727779498E+03  0.43178429937E+03  0.51622937872E+01  0.44745773192E+03  0.10100000352E+00 0.  1.
       -3    1    3    3    0  502 -0.11727779498E+03 -0.43178429937E+03  0.10955171300E+03  0.46064449459E+03  0.10100000352E+00 0. -1.
</event>
<event>
 5   0  0.3806019E-03  0.9015308E+03  0.7818609E-02  0.9423670E-01
       -2   -1    0    0    0  501  0.00000000000E+00  0.00000000000E+00  0.20456732146E+03  0.20456732148E+03  0.25500000920E-02 0. -1.
        2   -1    0    0  501    0  0.00000000000E+00  0.00000000000E+00 -0.99326443618E+03  0.99326443618E+03  0.25500000920E-02 0.  1.
    10030    2    1    2    0    0  0.00000000000E+00  0.00000000000E+00 -0.78869711472E+03  0.11978317577E+04  0.90153079864E+03 0.  0.
        2    1    3    3  502    0  0.84402508903E+02 -0.43185001819E+03 -0.52433527703E+03  0.68450398425E+03  0.25500000920E-02 0.  1.
       -2    1    3    3    0  502 -0.84402508903E+02  0.43185001819E+03 -0.26436183769E+03  0.51332777341E+03  0.25500000920E-02 0. -1.
</event>
<event>
 5   0  0.1436000E-03  0.9011924E+03  0.7818609E-02  0.9424092E-01
        3   -1    0    0  501    0  0.00000000000E+00  0.00000000000E+00  0.15998331212E+03  0.15998334400E+03  0.10100000352E+00 0. -1.
       -3   -1    0    0    0  501  0.00000000000E+00  0.00000000000E+00 -0.12691130328E+04  0.12691130368E+04  0.10100000352E+00 0.  1.
    10030    2    1    2    0    0  0.00000000000E+00  0.00000000000E+00 -0.11091297207E+04  0.14290963808E+04  0.90119239253E+03 0.  0.
        5    1    3    3  502    0  0.39015698366E+03 -0.12195902300E+03 -0.85510486834E+03  0.94779897713E+03  0.46999998093E+01 0.  1.
       -5    1    3    3    0  502 -0.39015698366E+03  0.12195902300E+03 -0.25402485235E+03  0.48129740369E+03  0.46999998093E+01 0. -1.
</event>
<event>
 5   0  0.2074970E-03  0.9004522E+03  0.7818609E-02  0.9425016E-01
       -1   -1    0    0    0  501  0.00000000000E+00  0.00000000000E+00  0.29327101301E+03  0.29327101306E+03  0.50400001928E-02 0. -1.
        1   -1    0    0  501    0  0.00000000000E+00  0.00000000000E+00 -0.69118164420E+03  0.69118164422E+03  0.50400001928E-02 0.  1.
    10030    2    1    2    0    0  0.00000000000E+00  0.00000000000E+00 -0.39791063119E+03  0.98445265727E+03  0.90045219973E+03 0.  0.
        2    1    3    3  502    0  0.39564260926E+03  0.11045575809E+03  0.25478605738E+01  0.41077979546E+03  0.25500000920E-02 0. -1.
       -2    1    3    3    0  502 -0.39564260926E+03 -0.11045575809E+03 -0.40045849176E+03  0.57367286182E+03  0.25500000920E-02 0.  1.
</event>
<event>
 5   0  0.2074970E-03  0.8988037E+03  0.7818609E-02  0.9427078E-01
        1   -1    0    0  501    0  0.00000000000E+00  0.00000000000E+00  0.47976209537E+03  0.47976209539E+03  0.50400001928E-02 0. -1.
       -1   -1    0    0    0  501  0.00000000000E+00  0.00000000000E+00 -0.42096282453E+03  0.42096282456E+03  0.50400001928E-02 0.  1.
    10030    2    1    2    0    0  0.00000000000E+00  0.00000000000E+00  0.58799270836E+02  0.90072491995E+03  0.89880366442E+03 0.  0.
        2    1    3    3  502    0 -0.12460415418E+03  0.31035673222E+03  0.33023210403E+03  0.47000078618E+03  0.25500000920E-02 0. -1.
       -2    1    3    3    0  502  0.12460415418E+03 -0.31035673222E+03 -0.27143283319E+03  0.43072413377E+03  0.25500000920E-02 0.  1.
</event>
<event>
 5   0  0.2295158E-03  0.8994092E+03  0.7818609E-02  0.9426320E-01
        1   -1    0    0  501    0  0.00000000000E+00  0.00000000000E+00  0.42100182012E+03  0.42100182015E+03  0.50400001928E-02 0. -1.
       -1   -1    0    0    0  501  0.00000000000E+00  0.00000000000E+00 -0.48036428745E+03  0.48036428748E+03  0.50400001928E-02 0.  1.
    10030    2    1    2    0    0  0.00000000000E+00  0.00000000000E+00 -0.59362467328E+02  0.90136610763E+03  0.89940922692E+03 0.  0.
        4    1    3    3  502    0 -0.31484577756E+03 -0.24179360665E+03 -0.24142418792E+03  0.46462809135E+03  0.12699999809E+01 0.  1.
       -4    1    3    3    0  502  0.31484577756E+03  0.24179360665E+03  0.18206172059E+03  0.43673801628E+03  0.12699999809E+01 0. -1.
</event>
<event>
 5   0  0.3806019E-03  0.8974441E+03  0.7818609E-02  0.9428782E-01
       -2   -1    0    0    0  501  0.00000000000E+00  0.00000000000E+00  0.17843962473E+03  0.17843962474E+03  0.25500000920E-02 0. -1.
        2   -1    0    0  501    0  0.00000000000E+00  0.00000000000E+00 -0.11284010472E+04  0.11284010472E+04  0.25500000920E-02 0.  1.
    10030    2    1    2    0    0  0.00000000000E+00  0.00000000000E+00 -0.94996142250E+03  0.13068406720E+04  0.89744405825E+03 0.  0.
        2    1    3    3  502    0  0.24676133944E+03  0.37425235543E+03 -0.44602228874E+03  0.63237003901E+03  0.25500000920E-02 0. -1.
       -2    1    3    3    0  502 -0.24676133944E+03 -0.37425235543E+03 -0.50393913376E+03  0.67447063296E+03  0.25500000920E-02 0.  1.
</event>
<event>
 5   0  0.2134145E-03  0.8994708E+03  0.7818609E-02  0.9426243E-01
       -1   -1    0    0    0  501  0.00000000000E+00  0.00000000000E+00  0.57882869499E+03  0.57882869502E+03  0.50400001928E-02 0.  1.
        1   -1    0    0  501    0  0.00000000000E+00  0.00000000000E+00 -0.34943313924E+03  0.34943313928E+03  0.50400001928E-02 0. -1.
    10030    2    1    2    0    0  0.00000000000E+00  0.00000000000E+00  0.22939555575E+03  0.92826183430E+03  0.89947079553E+03 0.  0.
        1    1    3    3  502    0  0.30192219787E+03  0.33187402137E+03  0.82646494073E+02  0.45621028335E+03  0.50400001928E-02 0.  1.
       -1    1    3    3    0  502 -0.30192219787E+03 -0.33187402137E+03  0.14674906168E+03  0.47205155095E+03  0.50400001928E-02 0. -1.
</event>
<event>
 5   0  0.3806019E-03  0.8981283E+03  0.7818609E-02  0.9427924E-01
       -2   -1    0    0    0  501  0.00000000000E+00  0.00000000000E+00  0.15966336454E+03  0.15966336456E+03  0.25500000920E-02 0. -1.
        2   -1    0    0  501    0  0.00000000000E+00  0.00000000000E+00 -0.12630236242E+04  0.12630236242E+04  0.25500000920E-02 0.  1.
    10030    2    1    2    0    0  0.00000000000E+00  0.00000000000E+00 -0.11033602597E+04  0.14226869888E+04  0.89812827893E+03 0.  0.
        2    1    3    3  502    0  0.33269386650E+03  0.38945957661E+02 -0.77899616123E+02  0.34390456035E+03  0.25500000920E-02 0. -1.
       -2    1    3    3    0  502 -0.33269386650E+03 -0.38945957661E+02 -0.10254606435E+04  0.10787824284E+04  0.25500000920E-02 0.  1.
</event>
<event>
 5   0  0.3806019E-03  0.9011289E+03  0.7818609E-02  0.9424171E-01
       -2   -1    0    0    0  501  0.00000000000E+00  0.00000000000E+00  0.15850306278E+03  0.15850306280E+03  0.25500000920E-02 0.  1.
        2   -1    0    0  501    0  0.00000000000E+00  0.00000000000E+00 -0.12807849242E+04  0.12807849242E+04  0.25500000920E-02 0. -1.
    10030    2    1    2    0    0  0.00000000000E+00  0.00000000000E+00 -0.11222818615E+04  0.14392879870E+04  0.90112892145E+03 0.  0.
        2    1    3    3  502    0  0.59244215792E+01  0.37257255800E+03 -0.15656238957E+03  0.40417470428E+03  0.25500000920E-02 0.  1.
       -2    1    3    3    0  502 -0.59244215792E+01 -0.37257255800E+03 -0.96571947190E+03  0.10351132828E+04  0.25500000920E-02 0. -1.
</event>
<event>
 5   0  0.3806019E-03  0.9057354E+03  0.7818609E-02  0.9418440E-01
       -2   -1    0    0    0  501  0.00000000000E+00  0.00000000000E+00  0.41745064908E+03  0.41745064909E+03  0.25500000920E-02 0.  1.
        2   -1    0    0  501    0  0.00000000000E+00  0.00000000000E+00 -0.49128955704E+03  0.49128955705E+03  0.25500000920E-02 0. -1.
    10030    2    1    2    0    0  0.00000000000E+00  0.00000000000E+00 -0.73838907962E+02  0.90874020614E+03  0.90573537963E+03 0.  0.
        2    1    3    3  502    0  0.40202490703E+03 -0.20160920650E+03  0.16349494126E+02  0.45004178027E+03  0.25500000920E-02 0.  1.
       -2    1    3    3    0  502 -0.40202490703E+03  0.20160920650E+03 -0.90188402088E+02  0.45869842587E+03  0.25500000920E-02 0. -1.
</event>
<event>
 5   0  0.3685879E-03  0.8940113E+03  0.7818609E-02  0.9433099E-01
        2   -1    0    0  501    0  0.00000000000E+00  0.00000000000E+00  0.78761459585E+03  0.78761459585E+03  0.25500000920E-02 0.  1.
       -2   -1    0    0    0  501  0.00000000000E+00  0.00000000000E+00 -0.25369518559E+03  0.25369518560E+03  0.25500000920E-02 0. -1.
    10030    2    1    2    0    0  0.00000000000E+00  0.00000000000E+00  0.53391941026E+03  0.10413097815E+04  0.89401125513E+03 0.  0.
        1    1    3    3  502    0  0.32619067612E+03  0.18977302462E+03  0.54601638784E+03  0.66373794066E+03  0.50400001928E-02 0.  1.
       -1    1    3    3    0  502 -0.32619067612E+03 -0.18977302462E+03 -0.12096977577E+02  0.37757184079E+03  0.50400001928E-02 0. -1.
</event>
<event>
 5   0  0.2074970E-03  0.8999653E+03  0.7818609E-02  0.9425625E-01
       -1   -1    0    0    0  501  0.00000000000E+00  0.00000000000E+00  0.49621212496E+03  0.49621212499E+03  0.50400001928E-02 0.  1.
        1   -1    0    0  501    0  0.00000000000E+00  0.00000000000E+00 -0.40806015765E+03  0.40806015768E+03  0.50400001928E-02 0. -1.
    10030    2    1    2    0    0  0.00000000000E+00  0.00000000000E+00  0.88151967315E+02  0.90427228267E+03  0.89996532814E+03 0.  0.
        2    1    3    3  502    0  0.33169869403E+03  0.30211637543E+03  0.78680167216E+02  0.45550949128E+03  0.25500000920E-02 0.  1.
       -2    1    3    3    0  502 -0.33169869403E+03 -0.30211637543E+03  0.94718000986E+01  0.44876279139E+03  0.25500000920E-02 0. -1.
</event>
<event>
 5   0  0.3663255E-03  0.9220427E+03  0.7818609E-02  0.9398439E-01
        2   -1    0    0  501    0  0.00000000000E+00  0.00000000000E+00  0.91947756218E+03  0.91947756219E+03  0.25500000920E-02 0. -1.
       -2   -1    0    0    0  501  0.00000000000E+00  0.00000000000E+00 -0.23115372753E+03  0.23115372754E+03  0.25500000920E-02 0.  1.
    10030    2    1    2    0    0  0.00000000000E+00  0.00000000000E+00  0.68832383466E+03  0.11506312897E+04  0.92204265820E+03 0.  0.
        4    1    3    3  502    0  0.31170452737E+03 -0.19760101776E+03 -0.61790280015E+00  0.36906350308E+03  0.12699999809E+01 0.  1.
       -4    1    3    3    0  502 -0.31170452737E+03  0.19760101776E+03  0.68894173746E+03  0.78156778664E+03  0.12699999809E+01 0. -1.
</event>
<event>
 5   0  0.3815269E-03  0.9005013E+03  0.7818609E-02  0.9424955E-01
        2   -1    0    0  501    0  0.00000000000E+00  0.00000000000E+00  0.44863990006E+03  0.44863990006E+03  0.25500000920E-02 0.  1.
       -2   -1    0    0    0  501  0.00000000000E+00  0.00000000000E+00 -0.45186717933E+03  0.45186717934E+03  0.25500000920E-02 0. -1.
    10030    2    1    2    0    0  0.00000000000E+00  0.00000000000E+00 -0.32272792786E+01  0.90050707940E+03  0.90050129635E+03 0.  0.
        5    1    3    3  502    0  0.23471348567E+03 -0.18483785333E+03 -0.33843638374E+03  0.45146066077E+03  0.46999998093E+01 0. -1.
       -5    1    3    3    0  502 -0.23471348567E+03  0.18483785333E+03  0.33520910446E+03  0.44904641864E+03  0.46999998093E+01 0.  1.
</event>
<event>
 5   0  0.2129280E-03  0.9263158E+03  0.7818609E-02  0.9393270E-01
        1   -1    0    0  501    0  0.00000000000E+00  0.00000000000E+00  0.12475517139E+04  0.12475517139E+04  0.50400001928E-02 0.  1.
       -1   -1    0    0    0  501  0.00000000000E+00  0.00000000000E+00 -0.17194895891E+03  0.17194895899E+03  0.50400001928E-02 0. -1.
    10030    2    1    2    0    0  0.00000000000E+00  0.00000000000E+00  0.10756027549E+04  0.14195006729E+04  0.92631575274E+03 0.  0.
        3    1    3    3  502    0 -0.84622149962E+02  0.44859886804E+03  0.41798494586E+03  0.61896145101E+03  0.10100000352E+00 0. -1.
       -3    1    3    3    0  502  0.84622149962E+02 -0.44859886804E+03  0.65761780909E+03  0.80053922184E+03  0.10100000352E+00 0.  1.
</event>
<event>
 5   0  0.3815269E-03  0.8998837E+03  0.7818609E-02  0.9425727E-01
       -2   -1    0    0    0  501  0.00000000000E+00  0.00000000000E+00  0.18872209634E+03  0.18872209635E+03  0.25500000920E-02 0.  1.
        2   -1    0    0  501    0  0.00000000000E+00  0.00000000000E+00 -0.10727289425E+04  0.10727289425E+04  0.25500000920E-02 0. -1.
    10030    2    1    2    0    0  0.00000000000E+00  0.00000000000E+00 -0.88400684613E+03  0.12614510388E+04  0.89988366989E+03 0.  0.
        5    1    3    3  502    0 -0.38374295735E+03  0.19865524424E+03 -0.26634241791E+03  0.50762479939E+03  0.46999998093E+01 0.  1.
       -5    1    3    3    0  502  0.38374295735E+03 -0.19865524424E+03 -0.61766442821E+03  0.75382623943E+03  0.46999998093E+01 0. -1.
</event>
<event>
 5   0  0.2130975E-03  0.9005926E+03  0.7818609E-02  0.9424841E-01
        1   -1    0    0  501    0  0.00000000000E+00  0.00000000000E+00  0.29923320056E+03  0.29923320060E+03  0.50400001928E-02 0.  1.
       -1   -1    0    0    0  501  0.00000000000E+00  0.00000000000E+00 -0.67762121846E+03  0.67762121848E+03  0.50400001928E-02 0. -1.
    10030    2    1    2    0    0  0.00000000000E+00  0.00000000000E+00 -0.37838801790E+03  0.97685441908E+03  0.90059261822E+03 0.  0.
        5    1    3    3  502    0  0.62579913753E+02  0.30688849364E+03  0.16169251234E+03  0.35251007316E+03  0.46999998093E+01 0.  1.
       -5    1    3    3    0  502 -0.62579913753E+02 -0.30688849364E+03 -0.54008053024E+03  0.62434434592E+03  0.46999998093E+01 0. -1.
</event>
<event>
 5   0  0.3815269E-03  0.9009598E+03  0.7818609E-02  0.9424382E-01
        2   -1    0    0  501    0  0.00000000000E+00  0.00000000000E+00  0.11255105056E+04  0.11255105056E+04  0.25500000920E-02 0. -1.
       -2   -1    0    0    0  501  0.00000000000E+00  0.00000000000E+00 -0.18030230377E+03  0.18030230379E+03  0.25500000920E-02 0.  1.
    10030    2    1    2    0    0  0.00000000000E+00  0.00000000000E+00  0.94520820181E+03  0.13058128094E+04  0.90095979285E+03 0.  0.
        5    1    3    3  502    0 -0.11612379221E+03  0.24927301099E+03 -0.44490162655E+02  0.27860946448E+03  0.46999998093E+01 0.  1.
       -5    1    3    3    0  502  0.11612379221E+03 -0.24927301099E+03  0.98969836446E+03  0.10272033449E+04  0.46999998093E+01 0. -1.
</event>
<event>
 5   0  0.3806019E-03  0.9392272E+03  0.7818609E-02  0.9377832E-01
        2   -1    0    0  501    0  0.00000000000E+00  0.00000000000E+00  0.68878660418E+03  0.68878660418E+03  0.25500000920E-02 0.  1.
       -2   -1    0    0    0  501  0.00000000000E+00  0.00000000000E+00 -0.32018179881E+03  0.32018179882E+03  0.25500000920E-02 0. -1.
    10030    2    1    2    0    0  0.00000000000E+00  0.00000000000E+00  0.36860480537E+03  0.10089684030E+04  0.93922720133E+03 0.  0.
        2    1    3    3  502    0  0.39583823990E+03 -0.22302475666E+03  0.56701217548E+02  0.45786786557E+03  0.25500000920E-02 0. -1.
       -2    1    3    3    0  502 -0.39583823990E+03  0.22302475666E+03  0.31190358782E+03  0.55110053742E+03  0.25500000920E-02 0.  1.
</event>
<event>
 5   0  0.2134145E-03  0.9045098E+03  0.7818609E-02  0.9419961E-01
       -1   -1    0    0    0  501  0.00000000000E+00  0.00000000000E+00  0.11135302518E+04  0.11135302518E+04  0.50400001928E-02 0.  1.
        1   -1    0    0  501    0  0.00000000000E+00  0.00000000000E+00 -0.18368114816E+03  0.18368114823E+03  0.50400001928E-02 0. -1.
    10030    2    1    2    0    0  0.00000000000E+00  0.00000000000E+00  0.92984910361E+03  0.12972114000E+04  0.90450984564E+03 0.  0.
        1    1    3    3  502    0  0.37603578981E+03 -0.71832725590E+02  0.81023150575E+03  0.89612384670E+03  0.50400001928E-02 0.  1.
       -1    1    3    3    0  502 -0.37603578981E+03  0.71832725590E+02  0.11961759786E+03  0.40108755332E+03  0.50400001928E-02 0. -1.
</event>
<event>
 5   0  0.2129280E-03  0.9004703E+03  0.7818609E-02  0.9424994E-01
        1   -1    0    0  501    0  0.00000000000E+00  0.00000000000E+00  0.51266772741E+03  0.51266772744E+03  0.50400001928E-02 0.  1.
       -1   -1    0    0    0  501  0.00000000000E+00  0.00000000000E+00 -0.39540564281E+03  0.39540564284E+03  0.50400001928E-02 0. -1.
    10030    2    1    2    0    0  0.00000000000E+00  0.00000000000E+00  0.11726208461E+03  0.90807337028E+03  0.90047034894E+03 0.  0.
        3    1    3    3  502    0  0.14796147441E+03 -0.42268289484E+03  0.11781551397E+02  0.44798687777E+03  0.10100000352E+00 0. -1.
       -3    1    3    3    0  502 -0.14796147441E+03  0.42268289484E+03  0.10548053321E+03  0.46008649251E+03  0.10100000352E+00 0.  1.
</event>
<event>
 5   0  0.3663255E-03  0.8990073E+03  0.7818609E-02  0.9426823E-01
        2   -1    0    0  501    0  0.00000000000E+00  0.00000000000E+00  0.12601929325E+04  0.12601929325E+04  0.25500000920E-02 0.  1.
       -2   -1    0    0    0  501  0.00000000000E+00  0.00000000000E+00 -0.16033539127E+03  0.16033539129E+03  0.25500000920E-02 0. -1.
    10030    2    1    2    0    0  0.00000000000E+00  0.00000000000E+00  0.10998575413E+04  0.14205283238E+04  0.89900729013E+03 0.  0.
        4    1    3    3  502    0  0.35322630061E+03 -0.25519175253E+03  0.37568462862E+03  0.57535398068E+03  0.12699999809E+01 0. -1.
       -4    1    3    3    0  502 -0.35322630061E+03  0.25519175253E+03  0.72417291265E+03  0.84517434315E+03  0.12699999809E+01 0.  1.
</event>
<event>
 5   0  0.3663255E-03  0.9074898E+03  0.7818609E-02  0.9416267E-01
       -2   -1    0    0    0  501  0.00000000000E+00  0.00000000000E+00  0.73178452180E+03  0.73178452180E+03  0.25500000920E-02 0. -1.
        2   -1    0    0  501    0  0.00000000000E+00  0.00000000000E+00 -0.28134569394E+03  0.28134569395E+03  0.25500000920E-02 0.  1.
    10030    2    1    2    0    0  0.00000000000E+00  0.00000000000E+00  0.45043882786E+03  0.10131302158E+04  0.90748977759E+03 0.  0.
        4    1    3    3  502    0  0.42185852868E+02 -0.21969308532E+03  0.66593698637E+03  0.70250863385E+03  0.12699999809E+01 0. -1.
       -4    1    3    3    0  502 -0.42185852868E+02  0.21969308532E+03 -0.21549815851E+03  0.31062158190E+03  0.12699999809E+01 0.  1.
</event>
<event>
 5   0  0.3685879E-03  0.9092820E+03  0.7818609E-02  0.9414052E-01
       -2   -1    0    0    0  501  0.00000000000E+00  0.00000000000E+00  0.13260646283E+03  0.13260646286E+03  0.25500000920E-02 0. -1.
        2   -1    0    0  501    0  0.00000000000E+00  0.00000000000E+00 -0.15587356784E+04  0.15587356784E+04  0.25500000920E-02 0.  1.
    10030    2    1    2    0    0  0.00000000000E+00  0.00000000000E+00 -0.14261292155E+04  0.16913421412E+04  0.90928196907E+03 0.  0.
        1    1    3    3  502    0  0.12642720715E+03  0.16753577699E+03 -0.14632265903E+04  0.14782030070E+04  0.50400001928E-02 0.  1.
       -1    1    3    3    0  502 -0.12642720715E+03 -0.16753577699E+03  0.37097374811E+02  0.21313913419E+03  0.50400001928E-02 0. -1.
</event>
<event>
 5   0  0.1436000E-03  0.9060106E+03  0.7818609E-02  0.9418099E-01
       -4   -1    0    0    0  501  0.00000000000E+00  0.00000000000E+00  0.46902523990E+03  0.46902695932E+03  0.12699999809E+01 0. -1.
        4   -1    0    0  501    0  0.00000000000E+00  0.00000000000E+00 -0.43752912257E+03  0.43753096576E+03  0.12699999809E+01 0.  1.
    10030    2    1    2    0    0  0.00000000000E+00  0.00000000000E+00  0.31496117336E+02  0.90655792507E+03  0.90601063245E+03 0.  0.
        2    1    3    3  502    0 -0.15864319412E+03 -0.34148826835E+03  0.26775713324E+03  0.46203439577E+03  0.25500000920E-02 0. -1.
       -2    1    3    3    0  502  0.15864319412E+03  0.34148826835E+03 -0.23626101591E+03  0.44452352931E+03  0.25500000920E-02 0.  1.
</event>
<event>
 5   0  0.2129280E-03  0.9000320E+03  0.7818609E-02  0.9425541E-01
       -1   -1    0    0    0  501  0.00000000000E+00  0.00000000000E+00  0.86207840392E+03  0.86207840393E+03  0.50400001928E-02 0.  1.
        1   -1    0    0  501    0  0.00000000000E+00  0.00000000000E+00 -0.23491411604E+03  0.23491411610E+03  0.50400001928E-02 0. -1.
    10030    2    1    2    0    0  0.00000000000E+00  0.00000000000E+00  0.62716428787E+03  0.10969925200E+04  0.90003196889E+03 0.  0.
        3    1    3    3  502    0 -0.19843694946E+03  0.39851826323E+03  0.23346876559E+03  0.50269444372E+03  0.10100000352E+00 0. -1.
       -3    1    3    3    0  502  0.19843694946E+03 -0.39851826323E+03  0.39369552228E+03  0.59429807631E+03  0.10100000352E+00 0.  1.
</event>
<event>
 5   0  0.2134145E-03  0.9128029E+03  0.7818609E-02  0.9409717E-01
       -1   -1    0    0    0  501  0.00000000000E+00  0.00000000000E+00  0.12619895145E+03  0.12619895155E+03  0.50400001928E-02 0.  1.
        1   -1    0    0  501    0  0.00000000000E+00  0.00000000000E+00 -0.16505865319E+04  0.16505865319E+04  0.50400001928E-02 0. -1.
    10030    2    1    2    0    0  0.00000000000E+00  0.00000000000E+00 -0.15243875805E+04  0.17767854835E+04  0.91280291346E+03 0.  0.
        1    1    3    3  502    0 -0.32155180020E+03 -0.30287237062E+03 -0.98562005462E+03  0.10800806105E+04  0.50400001928E-02 0.  1.
       -1    1    3    3    0  502  0.32155180020E+03  0.30287237062E+03 -0.53876752584E+03  0.69670487297E+03  0.50400001928E-02 0. -1.
</event>
<event>
 5   0  0.3806019E-03  0.9019799E+03  0.7818609E-02  0.9423110E-01
        2   -1    0    0  501    0  0.00000000000E+00  0.00000000000E+00  0.18056532656E+04  0.18056532656E+04  0.25500000920E-02 0. -1.
       -2   -1    0    0    0  501  0.00000000000E+00  0.00000000000E+00 -0.11264175295E+03  0.11264175298E+03  0.25500000920E-02 0.  1.
    10030    2    1    2    0    0  0.00000000000E+00  0.00000000000E+00  0.16930115126E+04  0.19182950186E+04  0.90197993123E+03 0.  0.
        2    1    3    3  502    0  0.30082767596E+03  0.12788583847E+03  0.18570294671E+03  0.37594901613E+03  0.25500000920E-02 0.  1.
       -2    1    3    3    0  502 -0.30082767596E+03 -0.12788583847E+03  0.15073085659E+04  0.15423460024E+04  0.25500000920E-02 0. -1.
</event>
<event>
 5   0  0.2130975E-03  0.8963547E+03  0.7818609E-02  0.9430150E-01
       -1   -1    0    0    0  501  0.00000000000E+00  0.00000000000E+00  0.60451147104E+03  0.60451147106E+03  0.50400001928E-02 0. -1.
        1   -1    0    0  501    0  0.00000000000E+00  0.00000000000E+00 -0.33227315387E+03  0.33227315391E+03  0.50400001928E-02 0.  1.
    10030    2    1    2    0    0  0.00000000000E+00  0.00000000000E+00  0.27223831717E+03  0.93678462497E+03  0.89635469110E+03 0.  0.
        5    1    3    3  502    0  0.10658570402E+03  0.12427717887E+03 -0.29987312013E+03  0.34168890480E+03  0.46999998093E+01 0.  1.
       -5    1    3    3    0  502 -0.10658570402E+03 -0.12427717887E+03  0.57211143730E+03  0.59509572018E+03  0.46999998093E+01 0. -1.
</event>
<event>
 5   0  0.2134145E-03  0.9062133E+03  0.7818609E-02  0.9417848E-01
        1   -1    0    0  501    0  0.00000000000E+00  0.00000000000E+00  0.79356962911E+03  0.79356962913E+03  0.50400001928E-02 0.  1.
       -1   -1    0    0    0  501  0.00000000000E+00  0.00000000000E+00 -0.25871156841E+03  0.25871156846E+03  0.50400001928E-02 0. -1.
    10030    2    1    2    0    0  0.00000000000E+00  0.00000000000E+00  0.53485806071E+03  0.10522811976E+04  0.90621331577E+03 0.  0.
        1    1    3    3  502    0 -0.26416184424E+03 -0.27127296930E+03 -0.21552396679E+02  0.37925586304E+03  0.50400001928E-02 0. -1.
       -1    1    3    3    0  502  0.26416184424E+03  0.27127296930E+03  0.55641045739E+03  0.67302533454E+03  0.50400001928E-02 0.  1.
</event>
<event>
 5   0  0.2074970E-03  0.9028084E+03  0.7818609E-02  0.9422078E-01
       -1   -1    0    0    0  501  0.00000000000E+00  0.00000000000E+00  0.33079697008E+03  0.33079697012E+03  0.50400001928E-02 0. -1.
        1   -1    0    0  501    0  0.00000000000E+00  0.00000000000E+00 -0.61598429083E+03  0.61598429085E+03  0.50400001928E-02 0.  1.
    10030    2    1    2    0    0  0.00000000000E+00  0.00000000000E+00 -0.28518732075E+03  0.94678126097E+03  0.90280836738E+03 0.  0.
        2    1    3    3  502    0 -0.17789314570E+02 -0.36470236992E+03  0.13574161340E+03  0.38955110570E+03  0.25500000920E-02 0. -1.
       -2    1    3    3    0  502  0.17789314570E+02  0.36470236992E+03 -0.42092893415E+03  0.55723015527E+03  0.25500000920E-02 0.  1.
</event>
<event>
 5   0  0.3806019E-03  0.9001206E+03  0.7818609E-02  0.9425431E-01
       -2   -1    0    0    0  501  0.00000000000E+00  0.00000000000E+00  0.10066518944E+03  0.10066518947E+03  0.25500000920E-02 0. -1.
        2   -1    0    0  501    0  0.00000000000E+00  0.00000000000E+00 -0.20121582150E+04  0.20121582150E+04  0.25500000920E-02 0.  1.
    10030    2    1    2    0    0  0.00000000000E+00  0.00000000000E+00 -0.19114930256E+04  0.21128234045E+04  0.90012063176E+03 0.  0.
        2    1    3    3  502    0 -0.18460138774E+03 -0.41533099337E+02 -0.19142584149E+04  0.19235872608E+04  0.25500000920E-02 0.  1.
       -2    1    3    3    0  502  0.18460138774E+03  0.41533099337E+02  0.27653893686E+01  0.18923614369E+03  0.25500000920E-02 0. -1.
</event>
<event>
 5   0  0.3626546E-03  0.8616791E+03  0.7818609E-02  0.9474794E-01
        2   -1    0    0  501    0  0.00000000000E+00  0.00000000000E+00  0.70290958555E+03  0.70290958555E+03  0.25500000920E-02 0.  1.
       -2   -1    0    0    0  501  0.00000000000E+00  0.00000000000E+00 -0.26407765591E+03  0.26407765593E+03  0.25500000920E-02 0. -1.
    10030    2    1    2    0    0  0.00000000000E+00  0.00000000000E+00  0.43883192963E+03  0.96698724148E+03  0.86167909498E+03 0.  0.
        3    1    3    3  502    0 -0.71037920129E+01 -0.23610668617E+03  0.62376444526E+03  0.66699244710E+03  0.10100000352E+00 0.  1.
       -3    1    3    3    0  502  0.71037920129E+01  0.23610668617E+03 -0.18493251563E+03  0.29999479438E+03  0.10100000352E+00 0. -1.
</event>
<event>
 5   0  0.2130975E-03  0.9024964E+03  0.7818609E-02  0.9422466E-01
       -1   -1    0    0    0  501  0.00000000000E+00  0.00000000000E+00  0.79691663082E+03  0.79691663083E+03  0.50400001928E-02 0. -1.
        1   -1    0    0  501    0  0.00000000000E+00  0.00000000000E+00 -0.25551598039E+03  0.25551598044E+03  0.50400001928E-02 0.  1.
    10030    2    1    2    0    0  0.00000000000E+00  0.00000000000E+00  0.54140065043E+03  0.10524326113E+04  0.90249639167E+03 0.  0.
        5    1    3    3  502    0  0.43650273978E+03  0.10036657936E+03  0.33451627919E+03  0.55904500993E+03  0.46999998093E+01 0. -1.
       -5    1    3    3    0  502 -0.43650273978E+03 -0.10036657936E+03  0.20688437124E+03  0.49338760133E+03  0.46999998093E+01 0.  1.
</event>
<event>
 5   0  0.2134145E-03  0.8968227E+03  0.7818609E-02  0.9429562E-01
        1   -1    0    0  501    0  0.00000000000E+00  0.00000000000E+00  0.10528887119E+04  0.10528887119E+04  0.50400001928E-02 0.  1.
       -1   -1    0    0    0  501  0.00000000000E+00  0.00000000000E+00 -0.19097247028E+03  0.19097247035E+03  0.50400001928E-02 0. -1.
    10030    2    1    2    0    0  0.00000000000E+00  0.00000000000E+00  0.86191624157E+03  0.12438611822E+04  0.89682274343E+03 0.  0.
        1    1    3    3  502    0 -0.38867796326E+03  0.22253460560E+03  0.46136234232E+03  0.64299877197E+03  0.50400001928E-02 0.  1.
       -1    1    3    3    0  502  0.38867796326E+03 -0.22253460560E+03  0.40055389925E+03  0.60086241025E+03  0.50400001928E-02 0. -1.
</event>
<event>
 5   0  0.2129280E-03  0.8963952E+03  0.7818609E-02  0.9430099E-01
       -1   -1    0    0    0  501  0.00000000000E+00  0.00000000000E+00  0.30266722508E+03  0.30266722512E+03  0.50400001928E-02 0.  1.
        1   -1    0    0  501    0  0.00000000000E+00  0.00000000000E+00 -0.66370284060E+03  0.66370284061E+03  0.50400001928E-02 0. -1.
    10030    2    1    2    0    0  0.00000000000E+00  0.00000000000E+00 -0.36103561551E+03  0.96637006574E+03  0.89639521880E+03 0.  0.
        3    1    3    3  502    0 -0.36413201894E+03  0.27253836009E+02  0.99666855900E+02  0.37850811241E+03  0.10100000352E+00 0.  1.
       -3    1    3    3    0  502  0.36413201894E+03 -0.27253836009E+02 -0.46070247141E+03  0.58786195332E+03  0.10100000352E+00 0. -1.
</event>
<event>
 5   0  0.3815269E-03  0.8982259E+03  0.7818609E-02  0.9427802E-01
       -2   -1    0    0    0  501  0.00000000000E+00  0.00000000000E+00  0.18775337122E+03  0.18775337124E+03  0.25500000920E-02 0. -1.
        2   -1    0    0  501    0  0.00000000000E+00  0.00000000000E+00 -0.10742946574E+04  0.10742946574E+04  0.25500000920E-02 0.  1.
    10030    2    1    2    0    0  0.00000000000E+00  0.00000000000E+00 -0.88654128621E+03  0.12620480287E+04  0.89822590395E+03 0.  0.
        5    1    3    3  502    0 -0.43336536469E+03  0.48789858592E+02 -0.29263325371E+03  0.52520691236E+03  0.46999998093E+01 0. -1.
       -5    1    3    3    0  502  0.43336536469E+03 -0.48789858592E+02 -0.59390803251E+03  0.73684111631E+03  0.46999998093E+01 0.  1.
</event>
<event>
 5   0  0.1436000E-03  0.8995118E+03  0.7818609E-02  0.9426192E-01
        3   -1    0    0  501    0  0.00000000000E+00  0.00000000000E+00  0.34081991826E+03  0.34081993322E+03  0.10100000352E+00 0.  1.
       -3   -1    0    0    0  501  0.00000000000E+00  0.00000000000E+00 -0.59351090439E+03  0.59351091299E+03  0.10100000352E+00 0. -1.
    10030    2    1    2    0    0  0.00000000000E+00  0.00000000000E+00 -0.25269098613E+03  0.93433084621E+03  0.89951175407E+03 0.  0.
        2    1    3    3  502    0  0.34144689824E+03  0.28777544536E+03 -0.70605838340E+02  0.45209056137E+03  0.25500000920E-02 0.  1.
       -2    1    3    3    0  502 -0.34144689824E+03 -0.28777544536E+03 -0.18208514779E+03  0.48224028484E+03  0.25500000920E-02 0. -1.
</event>
<event>
 5   0  0.3806019E-03  0.8996465E+03  0.7818609E-02  0.9426023E-01
        2   -1    0    0  501    0  0.00000000000E+00  0.00000000000E+00  0.15516592704E+04  0.15516592704E+04  0.25500000920E-02 0. -1.
       -2   -1    0    0    0  501  0.00000000000E+00  0.00000000000E+00 -0.13040294476E+03  0.13040294478E+03  0.25500000920E-02 0.  1.
    10030    2    1    2    0    0  0.00000000000E+00  0.00000000000E+00  0.14212563256E+04  0.16820622152E+04  0.89964645977E+03 0.  0.
        2    1    3    3  502    0 -0.12917163793E+03  0.75857276204E+01 -0.94855845927E+02  0.16043842065E+03  0.25500000920E-02 0.  1.
       -2    1    3    3    0  502  0.12917163793E+03 -0.75857276204E+01  0.15161121715E+04  0.15216237945E+04  0.25500000920E-02 0. -1.
</event>
<event>
 5   0  0.3806019E-03  0.9014058E+03  0.7818609E-02  0.9423826E-01
        2   -1    0    0  501    0  0.00000000000E+00  0.00000000000E+00  0.45212817360E+03  0.45212817361E+03  0.25500000920E-02 0. -1.
       -2   -1    0    0    0  501  0.00000000000E+00  0.00000000000E+00 -0.44928215759E+03  0.44928215760E+03  0.25500000920E-02 0.  1.
    10030    2    1    2    0    0  0.00000000000E+00  0.00000000000E+00  0.28460160058E+01  0.90141033121E+03  0.90140583834E+03 0.  0.
        2    1    3    3  502    0 -0.30300169015E+03  0.33125737015E+03  0.41318718238E+02  0.45083112803E+03  0.25500000920E-02 0.  1.
       -2    1    3    3    0  502  0.30300169015E+03 -0.33125737015E+03 -0.38472702232E+02  0.45057920318E+03  0.25500000920E-02 0. -1.
</event>
<event>
 5   0  0.3815269E-03  0.8928814E+03  0.7818609E-02  0.9434524E-01
        2   -1    0    0  501    0  0.00000000000E+00  0.00000000000E+00  0.84109743564E+03  0.84109743564E+03  0.25500000920E-02 0. -1.
       -2   -1    0    0    0  501  0.00000000000E+00  0.00000000000E+00 -0.23696339860E+03  0.23696339861E+03  0.25500000920E-02 0.  1.
    10030    2    1    2    0    0  0.00000000000E+00  0.00000000000E+00  0.60413403704E+03  0.10780608343E+04  0.89288141858E+03 0.  0.
        5    1    3    3  502    0 -0.28009006642E+03  0.29321644331E+03  0.76633384371E+02  0.41269976198E+03  0.46999998093E+01 0. -1.
       -5    1    3    3    0  502  0.28009006642E+03 -0.29321644331E+03  0.52750065267E+03  0.66536107228E+03  0.46999998093E+01 0.  1.
</event>
<event>
 5   0  0.3685879E-03  0.9018699E+03  0.7818609E-02  0.9423247E-01
       -2   -1    0    0    0  501  0.00000000000E+00  0.00000000000E+00  0.16303982223E+03  0.16303982225E+03  0.25500000920E-02 0.  1.
        2   -1    0    0  501    0  0.00000000000E+00  0.00000000000E+00 -0.12471942543E+04  0.12471942543E+04  0.25500000920E-02 0. -1.
    10030    2    1    2    0    0  0.00000000000E+00  0.00000000000E+00 -0.10841544321E+04  0.14102340766E+04  0.90186990087E+03 0.  0.
        1    1    3    3  502    0  0.26908177278E+03 -0.31214895554E+03 -0.25587562765E+03  0.48509206109E+03  0.50400001928E-02 0. -1.
       -1    1    3    3    0  502 -0.26908177278E+03  0.31214895554E+03 -0.82827880445E+03  0.92514201549E+03  0.50400001928E-02 0.  1.
</event>
<event>
 5   0  0.3806019E-03  0.9001379E+03  0.7818609E-02  0.9425409E-01
       -2   -1    0    0    0  501  0.00000000000E+00  0.00000000000E+00  0.26721011530E+03  0.26721011532E+03  0.25500000920E-02 0. -1.
        2   -1    0    0  501    0  0.00000000000E+00  0.00000000000E+00 -0.75806291585E+03  0.75806291586E+03  0.25500000920E-02 0.  1.
    10030    2    1    2    0    0  0.00000000000E+00  0.00000000000E+00 -0.49085280055E+03  0.10252730312E+04  0.90013794312E+03 0.  0.
        2    1    3    3  502    0 -0.94534578407E+02 -0.54978714820E+02 -0.74269943949E+03  0.75070760155E+03  0.25500000920E-02 0.  1.
       -2    1    3    3    0  502  0.94534578407E+02  0.54978714820E+02  0.25184663894E+03  0.27456542963E+03  0.25500000920E-02 0. -1.
</event>
<event>
 5   0  0.3685879E-03  0.8980786E+03  0.7818609E-02  0.9427986E-01
       -2   -1    0    0    0  501  0.00000000000E+00  0.00000000000E+00  0.71502846620E+03  0.71502846620E+03  0.25500000920E-02 0. -1.
        2   -1    0    0  501    0  0.00000000000E+00  0.00000000000E+00 -0.28199756513E+03  0.28199756514E+03  0.25500000920E-02 0.  1.
    10030    2    1    2    0    0  0.00000000000E+00  0.00000000000E+00  0.43303090107E+03  0.99702603134E+03  0.89807858559E+03 0.  0.
        1    1    3    3  502    0  0.13097909488E+03  0.11562473773E+03 -0.24271638607E+03  0.29905826750E+03  0.50400001928E-02 0.  1.
       -1    1    3    3    0  502 -0.13097909488E+03 -0.11562473773E+03  0.67574728714E+03  0.69796776385E+03  0.50400001928E-02 0. -1.
</event>
<event>
 5   0  0.2295158E-03  0.8376537E+03  0.7818609E-02  0.9507059E-01
       -1   -1    0    0    0  501  0.00000000000E+00  0.00000000000E+00  0.42370476155E+03  0.42370476158E+03  0.50400001928E-02 0.  1.
        1   -1    0    0  501    0  0.00000000000E+00  0.00000000000E+00 -0.41400505388E+03  0.41400505391E+03  0.50400001928E-02 0. -1.
    10030    2    1    2    0    0  0.00000000000E+00  0.00000000000E+00  0.96997076667E+01  0.83770981548E+03  0.83765365792E+03 0.  0.
        4    1    3    3  502    0  0.45834192874E+02  0.48336636943E+02 -0.40867163526E+03  0.41406680871E+03  0.12699999809E+01 0. -1.
       -4    1    3    3    0  502 -0.45834192874E+02 -0.48336636943E+02  0.41837134293E+03  0.42364300678E+03  0.12699999809E+01 0.  1.
</event>
<event>
 5   0  0.2295158E-03  0.8975512E+03  0.7818609E-02  0.9428648E-01
        1   -1    0    0  501    0  0.00000000000E+00  0.00000000000E+00  0.11021400281E+04  0.11021400281E+04  0.50400001928E-02 0.  1.
       -1   -1    0    0    0  501  0.00000000000E+00  0.00000000000E+00 -0.18273496499E+03  0.18273496506E+03  0.50400001928E-02 0. -1.
    10030    2    1    2    0    0  0.00000000000E+00  0.00000000000E+00  0.91940506308E+03  0.12848749931E+04  0.89755115618E+03 0.  0.
        4    1    3    3  502    0  0.11919020036E+03  0.34426443872E+03  0.84559770882E+02  0.37400036815E+03  0.12699999809E+01 0. -1.
       -4    1    3    3    0  502 -0.11919020036E+03 -0.34426443872E+03  0.83484529219E+03  0.91087462498E+03  0.12699999809E+01 0.  1.
</event>
<event>
 5   0  0.2295158E-03  0.9057559E+03  0.7818609E-02  0.9418415E-01
       -1   -1    0    0    0  501  0.00000000000E+00  0.00000000000E+00  0.56866010622E+03  0.56866010624E+03  0.50400001928E-02 0. -1.
        1   -1    0    0  501    0  0.00000000000E+00  0.00000000000E+00 -0.36066967066E+03  0.36066967070E+03  0.50400001928E-02 0.  1.
    10030    2    1    2    0    0  0.00000000000E+00  0.00000000000E+00  0.20799043556E+03  0.92932977694E+03  0.90575593457E+03 0.  0.
        4    1    3    3  502    0 -0.56162450065E+02  0.41474372381E+03  0.28150158331E+03  0.50439204152E+03  0.12699999809E+01 0. -1.
       -4    1    3    3    0  502  0.56162450065E+02 -0.41474372381E+03 -0.73511147756E+02  0.42493773542E+03  0.12699999809E+01 0.  1.
</event>
<event>
 5   0  0.3663255E-03  0.8978840E+03  0.7818609E-02  0.9428230E-01
        2   -1    0    0  501    0  0.00000000000E+00  0.00000000000E+00  0.61648261040E+03  0.61648261041E+03  0.25500000920E-02 0. -1.
       -2   -1    0    0    0  501  0.00000000000E+00  0.00000000000E+00 -0.32693364526E+03  0.32693364527E+03  0.25500000920E-02 0.  1.
    10030    2    1    2    0    0  0.00000000000E+00  0.00000000000E+00  0.28954896514E+03  0.94341625568E+03  0.89788397260E+03 0.  0.
        4    1    3    3  502    0  0.42366425787E+03 -0.18435499960E+02  0.29961096031E+03  0.51922982532E+03  0.12699999809E+01 0. -1.
       -4    1    3    3    0  502 -0.42366425787E+03  0.18435499960E+02 -0.10061995169E+02  0.42418643036E+03  0.12699999809E+01 0.  1.
</event>
<event>
 5   0  0.2130975E-03  0.8997031E+03  0.7818609E-02  0.9425953E-01
        1   -1    0    0  501    0  0.00000000000E+00  0.00000000000E+00  0.84228784787E+03  0.84228784788E+03  0.50400001928E-02 0. -1.
       -1   -1    0    0    0  501  0.00000000000E+00  0.00000000000E+00 -0.24025800108E+03  0.24025800113E+03  0.50400001928E-02 0.  1.
    10030    2    1    2    0    0  0.00000000000E+00  0.00000000000E+00  0.60202984679E+03  0.10825458490E+04  0.89970305034E+03 0.  0.
        5    1    3    3  502    0  0.24425858123E+03 -0.23588723077E+03  0.65599559975E+03  0.73868623720E+03  0.46999998093E+01 0. -1.
       -5    1    3    3    0  502 -0.24425858123E+03  0.23588723077E+03 -0.53965752955E+02  0.34385961181E+03  0.46999998093E+01 0.  1.
</event>
<event>
 5   0  0.2074970E-03  0.9052450E+03  0.7818609E-02  0.9419049E-01
       -1   -1    0    0    0  501  0.00000000000E+00  0.00000000000E+00  0.31486590513E+03  0.31486590517E+03  0.50400001928E-02 0. -1.
        1   -1    0    0  501    0  0.00000000000E+00  0.00000000000E+00 -0.65064886258E+03  0.65064886260E+03  0.50400001928E-02 0.  1.
    10030    2    1    2    0    0  0.00000000000E+00  0.00000000000E+00 -0.33578295745E+03  0.96551476776E+03  0.90524503437E+03 0.  0.
        2    1    3    3  502    0 -0.30509548934E+03 -0.14194714224E+03  0.15497518875E+03  0.37047207444E+03  0.25500000920E-02 0. -1.
       -2    1    3    3    0  502  0.30509548934E+03  0.14194714224E+03 -0.49075814620E+03  0.59504269332E+03  0.25500000920E-02 0.  1.
</event>
<event>
 5   0  0.2295158E-03  0.8956887E+03  0.7818609E-02  0.9430987E-01
       -1   -1    0    0    0  501  0.00000000000E+00  0.00000000000E+00  0.59980928804E+03  0.59980928806E+03  0.50400001928E-02 0.  1.
        1   -1    0    0  501    0  0.00000000000E+00  0.00000000000E+00 -0.33438054479E+03  0.33438054482E+03  0.50400001928E-02 0. -1.
    10030    2    1    2    0    0  0.00000000000E+00  0.00000000000E+00  0.26542874325E+03  0.93418983288E+03  0.89568868817E+03 0.  0.
        4    1    3    3  502    0 -0.34969095659E+03  0.72095613267E+02 -0.14924171829E+03  0.38698352156E+03  0.12699999809E+01 0. -1.
       -4    1    3    3    0  502  0.34969095659E+03 -0.72095613267E+02  0.41467046154E+03  0.54720631132E+03  0.12699999809E+01 0.  1.
</event>
<event>
 5   0  0.2295158E-03  0.9192188E+03  0.7818609E-02  0.9401871E-01
        1   -1    0    0  501    0  0.00000000000E+00  0.00000000000E+00  0.13845945951E+03  0.13845945961E+03  0.50400001928E-02 0. -1.
       -1   -1    0    0    0  501  0.00000000000E+00  0.00000000000E+00 -0.15256508900E+04  0.15256508900E+04  0.50400001928E-02 0.  1.
    10030    2    1    2    0    0  0.00000000000E+00  0.00000000000E+00 -0.13871914305E+04  0.16641103496E+04  0.91921879380E+03 0.  0.
        4    1    3    3  502    0  0.88492447558E+02  0.44889685782E+03 -0.61468670290E+03  0.76627714167E+03  0.12699999809E+01 0.  1.
       -4    1    3    3    0  502 -0.88492447558E+02 -0.44889685782E+03 -0.77250472759E+03  0.89783320794E+03  0.12699999809E+01 0. -1.
</event>
<event>
 5   0  0.3626546E-03  0.8717866E+03  0.7818609E-02  0.9461553E-01
       -2   -1    0    0    0  501  0.00000000000E+00  0.00000000000E+00  0.97520937971E+02  0.97520938004E+02  0.25500000920E-02 0. -1.
        2   -1    0    0  501    0  0.00000000000E+00  0.00000000000E+00 -0.19483300378E+04  0.19483300378E+04  0.25500000920E-02 0.  1.
    10030    2    1    2    0    0  0.00000000000E+00  0.00000000000E+00 -0.18508090998E+04  0.20458509758E+04  0.87178660875E+03 0.  0.
        3    1    3    3  502    0 -0.12998530718E+03 -0.38445277369E+02  0.46802605167E+02  0.14340402186E+03  0.10100000352E+00 0. -1.
       -3    1    3    3    0  502  0.12998530718E+03  0.38445277369E+02 -0.18976117050E+04  0.19024469539E+04  0.10100000352E+00 0.  1.
</event>
<event>
 5   0  0.2074970E-03  0.9003402E+03  0.7818609E-02  0.9425156E-01
        1   -1    0    0  501    0  0.00000000000E+00  0.00000000000E+00  0.14029685700E+04  0.14029685700E+04  0.50400001928E-02 0. -1.
       -1   -1    0    0    0  501  0.00000000000E+00  0.00000000000E+00 -0.14444592933E+03  0.14444592942E+03  0.50400001928E-02 0.  1.
    10030    2    1    2    0    0  0.00000000000E+00  0.00000000000E+00  0.12585226406E+04  0.15474144994E+04  0.90034015569E+03 0.  0.
        2    1    3    3  502    0  0.11449151266E+03  0.90886771853E+01  0.13773641824E+04  0.13821443491E+04  0.25500000920E-02 0. -1.
       -2    1    3    3    0  502 -0.11449151266E+03 -0.90886771853E+01 -0.11884154182E+03  0.16527015034E+03  0.25500000920E-02 0.  1.
</event>
<event>
 5   0  0.3626546E-03  0.9143247E+03  0.7818609E-02  0.9407850E-01
        2   -1    0    0  501    0  0.00000000000E+00  0.00000000000E+00  0.25526650309E+03  0.25526650311E+03  0.25500000920E-02 0. -1.
       -2   -1    0    0    0  501  0.00000000000E+00  0.00000000000E+00 -0.81874204706E+03  0.81874204706E+03  0.25500000920E-02 0.  1.
    10030    2    1    2    0    0  0.00000000000E+00  0.00000000000E+00 -0.56347554396E+03  0.10740085502E+04  0.91432471102E+03 0.  0.
        3    1    3    3  502    0 -0.14785179643E+02  0.27267395448E+03 -0.71241479376E+03  0.76295775477E+03  0.10100000352E+00 0.  1.
       -3    1    3    3    0  502  0.14785179643E+02 -0.27267395448E+03  0.14893924980E+03  0.31105079540E+03  0.10100000352E+00 0. -1.
</event>
<event>
 5   0  0.2130975E-03  0.9199398E+03  0.7818609E-02  0.9400993E-01
        1   -1    0    0  501    0  0.00000000000E+00  0.00000000000E+00  0.43201544848E+03  0.43201544851E+03  0.50400001928E-02 0.  1.
       -1   -1    0    0    0  501  0.00000000000E+00  0.00000000000E+00 -0.48973320846E+03  0.48973320848E+03  0.50400001928E-02 0. -1.
    10030    2    1    2    0    0  0.00000000000E+00  0.00000000000E+00 -0.57717759973E+02  0.92174865700E+03  0.91993980611E+03 0.  0.
        5    1    3    3  502    0 -0.12671159953E+03 -0.29905105670E+03  0.29745441186E+03  0.44044134808E+03  0.46999998093E+01 0. -1.
       -5    1    3    3    0  502  0.12671159953E+03  0.29905105670E+03 -0.35517217183E+03  0.48130730891E+03  0.46999998093E+01 0.  1.
</event>
<event>
 5   0  0.3626546E-03  0.8993783E+03  0.7818609E-02  0.9426359E-01
        2   -1    0    0  501    0  0.00000000000E+00  0.00000000000E+00  0.10107040623E+04  0.10107040623E+04  0.25500000920E-02 0.  1.
       -2   -1    0    0    0  501  0.00000000000E+00  0.00000000000E+00 -0.20007866260E+03  0.20007866261E+03  0.25500000920E-02 0. -1.
    10030    2    1    2    0    0  0.00000000000E+00  0.00000000000E+00  0.81062539974E+03  0.12107827250E+04  0.89937826766E+03 0.  0.
        3    1    3    3  502    0  0.11473239685E+03  0.35799560410E+02 -0.17805571966E+03  0.21482313869E+03  0.10100000352E+00 0. -1.
       -3    1    3    3    0  502 -0.11473239685E+03 -0.35799560410E+02  0.98868111940E+03  0.99595958626E+03  0.10100000352E+00 0.  1.
</event>
<event>
 5   0  0.2129280E-03  0.9014594E+03  0.7818609E-02  0.9423759E-01
       -1   -1    0    0    0  501  0.00000000000E+00  0.00000000000E+00  0.19536827057E+03  0.19536827063E+03  0.50400001928E-02 0. -1.
        1   -1    0    0  501    0  0.00000000000E+00  0.00000000000E+00 -0.10398681650E+04  0.10398681651E+04  0.50400001928E-02 0.  1.
    10030    2    1    2    0    0  0.00000000000E+00  0.00000000000E+00 -0.84449989448E+03  0.12352364357E+04  0.90145936142E+03 0.  0.
        3    1    3    3  502    0  0.16789557198E+03  0.13336308786E+02  0.15062891266E+03  0.22595543754E+03  0.10100000352E+00 0. -1.
       -3    1    3    3    0  502 -0.16789557198E+03 -0.13336308786E+02 -0.99512880714E+03  0.10092809982E+04  0.10100000352E+00 0.  1.
</event>
<event>
 5   0  0.2130975E-03  0.9025762E+03  0.7818609E-02  0.9422367E-01
        1   -1    0    0  501    0  0.00000000000E+00  0.00000000000E+00  0.28068174244E+03  0.28068174249E+03  0.50400001928E-02 0.  1.
       -1   -1    0    0    0  501  0.00000000000E+00  0.00000000000E+00 -0.72559384637E+03  0.72559384639E+03  0.50400001928E-02 0. -1.
    10030    2    1    2    0    0  0.00000000000E+00  0.00000000000E+00 -0.44491210393E+03  0.10062755889E+04  0.90257619099E+03 0.  0.
        5    1    3    3  502    0 -0.15281148420E+02  0.19516864138E+03  0.23084694956E+03  0.30271556979E+03  0.46999998093E+01 0.  1.
       -5    1    3    3    0  502  0.15281148420E+02 -0.19516864138E+03 -0.67575905349E+03  0.70356001908E+03  0.46999998093E+01 0. -1.
</event>
<event>
 5   0  0.3815269E-03  0.9033564E+03  0.7818609E-02  0.9421395E-01
        2   -1    0    0  501    0  0.00000000000E+00  0.00000000000E+00  0.52552382900E+03  0.52552382901E+03  0.25500000920E-02 0. -1.
       -2   -1    0    0    0  501  0.00000000000E+00  0.00000000000E+00 -0.38820926139E+03  0.38820926140E+03  0.25500000920E-02 0.  1.
    10030    2    1    2    0    0  0.00000000000E+00  0.00000000000E+00  0.13731456761E+03  0.91373309041E+03  0.90335644683E+03 0.  0.
        5    1    3    3  502    0 -0.26584902674E+03 -0.34713499718E+03 -0.45836210052E+02  0.43966061848E+03  0.46999998093E+01 0.  1.
       -5    1    3    3    0  502  0.26584902674E+03  0.34713499718E+03  0.18315077766E+03  0.47407247193E+03  0.46999998093E+01 0. -1.
</event>
<event>
 5   0  0.2134145E-03  0.8898486E+03  0.7818609E-02  0.9438361E-01
       -1   -1    0    0    0  501  0.00000000000E+00  0.00000000000E+00  0.29386437308E+03  0.29386437312E+03  0.50400001928E-02 0.  1.
        1   -1    0    0  501    0  0.00000000000E+00  0.00000000000E+00 -0.67363610689E+03  0.67363610691E+03  0.50400001928E-02 0. -1.
    10030    2    1    2    0    0  0.00000000000E+00  0.00000000000E+00 -0.37977173381E+03  0.96750048003E+03  0.88984864391E+03 0.  0.
        1    1    3    3  502    0 -0.27685218636E+03 -0.15287992800E+03 -0.53014611071E+03  0.61731216107E+03  0.50400001928E-02 0. -1.
       -1    1    3    3    0  502  0.27685218636E+03  0.15287992800E+03  0.15037437691E+03  0.35018831896E+03  0.50400001928E-02 0.  1.
</event>
<event>
 5   0  0.2074970E-03  0.9014751E+03  0.7818609E-02  0.9423739E-01
       -1   -1    0    0    0  501  0.00000000000E+00  0.00000000000E+00  0.17420881501E+03  0.17420881508E+03  0.50400001928E-02 0. -1.
        1   -1    0    0  501    0  0.00000000000E+00  0.00000000000E+00 -0.11662114718E+04  0.11662114718E+04  0.50400001928E-02 0.  1.
    10030    2    1    2    0    0  0.00000000000E+00  0.00000000000E+00 -0.99200265677E+03  0.13404202869E+04  0.90147505479E+03 0.  0.
        2    1    3    3  502    0  0.15569424828E+02  0.39787467520E+03 -0.18192106511E+03  0.43776927495E+03  0.25500000920E-02 0. -1.
       -2    1    3    3    0  502 -0.15569424828E+02 -0.39787467520E+03 -0.81008159166E+03  0.90265101192E+03  0.25500000920E-02 0.  1.
</event>
<event>
 5   0  0.3806019E-03  0.9011253E+03  0.7818609E-02  0.9424176E-01
       -2   -1    0    0    0  501  0.00000000000E+00  0.00000000000E+00  0.37531839019E+03  0.37531839020E+03  0.25500000920E-02 0. -1.
        2   -1    0    0  501    0  0.00000000000E+00  0.00000000000E+00 -0.54089201026E+03  0.54089201027E+03  0.25500000920E-02 0.  1.
    10030    2    1    2    0    0  0.00000000000E+00  0.00000000000E+00 -0.16557362006E+03  0.91621040047E+03  0.90112533771E+03 0.  0.
        2    1    3    3  502    0 -0.39209633684E+02 -0.45481133777E+02  0.37123158911E+03  0.37605693939E+03  0.25500000920E-02 0. -1.
       -2    1    3    3    0  502  0.39209633684E+02  0.45481133777E+02 -0.53680520918E+03  0.54015346108E+03  0.25500000920E-02 0.  1.
</event>
<event>
 5   0  0.3806019E-03  0.9038569E+03  0.7818609E-02  0.9420773E-01
        2   -1    0    0  501    0  0.00000000000E+00  0.00000000000E+00  0.10611604932E+04  0.10611604932E+04  0.25500000920E-02 0.  1.
       -2   -1    0    0    0  501  0.00000000000E+00  0.00000000000E+00 -0.19246789095E+03  0.19246789096E+03  0.25500000920E-02 0. -1.
    10030    2    1    2    0    0  0.00000000000E+00  0.00000000000E+00  0.86869260225E+03  0.12536283842E+04  0.90385689596E+03 0.  0.
        2    1    3    3  502    0  0.20965180119E+03 -0.35140960148E+03  0.16828985153E+03  0.44245232499E+03  0.25500000920E-02 0. -1.
       -2    1    3    3    0  502 -0.20965180119E+03  0.35140960148E+03  0.70040275072E+03  0.81117605917E+03  0.25500000920E-02 0.  1.
</event>
<event>
 5   0  0.3663255E-03  0.8963705E+03  0.7818609E-02  0.9430130E-01
        2   -1    0    0  501    0  0.00000000000E+00  0.00000000000E+00  0.23887448507E+03  0.23887448509E+03  0.25500000920E-02 0.  1.
       -2   -1    0    0    0  501  0.00000000000E+00  0.00000000000E+00 -0.84090198316E+03  0.84090198316E+03  0.25500000920E-02 0. -1.
    10030    2    1    2    0    0  0.00000000000E+00  0.00000000000E+00 -0.60202749808E+03  0.10797764682E+04  0.89637052213E+03 0.  0.
        4    1    3    3  502    0  0.10850168812E+03 -0.11859322132E+03 -0.80498334198E+03  0.82087560704E+03  0.12699999809E+01 0. -1.
       -4    1    3    3    0  502 -0.10850168812E+03  0.11859322132E+03  0.20295584389E+03  0.25890086121E+03  0.12699999809E+01 0.  1.
</event>
<event>
 5   0  0.3685879E-03  0.8976497E+03  0.7818609E-02  0.9428524E-01
        2   -1    0    0  501    0  0.00000000000E+00  0.00000000000E+00  0.97456049072E+03  0.97456049072E+03  0.25500000920E-02 0. -1.
       -2   -1    0    0    0  501  0.00000000000E+00  0.00000000000E+00 -0.20670213431E+03  0.20670213432E+03  0.25500000920E-02 0.  1.
    10030    2    1    2    0    0  0.00000000000E+00  0.00000000000E+00  0.76785835641E+03  0.11812626250E+04  0.89764967210E+03 0.  0.
        1    1    3    3  502    0 -0.29667682616E+03 -0.33479217584E+03  0.43211513573E+03  0.62195372073E+03  0.50400001928E-02 0.  1.
       -1    1    3    3    0  502  0.29667682616E+03  0.33479217584E+03  0.33574322069E+03  0.55930890432E+03  0.50400001928E-02 0. -1.
</event>
<event>
 5   0  0.1436000E-03  0.9069067E+03  0.7818609E-02  0.9416989E-01
       -4   -1    0    0    0  501  0.00000000000E+00  0.00000000000E+00  0.26972137593E+03  0.26972436585E+03  0.12699999809E+01 0. -1.
        4   -1    0    0  501    0  0.00000000000E+00  0.00000000000E+00 -0.76233424217E+03  0.76233530004E+03  0.12699999809E+01 0.  1.
    10030    2    1    2    0    0  0.00000000000E+00  0.00000000000E+00 -0.49261286624E+03  0.10320596659E+04  0.90690667545E+03 0.  0.
        1    1    3    3  502    0 -0.36944161700E+03 -0.18626915909E+03 -0.45748628233E+03  0.61682818235E+03  0.50400001928E-02 0.  1.
       -1    1    3    3    0  502  0.36944161700E+03  0.18626915909E+03 -0.35126583909E+02  0.41523148354E+03  0.50400001928E-02 0. -1.
</event>
<event>
 5   0  0.3663255E-03  0.9000395E+03  0.7818609E-02  0.9425532E-01
        2   -1    0    0  501    0  0.00000000000E+00  0.00000000000E+00  0.32679608656E+03  0.32679608657E+03  0.25500000920E-02 0.  1.
       -2   -1    0    0    0  501  0.00000000000E+00  0.00000000000E+00 -0.61970686373E+03  0.61970686373E+03  0.25500000920E-02 0. -1.
    10030    2    1    2    0    0  0.00000000000E+00  0.00000000000E+00 -0.29291077717E+03  0.94650295030E+03  0.90003950554E+03 0.  0.
        4    1    3    3  502    0 -0.11564722191E+03 -0.43490363640E+03 -0.14556796922E+03  0.47297684875E+03  0.12699999809E+01 0. -1.
       -4    1    3    3    0  502  0.11564722191E+03  0.43490363640E+03 -0.14734280795E+03  0.47352610155E+03  0.12699999809E+01 0.  1.
</event>
<event>
 5   0  0.3626546E-03  0.8995151E+03  0.7818609E-02  0.9426188E-01
       -2   -1    0    0    0  501  0.00000000000E+00  0.00000000000E+00  0.17983660367E+03  0.17983660368E+03  0.25500000920E-02 0. -1.
        2   -1    0    0  501    0  0.00000000000E+00  0.00000000000E+00 -0.11248091074E+04  0.11248091074E+04  0.25500000920E-02 0.  1.
    10030    2    1    2    0    0  0.00000000000E+00  0.00000000000E+00 -0.94497250376E+03  0.13046457111E+04  0.89951509085E+03 0.  0.
        3    1    3    3  502    0 -0.39912060941E+03  0.10356716773E+03 -0.21198747667E+03  0.46364007544E+03  0.10100000352E+00 0. -1.
       -3    1    3    3    0  502  0.39912060941E+03 -0.10356716773E+03 -0.73298502709E+03  0.84100563567E+03  0.10100000352E+00 0.  1.
</event>
<event>
 5   0  0.1436000E-03  0.8968932E+03  0.7818609E-02  0.9429473E-01
        3   -1    0    0  501    0  0.00000000000E+00  0.00000000000E+00  0.10976978081E+03  0.10976982727E+03  0.10100000352E+00 0.  1.
       -3   -1    0    0    0  501  0.00000000000E+00  0.00000000000E+00 -0.18320554558E+04  0.18320554586E+04  0.10100000352E+00 0. -1.
    10030    2    1    2    0    0  0.00000000000E+00  0.00000000000E+00 -0.17222856750E+04  0.19418252859E+04  0.89689324588E+03 0.  0.
        2    1    3    3  502    0  0.18290298250E+03 -0.26750284875E+03 -0.15322865057E+04  0.15661778987E+04  0.25500000920E-02 0. -1.
       -2    1    3    3    0  502 -0.18290298250E+03  0.26750284875E+03 -0.18999916937E+03  0.37564738714E+03  0.25500000920E-02 0.  1.
</event>
<event>
 5   0  0.1436000E-03  0.8986599E+03  0.7818609E-02  0.9427258E-01
        3   -1    0    0  501    0  0.00000000000E+00  0.00000000000E+00  0.11999500201E+04  0.11999500243E+04  0.10100000352E+00 0.  1.
       -3   -1    0    0    0  501  0.00000000000E+00  0.00000000000E+00 -0.16825482142E+03  0.16825485174E+03  0.10100000352E+00 0. -1.
    10030    2    1    2    0    0  0.00000000000E+00  0.00000000000E+00  0.10316951987E+04  0.13682048761E+04  0.89865989116E+03 0.  0.
        2    1    3    3  502    0 -0.16483507958E+03 -0.20112727840E+03 -0.42047738359E+02  0.26342133149E+03  0.25500000920E-02 0. -1.
       -2    1    3    3    0  502  0.16483507958E+03  0.20112727840E+03  0.10737429370E+04  0.11047835446E+04  0.25500000920E-02 0.  1.
</event>
<event>
 5   0  0.2129280E-03  0.8996233E+03  0.7818609E-02  0.9426052E-01
       -1   -1    0    0    0  501  0.00000000000E+00  0.00000000000E+00  0.25498988592E+03  0.25498988597E+03  0.50400001928E-02 0. -1.
        1   -1    0    0  501    0  0.00000000000E+00  0.00000000000E+00 -0.79348442744E+03  0.79348442745E+03  0.50400001928E-02 0.  1.
    10030    2    1    2    0    0  0.00000000000E+00  0.00000000000E+00 -0.53849454151E+03  0.10484743134E+04  0.89962326263E+03 0.  0.
        3    1    3    3  502    0 -0.72921905088E+02 -0.26830996682E+03 -0.68133669572E+03  0.73588555202E+03  0.10100000352E+00 0.  1.
       -3    1    3    3    0  502  0.72921905088E+02  0.26830996682E+03  0.14284215421E+03  0.31258876140E+03  0.10100000352E+00 0. -1.
</event>
<event>
 5   0  0.3815269E-03  0.8963258E+03  0.7818609E-02  0.9430186E-01
        2   -1    0    0  501    0  0.00000000000E+00  0.00000000000E+00  0.40018582698E+03  0.40018582698E+03  0.25500000920E-02 0. -1.
       -2   -1    0    0    0  501  0.00000000000E+00  0.00000000000E+00 -0.50189180399E+03  0.50189180400E+03  0.25500000920E-02 0.  1.
    10030    2    1    2    0    0  0.00000000000E+00  0.00000000000E+00 -0.10170597701E+03  0.90207763098E+03  0.89632580380E+03 0.  0.
        5    1    3    3  502    0 -0.13366237155E+03  0.41763862100E+02 -0.47928186710E+03  0.49934261572E+03  0.46999998093E+01 0.  1.
       -5    1    3    3    0  502  0.13366237155E+03 -0.41763862100E+02  0.37757589008E+03  0.40273501526E+03  0.46999998093E+01 0. -1.
</event>
<event>
 5   0  0.2295158E-03  0.9004385E+03  0.7818609E-02  0.9425033E-01
       -1   -1    0    0    0  501  0.00000000000E+00  0.00000000000E+00  0.12938217626E+03  0.12938217636E+03  0.50400001928E-02 0.  1.
        1   -1    0    0  501    0  0.00000000000E+00  0.00000000000E+00 -0.15666562495E+04  0.15666562495E+04  0.50400001928E-02 0. -1.
    10030    2    1    2    0    0  0.00000000000E+00  0.00000000000E+00 -0.14372740732E+04  0.16960384258E+04  0.90043854893E+03 0.  0.
        4    1    3    3  502    0 -0.19143998418E+02  0.22534136483E+03 -0.14519010629E+04  0.14694092461E+04  0.12699999809E+01 0. -1.
       -4    1    3    3    0  502  0.19143998418E+02 -0.22534136483E+03  0.14626989632E+02  0.22662917973E+03  0.12699999809E+01 0.  1.
</event>
<event>
 5   0  0.3685879E-03  0.9014274E+03  0.7818609E-02  0.9423799E-01
        2   -1    0    0  501    0  0.00000000000E+00  0.00000000000E+00  0.50529655045E+03  0.50529655046E+03  0.25500000920E-02 0. -1.
       -2   -1    0    0    0  501  0.00000000000E+00  0.00000000000E+00 -0.40202699948E+03  0.40202699949E+03  0.25500000920E-02 0.  1.
    10030    2    1    2    0    0  0.00000000000E+00  0.00000000000E+00  0.10326955097E+03  0.90732354995E+03  0.90142743698E+03 0.  0.
        1    1    3    3  502    0  0.29278844066E+03  0.25505514353E+02  0.39558210651E+03  0.49280909617E+03  0.50400001928E-02 0. -1.
       -1    1    3    3    0  502 -0.29278844066E+03 -0.25505514353E+02 -0.29231255554E+03  0.41451445379E+03  0.50400001928E-02 0.  1.
</event>
<event>
 5   0  0.1436000E-03  0.8985162E+03  0.7818609E-02  0.9427438E-01
       -3   -1    0    0    0  501  0.00000000000E+00  0.00000000000E+00  0.65620002749E+03  0.65620003526E+03  0.10100000352E+00 0.  1.
        3   -1    0    0  501    0  0.00000000000E+00  0.00000000000E+00 -0.30757820177E+03  0.30757821835E+03  0.10100000352E+00 0. -1.
    10030    2    1    2    0    0  0.00000000000E+00  0.00000000000E+00  0.34862182573E+03  0.96377825361E+03  0.89851619060E+03 0.  0.
        1    1    3    3  502    0  0.25605659140E+03 -0.66759968334E+02 -0.21511691751E+03  0.34102369360E+03  0.50400001928E-02 0. -1.
       -1    1    3    3    0  502 -0.25605659140E+03  0.66759968334E+02  0.56373874324E+03  0.62275456002E+03  0.50400001928E-02 0.  1.
</event>
<event>
 5   0  0.3806019E-03  0.9021679E+03  0.7818609E-02  0.9422875E-01
        2   -1    0    0  501    0  0.00000000000E+00  0.00000000000E+00  0.17145852210E+04  0.17145852210E+04  0.25500000920E-02 0.  1.
       -2   -1    0    0    0  501  0.00000000000E+00  0.00000000000E+00 -0.11867403219E+03  0.11867403222E+03  0.25500000920E-02 0. -1.
    10030    2    1    2    0    0  0.00000000000E+00  0.00000000000E+00  0.15959111888E+04  0.18332592532E+04  0.90216792614E+03 0.  0.
        2    1    3    3  502    0 -0.14226255681E+03  0.42423430659E+02  0.16635233261E+04  0.16701341979E+04  0.25500000920E-02 0.  1.
       -2    1    3    3    0  502  0.14226255681E+03 -0.42423430659E+02 -0.67612137326E+02  0.16312505528E+03  0.25500000920E-02 0. -1.
</event>
<event>
 5   0  0.2130975E-03  0.9016132E+03  0.7818609E-02  0.9423567E-01
        1   -1    0    0  501    0  0.00000000000E+00  0.00000000000E+00  0.51278089747E+03  0.51278089750E+03  0.50400001928E-02 0.  1.
       -1   -1    0    0    0  501  0.00000000000E+00  0.00000000000E+00 -0.39632249688E+03  0.39632249691E+03  0.50400001928E-02 0. -1.
    10030    2    1    2    0    0  0.00000000000E+00  0.00000000000E+00  0.11645840059E+03  0.90910339441E+03  0.90161323341E+03 0.  0.
        5    1    3    3  502    0  0.95294395442E+02  0.18136713028E+03  0.46309882846E+03  0.50641650118E+03  0.46999998093E+01 0.  1.
       -5    1    3    3    0  502 -0.95294395442E+02 -0.18136713028E+03 -0.34664042787E+03  0.40268689323E+03  0.46999998093E+01 0. -1.
</event>
<event>
 5   0  0.3663255E-03  0.9044245E+03  0.7818609E-02  0.9420067E-01
       -2   -1    0    0    0  501  0.00000000000E+00  0.00000000000E+00  0.18878886545E+03  0.18878886547E+03  0.25500000920E-02 0.  1.
        2   -1    0    0  501    0  0.00000000000E+00  0.00000000000E+00 -0.10831990576E+04  0.10831990576E+04  0.25500000920E-02 0. -1.
    10030    2    1    2    0    0  0.00000000000E+00  0.00000000000E+00 -0.89441019214E+03  0.12719879231E+04  0.90442450465E+03 0.  0.
        4    1    3    3  502    0 -0.32532422162E+03  0.17030050865E+03 -0.81839020364E+03  0.89699623786E+03  0.12699999809E+01 0. -1.
       -4    1    3    3    0  502  0.32532422162E+03 -0.17030050865E+03 -0.76019988500E+02  0.37499168520E+03  0.12699999809E+01 0.  1.
</event>
<event>
 5   0  0.3815269E-03  0.8971482E+03  0.7818609E-02  0.9429153E-01
       -2   -1    0    0    0  501  0.00000000000E+00  0.00000000000E+00  0.25998586406E+03  0.25998586407E+03  0.25500000920E-02 0. -1.
        2   -1    0    0  501    0  0.00000000000E+00  0.00000000000E+00 -0.77396025567E+03  0.77396025568E+03  0.25500000920E-02 0.  1.
    10030    2    1    2    0    0  0.00000000000E+00  0.00000000000E+00 -0.51397439162E+03  0.10339461198E+04  0.89714820588E+03 0.  0.
        5    1    3    3  502    0  0.14533076407E+03  0.10153010318E+03 -0.73184181024E+03  0.75302318560E+03  0.46999998093E+01 0.  1.
       -5    1    3    3    0  502 -0.14533076407E+03 -0.10153010318E+03  0.21786741862E+03  0.28092293415E+03  0.46999998093E+01 0. -1.
</event>
<event>
 5   0  0.2295158E-03  0.9064098E+03  0.7818609E-02  0.9417604E-01
        1   -1    0    0  501    0  0.00000000000E+00  0.00000000000E+00  0.52648821792E+03  0.52648821794E+03  0.50400001928E-02 0. -1.
       -1   -1    0    0    0  501  0.00000000000E+00  0.00000000000E+00 -0.39012212640E+03  0.39012212644E+03  0.50400001928E-02 0.  1.
    10030    2    1    2    0    0  0.00000000000E+00  0.00000000000E+00  0.13636609151E+03  0.91661034438E+03  0.90640984798E+03 0.  0.
        4    1    3    3  502    0  0.29646684125E+03 -0.23995254402E+03  0.31573019154E+03  0.49513329326E+03  0.12699999809E+01 0. -1.
       -4    1    3    3    0  502 -0.29646684125E+03  0.23995254402E+03 -0.17936410003E+03  0.42147705112E+03  0.12699999809E+01 0.  1.
</event>
<event>
 5   0  0.3626546E-03  0.8995200E+03  0.7818609E-02  0.9426182E-01
       -2   -1    0    0    0  501  0.00000000000E+00  0.00000000000E+00  0.86819300258E+03  0.86819300258E+03  0.25500000920E-02 0. -1.
        2   -1    0    0  501    0  0.00000000000E+00  0.00000000000E+00 -0.23299436566E+03  0.23299436567E+03  0.25500000920E-02 0.  1.
    10030    2    1    2    0    0  0.00000000000E+00  0.00000000000E+00  0.63519863692E+03  0.11011873683E+04  0.89952004516E+03 0.  0.
        3    1    3    3  502    0  0.23623465256E+03  0.64917671350E+02 -0.14413939040E+03  0.28424863973E+03  0.10100000352E+00 0.  1.
       -3    1    3    3    0  502 -0.23623465256E+03 -0.64917671350E+02  0.77933802732E+03  0.81693872852E+03  0.10100000352E+00 0. -1.
</event>
<event>
 5   0  0.2130975E-03  0.9011231E+03  0.7818609E-02  0.9424179E-01
       -1   -1    0    0    0  501  0.00000000000E+00  0.00000000000E+00  0.11283437567E+03  0.11283437578E+03  0.50400001928E-02 0. -1.
        1   -1    0    0  501    0  0.00000000000E+00  0.00000000000E+00 -0.17991477602E+04  0.17991477602E+04  0.50400001928E-02 0.  1.
    10030    2    1    2    0    0  0.00000000000E+00  0.00000000000E+00 -0.16863133845E+04  0.19119821360E+04  0.90112310897E+03 0.  0.
        5    1    3    3  502    0  0.19902160978E+03  0.16808026708E+02 -0.17000275735E+04  0.17117265995E+04  0.46999998093E+01 0.  1.
       -5    1    3    3    0  502 -0.19902160978E+03 -0.16808026708E+02  0.13714188920E+02  0.20025553650E+03  0.46999998093E+01 0. -1.
</event>
<event>
 5   0  0.2129280E-03  0.9006148E+03  0.7818609E-02  0.9424813E-01
       -1   -1    0    0    0  501  0.00000000000E+00  0.00000000000E+00  0.17548303703E+03  0.17548303711E+03  0.50400001928E-02 0. -1.
        1   -1    0    0  501    0  0.00000000000E+00  0.00000000000E+00 -0.11555348511E+04  0.11555348511E+04  0.50400001928E-02 0.  1.
    10030    2    1    2    0    0  0.00000000000E+00  0.00000000000E+00 -0.98005181406E+03  0.13310178882E+04  0.90061482360E+03 0.  0.
        3    1    3    3  502    0  0.22845724384E+02  0.84738702367E+02  0.16272081031E+03  0.18488008846E+03  0.10100000352E+00 0. -1.
       -3    1    3    3    0  502 -0.22845724384E+02 -0.84738702367E+02 -0.11427726244E+04  0.11461377997E+04  0.10100000352E+00 0.  1.
</event>
<event>
 5   0  0.2129280E-03  0.8953989E+03  0.7818609E-02  0.9431351E-01
       -1   -1    0    0    0  501  0.00000000000E+00  0.00000000000E+00  0.72698468872E+03  0.72698468874E+03  0.50400001928E-02 0. -1.
        1   -1    0    0  501    0  0.00000000000E+00  0.00000000000E+00 -0.27570701361E+03  0.27570701366E+03  0.50400001928E-02 0.  1.
    10030    2    1    2    0    0  0.00000000000E+00  0.00000000000E+00  0.45127767510E+03  0.10026917024E+04  0.89539885526E+03 0.  0.
        3    1    3    3  502    0 -0.35583225673E+03 -0.19007493382E+01  0.52988275363E+03  0.63827576373E+03  0.10100000352E+00 0. -1.
       -3    1    3    3    0  502  0.35583225673E+03  0.19007493382E+01 -0.78605078521E+02  0.36441593866E+03  0.10100000352E+00 0.  1.
</event>
<event>
 5   0  0.2134145E-03  0.9037383E+03  0.7818609E-02  0.9420920E-01
       -1   -1    0    0    0  501  0.00000000000E+00  0.00000000000E+00  0.19971147715E+03  0.19971147722E+03  0.50400001928E-02 0. -1.
        1   -1    0    0  501    0  0.00000000000E+00  0.00000000000E+00 -0.10224036559E+04  0.10224036559E+04  0.50400001928E-02 0.  1.
    10030    2    1    2    0    0  0.00000000000E+00  0.00000000000E+00 -0.82269217876E+03  0.12221151331E+04  0.90373833473E+03 0.  0.
        1    1    3    3  502    0 -0.35709981930E+03  0.20246432144E+03 -0.66675924560E+03  0.78299423626E+03  0.50400001928E-02 0. -1.
       -1    1    3    3    0  502  0.35709981930E+03 -0.20246432144E+03 -0.15593293316E+03  0.43912089687E+03  0.50400001928E-02 0.  1.
</event>
<event>
 5   0  0.3626546E-03  0.8984798E+03  0.7818609E-02  0.9427484E-01
       -2   -1    0    0    0  501  0.00000000000E+00  0.00000000000E+00  0.59361951671E+03  0.59361951671E+03  0.25500000920E-02 0. -1.
        2   -1    0    0  501    0  0.00000000000E+00  0.00000000000E+00 -0.33997618191E+03  0.33997618192E+03  0.25500000920E-02 0.  1.
    10030    2    1    2    0    0  0.00000000000E+00  0.00000000000E+00  0.25364333479E+03  0.93359569863E+03  0.89847982015E+03 0.  0.
        3    1    3    3  502    0 -0.72072746813E+02  0.16860975849E+03 -0.29932015337E+03  0.35102178836E+03  0.10100000352E+00 0.  1.
       -3    1    3    3    0  502  0.72072746813E+02 -0.16860975849E+03  0.55296348816E+03  0.58257391027E+03  0.10100000352E+00 0. -1.
</event>
<event>
 5   0  0.2130975E-03  0.9124936E+03  0.7818609E-02  0.9410097E-01
       -1   -1    0    0    0  501  0.00000000000E+00  0.00000000000E+00  0.29876261756E+03  0.29876261760E+03  0.50400001928E-02 0.  1.
        1   -1    0    0  501    0  0.00000000000E+00  0.00000000000E+00 -0.69674433687E+03  0.69674433688E+03  0.50400001928E-02 0. -1.
    10030    2    1    2    0    0  0.00000000000E+00  0.00000000000E+00 -0.39798171931E+03  0.99550695448E+03  0.91249364246E+03 0.  0.
        5    1    3    3  502    0 -0.19973953090E+03  0.35854755065E+03  0.18348179029E+02  0.41086612412E+03  0.46999998093E+01 0.  1.
       -5    1    3    3    0  502  0.19973953090E+03 -0.35854755065E+03 -0.41632989834E+03  0.58464083036E+03  0.46999998093E+01 0. -1.
</event>
<event>
 5   0  0.3626546E-03  0.9000807E+03  0.7818609E-02  0.9425481E-01
       -2   -1    0    0    0  501  0.00000000000E+00  0.00000000000E+00  0.31789114457E+03  0.31789114458E+03  0.25500000920E-02 0. -1.
        2   -1    0    0  501    0  0.00000000000E+00  0.00000000000E+00 -0.63712479400E+03  0.63712479401E+03  0.25500000920E-02 0.  1.
    10030    2    1    2    0    0  0.00000000000E+00  0.00000000000E+00 -0.31923364943E+03  0.95501593859E+03  0.90008072974E+03 0.  0.
        3    1    3    3  502    0  0.17635367180E+03  0.10383670482E+03  0.26566266904E+03  0.33534958289E+03  0.10100000352E+00 0. -1.
       -3    1    3    3    0  502 -0.17635367180E+03 -0.10383670482E+03 -0.58489631847E+03  0.61966635570E+03  0.10100000352E+00 0.  1.
</event>
<event>
 5   0  0.3815269E-03  0.9007326E+03  0.7818609E-02  0.9424666E-01
       -2   -1    0    0    0  501  0.00000000000E+00  0.00000000000E+00  0.17116854147E+03  0.17116854149E+03  0.25500000920E-02 0. -1.
        2   -1    0    0  501    0  0.00000000000E+00  0.00000000000E+00 -0.11849713963E+04  0.11849713963E+04  0.25500000920E-02 0.  1.
    10030    2    1    2    0    0  0.00000000000E+00  0.00000000000E+00 -0.10138028548E+04  0.13561399377E+04  0.90073264755E+03 0.  0.
        5    1    3    3  502    0 -0.39632161847E+02 -0.16860939314E+03  0.11897759829E+03  0.21018466785E+03  0.46999998093E+01 0. -1.
       -5    1    3    3    0  502  0.39632161847E+02  0.16860939314E+03 -0.11327804531E+04  0.11459552699E+04  0.46999998093E+01 0.  1.
</event>
<event>
 5   0  0.2074970E-03  0.8808406E+03  0.7818609E-02  0.9449854E-01
       -1   -1    0    0    0  501  0.00000000000E+00  0.00000000000E+00  0.76120651773E+02  0.76120651939E+02  0.50400001928E-02 0.  1.
        1   -1    0    0  501    0  0.00000000000E+00  0.00000000000E+00 -0.25481919476E+04  0.25481919477E+04  0.50400001928E-02 0. -1.
    10030    2    1    2    0    0  0.00000000000E+00  0.00000000000E+00 -0.24720712959E+04  0.26243125996E+04  0.88084058063E+03 0.  0.
        2    1    3    3  502    0 -0.27230121891E+01  0.43650198430E+03 -0.10615824722E+04  0.11478234805E+04  0.25500000920E-02 0.  1.
       -2    1    3    3    0  502  0.27230121891E+01 -0.43650198430E+03 -0.14104888236E+04  0.14764891191E+04  0.25500000920E-02 0. -1.
</event>
<event>
 5   0  0.2295158E-03  0.9011895E+03  0.7818609E-02  0.9424096E-01
        1   -1    0    0  501    0  0.00000000000E+00  0.00000000000E+00  0.12616937404E+04  0.12616937404E+04  0.50400001928E-02 0. -1.
       -1   -1    0    0    0  501  0.00000000000E+00  0.00000000000E+00 -0.16092307095E+03  0.16092307103E+03  0.50400001928E-02 0.  1.
    10030    2    1    2    0    0  0.00000000000E+00  0.00000000000E+00  0.11007706695E+04  0.14226168114E+04  0.90118950586E+03 0.  0.
        4    1    3    3  502    0 -0.23060399207E+03 -0.16483104784E+03 -0.25448199847E+01  0.28347057078E+03  0.12699999809E+01 0.  1.
       -4    1    3    3    0  502  0.23060399207E+03  0.16483104784E+03  0.11033154894E+04  0.11391462407E+04  0.12699999809E+01 0. -1.
</event>
<event>
 5   0  0.3806019E-03  0.9007131E+03  0.7818609E-02  0.9424690E-01
        2   -1    0    0  501    0  0.00000000000E+00  0.00000000000E+00  0.77273659951E+03  0.77273659951E+03  0.25500000920E-02 0.  1.
       -2   -1    0    0    0  501  0.00000000000E+00  0.00000000000E+00 -0.26247108806E+03  0.26247108808E+03  0.25500000920E-02 0. -1.
    10030    2    1    2    0    0  0.00000000000E+00  0.00000000000E+00  0.51026551144E+03  0.10352076876E+04  0.90071308654E+03 0.  0.
        2    1    3    3  502    0  0.13039927413E+03  0.14711245238E+03  0.72082015933E+03  0.74714640228E+03  0.25500000920E-02 0.  1.
       -2    1    3    3    0  502 -0.13039927413E+03 -0.14711245238E+03 -0.21055464789E+03  0.28806128531E+03  0.25500000920E-02 0. -1.
</event>
<event>
 5   0  0.3626546E-03  0.8985788E+03  0.7818609E-02  0.9427360E-01
        2   -1    0    0  501    0  0.00000000000E+00  0.00000000000E+00  0.59038429691E+03  0.59038429692E+03  0.25500000920E-02 0.  1.
       -2   -1    0    0    0  501  0.00000000000E+00  0.00000000000E+00 -0.34191449200E+03  0.34191449201E+03  0.25500000920E-02 0. -1.
    10030    2    1    2    0    0  0.00000000000E+00  0.00000000000E+00  0.24846980491E+03  0.93229878893E+03  0.89857875998E+03 0.  0.
        3    1    3    3  502    0 -0.66908965776E+01  0.34605542369E+02 -0.34047785617E+03  0.34229737422E+03  0.10100000352E+00 0. -1.
       -3    1    3    3    0  502  0.66908965776E+01 -0.34605542369E+02  0.58894766108E+03  0.59000141470E+03  0.10100000352E+00 0.  1.
</event>
<event>
 5   0  0.2134145E-03  0.9004927E+03  0.7818609E-02  0.9424966E-01
        1   -1    0    0  501    0  0.00000000000E+00  0.00000000000E+00  0.21372814601E+04  0.21372814601E+04  0.50400001928E-02 0. -1.
       -1   -1    0    0    0  501  0.00000000000E+00  0.00000000000E+00 -0.94850287688E+02  0.94850287822E+02  0.50400001928E-02 0.  1.
    10030    2    1    2    0    0  0.00000000000E+00  0.00000000000E+00  0.20424311724E+04  0.22321317479E+04  0.90049266853E+03 0.  0.
        1    1    3    3  502    0 -0.36429450431E+03 -0.17167334857E+03  0.52212539404E+03  0.65939150101E+03  0.50400001928E-02 0.  1.
       -1    1    3    3    0  502  0.36429450431E+03  0.17167334857E+03  0.15203057784E+04  0.15727402469E+04  0.50400001928E-02 0. -1.
</event>
<event>
 5   0  0.3815269E-03  0.8934935E+03  0.7818609E-02  0.9433752E-01
       -2   -1    0    0    0  501  0.00000000000E+00  0.00000000000E+00  0.31604865929E+03  0.31604865930E+03  0.25500000920E-02 0. -1.
        2   -1    0    0  501    0  0.00000000000E+00  0.00000000000E+00 -0.63149350939E+03  0.63149350940E+03  0.25500000920E-02 0.  1.
    10030    2    1    2    0    0  0.00000000000E+00  0.00000000000E+00 -0.31544485010E+03  0.94754216870E+03  0.89349354112E+03 0.  0.
        5    1    3    3  502    0 -0.32990016414E+03 -0.11862675109E+03 -0.45133523614E+03  0.57151728736E+03  0.46999998093E+01 0.  1.
       -5    1    3    3    0  502  0.32990016414E+03  0.11862675109E+03  0.13589038604E+03  0.37602488134E+03  0.46999998093E+01 0. -1.
</event>
<event>
 5   0  0.2295158E-03  0.9033608E+03  0.7818609E-02  0.9421390E-01
        1   -1    0    0  501    0  0.00000000000E+00  0.00000000000E+00  0.28823939671E+03  0.28823939676E+03  0.50400001928E-02 0.  1.
       -1   -1    0    0    0  501  0.00000000000E+00  0.00000000000E+00 -0.70779763946E+03  0.70779763948E+03  0.50400001928E-02 0. -1.
    10030    2    1    2    0    0  0.00000000000E+00  0.00000000000E+00 -0.41955824274E+03  0.99603703623E+03  0.90336075767E+03 0.  0.
        4    1    3    3  502    0 -0.10999963396E+03  0.81944811791E+02  0.26471759372E+03  0.29814742826E+03  0.12699999809E+01 0.  1.
       -4    1    3    3    0  502  0.10999963396E+03 -0.81944811791E+02 -0.68427583646E+03  0.69788960798E+03  0.12699999809E+01 0. -1.
</event>
<event>
 5   0  0.2130975E-03  0.8982089E+03  0.7818609E-02  0.9427823E-01
        1   -1    0    0  501    0  0.00000000000E+00  0.00000000000E+00  0.35676767892E+03  0.35676767896E+03  0.50400001928E-02 0.  1.
       -1   -1    0    0    0  501  0.00000000000E+00  0.00000000000E+00 -0.56533929597E+03  0.56533929599E+03  0.50400001928E-02 0. -1.
    10030    2    1    2    0    0  0.00000000000E+00  0.00000000000E+00 -0.20857161705E+03  0.92210697495E+03  0.89820885868E+03 0.  0.
        5    1    3    3  502    0 -0.33325389023E+03 -0.91312021896E+02 -0.39875664759E+03  0.52765992333E+03  0.46999998093E+01 0. -1.
       -5    1    3    3    0  502  0.33325389023E+03  0.91312021896E+02  0.19018503054E+03  0.39444705162E+03  0.46999998093E+01 0.  1.
</event>
<event>
 5   0  0.3806019E-03  0.8986149E+03  0.7818609E-02  0.9427315E-01
        2   -1    0    0  501    0  0.00000000000E+00  0.00000000000E+00  0.12173826984E+04  0.12173826984E+04  0.25500000920E-02 0.  1.
       -2   -1    0    0    0  501  0.00000000000E+00  0.00000000000E+00 -0.16582885459E+03  0.16582885461E+03  0.25500000920E-02 0. -1.
    10030    2    1    2    0    0  0.00000000000E+00  0.00000000000E+00  0.10515538438E+04  0.13832115530E+04  0.89861488634E+03 0.  0.
        2    1    3    3  502    0  0.20558821986E+03 -0.39951301451E+03  0.52595627044E+03  0.69174212199E+03  0.25500000920E-02 0. -1.
       -2    1    3    3    0  502 -0.20558821986E+03  0.39951301451E+03  0.52559757337E+03  0.69146943103E+03  0.25500000920E-02 0.  1.
</event>
<event>
 5   0  0.2134145E-03  0.8996327E+03  0.7818609E-02  0.9426041E-01
        1   -1    0    0  501    0  0.00000000000E+00  0.00000000000E+00  0.20195328686E+03  0.20195328692E+03  0.50400001928E-02 0. -1.
       -1   -1    0    0    0  501  0.00000000000E+00  0.00000000000E+00 -0.10018889730E+04  0.10018889730E+04  0.50400001928E-02 0.  1.
    10030    2    1    2    0    0  0.00000000000E+00  0.00000000000E+00 -0.79993568610E+03  0.12038422599E+04  0.89963274996E+03 0.  0.
        1    1    3    3  502    0 -0.13158231155E+03  0.13027199419E+03  0.14859158272E+03  0.23741136380E+03  0.50400001928E-02 0. -1.
       -1    1    3    3    0  502  0.13158231155E+03 -0.13027199419E+03 -0.94852726882E+03  0.96643089608E+03  0.50400001928E-02 0.  1.
</event>
<event>
 5   0  0.2074970E-03  0.8998625E+03  0.7818609E-02  0.9425753E-01
        1   -1    0    0  501    0  0.00000000000E+00  0.00000000000E+00  0.99820354798E+03  0.99820354799E+03  0.50400001928E-02 0. -1.
       -1   -1    0    0    0  501  0.00000000000E+00  0.00000000000E+00 -0.20280247054E+03  0.20280247060E+03  0.50400001928E-02 0.  1.
    10030    2    1    2    0    0  0.00000000000E+00  0.00000000000E+00  0.79540107744E+03  0.12010060186E+04  0.89986253544E+03 0.  0.
        2    1    3    3  502    0  0.32115206582E+03  0.64412734519E+02 -0.13993464373E+02  0.32784671235E+03  0.25500000920E-02 0.  1.
       -2    1    3    3    0  502 -0.32115206582E+03 -0.64412734519E+02  0.80939454181E+03  0.87315930624E+03  0.25500000920E-02 0. -1.
</event>
<event>
 5   0  0.3815269E-03  0.9012381E+03  0.7818609E-02  0.9424035E-01
       -2   -1    0    0    0  501  0.00000000000E+00  0.00000000000E+00  0.77339849569E+03  0.77339849569E+03  0.25500000920E-02 0.  1.
        2   -1    0    0  501    0  0.00000000000E+00  0.00000000000E+00 -0.26255228744E+03  0.26255228746E+03  0.25500000920E-02 0. -1.
    10030    2    1    2    0    0  0.00000000000E+00  0.00000000000E+00  0.51084620824E+03  0.10359507831E+04  0.90123813536E+03 0.  0.
        5    1    3    3  502    0  0.32804572573E+02  0.39233286953E+03  0.34959411938E+01  0.39374551692E+03  0.46999998093E+01 0. -1.
       -5    1    3    3    0  502 -0.32804572573E+02 -0.39233286953E+03  0.50735026705E+03  0.64220526622E+03  0.46999998093E+01 0.  1.
</event>
<event>
 5   0  0.3663255E-03  0.8368160E+03  0.7818609E-02  0.9508205E-01
       -2   -1    0    0    0  501  0.00000000000E+00  0.00000000000E+00  0.54106595255E+03  0.54106595256E+03  0.25500000920E-02 0.  1.
        2   -1    0    0  501    0  0.00000000000E+00  0.00000000000E+00 -0.32355621123E+03  0.32355621124E+03  0.25500000920E-02 0. -1.
    10030    2    1    2    0    0  0.00000000000E+00  0.00000000000E+00  0.21750974132E+03  0.86462216379E+03  0.83681598847E+03 0.  0.
        4    1    3    3  502    0 -0.12988687243E+03  0.35954787112E+03  0.28445952495E+03  0.47651244002E+03  0.12699999809E+01 0.  1.
       -4    1    3    3    0  502  0.12988687243E+03 -0.35954787112E+03 -0.66949783632E+02  0.38810972377E+03  0.12699999809E+01 0. -1.
</event>
<event>
 5   0  0.2074970E-03  0.8986740E+03  0.7818609E-02  0.9427241E-01
       -1   -1    0    0    0  501  0.00000000000E+00  0.00000000000E+00  0.16209991207E+03  0.16209991215E+03  0.50400001928E-02 0.  1.
        1   -1    0    0  501    0  0.00000000000E+00  0.00000000000E+00 -0.12455511801E+04  0.12455511801E+04  0.50400001928E-02 0. -1.
    10030    2    1    2    0    0  0.00000000000E+00  0.00000000000E+00 -0.10834512680E+04  0.14076510922E+04  0.89867399392E+03 0.  0.
        2    1    3    3  502    0 -0.67671838575E+02 -0.37540659174E+03 -0.16975395506E+03  0.41752364259E+03  0.25500000920E-02 0.  1.
       -2    1    3    3    0  502  0.67671838575E+02  0.37540659174E+03 -0.91369731296E+03  0.99012744966E+03  0.25500000920E-02 0. -1.
</event>
<event>
 5   0  0.2129280E-03  0.8990451E+03  0.7818609E-02  0.9426776E-01
        1   -1    0    0  501    0  0.00000000000E+00  0.00000000000E+00  0.62606168351E+03  0.62606168353E+03  0.50400001928E-02 0.  1.
       -1   -1    0    0    0  501  0.00000000000E+00  0.00000000000E+00 -0.32276454645E+03  0.32276454649E+03  0.50400001928E-02 0. -1.
    10030    2    1    2    0    0  0.00000000000E+00  0.00000000000E+00  0.30329713706E+03  0.94882623002E+03  0.89904508309E+03 0.  0.
        3    1    3    3  502    0  0.65796852314E+02 -0.18278246300E+03 -0.27617635849E+03  0.33765669806E+03  0.10100000352E+00 0. -1.
       -3    1    3    3    0  502 -0.65796852314E+02  0.18278246300E+03  0.57947349555E+03  0.61116953196E+03  0.10100000352E+00 0.  1.
</event>
<event>
 5   0  0.2074970E-03  0.8997235E+03  0.7818609E-02  0.9425927E-01
       -1   -1    0    0    0  501  0.00000000000E+00  0.00000000000E+00  0.21481396373E+03  0.21481396379E+03  0.50400001928E-02 0. -1.
        1   -1    0    0  501    0  0.00000000000E+00  0.00000000000E+00 -0.94209707633E+03  0.94209707634E+03  0.50400001928E-02 0.  1.
    10030    2    1    2    0    0  0.00000000000E+00  0.00000000000E+00 -0.72728311259E+03  0.11569110401E+04  0.89972352915E+03 0.  0.
        2    1    3    3  502    0  0.37006266354E+03  0.10033040099E+03 -0.66619413821E+03  0.76865284368E+03  0.25500000920E-02 0.  1.
       -2    1    3    3    0  502 -0.37006266354E+03 -0.10033040099E+03 -0.61088974384E+02  0.38825819645E+03  0.25500000920E-02 0. -1.
</event>
<event>
 5   0  0.3626546E-03  0.8980744E+03  0.7818609E-02  0.9427992E-01
        2   -1    0    0  501    0  0.00000000000E+00  0.00000000000E+00  0.27321068751E+04  0.27321068751E+04  0.25500000920E-02 0.  1.
       -2   -1    0    0    0  501  0.00000000000E+00  0.00000000000E+00 -0.73801796701E+02  0.73801796745E+02  0.25500000920E-02 0. -1.
    10030    2    1    2    0    0  0.00000000000E+00  0.00000000000E+00  0.26583050784E+04  0.28059086718E+04  0.89807437603E+03 0.  0.
        3    1    3    3  502    0 -0.29755801469E+03  0.24898875591E+03  0.62289339522E+03  0.73384764405E+03  0.10100000352E+00 0. -1.
       -3    1    3    3    0  502  0.29755801469E+03 -0.24898875591E+03  0.20354116831E+04  0.20720610278E+04  0.10100000352E+00 0.  1.
</event>
<event>
 5   0  0.2130975E-03  0.9031861E+03  0.7818609E-02  0.9421607E-01
       -1   -1    0    0    0  501  0.00000000000E+00  0.00000000000E+00  0.12121972125E+03  0.12121972136E+03  0.50400001928E-02 0.  1.
        1   -1    0    0  501    0  0.00000000000E+00  0.00000000000E+00 -0.16823688329E+04  0.16823688329E+04  0.50400001928E-02 0. -1.
    10030    2    1    2    0    0  0.00000000000E+00  0.00000000000E+00 -0.15611491117E+04  0.18035885543E+04  0.90318609616E+03 0.  0.
        5    1    3    3  502    0 -0.11365229423E+03  0.28626061879E+03 -0.14400178455E+04  0.14725948089E+04  0.46999998093E+01 0. -1.
       -5    1    3    3    0  502  0.11365229423E+03 -0.28626061879E+03 -0.12113126619E+03  0.33099374541E+03  0.46999998093E+01 0.  1.
</event>
<event>
 5   0  0.2295158E-03  0.9006092E+03  0.7818609E-02  0.9424820E-01
       -1   -1    0    0    0  501  0.00000000000E+00  0.00000000000E+00  0.22433748500E+03  0.22433748506E+03  0.50400001928E-02 0. -1.
        1   -1    0    0  501    0  0.00000000000E+00  0.00000000000E+00 -0.90388035845E+03  0.90388035846E+03  0.50400001928E-02 0.  1.
    10030    2    1    2    0    0  0.00000000000E+00  0.00000000000E+00 -0.67954287345E+03  0.11282178435E+04  0.90060923024E+03 0.  0.
        4    1    3    3  502    0  0.34801608043E+03  0.20415093462E+02 -0.69683316754E+03  0.77917266672E+03  0.12699999809E+01 0.  1.
       -4    1    3    3    0  502 -0.34801608043E+03 -0.20415093462E+02  0.17290294090E+02  0.34904517680E+03  0.12699999809E+01 0. -1.
</event>
<event>
 5   0  0.2129280E-03  0.8964571E+03  0.7818609E-02  0.9430021E-01
        1   -1    0    0  501    0  0.00000000000E+00  0.00000000000E+00  0.47861824706E+03  0.47861824708E+03  0.50400001928E-02 0. -1.
       -1   -1    0    0    0  501  0.00000000000E+00  0.00000000000E+00 -0.41976839549E+03  0.41976839552E+03  0.50400001928E-02 0.  1.
    10030    2    1    2    0    0  0.00000000000E+00  0.00000000000E+00  0.58849851562E+02  0.89838664261E+03  0.89645705675E+03 0.  0.
        3    1    3    3  502    0 -0.22618953774E+03 -0.31010210822E+03  0.26140488360E+03  0.46438943558E+03  0.10100000352E+00 0. -1.
       -3    1    3    3    0  502  0.22618953774E+03  0.31010210822E+03 -0.20255503204E+03  0.43399720703E+03  0.10100000352E+00 0.  1.
</event>
<event>
 5   0  0.3685879E-03  0.9003685E+03  0.7818609E-02  0.9425121E-01
        2   -1    0    0  501    0  0.00000000000E+00  0.00000000000E+00  0.15216723616E+04  0.15216723616E+04  0.25500000920E-02 0. -1.
       -2   -1    0    0    0  501  0.00000000000E+00  0.00000000000E+00 -0.13318625536E+03  0.13318625538E+03  0.25500000920E-02 0.  1.
    10030    2    1    2    0    0  0.00000000000E+00  0.00000000000E+00  0.13884861062E+04  0.16548586169E+04  0.90036846621E+03 0.  0.
        1    1    3    3  502    0 -0.40270343579E+03  0.19334139357E+03  0.59166318899E+03  0.74136110021E+03  0.50400001928E-02 0.  1.
       -1    1    3    3    0  502  0.40270343579E+03 -0.19334139357E+03  0.79682291722E+03  0.91349751674E+03  0.50400001928E-02 0. -1.
</event>
<event>
 5   0  0.2134145E-03  0.8999956E+03  0.7818609E-02  0.9425587E-01
       -1   -1    0    0    0  501  0.00000000000E+00  0.00000000000E+00  0.22340205568E+03  0.22340205573E+03  0.50400001928E-02 0.  1.
        1   -1    0    0  501    0  0.00000000000E+00  0.00000000000E+00 -0.90642869750E+03  0.90642869751E+03  0.50400001928E-02 0. -1.
    10030    2    1    2    0    0  0.00000000000E+00  0.00000000000E+00 -0.68302664182E+03  0.11298307532E+04  0.89999563196E+03 0.  0.
        1    1    3    3  502    0  0.33607968251E+03 -0.15283243188E+03 -0.18536338416E+02  0.36966322660E+03  0.50400001928E-02 0.  1.
       -1    1    3    3    0  502 -0.33607968251E+03  0.15283243188E+03 -0.66449030340E+03  0.76016752665E+03  0.50400001928E-02 0. -1.
</event>
<event>
 5   0  0.3626546E-03  0.9002890E+03  0.7818609E-02  0.9425220E-01
        2   -1    0    0  501    0  0.00000000000E+00  0.00000000000E+00  0.17664290555E+04  0.17664290555E+04  0.25500000920E-02 0.  1.
       -2   -1    0    0    0  501  0.00000000000E+00  0.00000000000E+00 -0.11471168896E+03  0.11471168899E+03  0.25500000920E-02 0. -1.
    10030    2    1    2    0    0  0.00000000000E+00  0.00000000000E+00  0.16517173666E+04  0.18811407445E+04  0.90028897674E+03 0.  0.
        3    1    3    3  502    0 -0.37363029597E+03 -0.22117548318E+03  0.10740756437E+04  0.11585148644E+04  0.10100000352E+00 0.  1.
       -3    1    3    3    0  502  0.37363029597E+03  0.22117548318E+03  0.57764172283E+03  0.72262588009E+03  0.10100000352E+00 0. -1.
</event>
<event>
 5   0  0.3626546E-03  0.9052058E+03  0.7818609E-02  0.9419097E-01
        2   -1    0    0  501    0  0.00000000000E+00  0.00000000000E+00  0.27379267969E+03  0.27379267970E+03  0.25500000920E-02 0.  1.
       -2   -1    0    0    0  501  0.00000000000E+00  0.00000000000E+00 -0.74819166535E+03  0.74819166535E+03  0.25500000920E-02 0. -1.
    10030    2    1    2    0    0  0.00000000000E+00  0.00000000000E+00 -0.47439898566E+03  0.10219843451E+04  0.90520583512E+03 0.  0.
        3    1    3    3  502    0  0.49798715008E+02 -0.44984714579E+03 -0.24019172300E+03  0.51238114777E+03  0.10100000352E+00 0. -1.
       -3    1    3    3    0  502 -0.49798715008E+02  0.44984714579E+03 -0.23420726266E+03  0.50960319728E+03  0.10100000352E+00 0.  1.
</event>
<event>
 5   0  0.3663255E-03  0.8986473E+03  0.7818609E-02  0.9427274E-01
       -2   -1    0    0    0  501  0.00000000000E+00  0.00000000000E+00  0.15835000535E+03  0.15835000537E+03  0.25500000920E-02 0. -1.
        2   -1    0    0  501    0  0.00000000000E+00  0.00000000000E+00 -0.12749714659E+04  0.12749714659E+04  0.25500000920E-02 0.  1.
    10030    2    1    2    0    0  0.00000000000E+00  0.00000000000E+00 -0.11166214606E+04  0.14333214713E+04  0.89864729115E+03 0.  0.
        4    1    3    3  502    0 -0.52935060137E+02  0.42545226291E+03 -0.77276468337E+03  0.88372994595E+03  0.12699999809E+01 0.  1.
       -4    1    3    3    0  502  0.52935060137E+02 -0.42545226291E+03 -0.34385677721E+03  0.54959152536E+03  0.12699999809E+01 0. -1.
</event>
<event>
 5   0  0.2129280E-03  0.8975022E+03  0.7818609E-02  0.9428709E-01
        1   -1    0    0  501    0  0.00000000000E+00  0.00000000000E+00  0.31087612689E+03  0.31087612693E+03  0.50400001928E-02 0. -1.
       -1   -1    0    0    0  501  0.00000000000E+00  0.00000000000E+00 -0.64777423973E+03  0.64777423975E+03  0.50400001928E-02 0.  1.
    10030    2    1    2    0    0  0.00000000000E+00  0.00000000000E+00 -0.33689811284E+03  0.95865036668E+03  0.89750219336E+03 0.  0.
        3    1    3    3  502    0  0.11576153913E+03 -0.37348366923E+03 -0.40364848813E+03  0.56198122504E+03  0.10100000352E+00 0.  1.
       -3    1    3    3    0  502 -0.11576153913E+03  0.37348366923E+03  0.66750375288E+02  0.39666914164E+03  0.10100000352E+00 0. -1.
</event>
<event>
 5   0  0.3663255E-03  0.9024085E+03  0.7818609E-02  0.9422576E-01
        2   -1    0    0  501    0  0.00000000000E+00  0.00000000000E+00  0.11466554523E+04  0.11466554523E+04  0.25500000920E-02 0. -1.
       -2   -1    0    0    0  501  0.00000000000E+00  0.00000000000E+00 -0.17754703192E+03  0.17754703193E+03  0.25500000920E-02 0.  1.
    10030    2    1    2    0    0  0.00000000000E+00  0.00000000000E+00  0.96910842037E+03  0.13242024842E+04  0.90240849331E+03 0.  0.
        4    1    3    3  502    0 -0.50587663923E+02 -0.77325219573E+02 -0.16351148563E+03  0.18781884931E+03  0.12699999809E+01 0.  1.
       -4    1    3    3    0  502  0.50587663923E+02  0.77325219573E+02  0.11326199060E+04  0.11363836349E+04  0.12699999809E+01 0. -1.
</event>
<event>
 5   0  0.2130975E-03  0.8980155E+03  0.7818609E-02  0.9428066E-01
        1   -1    0    0  501    0  0.00000000000E+00  0.00000000000E+00  0.53641677284E+03  0.53641677287E+03  0.50400001928E-02 0. -1.
       -1   -1    0    0    0  501  0.00000000000E+00  0.00000000000E+00 -0.37584198731E+03  0.37584198734E+03  0.50400001928E-02 0.  1.
    10030    2    1    2    0    0  0.00000000000E+00  0.00000000000E+00  0.16057478553E+03  0.91225876021E+03  0.89801546970E+03 0.  0.
        5    1    3    3  502    0  0.22495452823E+03 -0.37313108545E+02  0.47318928797E+03  0.52528754039E+03  0.46999998093E+01 0. -1.
       -5    1    3    3    0  502 -0.22495452823E+03  0.37313108545E+02 -0.31261450243E+03  0.38697121982E+03  0.46999998093E+01 0.  1.
</event>
<event>
 5   0  0.3685879E-03  0.9019914E+03  0.7818609E-02  0.9423095E-01
        2   -1    0    0  501    0  0.00000000000E+00  0.00000000000E+00  0.49636755389E+03  0.49636755390E+03  0.25500000920E-02 0.  1.
       -2   -1    0    0    0  501  0.00000000000E+00  0.00000000000E+00 -0.40977120983E+03  0.40977120984E+03  0.25500000920E-02 0. -1.
    10030    2    1    2    0    0  0.00000000000E+00  0.00000000000E+00  0.86596344063E+02  0.90613876373E+03  0.90199142586E+03 0.  0.
        1    1    3    3  502    0  0.31896687884E+03 -0.18947592711E+03  0.30090682326E+03  0.47768809181E+03  0.50400001928E-02 0.  1.
       -1    1    3    3    0  502 -0.31896687884E+03  0.18947592711E+03 -0.21431047919E+03  0.42845067192E+03  0.50400001928E-02 0. -1.
</event>
<event>
 5   0  0.2074970E-03  0.9021367E+03  0.7818609E-02  0.9422914E-01
       -1   -1    0    0    0  501  0.00000000000E+00  0.00000000000E+00  0.45102963912E+03  0.45102963915E+03  0.50400001928E-02 0.  1.
        1   -1    0    0  501    0  0.00000000000E+00  0.00000000000E+00 -0.45110702979E+03  0.45110702982E+03  0.50400001928E-02 0. -1.
    10030    2    1    2    0    0  0.00000000000E+00  0.00000000000E+00 -0.77390673984E-01  0.90213666897E+03  0.90213666565E+03 0.  0.
        2    1    3    3  502    0 -0.13558559090E+03  0.29394792024E+03 -0.31416257110E+03  0.45109528191E+03  0.25500000920E-02 0. -1.
       -2    1    3    3    0  502  0.13558559090E+03 -0.29394792024E+03  0.31408518043E+03  0.45104138706E+03  0.25500000920E-02 0.  1.
</event>
<event>
 5   0  0.3815269E-03  0.9055862E+03  0.7818609E-02  0.9418625E-01
       -2   -1    0    0    0  501  0.00000000000E+00  0.00000000000E+00  0.15988547599E+03  0.15988547601E+03  0.25500000920E-02 0. -1.
        2   -1    0    0  501    0  0.00000000000E+00  0.00000000000E+00 -0.12823029236E+04  0.12823029236E+04  0.25500000920E-02 0.  1.
    10030    2    1    2    0    0  0.00000000000E+00  0.00000000000E+00 -0.11224174476E+04  0.14421883996E+04  0.90558624838E+03 0.  0.
        5    1    3    3  502    0 -0.16465331094E+03 -0.13095025935E+03  0.77283034659E+02  0.22417279199E+03  0.46999998093E+01 0. -1.
       -5    1    3    3    0  502  0.16465331094E+03  0.13095025935E+03 -0.11997004823E+04  0.12180156076E+04  0.46999998093E+01 0.  1.
</event>
<event>
 5   0  0.2129280E-03  0.9016546E+03  0.7818609E-02  0.9423515E-01
        1   -1    0    0  501    0  0.00000000000E+00  0.00000000000E+00  0.12120568215E+04  0.12120568216E+04  0.50400001928E-02 0. -1.
       -1   -1    0    0    0  501  0.00000000000E+00  0.00000000000E+00 -0.16768625343E+03  0.16768625350E+03  0.50400001928E-02 0.  1.
    10030    2    1    2    0    0  0.00000000000E+00  0.00000000000E+00  0.10443705681E+04  0.13797430751E+04  0.90165462879E+03 0.  0.
        3    1    3    3  502    0  0.16566671333E+03 -0.13804578025E+03  0.11280174184E+04  0.11484447761E+04  0.10100000352E+00 0. -1.
       -3    1    3    3    0  502 -0.16566671333E+03  0.13804578025E+03 -0.83646850254E+02  0.23129829898E+03  0.10100000352E+00 0.  1.
</event>
<event>
 5   0  0.2129280E-03  0.9008390E+03  0.7818609E-02  0.9424533E-01
       -1   -1    0    0    0  501  0.00000000000E+00  0.00000000000E+00  0.37018405912E+03  0.37018405915E+03  0.50400001928E-02 0. -1.
        1   -1    0    0  501    0  0.00000000000E+00  0.00000000000E+00 -0.54804559814E+03  0.54804559816E+03  0.50400001928E-02 0.  1.
    10030    2    1    2    0    0  0.00000000000E+00  0.00000000000E+00 -0.17786153902E+03  0.91822965731E+03  0.90083904029E+03 0.  0.
        3    1    3    3  502    0  0.31967062053E+03 -0.50590889128E+02 -0.40823360953E+03  0.52096394678E+03  0.10100000352E+00 0.  1.
       -3    1    3    3    0  502 -0.31967062053E+03  0.50590889128E+02  0.23037207051E+03  0.39726571053E+03  0.10100000352E+00 0. -1.
</event>
<event>
 5   0  0.1436000E-03  0.9015795E+03  0.7818609E-02  0.9423609E-01
        3   -1    0    0  501    0  0.00000000000E+00  0.00000000000E+00  0.32130904945E+03  0.32130906532E+03  0.10100000352E+00 0.  1.
       -3   -1    0    0    0  501  0.00000000000E+00  0.00000000000E+00 -0.63244843994E+03  0.63244844800E+03  0.10100000352E+00 0. -1.
    10030    2    1    2    0    0  0.00000000000E+00  0.00000000000E+00 -0.31113939049E+03  0.95375751332E+03  0.90157954386E+03 0.  0.
        2    1    3    3  502    0  0.12181112445E+02 -0.41090356377E+03 -0.35126579769E+03  0.54071968602E+03  0.25500000920E-02 0. -1.
       -2    1    3    3    0  502 -0.12181112445E+02  0.41090356377E+03  0.40126407205E+02  0.41303782730E+03  0.25500000920E-02 0.  1.
</event>
<event>
 5   0  0.2134145E-03  0.8369430E+03  0.7818609E-02  0.9508031E-01
        1   -1    0    0  501    0  0.00000000000E+00  0.00000000000E+00  0.12064162688E+04  0.12064162688E+04  0.50400001928E-02 0.  1.
       -1   -1    0    0    0  501  0.00000000000E+00  0.00000000000E+00 -0.14515587519E+03  0.14515587528E+03  0.50400001928E-02 0. -1.
    10030    2    1    2    0    0  0.00000000000E+00  0.00000000000E+00  0.10612603936E+04  0.13515721441E+04  0.83694303128E+03 0.  0.
        1    1    3    3  502    0  0.18761297152E+03 -0.36703700119E+03  0.64712222525E+03  0.76725612526E+03  0.50400001928E-02 0.  1.
       -1    1    3    3    0  502 -0.18761297152E+03  0.36703700119E+03  0.41413816834E+03  0.58431601880E+03  0.50400001928E-02 0. -1.
</event>
<event>
 5   0  0.2074970E-03  0.8995555E+03  0.7818609E-02  0.9426137E-01
        1   -1    0    0  501    0  0.00000000000E+00  0.00000000000E+00  0.52454024450E+03  0.52454024452E+03  0.50400001928E-02 0.  1.
       -1   -1    0    0    0  501  0.00000000000E+00  0.00000000000E+00 -0.38567116396E+03  0.38567116399E+03  0.50400001928E-02 0. -1.
    10030    2    1    2    0    0  0.00000000000E+00  0.00000000000E+00  0.13886908054E+03  0.91021140851E+03  0.89955554951E+03 0.  0.
        2    1    3    3  502    0 -0.31970914206E+00  0.40399572336E+03  0.26948183319E+03  0.48562650786E+03  0.25500000920E-02 0.  1.
       -2    1    3    3    0  502  0.31970914206E+00 -0.40399572336E+03 -0.13061275264E+03  0.42458490066E+03  0.25500000920E-02 0. -1.
</event>
<event>
 5   0  0.2130975E-03  0.9057523E+03  0.7818609E-02  0.9418419E-01
       -1   -1    0    0    0  501  0.00000000000E+00  0.00000000000E+00  0.47592053347E+03  0.47592053350E+03  0.50400001928E-02 0. -1.
        1   -1    0    0  501    0  0.00000000000E+00  0.00000000000E+00 -0.43094763213E+03  0.43094763216E+03  0.50400001928E-02 0.  1.
    10030    2    1    2    0    0  0.00000000000E+00  0.00000000000E+00  0.44972901348E+02  0.90686816566E+03  0.90575234365E+03 0.  0.
        5    1    3    3  502    0 -0.26076537305E+03  0.13277231455E+03  0.36852424188E+03  0.47059459638E+03  0.46999998093E+01 0. -1.
       -5    1    3    3    0  502  0.26076537305E+03 -0.13277231455E+03 -0.32355134053E+03  0.43627356928E+03  0.46999998093E+01 0.  1.
</event>
<event>
 5   0  0.3815269E-03  0.9236154E+03  0.7818609E-02  0.9396533E-01
        2   -1    0    0  501    0  0.00000000000E+00  0.00000000000E+00  0.70354018358E+03  0.70354018359E+03  0.25500000920E-02 0.  1.
       -2   -1    0    0    0  501  0.00000000000E+00  0.00000000000E+00 -0.30313318042E+03  0.30313318043E+03  0.25500000920E-02 0. -1.
    10030    2    1    2    0    0  0.00000000000E+00  0.00000000000E+00  0.40040700317E+03  0.10066733640E+04  0.92361544684E+03 0.  0.
        5    1    3    3  502    0  0.73261024160E+02 -0.15352319262E+03  0.66812087563E+03  0.68945205981E+03  0.46999998093E+01 0.  1.
       -5    1    3    3    0  502 -0.73261024160E+02  0.15352319262E+03 -0.26771387246E+03  0.31722130420E+03  0.46999998093E+01 0. -1.
</event>
<event>
 5   0  0.2130975E-03  0.9014962E+03  0.7818609E-02  0.9423713E-01
       -1   -1    0    0    0  501  0.00000000000E+00  0.00000000000E+00  0.84432013813E+03  0.84432013814E+03  0.50400001928E-02 0. -1.
        1   -1    0    0  501    0  0.00000000000E+00  0.00000000000E+00 -0.24063605604E+03  0.24063605609E+03  0.50400001928E-02 0.  1.
    10030    2    1    2    0    0  0.00000000000E+00  0.00000000000E+00  0.60368408209E+03  0.10849561942E+04  0.90149624095E+03 0.  0.
        5    1    3    3  502    0 -0.12371880375E+03 -0.22126681746E+03  0.75035830173E+03  0.79203852045E+03  0.46999998093E+01 0. -1.
       -5    1    3    3    0  502  0.12371880375E+03  0.22126681746E+03 -0.14667421964E+03  0.29291767379E+03  0.46999998093E+01 0.  1.
</event>
<event>
 5   0  0.3685879E-03  0.8970339E+03  0.7818609E-02  0.9429297E-01
        2   -1    0    0  501    0  0.00000000000E+00  0.00000000000E+00  0.66364368344E+03  0.66364368344E+03  0.25500000920E-02 0.  1.
       -2   -1    0    0    0  501  0.00000000000E+00  0.00000000000E+00 -0.30312570864E+03  0.30312570865E+03  0.25500000920E-02 0. -1.
    10030    2    1    2    0    0  0.00000000000E+00  0.00000000000E+00  0.36051797480E+03  0.96676939209E+03  0.89703391649E+03 0.  0.
        1    1    3    3  502    0  0.42947406071E+03  0.33245035091E+02  0.31493019063E+03  0.53360493455E+03  0.50400001928E-02 0.  1.
       -1    1    3    3    0  502 -0.42947406071E+03 -0.33245035091E+02  0.45587784166E+02  0.43316445754E+03  0.50400001928E-02 0. -1.
</event>
<event>
 5   0  0.2134145E-03  0.8960317E+03  0.7818609E-02  0.9430556E-01
        1   -1    0    0  501    0  0.00000000000E+00  0.00000000000E+00  0.26460838400E+03  0.26460838405E+03  0.50400001928E-02 0. -1.
       -1   -1    0    0    0  501  0.00000000000E+00  0.00000000000E+00 -0.75854807975E+03  0.75854807977E+03  0.50400001928E-02 0.  1.
    10030    2    1    2    0    0  0.00000000000E+00  0.00000000000E+00 -0.49393969575E+03  0.10231564638E+04  0.89603165481E+03 0.  0.
        1    1    3    3  502    0  0.25090940050E+02 -0.14177889630E+03  0.23746984067E+03  0.27770980530E+03  0.50400001928E-02 0. -1.
       -1    1    3    3    0  502 -0.25090940050E+02  0.14177889630E+03 -0.73140953641E+03  0.74544665852E+03  0.50400001928E-02 0.  1.
</event>
<event>
 5   0  0.3663255E-03  0.8990731E+03  0.7818609E-02  0.9426741E-01
        2   -1    0    0  501    0  0.00000000000E+00  0.00000000000E+00  0.14709174529E+04  0.14709174529E+04  0.25500000920E-02 0. -1.
       -2   -1    0    0    0  501  0.00000000000E+00  0.00000000000E+00 -0.13738577021E+03  0.13738577023E+03  0.25500000920E-02 0.  1.
    10030    2    1    2    0    0  0.00000000000E+00  0.00000000000E+00  0.13335316827E+04  0.16083032232E+04  0.89907313874E+03 0.  0.
        4    1    3    3  502    0 -0.25352769454E+03  0.36667684667E+03  0.56317772764E+03  0.71826107202E+03  0.12699999809E+01 0. -1.
       -4    1    3    3    0  502  0.25352769454E+03 -0.36667684667E+03  0.77035395509E+03  0.89004215114E+03  0.12699999809E+01 0.  1.
</event>
<event>
 5   0  0.3626546E-03  0.9316663E+03  0.7818609E-02  0.9386840E-01
       -2   -1    0    0    0  501  0.00000000000E+00  0.00000000000E+00  0.33464845473E+03  0.33464845474E+03  0.25500000920E-02 0.  1.
        2   -1    0    0  501    0  0.00000000000E+00  0.00000000000E+00 -0.64844326750E+03  0.64844326751E+03  0.25500000920E-02 0. -1.
    10030    2    1    2    0    0  0.00000000000E+00  0.00000000000E+00 -0.31379481277E+03  0.98309172224E+03  0.93166632966E+03 0.  0.
        3    1    3    3  502    0 -0.11320121940E+03 -0.33445140559E+03  0.16373025278E+03  0.38920414264E+03  0.10100000352E+00 0.  1.
       -3    1    3    3    0  502  0.11320121940E+03  0.33445140559E+03 -0.47752506555E+03  0.59388757960E+03  0.10100000352E+00 0. -1.
</event>
<event>
 5   0  0.2129280E-03  0.8975205E+03  0.7818609E-02  0.9428686E-01
        1   -1    0    0  501    0  0.00000000000E+00  0.00000000000E+00  0.52969744161E+03  0.52969744163E+03  0.50400001928E-02 0. -1.
       -1   -1    0    0    0  501  0.00000000000E+00  0.00000000000E+00 -0.38019015558E+03  0.38019015561E+03  0.50400001928E-02 0.  1.
    10030    2    1    2    0    0  0.00000000000E+00  0.00000000000E+00  0.14950728603E+03  0.90988759724E+03  0.89752047945E+03 0.  0.
        3    1    3    3  502    0 -0.29911338867E+03  0.14093073918E+03  0.38234075250E+03  0.50548467213E+03  0.10100000352E+00 0. -1.
       -3    1    3    3    0  502  0.29911338867E+03 -0.14093073918E+03 -0.23283346647E+03  0.40440292512E+03  0.10100000352E+00 0.  1.
</event>
<event>
 5   0  0.2130975E-03  0.8947055E+03  0.7818609E-02  0.9432224E-01
       -1   -1    0    0    0  501  0.00000000000E+00  0.00000000000E+00  0.12198098062E+03  0.12198098072E+03  0.50400001928E-02 0.  1.
        1   -1    0    0  501    0  0.00000000000E+00  0.00000000000E+00 -0.16406204271E+04  0.16406204271E+04  0.50400001928E-02 0. -1.
    10030    2    1    2    0    0  0.00000000000E+00  0.00000000000E+00 -0.15186394465E+04  0.17626014079E+04  0.89470551272E+03 0.  0.
        5    1    3    3  502    0  0.43529671719E+03  0.65565018841E+02 -0.91593932213E+03  0.10162425574E+04  0.46999998093E+01 0.  1.
       -5    1    3    3    0  502 -0.43529671719E+03 -0.65565018841E+02 -0.60270012439E+03  0.74635885045E+03  0.46999998093E+01 0. -1.
</event>
<event>
 5   0  0.1436000E-03  0.9004626E+03  0.7818609E-02  0.9425003E-01
        3   -1    0    0  501    0  0.00000000000E+00  0.00000000000E+00  0.94443800050E+03  0.94443800590E+03  0.10100000352E+00 0. -1.
       -3   -1    0    0    0  501  0.00000000000E+00  0.00000000000E+00 -0.21463366804E+03  0.21463369180E+03  0.10100000352E+00 0.  1.
    10030    2    1    2    0    0  0.00000000000E+00  0.00000000000E+00  0.72980433246E+03  0.11590716977E+04  0.90046256820E+03 0.  0.
        4    1    3    3  502    0  0.16741976279E+03 -0.23863055986E+03 -0.76762995212E+02  0.30144334693E+03  0.12699999809E+01 0.  1.
       -4    1    3    3    0  502 -0.16741976279E+03  0.23863055986E+03  0.80656732767E+03  0.85762835077E+03  0.12699999809E+01 0. -1.
</event>
<event>
 5   0  0.2074970E-03  0.9204563E+03  0.7818609E-02  0.9400365E-01
       -1   -1    0    0    0  501  0.00000000000E+00  0.00000000000E+00  0.82618868235E+03  0.82618868236E+03  0.50400001928E-02 0.  1.
        1   -1    0    0  501    0  0.00000000000E+00  0.00000000000E+00 -0.25636996999E+03  0.25636997004E+03  0.50400001928E-02 0. -1.
    10030    2    1    2    0    0  0.00000000000E+00  0.00000000000E+00  0.56981871235E+03  0.10825586524E+04  0.92045633843E+03 0.  0.
        2    1    3    3  502    0  0.38742956782E+03  0.24087546465E+03  0.35632658013E+03  0.57887070335E+03  0.25500000920E-02 0.  1.
       -2    1    3    3    0  502 -0.38742956782E+03 -0.24087546465E+03  0.21349213223E+03  0.50368794905E+03  0.25500000920E-02 0. -1.
</event>
<event>
 5   0  0.3815269E-03  0.9007405E+03  0.7818609E-02  0.9424656E-01
       -2   -1    0    0    0  501  0.00000000000E+00  0.00000000000E+00  0.24806806821E+03  0.24806806822E+03  0.25500000920E-02 0. -1.
        2   -1    0    0  501    0  0.00000000000E+00  0.00000000000E+00 -0.81765205534E+03  0.81765205534E+03  0.25500000920E-02 0.  1.
    10030    2    1    2    0    0  0.00000000000E+00  0.00000000000E+00 -0.56958398713E+03  0.10657201236E+04  0.90074050835E+03 0.  0.
        5    1    3    3  502    0  0.41387747171E+03  0.65289091176E+02 -0.89466474566E+02  0.42846652971E+03  0.46999998093E+01 0. -1.
       -5    1    3    3    0  502 -0.41387747171E+03 -0.65289091176E+02 -0.48011751256E+03  0.63725359385E+03  0.46999998093E+01 0.  1.
</event>
<event>
 5   0  0.3806019E-03  0.8979817E+03  0.7818609E-02  0.9428108E-01
       -2   -1    0    0    0  501  0.00000000000E+00  0.00000000000E+00  0.11213229628E+04  0.11213229628E+04  0.25500000920E-02 0.  1.
        2   -1    0    0  501    0  0.00000000000E+00  0.00000000000E+00 -0.17978120420E+03  0.17978120422E+03  0.25500000920E-02 0. -1.
    10030    2    1    2    0    0  0.00000000000E+00  0.00000000000E+00  0.94154175864E+03  0.13011041671E+04  0.89798172046E+03 0.  0.
        2    1    3    3  502    0  0.17258438030E+03  0.12140370642E+03  0.10450052832E+04  0.10660958072E+04  0.25500000920E-02 0.  1.
       -2    1    3    3    0  502 -0.17258438030E+03 -0.12140370642E+03 -0.10346352458E+03  0.23500835981E+03  0.25500000920E-02 0. -1.
</event>
<event>
 5   0  0.3626546E-03  0.9048152E+03  0.7818609E-02  0.9419582E-01
        2   -1    0    0  501    0  0.00000000000E+00  0.00000000000E+00  0.23193469332E+04  0.23193469332E+04  0.25500000920E-02 0. -1.
       -2   -1    0    0    0  501  0.00000000000E+00  0.00000000000E+00 -0.88245813585E+02  0.88245813622E+02  0.25500000920E-02 0.  1.
    10030    2    1    2    0    0  0.00000000000E+00  0.00000000000E+00  0.22311011196E+04  0.24075927468E+04  0.90481524556E+03 0.  0.
        3    1    3    3  502    0  0.27837066322E+03  0.16330438753E+03  0.27195049159E+03  0.42203747370E+03  0.10100000352E+00 0.  1.
       -3    1    3    3    0  502 -0.27837066322E+03 -0.16330438753E+03  0.19591506280E+04  0.19855552731E+04  0.10100000352E+00 0. -1.
</event>
<event>
 5   0  0.3806019E-03  0.8821450E+03  0.7818609E-02  0.9448180E-01
       -2   -1    0    0    0  501  0.00000000000E+00  0.00000000000E+00  0.23660515481E+03  0.23660515482E+03  0.25500000920E-02 0.  1.
        2   -1    0    0  501    0  0.00000000000E+00  0.00000000000E+00 -0.82223456933E+03  0.82223456933E+03  0.25500000920E-02 0. -1.
    10030    2    1    2    0    0  0.00000000000E+00  0.00000000000E+00 -0.58562941452E+03  0.10588397242E+04  0.88214497125E+03 0.  0.
        2    1    3    3  502    0  0.85316821396E+02  0.17134709654E+03 -0.76978330364E+03  0.79322450925E+03  0.25500000920E-02 0. -1.
       -2    1    3    3    0  502 -0.85316821396E+02 -0.17134709654E+03  0.18415388912E+03  0.26561521491E+03  0.25500000920E-02 0.  1.
</event>
<event>
 5   0  0.3626546E-03  0.8994669E+03  0.7818609E-02  0.9426248E-01
       -2   -1    0    0    0  501  0.00000000000E+00  0.00000000000E+00  0.52355392014E+03  0.52355392014E+03  0.25500000920E-02 0.  1.
        2   -1    0    0  501    0  0.00000000000E+00  0.00000000000E+00 -0.38632160711E+03  0.38632160711E+03  0.25500000920E-02 0. -1.
    10030    2    1    2    0    0  0.00000000000E+00  0.00000000000E+00  0.13723231303E+03  0.90987552726E+03  0.89946693511E+03 0.  0.
        3    1    3    3  502    0 -0.10558278035E+03  0.25189268732E+03  0.43004974382E+03  0.50945111816E+03  0.10100000352E+00 0.  1.
       -3    1    3    3    0  502  0.10558278035E+03 -0.25189268732E+03 -0.29281743079E+03  0.40042440910E+03  0.10100000352E+00 0. -1.
</event>
<event>
 5   0  0.3815269E-03  0.8954339E+03  0.7818609E-02  0.9431307E-01
       -2   -1    0    0    0  501  0.00000000000E+00  0.00000000000E+00  0.24716357584E+03  0.24716357585E+03  0.25500000920E-02 0. -1.
        2   -1    0    0  501    0  0.00000000000E+00  0.00000000000E+00 -0.81100330071E+03  0.81100330071E+03  0.25500000920E-02 0.  1.
    10030    2    1    2    0    0  0.00000000000E+00  0.00000000000E+00 -0.56383972487E+03  0.10581668766E+04  0.89543391901E+03 0.  0.
        5    1    3    3  502    0 -0.40480517669E+03  0.17404330123E+03 -0.18834540820E+03  0.47922268787E+03  0.46999998093E+01 0. -1.
       -5    1    3    3    0  502  0.40480517669E+03 -0.17404330123E+03 -0.37549431667E+03  0.57894418870E+03  0.46999998093E+01 0.  1.
</event>
<event>
 5   0  0.3663255E-03  0.9001096E+03  0.7818609E-02  0.9425444E-01
       -2   -1    0    0    0  501  0.00000000000E+00  0.00000000000E+00  0.24718263853E+03  0.24718263854E+03  0.25500000920E-02 0.  1.
        2   -1    0    0  501    0  0.00000000000E+00  0.00000000000E+00 -0.81943178192E+03  0.81943178192E+03  0.25500000920E-02 0. -1.
    10030    2    1    2    0    0  0.00000000000E+00  0.00000000000E+00 -0.57224914339E+03  0.10666144205E+04  0.90010957102E+03 0.  0.
        4    1    3    3  502    0  0.97394571394E+02  0.12403694544E+03  0.21336620220E+03  0.26532548975E+03  0.12699999809E+01 0.  1.
       -4    1    3    3    0  502 -0.97394571394E+02 -0.12403694544E+03 -0.78561534559E+03  0.80128893072E+03  0.12699999809E+01 0. -1.
</event>
<event>
 5   0  0.3663255E-03  0.8939228E+03  0.7818609E-02  0.9433210E-01
       -2   -1    0    0    0  501  0.00000000000E+00  0.00000000000E+00  0.22986424945E+03  0.22986424946E+03  0.25500000920E-02 0. -1.
        2   -1    0    0  501    0  0.00000000000E+00  0.00000000000E+00 -0.86909768684E+03  0.86909768684E+03  0.25500000920E-02 0.  1.
    10030    2    1    2    0    0  0.00000000000E+00  0.00000000000E+00 -0.63923343739E+03  0.10989619363E+04  0.89392278748E+03 0.  0.
        4    1    3    3  502    0 -0.10165948008E+03 -0.14162724412E+03 -0.82557375540E+03  0.84378111182E+03  0.12699999809E+01 0.  1.
       -4    1    3    3    0  502  0.10165948008E+03  0.14162724412E+03  0.18634031801E+03  0.25518082448E+03  0.12699999809E+01 0. -1.
</event>
<event>
 5   0  0.2134145E-03  0.9029546E+03  0.7818609E-02  0.9421896E-01
        1   -1    0    0  501    0  0.00000000000E+00  0.00000000000E+00  0.35874542387E+03  0.35874542390E+03  0.50400001928E-02 0.  1.
       -1   -1    0    0    0  501  0.00000000000E+00  0.00000000000E+00 -0.56817939491E+03  0.56817939494E+03  0.50400001928E-02 0. -1.
    10030    2    1    2    0    0  0.00000000000E+00  0.00000000000E+00 -0.20943397105E+03  0.92692481884E+03  0.90295461212E+03 0.  0.
        1    1    3    3  502    0  0.32208567667E+03  0.29325020357E+03  0.17165215821E+02  0.43592374295E+03  0.50400001928E-02 0.  1.
       -1    1    3    3    0  502 -0.32208567667E+03 -0.29325020357E+03 -0.22659918687E+03  0.49100107589E+03  0.50400001928E-02 0. -1.
</event>
<event>
 5   0  0.3806019E-03  0.8959304E+03  0.7818609E-02  0.9430683E-01
       -2   -1    0    0    0  501  0.00000000000E+00  0.00000000000E+00  0.15714137171E+03  0.15714137173E+03  0.25500000920E-02 0.  1.
        2   -1    0    0  501    0  0.00000000000E+00  0.00000000000E+00 -0.12770209108E+04  0.12770209108E+04  0.25500000920E-02 0. -1.
    10030    2    1    2    0    0  0.00000000000E+00  0.00000000000E+00 -0.11198795391E+04  0.14341622826E+04  0.89593039384E+03 0.  0.
        2    1    3    3  502    0  0.16307080542E+03  0.40339457263E+03 -0.38937479932E+03  0.58389382867E+03  0.25500000920E-02 0. -1.
       -2    1    3    3    0  502 -0.16307080542E+03 -0.40339457263E+03 -0.73050473980E+03  0.85026845389E+03  0.25500000920E-02 0.  1.
</event>
<event>
 5   0  0.2130975E-03  0.9022213E+03  0.7818609E-02  0.9422809E-01
       -1   -1    0    0    0  501  0.00000000000E+00  0.00000000000E+00  0.23542138484E+03  0.23542138490E+03  0.50400001928E-02 0. -1.
        1   -1    0    0  501    0  0.00000000000E+00  0.00000000000E+00 -0.86441101215E+03  0.86441101217E+03  0.50400001928E-02 0.  1.
    10030    2    1    2    0    0  0.00000000000E+00  0.00000000000E+00 -0.62898962731E+03  0.10998323971E+04  0.90222134223E+03 0.  0.
        5    1    3    3  502    0  0.11027894130E+03 -0.34285179544E+03 -0.64559021886E+03  0.73926829989E+03  0.46999998093E+01 0.  1.
       -5    1    3    3    0  502 -0.11027894130E+03  0.34285179544E+03  0.16600591557E+02  0.36056409717E+03  0.46999998093E+01 0. -1.
</event>
<event>
 5   0  0.2295158E-03  0.8988810E+03  0.7818609E-02  0.9426981E-01
        1   -1    0    0  501    0  0.00000000000E+00  0.00000000000E+00  0.11603270678E+04  0.11603270678E+04  0.50400001928E-02 0. -1.
       -1   -1    0    0    0  501  0.00000000000E+00  0.00000000000E+00 -0.17408605507E+03  0.17408605514E+03  0.50400001928E-02 0.  1.
    10030    2    1    2    0    0  0.00000000000E+00  0.00000000000E+00  0.98624101269E+03  0.13344131229E+04  0.89888099739E+03 0.  0.
        4    1    3    3  502    0 -0.28415178107E+03  0.33286370262E+03  0.34133047018E+03  0.55502124462E+03  0.12699999809E+01 0.  1.
       -4    1    3    3    0  502  0.28415178107E+03 -0.33286370262E+03  0.64491054250E+03  0.77939187829E+03  0.12699999809E+01 0. -1.
</event>
<event>
 5   0  0.2130975E-03  0.8972463E+03  0.7818609E-02  0.9429030E-01
       -1   -1    0    0    0  501  0.00000000000E+00  0.00000000000E+00  0.99739044235E+03  0.99739044236E+03  0.50400001928E-02 0.  1.
        1   -1    0    0  501    0  0.00000000000E+00  0.00000000000E+00 -0.20178932427E+03  0.20178932434E+03  0.50400001928E-02 0. -1.
    10030    2    1    2    0    0  0.00000000000E+00  0.00000000000E+00  0.79560111808E+03  0.11991797667E+04  0.89724632837E+03 0.  0.
        5    1    3    3  502    0  0.15429417407E+03  0.36063358017E+03  0.10689090598E+03  0.40658458785E+03  0.46999998093E+01 0. -1.
       -5    1    3    3    0  502 -0.15429417407E+03 -0.36063358017E+03  0.68871021210E+03  0.79259517885E+03  0.46999998093E+01 0.  1.
</event>
<event>
 5   0  0.3685879E-03  0.9008680E+03  0.7818609E-02  0.9424497E-01
        2   -1    0    0  501    0  0.00000000000E+00  0.00000000000E+00  0.13426193974E+04  0.13426193974E+04  0.25500000920E-02 0.  1.
       -2   -1    0    0    0  501  0.00000000000E+00  0.00000000000E+00 -0.15111564275E+03  0.15111564277E+03  0.25500000920E-02 0. -1.
    10030    2    1    2    0    0  0.00000000000E+00  0.00000000000E+00  0.11915037547E+04  0.14937350402E+04  0.90086801082E+03 0.  0.
        1    1    3    3  502    0 -0.22052157465E+03 -0.38998889316E+03  0.51851736653E+03  0.68526006822E+03  0.50400001928E-02 0. -1.
       -1    1    3    3    0  502  0.22052157465E+03  0.38998889316E+03  0.67298638815E+03  0.80847497199E+03  0.50400001928E-02 0.  1.
</event>
<event>
 5   0  0.3626546E-03  0.8979607E+03  0.7818609E-02  0.9428134E-01
       -2   -1    0    0    0  501  0.00000000000E+00  0.00000000000E+00  0.86616277394E+03  0.86616277395E+03  0.25500000920E-02 0.  1.
        2   -1    0    0  501    0  0.00000000000E+00  0.00000000000E+00 -0.23273148611E+03  0.23273148612E+03  0.25500000920E-02 0. -1.
    10030    2    1    2    0    0  0.00000000000E+00  0.00000000000E+00  0.63343128784E+03  0.10988942601E+04  0.89796068867E+03 0.  0.
        3    1    3    3  502    0 -0.11185462042E+03 -0.34874909579E+03 -0.11009166921E+01  0.36624938244E+03  0.10100000352E+00 0. -1.
       -3    1    3    3    0  502  0.11185462042E+03  0.34874909579E+03  0.63453220453E+03  0.73264487762E+03  0.10100000352E+00 0.  1.
</event>
<event>
 5   0  0.3815269E-03  0.8958570E+03  0.7818609E-02  0.9430775E-01
       -2   -1    0    0    0  501  0.00000000000E+00  0.00000000000E+00  0.13119360917E+03  0.13119360920E+03  0.25500000920E-02 0. -1.
        2   -1    0    0  501    0  0.00000000000E+00  0.00000000000E+00 -0.15293423652E+04  0.15293423652E+04  0.25500000920E-02 0.  1.
    10030    2    1    2    0    0  0.00000000000E+00  0.00000000000E+00 -0.13981487560E+04  0.16605359744E+04  0.89585700771E+03 0.  0.
        5    1    3    3  502    0 -0.15238938452E+03 -0.27939217971E+03 -0.11487446937E+03  0.33837959205E+03  0.46999998093E+01 0. -1.
       -5    1    3    3    0  502  0.15238938452E+03  0.27939217971E+03 -0.12832742866E+04  0.13221563823E+04  0.46999998093E+01 0.  1.
</event>
<event>
 5   0  0.2130975E-03  0.8945877E+03  0.7818609E-02  0.9432372E-01
       -1   -1    0    0    0  501  0.00000000000E+00  0.00000000000E+00  0.61287390294E+03  0.61287390296E+03  0.50400001928E-02 0. -1.
        1   -1    0    0  501    0  0.00000000000E+00  0.00000000000E+00 -0.32644854481E+03  0.32644854485E+03  0.50400001928E-02 0.  1.
    10030    2    1    2    0    0  0.00000000000E+00  0.00000000000E+00  0.28642535813E+03  0.93932244781E+03  0.89458771240E+03 0.  0.
        5    1    3    3  502    0 -0.76627723396E+02  0.15985400182E+03  0.57438634760E+03  0.60113798432E+03  0.46999998093E+01 0. -1.
       -5    1    3    3    0  502  0.76627723396E+02 -0.15985400182E+03 -0.28796098946E+03  0.33818446348E+03  0.46999998093E+01 0.  1.
</event>
<event>
 5   0  0.3626546E-03  0.8997625E+03  0.7818609E-02  0.9425878E-01
       -2   -1    0    0    0  501  0.00000000000E+00  0.00000000000E+00  0.43783951343E+03  0.43783951344E+03  0.25500000920E-02 0.  1.
        2   -1    0    0  501    0  0.00000000000E+00  0.00000000000E+00 -0.46225419840E+03  0.46225419841E+03  0.25500000920E-02 0. -1.
    10030    2    1    2    0    0  0.00000000000E+00  0.00000000000E+00 -0.24414684977E+02  0.90009371185E+03  0.89976253160E+03 0.  0.
        3    1    3    3  502    0 -0.11363125253E+03  0.28011662196E+03 -0.34552025703E+03  0.45908783655E+03  0.10100000352E+00 0. -1.
       -3    1    3    3    0  502  0.11363125253E+03 -0.28011662196E+03  0.32110557205E+03  0.44100587530E+03  0.10100000352E+00 0.  1.
</event>
<event>
 5   0  0.3663255E-03  0.8988901E+03  0.7818609E-02  0.9426970E-01
        2   -1    0    0  501    0  0.00000000000E+00  0.00000000000E+00  0.67378298493E+03  0.67378298493E+03  0.25500000920E-02 0. -1.
       -2   -1    0    0    0  501  0.00000000000E+00  0.00000000000E+00 -0.29980103420E+03  0.29980103421E+03  0.25500000920E-02 0.  1.
    10030    2    1    2    0    0  0.00000000000E+00  0.00000000000E+00  0.37398195073E+03  0.97358401914E+03  0.89889006161E+03 0.  0.
        4    1    3    3  502    0 -0.30116454742E+02  0.37697480488E+03  0.45003437539E+03  0.58783463346E+03  0.12699999809E+01 0. -1.
       -4    1    3    3    0  502  0.30116454742E+02 -0.37697480488E+03 -0.76052424661E+02  0.38574938568E+03  0.12699999809E+01 0.  1.
</event>
<event>
 5   0  0.3815269E-03  0.8975480E+03  0.7818609E-02  0.9428652E-01
        2   -1    0    0  501    0  0.00000000000E+00  0.00000000000E+00  0.53320675400E+03  0.53320675400E+03  0.25500000920E-02 0.  1.
       -2   -1    0    0    0  501  0.00000000000E+00  0.00000000000E+00 -0.37771112256E+03  0.37771112257E+03  0.25500000920E-02 0. -1.
    10030    2    1    2    0    0  0.00000000000E+00  0.00000000000E+00  0.15549563143E+03  0.91091787658E+03  0.89754804132E+03 0.  0.
        5    1    3    3  502    0 -0.17150599359E+02 -0.13372758222E+03 -0.35664522640E+03  0.38130711614E+03  0.46999998093E+01 0. -1.
       -5    1    3    3    0  502  0.17150599359E+02  0.13372758222E+03  0.51214085784E+03  0.52961076043E+03  0.46999998093E+01 0.  1.
</event>
<event>
 5   0  0.2130975E-03  0.9010525E+03  0.7818609E-02  0.9424267E-01
        1   -1    0    0  501    0  0.00000000000E+00  0.00000000000E+00  0.35277663315E+03  0.35277663319E+03  0.50400001928E-02 0.  1.
       -1   -1    0    0    0  501  0.00000000000E+00  0.00000000000E+00 -0.57536101980E+03  0.57536101982E+03  0.50400001928E-02 0. -1.
    10030    2    1    2    0    0  0.00000000000E+00  0.00000000000E+00 -0.22258438665E+03  0.92813765301E+03  0.90105254773E+03 0.  0.
        5    1    3    3  502    0  0.43245728456E+03 -0.83748542129E+02 -0.14014481439E+02  0.44073985180E+03  0.46999998093E+01 0. -1.
       -5    1    3    3    0  502 -0.43245728456E+03  0.83748542129E+02 -0.20856990521E+03  0.48739780122E+03  0.46999998093E+01 0.  1.
</event>
<event>
 5   0  0.3626546E-03  0.8999556E+03  0.7818609E-02  0.9425637E-01
       -2   -1    0    0    0  501  0.00000000000E+00  0.00000000000E+00  0.21336372898E+03  0.21336372899E+03  0.25500000920E-02 0.  1.
        2   -1    0    0  501    0  0.00000000000E+00  0.00000000000E+00 -0.94898995432E+03  0.94898995432E+03  0.25500000920E-02 0. -1.
    10030    2    1    2    0    0  0.00000000000E+00  0.00000000000E+00 -0.73562622534E+03  0.11623536833E+04  0.89995563319E+03 0.  0.
        3    1    3    3  502    0  0.34905802897E+03  0.13642752045E+03 -0.46147780823E+02  0.37760244147E+03  0.10100000352E+00 0.  1.
       -3    1    3    3    0  502 -0.34905802897E+03 -0.13642752045E+03 -0.68947844452E+03  0.78475124185E+03  0.10100000352E+00 0. -1.
</event>
<event>
 5   0  0.3685879E-03  0.9003608E+03  0.7818609E-02  0.9425131E-01
        2   -1    0    0  501    0  0.00000000000E+00  0.00000000000E+00  0.14146217716E+03  0.14146217718E+03  0.25500000920E-02 0. -1.
       -2   -1    0    0    0  501  0.00000000000E+00  0.00000000000E+00 -0.14326259667E+04  0.14326259667E+04  0.25500000920E-02 0.  1.
    10030    2    1    2    0    0  0.00000000000E+00  0.00000000000E+00 -0.12911637896E+04  0.15740881439E+04  0.90036079063E+03 0.  0.
        1    1    3    3  502    0 -0.24882494250E+02 -0.44945145569E+03 -0.63499952694E+03  0.77836376379E+03  0.50400001928E-02 0. -1.
       -1    1    3    3    0  502  0.24882494250E+02  0.44945145569E+03 -0.65616426262E+03  0.79572438012E+03  0.50400001928E-02 0.  1.
</event>
<event>
 5   0  0.3663255E-03  0.9005695E+03  0.7818609E-02  0.9424870E-01
       -2   -1    0    0    0  501  0.00000000000E+00  0.00000000000E+00  0.32071350084E+03  0.32071350085E+03  0.25500000920E-02 0.  1.
        2   -1    0    0  501    0  0.00000000000E+00  0.00000000000E+00 -0.63220397481E+03  0.63220397482E+03  0.25500000920E-02 0. -1.
    10030    2    1    2    0    0  0.00000000000E+00  0.00000000000E+00 -0.31149047397E+03  0.95291747567E+03  0.90056948653E+03 0.  0.
        4    1    3    3  502    0  0.14271178124E+03 -0.12120516813E+03  0.27756726322E+03  0.33481717966E+03  0.12699999809E+01 0.  1.
       -4    1    3    3    0  502 -0.14271178124E+03  0.12120516813E+03 -0.58905773718E+03  0.61810029601E+03  0.12699999809E+01 0. -1.
</event>
<event>
 5   0  0.3685879E-03  0.9054311E+03  0.7818609E-02  0.9418818E-01
       -2   -1    0    0    0  501  0.00000000000E+00  0.00000000000E+00  0.85895148027E+02  0.85895148065E+02  0.25500000920E-02 0. -1.
        2   -1    0    0  501    0  0.00000000000E+00  0.00000000000E+00 -0.23860645097E+04  0.23860645097E+04  0.25500000920E-02 0.  1.
    10030    2    1    2    0    0  0.00000000000E+00  0.00000000000E+00 -0.23001693617E+04  0.24719596578E+04  0.90543108918E+03 0.  0.
        1    1    3    3  502    0 -0.25846130745E+03 -0.91220622677E+02 -0.16636804183E+03  0.32062715858E+03  0.50400001928E-02 0. -1.
       -1    1    3    3    0  502  0.25846130745E+03  0.91220622677E+02 -0.21338013199E+04  0.21513324992E+04  0.50400001928E-02 0.  1.
</event>
<event>
 5   0  0.3626546E-03  0.8976279E+03  0.7818609E-02  0.9428552E-01
        2   -1    0    0  501    0  0.00000000000E+00  0.00000000000E+00  0.86880012877E+03  0.86880012877E+03  0.25500000920E-02 0.  1.
       -2   -1    0    0    0  501  0.00000000000E+00  0.00000000000E+00 -0.23185304166E+03  0.23185304167E+03  0.25500000920E-02 0. -1.
    10030    2    1    2    0    0  0.00000000000E+00  0.00000000000E+00  0.63694708711E+03  0.11006531704E+04  0.89762787938E+03 0.  0.
        3    1    3    3  502    0  0.70977165233E+02  0.12280285165E+03 -0.20364821774E+03  0.24817515014E+03  0.10100000352E+00 0. -1.
       -3    1    3    3    0  502 -0.70977165233E+02 -0.12280285165E+03  0.84059530485E+03  0.85247802030E+03  0.10100000352E+00 0.  1.
</event>
<event>
 5   0  0.3806019E-03  0.9019099E+03  0.7818609E-02  0.9423197E-01
       -2   -1    0    0    0  501  0.00000000000E+00  0.00000000000E+00  0.30513021814E+03  0.30513021815E+03  0.25500000920E-02 0.  1.
        2   -1    0    0  501    0  0.00000000000E+00  0.00000000000E+00 -0.66647075221E+03  0.66647075222E+03  0.25500000920E-02 0. -1.
    10030    2    1    2    0    0  0.00000000000E+00  0.00000000000E+00 -0.36134053407E+03  0.97160097037E+03  0.90190989797E+03 0.  0.
        2    1    3    3  502    0  0.15906694014E+03  0.10181295606E+03  0.26047458289E+03  0.32173774694E+03  0.25500000920E-02 0.  1.
       -2    1    3    3    0  502 -0.15906694014E+03 -0.10181295606E+03 -0.62181511697E+03  0.64986322343E+03  0.25500000920E-02 0. -1.
</event>
<event>
 5   0  0.3685879E-03  0.8993509E+03  0.7818609E-02  0.9426393E-01
       -2   -1    0    0    0  501  0.00000000000E+00  0.00000000000E+00  0.11894807521E+03  0.11894807524E+03  0.25500000920E-02 0.  1.
        2   -1    0    0  501    0  0.00000000000E+00  0.00000000000E+00 -0.16999687536E+04  0.16999687536E+04  0.25500000920E-02 0. -1.
    10030    2    1    2    0    0  0.00000000000E+00  0.00000000000E+00 -0.15810206784E+04  0.18189168289E+04  0.89935090191E+03 0.  0.
        1    1    3    3  502    0  0.29303647708E+03  0.95904630712E+02 -0.12850825300E+03  0.33403958778E+03  0.50400001928E-02 0.  1.
       -1    1    3    3    0  502 -0.29303647708E+03 -0.95904630712E+02 -0.14525124254E+04  0.14848772411E+04  0.50400001928E-02 0. -1.
</event>
<event>
 5   0  0.3806019E-03  0.8465772E+03  0.7818609E-02  0.9494943E-01
       -2   -1    0    0    0  501  0.00000000000E+00  0.00000000000E+00  0.90867585582E+03  0.90867585582E+03  0.25500000920E-02 0.  1.
        2   -1    0    0  501    0  0.00000000000E+00  0.00000000000E+00 -0.19718057245E+03  0.19718057246E+03  0.25500000920E-02 0. -1.
    10030    2    1    2    0    0  0.00000000000E+00  0.00000000000E+00  0.71149528337E+03  0.11058564283E+04  0.84657716820E+03 0.  0.
        2    1    3    3  502    0 -0.37199356528E+03 -0.19947905357E+03  0.39709921719E+03  0.57953334134E+03  0.25500000920E-02 0.  1.
       -2    1    3    3    0  502  0.37199356528E+03  0.19947905357E+03  0.31439606618E+03  0.52632308695E+03  0.25500000920E-02 0. -1.
</event>
<event>
 5   0  0.2134145E-03  0.9003370E+03  0.7818609E-02  0.9425160E-01
        1   -1    0    0  501    0  0.00000000000E+00  0.00000000000E+00  0.89955970410E+03  0.89955970412E+03  0.50400001928E-02 0. -1.
       -1   -1    0    0    0  501  0.00000000000E+00  0.00000000000E+00 -0.22527871769E+03  0.22527871775E+03  0.50400001928E-02 0.  1.
    10030    2    1    2    0    0  0.00000000000E+00  0.00000000000E+00  0.67428098641E+03  0.11248384219E+04  0.90033695175E+03 0.  0.
        1    1    3    3  502    0 -0.31948495313E+03  0.20816382049E+03  0.38211229159E+02  0.38322696865E+03  0.50400001928E-02 0.  1.
       -1    1    3    3    0  502  0.31948495313E+03 -0.20816382049E+03  0.63606975725E+03  0.74161145322E+03  0.50400001928E-02 0. -1.
</event>
<event>
 5   0  0.2074970E-03  0.9117587E+03  0.7818609E-02  0.9411001E-01
       -1   -1    0    0    0  501  0.00000000000E+00  0.00000000000E+00  0.29731631117E+03  0.29731631122E+03  0.50400001928E-02 0.  1.
        1   -1    0    0  501    0  0.00000000000E+00  0.00000000000E+00 -0.69900625057E+03  0.69900625059E+03  0.50400001928E-02 0. -1.
    10030    2    1    2    0    0  0.00000000000E+00  0.00000000000E+00 -0.40168993940E+03  0.99632256181E+03  0.91175865214E+03 0.  0.
        2    1    3    3  502    0 -0.11460195530E+02  0.56081156144E+02 -0.69506382724E+03  0.69741677360E+03  0.25500000920E-02 0. -1.
       -2    1    3    3    0  502  0.11460195530E+02 -0.56081156144E+02  0.29337388783E+03  0.29890578821E+03  0.25500000920E-02 0.  1.
</event>
<event>
 5   0  0.2295158E-03  0.8969971E+03  0.7818609E-02  0.9429343E-01
       -1   -1    0    0    0  501  0.00000000000E+00  0.00000000000E+00  0.62077225208E+03  0.62077225210E+03  0.50400001928E-02 0.  1.
        1   -1    0    0  501    0  0.00000000000E+00  0.00000000000E+00 -0.32403338153E+03  0.32403338157E+03  0.50400001928E-02 0. -1.
    10030    2    1    2    0    0  0.00000000000E+00  0.00000000000E+00  0.29673887055E+03  0.94480563368E+03  0.89699706139E+03 0.  0.
        4    1    3    3  502    0  0.29056999397E+03 -0.45962515722E+02 -0.20820880511E+03  0.36041086787E+03  0.12699999809E+01 0. -1.
       -4    1    3    3    0  502 -0.29056999397E+03  0.45962515722E+02  0.50494767566E+03  0.58439476581E+03  0.12699999809E+01 0.  1.
</event>
<event>
 5   0  0.2130975E-03  0.9002113E+03  0.7818609E-02  0.9425317E-01
       -1   -1    0    0    0  501  0.00000000000E+00  0.00000000000E+00  0.16425443204E+03  0.16425443212E+03  0.50400001928E-02 0. -1.
        1   -1    0    0  501    0  0.00000000000E+00  0.00000000000E+00 -0.12334224474E+04  0.12334224474E+04  0.50400001928E-02 0.  1.
    10030    2    1    2    0    0  0.00000000000E+00  0.00000000000E+00 -0.10691680154E+04  0.13976768795E+04  0.90021131658E+03 0.  0.
        5    1    3    3  502    0  0.14260216169E+03  0.29102412432E+03 -0.49675874787E+02  0.32790272946E+03  0.46999998093E+01 0. -1.
       -5    1    3    3    0  502 -0.14260216169E+03 -0.29102412432E+03 -0.10194921406E+04  0.10697741501E+04  0.46999998093E+01 0.  1.
</event>
<event>
 5   0  0.3626546E-03  0.9018136E+03  0.7818609E-02  0.9423317E-01
        2   -1    0    0  501    0  0.00000000000E+00  0.00000000000E+00  0.84903923790E+03  0.84903923790E+03  0.25500000920E-02 0.  1.
       -2   -1    0    0    0  501  0.00000000000E+00  0.00000000000E+00 -0.23946705119E+03  0.23946705121E+03  0.25500000920E-02 0. -1.
    10030    2    1    2    0    0  0.00000000000E+00  0.00000000000E+00  0.60957218671E+03  0.10885062891E+04  0.90181355647E+03 0.  0.
        3    1    3    3  502    0 -0.93577685718E+00 -0.39988087904E+03  0.55627317180E+03  0.68508791039E+03  0.10100000352E+00 0.  1.
       -3    1    3    3    0  502  0.93577685718E+00  0.39988087904E+03  0.53299014907E+02  0.40341837872E+03  0.10100000352E+00 0. -1.
</event>
<event>
 5   0  0.1436000E-03  0.8909650E+03  0.7818609E-02  0.9436947E-01
       -3   -1    0    0    0  501  0.00000000000E+00  0.00000000000E+00  0.42712419608E+03  0.42712420802E+03  0.10100000352E+00 0.  1.
        3   -1    0    0  501    0  0.00000000000E+00  0.00000000000E+00 -0.46462979372E+03  0.46462980469E+03  0.10100000352E+00 0. -1.
    10030    2    1    2    0    0  0.00000000000E+00  0.00000000000E+00 -0.37505597637E+02  0.89175401271E+03  0.89096495404E+03 0.  0.
        4    1    3    3  502    0  0.29070838226E+03 -0.25190460938E+03  0.20613648703E+03  0.43641856048E+03  0.12699999809E+01 0. -1.
       -4    1    3    3    0  502 -0.29070838226E+03  0.25190460938E+03 -0.24364208466E+03  0.45533545224E+03  0.12699999809E+01 0.  1.
</event>
<event>
 5   0  0.3626546E-03  0.9433057E+03  0.7818609E-02  0.9373010E-01
        2   -1    0    0  501    0  0.00000000000E+00  0.00000000000E+00  0.10623031528E+04  0.10623031528E+04  0.25500000920E-02 0. -1.
       -2   -1    0    0    0  501  0.00000000000E+00  0.00000000000E+00 -0.20940954510E+03  0.20940954511E+03  0.25500000920E-02 0.  1.
    10030    2    1    2    0    0  0.00000000000E+00  0.00000000000E+00  0.85289360767E+03  0.12717126979E+04  0.94330571924E+03 0.  0.
        3    1    3    3  502    0  0.35629222918E+03  0.92246074824E+02  0.82409906078E+03  0.90254792840E+03  0.10100000352E+00 0. -1.
       -3    1    3    3    0  502 -0.35629222918E+03 -0.92246074824E+02  0.28794546893E+02  0.36916476948E+03  0.10100000352E+00 0.  1.
</event>
<event>
 5   0  0.2129280E-03  0.8956502E+03  0.7818609E-02  0.9431035E-01
        1   -1    0    0  501    0  0.00000000000E+00  0.00000000000E+00  0.92599921200E+03  0.92599921201E+03  0.50400001928E-02 0.  1.
       -1   -1    0    0    0  501  0.00000000000E+00  0.00000000000E+00 -0.21657397045E+03  0.21657397051E+03  0.50400001928E-02 0. -1.
    10030    2    1    2    0    0  0.00000000000E+00  0.00000000000E+00  0.70942524155E+03  0.11425731825E+04  0.89565021301E+03 0.  0.
        3    1    3    3  502    0 -0.23445640943E+03  0.37242905896E+02 -0.12969824641E+03  0.27051522561E+03  0.10100000352E+00 0. -1.
       -3    1    3    3    0  502  0.23445640943E+03 -0.37242905896E+02  0.83912348796E+03  0.87205795691E+03  0.10100000352E+00 0.  1.
</event>
<event>
 5   0  0.2295158E-03  0.8901992E+03  0.7818609E-02  0.9437916E-01
       -1   -1    0    0    0  501  0.00000000000E+00  0.00000000000E+00  0.12196591857E+03  0.12196591868E+03  0.50400001928E-02 0. -1.
        1   -1    0    0  501    0  0.00000000000E+00  0.00000000000E+00 -0.16243362268E+04  0.16243362268E+04  0.50400001928E-02 0.  1.
    10030    2    1    2    0    0  0.00000000000E+00  0.00000000000E+00 -0.15023703082E+04  0.17463021455E+04  0.89019921382E+03 0.  0.
        4    1    3    3  502    0  0.12277662358E+03 -0.13626560092E+03 -0.15467490100E+04  0.15575867636E+04  0.12699999809E+01 0.  1.
       -4    1    3    3    0  502 -0.12277662358E+03  0.13626560092E+03  0.44378701773E+02  0.18871538189E+03  0.12699999809E+01 0. -1.
</event>
<event>
 5   0  0.2130975E-03  0.8968108E+03  0.7818609E-02  0.9429577E-01
        1   -1    0    0  501    0  0.00000000000E+00  0.00000000000E+00  0.20086534059E+04  0.20086534059E+04  0.50400001928E-02 0.  1.
       -1   -1    0    0    0  501  0.00000000000E+00  0.00000000000E+00 -0.10010059030E+03  0.10010059042E+03  0.50400001928E-02 0. -1.
    10030    2    1    2    0    0  0.00000000000E+00  0.00000000000E+00  0.19085528156E+04  0.21087539963E+04  0.89681077551E+03 0.  0.
        5    1    3    3  502    0 -0.37184011513E+03 -0.23783272430E+03  0.76889143894E+03  0.88659213331E+03  0.46999998093E+01 0. -1.
       -5    1    3    3    0  502  0.37184011513E+03  0.23783272430E+03  0.11396613766E+04  0.12221618630E+04  0.46999998093E+01 0.  1.
</event>
<event>
 5   0  0.3663255E-03  0.9042791E+03  0.7818609E-02  0.9420248E-01
       -2   -1    0    0    0  501  0.00000000000E+00  0.00000000000E+00  0.15338519262E+03  0.15338519264E+03  0.25500000920E-02 0. -1.
        2   -1    0    0  501    0  0.00000000000E+00  0.00000000000E+00 -0.13327895044E+04  0.13327895045E+04  0.25500000920E-02 0.  1.
    10030    2    1    2    0    0  0.00000000000E+00  0.00000000000E+00 -0.11794043118E+04  0.14861746971E+04  0.90427910487E+03 0.  0.
        4    1    3    3  502    0 -0.22944290174E+03  0.21729733009E+03 -0.11211533886E+04  0.11648384903E+04  0.12699999809E+01 0.  1.
       -4    1    3    3    0  502  0.22944290174E+03 -0.21729733009E+03 -0.58250923213E+02  0.32133620677E+03  0.12699999809E+01 0. -1.
</event>
<event>
 5   0  0.3663255E-03  0.8985659E+03  0.7818609E-02  0.9427376E-01
        2   -1    0    0  501    0  0.00000000000E+00  0.00000000000E+00  0.85790799941E+03  0.85790799942E+03  0.25500000920E-02 0.  1.
       -2   -1    0    0    0  501  0.00000000000E+00  0.00000000000E+00 -0.23528765733E+03  0.23528765734E+03  0.25500000920E-02 0. -1.
    10030    2    1    2    0    0  0.00000000000E+00  0.00000000000E+00  0.62262034209E+03  0.10931956568E+04  0.89856588716E+03 0.  0.
        4    1    3    3  502    0 -0.17819455226E+03  0.13775909439E+03  0.78425752438E+03  0.81596099416E+03  0.12699999809E+01 0.  1.
       -4    1    3    3    0  502  0.17819455226E+03 -0.13775909439E+03 -0.16163718230E+03  0.27723466259E+03  0.12699999809E+01 0. -1.
</event>
<event>
 5   0  0.3626546E-03  0.8966166E+03  0.7818609E-02  0.9429821E-01
       -2   -1    0    0    0  501  0.00000000000E+00  0.00000000000E+00  0.11726526047E+04  0.11726526047E+04  0.25500000920E-02 0. -1.
        2   -1    0    0  501    0  0.00000000000E+00  0.00000000000E+00 -0.17138950578E+03  0.17138950580E+03  0.25500000920E-02 0.  1.
    10030    2    1    2    0    0  0.00000000000E+00  0.00000000000E+00  0.10012630989E+04  0.13440421105E+04  0.89661664137E+03 0.  0.
        3    1    3    3  502    0  0.20183326868E+03 -0.39199478914E+03  0.37900091232E+03  0.58141059915E+03  0.10100000352E+00 0.  1.
       -3    1    3    3    0  502 -0.20183326868E+03  0.39199478914E+03  0.62226218662E+03  0.76263151139E+03  0.10100000352E+00 0. -1.
</event>
<event>
 5   0  0.2134145E-03  0.8971463E+03  0.7818609E-02  0.9429156E-01
       -1   -1    0    0    0  501  0.00000000000E+00  0.00000000000E+00  0.53837391426E+03  0.53837391428E+03  0.50400001928E-02 0. -1.
        1   -1    0    0  501    0  0.00000000000E+00  0.00000000000E+00 -0.37375114744E+03  0.37375114748E+03  0.50400001928E-02 0.  1.
    10030    2    1    2    0    0  0.00000000000E+00  0.00000000000E+00  0.16462276682E+03  0.91212506176E+03  0.89714629406E+03 0.  0.
        1    1    3    3  502    0 -0.24798167800E+03 -0.29040575267E+03  0.32158610740E+03  0.49924747201E+03  0.50400001928E-02 0.  1.
       -1    1    3    3    0  502  0.24798167800E+03  0.29040575267E+03 -0.15696334059E+03  0.41287758975E+03  0.50400001928E-02 0. -1.
</event>
<event>
 5   0  0.3663255E-03  0.9005233E+03  0.7818609E-02  0.9424928E-01
       -2   -1    0    0    0  501  0.00000000000E+00  0.00000000000E+00  0.15248892781E+03  0.15248892784E+03  0.25500000920E-02 0. -1.
        2   -1    0    0  501    0  0.00000000000E+00  0.00000000000E+00 -0.13295100009E+04  0.13295100009E+04  0.25500000920E-02 0.  1.
    10030    2    1    2    0    0  0.00000000000E+00  0.00000000000E+00 -0.11770210731E+04  0.14819989288E+04  0.90052330248E+03 0.  0.
        4    1    3    3  502    0  0.10735965566E+03  0.35836754816E+03 -0.10008600440E+04  0.10684923190E+04  0.12699999809E+01 0.  1.
       -4    1    3    3    0  502 -0.10735965566E+03 -0.35836754816E+03 -0.17616102914E+03  0.41350660976E+03  0.12699999809E+01 0. -1.
</event>
<event>
 5   0  0.2295158E-03  0.9006161E+03  0.7818609E-02  0.9424812E-01
        1   -1    0    0  501    0  0.00000000000E+00  0.00000000000E+00  0.79298640541E+03  0.79298640542E+03  0.50400001928E-02 0.  1.
       -1   -1    0    0    0  501  0.00000000000E+00  0.00000000000E+00 -0.25571350600E+03  0.25571350605E+03  0.50400001928E-02 0. -1.
    10030    2    1    2    0    0  0.00000000000E+00  0.00000000000E+00  0.53727289941E+03  0.10486999115E+04  0.90061608684E+03 0.  0.
        4    1    3    3  502    0 -0.28584447759E+03  0.24143248884E+03 -0.23118853767E+02  0.37487705496E+03  0.12699999809E+01 0. -1.
       -4    1    3    3    0  502  0.28584447759E+03 -0.24143248884E+03  0.56039175318E+03  0.67382285652E+03  0.12699999809E+01 0.  1.
</event>
<event>
 5   0  0.3685879E-03  0.8991177E+03  0.7818609E-02  0.9426685E-01
       -2   -1    0    0    0  501  0.00000000000E+00  0.00000000000E+00  0.12581465792E+04  0.12581465792E+04  0.25500000920E-02 0.  1.
        2   -1    0    0  501    0  0.00000000000E+00  0.00000000000E+00 -0.16063561719E+03  0.16063561721E+03  0.25500000920E-02 0. -1.
    10030    2    1    2    0    0  0.00000000000E+00  0.00000000000E+00  0.10975109620E+04  0.14187821964E+04  0.89911768371E+03 0.  0.
        1    1    3    3  502    0  0.17701297519E+03  0.61617652648E+02 -0.96040150718E+02  0.21060398638E+03  0.50400001928E-02 0. -1.
       -1    1    3    3    0  502 -0.17701297519E+03 -0.61617652648E+02  0.11935511127E+04  0.12081782100E+04  0.50400001928E-02 0.  1.
</event>
<event>
 5   0  0.3815269E-03  0.8977188E+03  0.7818609E-02  0.9428437E-01
        2   -1    0    0  501    0  0.00000000000E+00  0.00000000000E+00  0.85459630999E+03  0.85459630999E+03  0.25500000920E-02 0.  1.
       -2   -1    0    0    0  501  0.00000000000E+00  0.00000000000E+00 -0.23575432574E+03  0.23575432575E+03  0.25500000920E-02 0. -1.
    10030    2    1    2    0    0  0.00000000000E+00  0.00000000000E+00  0.61884198425E+03  0.10903506357E+04  0.89771883538E+03 0.  0.
        5    1    3    3  502    0  0.34484232791E+03 -0.28710481338E+03  0.32200123402E+03  0.55231538970E+03  0.46999998093E+01 0. -1.
       -5    1    3    3    0  502 -0.34484232791E+03  0.28710481338E+03  0.29684075023E+03  0.53803524604E+03  0.46999998093E+01 0.  1.
</event>
<event>
 5   0  0.2295158E-03  0.8940203E+03  0.7818609E-02  0.9433087E-01
       -1   -1    0    0    0  501  0.00000000000E+00  0.00000000000E+00  0.43382104079E+03  0.43382104082E+03  0.50400001928E-02 0. -1.
        1   -1    0    0  501    0  0.00000000000E+00  0.00000000000E+00 -0.46060026990E+03  0.46060026992E+03  0.50400001928E-02 0.  1.
    10030    2    1    2    0    0  0.00000000000E+00  0.00000000000E+00 -0.26779229104E+02  0.89442131075E+03  0.89402033199E+03 0.  0.
        4    1    3    3  502    0  0.29600036704E+03  0.24461678791E+03 -0.24232162776E+03  0.45406494513E+03  0.12699999809E+01 0.  1.
       -4    1    3    3    0  502 -0.29600036704E+03 -0.24461678791E+03  0.21554239866E+03  0.44035636561E+03  0.12699999809E+01 0. -1.
</event>
<event>
 5   0  0.2134145E-03  0.8989311E+03  0.7818609E-02  0.9426919E-01
       -1   -1    0    0    0  501  0.00000000000E+00  0.00000000000E+00  0.25647010740E+03  0.25647010745E+03  0.50400001928E-02 0. -1.
        1   -1    0    0  501    0  0.00000000000E+00  0.00000000000E+00 -0.78769140835E+03  0.78769140837E+03  0.50400001928E-02 0.  1.
    10030    2    1    2    0    0  0.00000000000E+00  0.00000000000E+00 -0.53122130096E+03  0.10441615158E+04  0.89893114337E+03 0.  0.
        1    1    3    3  502    0  0.23069737565E+03 -0.23530480657E+03 -0.62065586295E+03  0.70271141400E+03  0.50400001928E-02 0.  1.
       -1    1    3    3    0  502 -0.23069737565E+03  0.23530480657E+03  0.89434561998E+02  0.34145010182E+03  0.50400001928E-02 0. -1.
</event>
<event>
 5   0  0.2295158E-03  0.9008486E+03  0.7818609E-02  0.9424521E-01
        1   -1    0    0  501    0  0.00000000000E+00  0.00000000000E+00  0.56904900705E+03  0.56904900707E+03  0.50400001928E-02 0. -1.
       -1   -1    0    0    0  501  0.00000000000E+00  0.00000000000E+00 -0.35652823098E+03  0.35652823102E+03  0.50400001928E-02 0.  1.
    10030    2    1    2    0    0  0.00000000000E+00  0.00000000000E+00  0.21252077607E+03  0.92557723809E+03  0.90084856853E+03 0.  0.
        4    1    3    3  502    0 -0.20287144019E+03  0.34212820564E+03  0.32341949618E+03  0.51265028406E+03  0.12699999809E+01 0. -1.
       -4    1    3    3    0  502  0.20287144019E+03 -0.34212820564E+03 -0.11089872011E+03  0.41292695403E+03  0.12699999809E+01 0.  1.
</event>
<event>
 5   0  0.3663255E-03  0.9004871E+03  0.7818609E-02  0.9424973E-01
       -2   -1    0    0    0  501  0.00000000000E+00  0.00000000000E+00  0.35938744319E+03  0.35938744320E+03  0.25500000920E-02 0. -1.
        2   -1    0    0  501    0  0.00000000000E+00  0.00000000000E+00 -0.56406880159E+03  0.56406880159E+03  0.25500000920E-02 0.  1.
    10030    2    1    2    0    0  0.00000000000E+00  0.00000000000E+00 -0.20468135840E+03  0.92345624479E+03  0.90048707796E+03 0.  0.
        4    1    3    3  502    0 -0.44798812945E+03 -0.38890256927E+02 -0.12554107859E+03  0.46687042263E+03  0.12699999809E+01 0. -1.
       -4    1    3    3    0  502  0.44798812945E+03  0.38890256927E+02 -0.79140279806E+02  0.45658582216E+03  0.12699999809E+01 0.  1.
</event>
<event>
 5   0  0.2134145E-03  0.8985796E+03  0.7818609E-02  0.9427359E-01
        1   -1    0    0  501    0  0.00000000000E+00  0.00000000000E+00  0.66279396718E+03  0.66279396720E+03  0.50400001928E-02 0. -1.
       -1   -1    0    0    0  501  0.00000000000E+00  0.00000000000E+00 -0.30456122092E+03  0.30456122096E+03  0.50400001928E-02 0.  1.
    10030    2    1    2    0    0  0.00000000000E+00  0.00000000000E+00  0.35823274626E+03  0.96735518816E+03  0.89857963452E+03 0.  0.
        1    1    3    3  502    0  0.30658352530E+03 -0.32842404476E+03  0.17658508814E+03  0.48274020398E+03  0.50400001928E-02 0. -1.
       -1    1    3    3    0  502 -0.30658352530E+03  0.32842404476E+03  0.18164765812E+03  0.48461498418E+03  0.50400001928E-02 0.  1.
</event>
<event>
 5   0  0.3685879E-03  0.8994121E+03  0.7818609E-02  0.9426317E-01
        2   -1    0    0  501    0  0.00000000000E+00  0.00000000000E+00  0.24839498313E+03  0.24839498315E+03  0.25500000920E-02 0.  1.
       -2   -1    0    0    0  501  0.00000000000E+00  0.00000000000E+00 -0.81416906462E+03  0.81416906462E+03  0.25500000920E-02 0. -1.
    10030    2    1    2    0    0  0.00000000000E+00  0.00000000000E+00 -0.56577408148E+03  0.10625640478E+04  0.89941205481E+03 0.  0.
        1    1    3    3  502    0 -0.37982915724E+03 -0.16899555909E+03 -0.48547474610E+03  0.63915210773E+03  0.50400001928E-02 0. -1.
       -1    1    3    3    0  502  0.37982915724E+03  0.16899555909E+03 -0.80299335379E+02  0.42341194004E+03  0.50400001928E-02 0.  1.
</event>
<event>
 5   0  0.1436000E-03  0.8991432E+03  0.7818609E-02  0.9426653E-01
        3   -1    0    0  501    0  0.00000000000E+00  0.00000000000E+00  0.33766023092E+03  0.33766024602E+03  0.10100000352E+00 0. -1.
       -3   -1    0    0    0  501  0.00000000000E+00  0.00000000000E+00 -0.59857394072E+03  0.59857394924E+03  0.10100000352E+00 0.  1.
    10030    2    1    2    0    0  0.00000000000E+00  0.00000000000E+00 -0.26091370980E+03  0.93623419526E+03  0.89914320573E+03 0.  0.
        2    1    3    3  502    0 -0.34026498552E+03  0.49212555331E+02 -0.43208296756E+03  0.55217553987E+03  0.25500000920E-02 0.  1.
       -2    1    3    3    0  502  0.34026498552E+03 -0.49212555331E+02  0.17116925776E+03  0.38405865539E+03  0.25500000920E-02 0. -1.
</event>
<event>
 5   0  0.2130975E-03  0.9042888E+03  0.7818609E-02  0.9420236E-01
        1   -1    0    0  501    0  0.00000000000E+00  0.00000000000E+00  0.12030658600E+04  0.12030658600E+04  0.50400001928E-02 0.  1.
       -1   -1    0    0    0  501  0.00000000000E+00  0.00000000000E+00 -0.16992800437E+03  0.16992800444E+03  0.50400001928E-02 0. -1.
    10030    2    1    2    0    0  0.00000000000E+00  0.00000000000E+00  0.10331378557E+04  0.13729938645E+04  0.90428884937E+03 0.  0.
        5    1    3    3  502    0 -0.24609434650E+02 -0.36408589296E+03  0.92184294625E+03  0.99145381601E+03  0.46999998093E+01 0.  1.
       -5    1    3    3    0  502  0.24609434650E+02  0.36408589296E+03  0.11129490941E+03  0.38154004847E+03  0.46999998093E+01 0. -1.
</event>
<event>
 5   0  0.3626546E-03  0.8744809E+03  0.7818609E-02  0.9458056E-01
        2   -1    0    0  501    0  0.00000000000E+00  0.00000000000E+00  0.66862292535E+03  0.66862292536E+03  0.25500000920E-02 0.  1.
       -2   -1    0    0    0  501  0.00000000000E+00  0.00000000000E+00 -0.28592979324E+03  0.28592979325E+03  0.25500000920E-02 0. -1.
    10030    2    1    2    0    0  0.00000000000E+00  0.00000000000E+00  0.38269313211E+03  0.95455271861E+03  0.87448090845E+03 0.  0.
        3    1    3    3  502    0  0.74287745798E+02 -0.83961749394E+02 -0.26997487380E+03  0.29232633686E+03  0.10100000352E+00 0. -1.
       -3    1    3    3    0  502 -0.74287745798E+02  0.83961749394E+02  0.65266800592E+03  0.66222638175E+03  0.10100000352E+00 0.  1.
</event>
<event>
 5   0  0.2134145E-03  0.8980211E+03  0.7818609E-02  0.9428058E-01
       -1   -1    0    0    0  501  0.00000000000E+00  0.00000000000E+00  0.26345337398E+03  0.26345337403E+03  0.50400001928E-02 0. -1.
        1   -1    0    0  501    0  0.00000000000E+00  0.00000000000E+00 -0.76526061525E+03  0.76526061526E+03  0.50400001928E-02 0.  1.
    10030    2    1    2    0    0  0.00000000000E+00  0.00000000000E+00 -0.50180724126E+03  0.10287139893E+04  0.89802113805E+03 0.  0.
        1    1    3    3  502    0 -0.40486770689E+03 -0.11960127508E+03 -0.75714888318E+02  0.42889983612E+03  0.50400001928E-02 0. -1.
       -1    1    3    3    0  502  0.40486770689E+03  0.11960127508E+03 -0.42609235294E+03  0.59981415317E+03  0.50400001928E-02 0.  1.
</event>
<event>
 5   0  0.2130975E-03  0.9000154E+03  0.7818609E-02  0.9425562E-01
       -1   -1    0    0    0  501  0.00000000000E+00  0.00000000000E+00  0.14859707885E+03  0.14859707893E+03  0.50400001928E-02 0. -1.
        1   -1    0    0  501    0  0.00000000000E+00  0.00000000000E+00 -0.13627920924E+04  0.13627920924E+04  0.50400001928E-02 0.  1.
    10030    2    1    2    0    0  0.00000000000E+00  0.00000000000E+00 -0.12141950135E+04  0.15113891713E+04  0.90001538670E+03 0.  0.
        5    1    3    3  502    0 -0.74167945351E+02  0.40462682838E+03 -0.30083449883E+03  0.50965403957E+03  0.46999998093E+01 0. -1.
       -5    1    3    3    0  502  0.74167945351E+02 -0.40462682838E+03 -0.91336051471E+03  0.10017351318E+04  0.46999998093E+01 0.  1.
</event>
<event>
 5   0  0.1436000E-03  0.8752592E+03  0.7818609E-02  0.9457048E-01
       -3   -1    0    0    0  501  0.00000000000E+00  0.00000000000E+00  0.40425557762E+03  0.40425559024E+03  0.10100000352E+00 0. -1.
        3   -1    0    0  501    0  0.00000000000E+00  0.00000000000E+00 -0.47375889177E+03  0.47375890253E+03  0.10100000352E+00 0.  1.
    10030    2    1    2    0    0  0.00000000000E+00  0.00000000000E+00 -0.69503314144E+02  0.87801449277E+03  0.87525924093E+03 0.  0.
        1    1    3    3  502    0  0.39595278765E+03  0.11576532064E+03  0.11178853120E+03  0.42740717734E+03  0.50400001928E-02 0. -1.
       -1    1    3    3    0  502 -0.39595278765E+03 -0.11576532064E+03 -0.18129184534E+03  0.45060731543E+03  0.50400001928E-02 0.  1.
</event>
<event>
 5   0  0.3815269E-03  0.9010274E+03  0.7818609E-02  0.9424298E-01
        2   -1    0    0  501    0  0.00000000000E+00  0.00000000000E+00  0.23497821984E+04  0.23497821984E+04  0.25500000920E-02 0.  1.
       -2   -1    0    0    0  501  0.00000000000E+00  0.00000000000E+00 -0.86375063119E+02  0.86375063157E+02  0.25500000920E-02 0. -1.
    10030    2    1    2    0    0  0.00000000000E+00  0.00000000000E+00  0.22634071353E+04  0.24361572616E+04  0.90102738194E+03 0.  0.
        5    1    3    3  502    0 -0.77690295268E+02 -0.27139585705E+03  0.18250070939E+03  0.33618461019E+03  0.46999998093E+01 0. -1.
       -5    1    3    3    0  502  0.77690295268E+02  0.27139585705E+03  0.20809064259E+04  0.20999726514E+04  0.46999998093E+01 0.  1.
</event>
<event>
 5   0  0.2134145E-03  0.9011096E+03  0.7818609E-02  0.9424195E-01
       -1   -1    0    0    0  501  0.00000000000E+00  0.00000000000E+00  0.57920228638E+03  0.57920228640E+03  0.50400001928E-02 0.  1.
        1   -1    0    0  501    0  0.00000000000E+00  0.00000000000E+00 -0.35048143329E+03  0.35048143333E+03  0.50400001928E-02 0. -1.
    10030    2    1    2    0    0  0.00000000000E+00  0.00000000000E+00  0.22872085309E+03  0.92968371973E+03  0.90110964377E+03 0.  0.
        1    1    3    3  502    0  0.45493767537E+02 -0.17470942595E+03  0.54025368916E+03  0.56962014982E+03  0.50400001928E-02 0.  1.
       -1    1    3    3    0  502 -0.45493767537E+02  0.17470942595E+03 -0.31153283607E+03  0.36006356991E+03  0.50400001928E-02 0. -1.
</event>
<event>
 5   0  0.2130975E-03  0.9004301E+03  0.7818609E-02  0.9425044E-01
       -1   -1    0    0    0  501  0.00000000000E+00  0.00000000000E+00  0.13578893643E+03  0.13578893653E+03  0.50400001928E-02 0.  1.
        1   -1    0    0  501    0  0.00000000000E+00  0.00000000000E+00 -0.14927106032E+04  0.14927106032E+04  0.50400001928E-02 0. -1.
    10030    2    1    2    0    0  0.00000000000E+00  0.00000000000E+00 -0.13569216668E+04  0.16284995398E+04  0.90043008679E+03 0.  0.
        5    1    3    3  502    0  0.19904037690E+03  0.11289902171E+02 -0.14084797630E+04  0.14225265784E+04  0.46999998093E+01 0. -1.
       -5    1    3    3    0  502 -0.19904037690E+03 -0.11289902171E+02  0.51558096195E+02  0.20597296136E+03  0.46999998093E+01 0.  1.
</event>
<event>
 5   0  0.2129280E-03  0.8966144E+03  0.7818609E-02  0.9429824E-01
       -1   -1    0    0    0  501  0.00000000000E+00  0.00000000000E+00  0.44515960330E+03  0.44515960332E+03  0.50400001928E-02 0.  1.
        1   -1    0    0  501    0  0.00000000000E+00  0.00000000000E+00 -0.45147700817E+03  0.45147700820E+03  0.50400001928E-02 0. -1.
    10030    2    1    2    0    0  0.00000000000E+00  0.00000000000E+00 -0.63174048754E+01  0.89663661152E+03  0.89661435608E+03 0.  0.
        3    1    3    3  502    0  0.17767679245E+03  0.22691699124E+03 -0.34656051686E+03  0.45073780132E+03  0.10100000352E+00 0. -1.
       -3    1    3    3    0  502 -0.17767679245E+03 -0.22691699124E+03  0.34024311198E+03  0.44589881021E+03  0.10100000352E+00 0.  1.
</event>
<event>
 5   0  0.3663255E-03  0.8952673E+03  0.7818609E-02  0.9431517E-01
        2   -1    0    0  501    0  0.00000000000E+00  0.00000000000E+00  0.78003949636E+03  0.78003949637E+03  0.25500000920E-02 0. -1.
       -2   -1    0    0    0  501  0.00000000000E+00  0.00000000000E+00 -0.25687914039E+03  0.25687914040E+03  0.25500000920E-02 0.  1.
    10030    2    1    2    0    0  0.00000000000E+00  0.00000000000E+00  0.52316035597E+03  0.10369186368E+04  0.89526727920E+03 0.  0.
        4    1    3    3  502    0  0.20303601033E+03  0.77146776968E+02  0.71491591442E+03  0.74718245715E+03  0.12699999809E+01 0. -1.
       -4    1    3    3    0  502 -0.20303601033E+03 -0.77146776968E+02 -0.19175555844E+03  0.28973617962E+03  0.12699999809E+01 0.  1.
</event>
<event>
 5   0  0.2074970E-03  0.8943890E+03  0.7818609E-02  0.9432623E-01
        1   -1    0    0  501    0  0.00000000000E+00  0.00000000000E+00  0.48388027735E+03  0.48388027738E+03  0.50400001928E-02 0. -1.
       -1   -1    0    0    0  501  0.00000000000E+00  0.00000000000E+00 -0.41329008002E+03  0.41329008005E+03  0.50400001928E-02 0.  1.
    10030    2    1    2    0    0  0.00000000000E+00  0.00000000000E+00  0.70590197327E+02  0.89717035743E+03  0.89438899495E+03 0.  0.
        2    1    3    3  502    0  0.14094895300E+03 -0.19425503280E+03  0.41380298815E+03  0.47836653115E+03  0.25500000920E-02 0. -1.
       -2    1    3    3    0  502 -0.14094895300E+03  0.19425503280E+03 -0.34321279082E+03  0.41880382628E+03  0.25500000920E-02 0.  1.
</event>
<event>
 5   0  0.1436000E-03  0.8971125E+03  0.7818609E-02  0.9429198E-01
       -3   -1    0    0    0  501  0.00000000000E+00  0.00000000000E+00  0.40144835974E+03  0.40144837244E+03  0.10100000352E+00 0.  1.
        3   -1    0    0  501    0  0.00000000000E+00  0.00000000000E+00 -0.50119201767E+03  0.50119202785E+03  0.10100000352E+00 0. -1.
    10030    2    1    2    0    0  0.00000000000E+00  0.00000000000E+00 -0.99743657932E+02  0.90264040029E+03  0.89711253193E+03 0.  0.
        2    1    3    3  502    0 -0.31097202468E+02  0.42612456514E+03  0.87547716337E+02  0.43613505209E+03  0.25500000920E-02 0.  1.
       -2    1    3    3    0  502  0.31097202468E+02 -0.42612456514E+03 -0.18729137427E+03  0.46650534820E+03  0.25500000920E-02 0. -1.
</event>
<event>
 5   0  0.3685879E-03  0.9023331E+03  0.7818609E-02  0.9422670E-01
       -2   -1    0    0    0  501  0.00000000000E+00  0.00000000000E+00  0.34469086579E+03  0.34469086580E+03  0.25500000920E-02 0.  1.
        2   -1    0    0  501    0  0.00000000000E+00  0.00000000000E+00 -0.59053280737E+03  0.59053280737E+03  0.25500000920E-02 0. -1.
    10030    2    1    2    0    0  0.00000000000E+00  0.00000000000E+00 -0.24584194158E+03  0.93522367317E+03  0.90233311954E+03 0.  0.
        1    1    3    3  502    0 -0.77296097061E+02 -0.14266499842E+03  0.31340290040E+03  0.35291552304E+03  0.50400001928E-02 0.  1.
       -1    1    3    3    0  502  0.77296097061E+02  0.14266499842E+03 -0.55924484199E+03  0.58230815013E+03  0.50400001928E-02 0. -1.
</event>
<event>
 5   0  0.3663255E-03  0.8985252E+03  0.7818609E-02  0.9427427E-01
       -2   -1    0    0    0  501  0.00000000000E+00  0.00000000000E+00  0.14577469049E+03  0.14577469052E+03  0.25500000920E-02 0. -1.
        2   -1    0    0  501    0  0.00000000000E+00  0.00000000000E+00 -0.13845811803E+04  0.13845811803E+04  0.25500000920E-02 0.  1.
    10030    2    1    2    0    0  0.00000000000E+00  0.00000000000E+00 -0.12388064899E+04  0.15303558709E+04  0.89852522068E+03 0.  0.
        4    1    3    3  502    0  0.20115822850E+03 -0.24633185306E+03 -0.11598564062E+04  0.12026689115E+04  0.12699999809E+01 0.  1.
       -4    1    3    3    0  502 -0.20115822850E+03  0.24633185306E+03 -0.78950083608E+02  0.32768695935E+03  0.12699999809E+01 0. -1.
</event>
<event>
 5   0  0.3663255E-03  0.8955271E+03  0.7818609E-02  0.9431190E-01
       -2   -1    0    0    0  501  0.00000000000E+00  0.00000000000E+00  0.44122282632E+03  0.44122282633E+03  0.25500000920E-02 0. -1.
        2   -1    0    0  501    0  0.00000000000E+00  0.00000000000E+00 -0.45440125226E+03  0.45440125226E+03  0.25500000920E-02 0.  1.
    10030    2    1    2    0    0  0.00000000000E+00  0.00000000000E+00 -0.13178425933E+02  0.89562407859E+03  0.89552711810E+03 0.  0.
        4    1    3    3  502    0  0.90309792987E+02  0.36259686558E+03  0.24013213892E+03  0.44418172258E+03  0.12699999809E+01 0. -1.
       -4    1    3    3    0  502 -0.90309792987E+02 -0.36259686558E+03 -0.25331056485E+03  0.45144235601E+03  0.12699999809E+01 0.  1.
</event>
<event>
 5   0  0.3663255E-03  0.8994885E+03  0.7818609E-02  0.9426221E-01
       -2   -1    0    0    0  501  0.00000000000E+00  0.00000000000E+00  0.66928654483E+03  0.66928654483E+03  0.25500000920E-02 0.  1.
        2   -1    0    0  501    0  0.00000000000E+00  0.00000000000E+00 -0.30221721061E+03  0.30221721062E+03  0.25500000920E-02 0. -1.
    10030    2    1    2    0    0  0.00000000000E+00  0.00000000000E+00  0.36706933422E+03  0.97150375545E+03  0.89948854953E+03 0.  0.
        4    1    3    3  502    0 -0.37193932627E+03 -0.23146613434E+03  0.29342997277E+03  0.52727430773E+03  0.12699999809E+01 0.  1.
       -4    1    3    3    0  502  0.37193932627E+03  0.23146613434E+03  0.73639361446E+02  0.44422944772E+03  0.12699999809E+01 0. -1.
</event>
<event>
 5   0  0.3626546E-03  0.9007665E+03  0.7818609E-02  0.9424624E-01
        2   -1    0    0  501    0  0.00000000000E+00  0.00000000000E+00  0.32393968996E+03  0.32393968997E+03  0.25500000920E-02 0.  1.
       -2   -1    0    0    0  501  0.00000000000E+00  0.00000000000E+00 -0.62618157134E+03  0.62618157135E+03  0.25500000920E-02 0. -1.
    10030    2    1    2    0    0  0.00000000000E+00  0.00000000000E+00 -0.30224188138E+03  0.95012126132E+03  0.90076648269E+03 0.  0.
        3    1    3    3  502    0  0.72050874536E+02 -0.43835920455E+03 -0.22931036679E+03  0.49993337081E+03  0.10100000352E+00 0. -1.
       -3    1    3    3    0  502 -0.72050874536E+02  0.43835920455E+03 -0.72931514593E+02  0.45018789050E+03  0.10100000352E+00 0.  1.
</event>
<event>
 5   0  0.2129280E-03  0.9055382E+03  0.7818609E-02  0.9418685E-01
       -1   -1    0    0    0  501  0.00000000000E+00  0.00000000000E+00  0.49291999668E+03  0.49291999670E+03  0.50400001928E-02 0. -1.
        1   -1    0    0  501    0  0.00000000000E+00  0.00000000000E+00 -0.41588869074E+03  0.41588869077E+03  0.50400001928E-02 0.  1.
    10030    2    1    2    0    0  0.00000000000E+00  0.00000000000E+00  0.77031305941E+02  0.90880868747E+03  0.90553818712E+03 0.  0.
        3    1    3    3  502    0  0.18670434264E+03  0.18313808319E+03  0.40944728316E+03  0.48584478690E+03  0.10100000352E+00 0. -1.
       -3    1    3    3    0  502 -0.18670434264E+03 -0.18313808319E+03 -0.33241597722E+03  0.42296390057E+03  0.10100000352E+00 0.  1.
</event>
<event>
 5   0  0.2295158E-03  0.9030254E+03  0.7818609E-02  0.9421807E-01
        1   -1    0    0  501    0  0.00000000000E+00  0.00000000000E+00  0.62930883550E+03  0.62930883552E+03  0.50400001928E-02 0.  1.
       -1   -1    0    0    0  501  0.00000000000E+00  0.00000000000E+00 -0.32394862170E+03  0.32394862174E+03  0.50400001928E-02 0. -1.
    10030    2    1    2    0    0  0.00000000000E+00  0.00000000000E+00  0.30536021380E+03  0.95325745726E+03  0.90302542581E+03 0.  0.
        4    1    3    3  502    0  0.14656179173E+03  0.40142739649E+03 -0.11583916715E+01  0.42734911749E+03  0.12699999809E+01 0. -1.
       -4    1    3    3    0  502 -0.14656179173E+03 -0.40142739649E+03  0.30651860547E+03  0.52590833978E+03  0.12699999809E+01 0.  1.
</event>
<event>
 5   0  0.3626546E-03  0.8971313E+03  0.7818609E-02  0.9429175E-01
       -2   -1    0    0    0  501  0.00000000000E+00  0.00000000000E+00  0.31393916927E+03  0.31393916928E+03  0.25500000920E-02 0.  1.
        2   -1    0    0  501    0  0.00000000000E+00  0.00000000000E+00 -0.64092403591E+03  0.64092403592E+03  0.25500000920E-02 0. -1.
    10030    2    1    2    0    0  0.00000000000E+00  0.00000000000E+00 -0.32698486664E+03  0.95486320520E+03  0.89713133801E+03 0.  0.
        3    1    3    3  502    0 -0.22792628764E+03  0.18369180686E+03 -0.52524373781E+03  0.60131029162E+03  0.10100000352E+00 0. -1.
       -3    1    3    3    0  502  0.22792628764E+03 -0.18369180686E+03  0.19825887117E+03  0.35355291358E+03  0.10100000352E+00 0.  1.
</event>
<event>
 5   0  0.3806019E-03  0.8984693E+03  0.7818609E-02  0.9427497E-01
       -2   -1    0    0    0  501  0.00000000000E+00  0.00000000000E+00  0.72141834095E+03  0.72141834096E+03  0.25500000920E-02 0.  1.
        2   -1    0    0  501    0  0.00000000000E+00  0.00000000000E+00 -0.27974303436E+03  0.27974303437E+03  0.25500000920E-02 0. -1.
    10030    2    1    2    0    0  0.00000000000E+00  0.00000000000E+00  0.44167530659E+03  0.10011613753E+04  0.89846926659E+03 0.  0.
        2    1    3    3  502    0  0.21164263199E+03  0.15866505415E+03  0.62544331508E+03  0.67907771534E+03  0.25500000920E-02 0.  1.
       -2    1    3    3    0  502 -0.21164263199E+03 -0.15866505415E+03 -0.18376800849E+03  0.32208365999E+03  0.25500000920E-02 0. -1.
</event>
<event>
 5   0  0.2134145E-03  0.8995812E+03  0.7818609E-02  0.9426105E-01
       -1   -1    0    0    0  501  0.00000000000E+00  0.00000000000E+00  0.29565714188E+03  0.29565714192E+03  0.50400001928E-02 0. -1.
        1   -1    0    0  501    0  0.00000000000E+00  0.00000000000E+00 -0.68427771664E+03  0.68427771665E+03  0.50400001928E-02 0.  1.
    10030    2    1    2    0    0  0.00000000000E+00  0.00000000000E+00 -0.38862057475E+03  0.97993485858E+03  0.89958122253E+03 0.  0.
        1    1    3    3  502    0 -0.87339229801E+02 -0.42338043209E+02 -0.67273405116E+03  0.67969975326E+03  0.50400001928E-02 0.  1.
       -1    1    3    3    0  502  0.87339229801E+02  0.42338043209E+02  0.28411347640E+03  0.30023510532E+03  0.50400001928E-02 0. -1.
</event>
<event>
 5   0  0.3685879E-03  0.8956875E+03  0.7818609E-02  0.9430988E-01
       -2   -1    0    0    0  501  0.00000000000E+00  0.00000000000E+00  0.28728050304E+03  0.28728050306E+03  0.25500000920E-02 0. -1.
        2   -1    0    0  501    0  0.00000000000E+00  0.00000000000E+00 -0.69814694022E+03  0.69814694023E+03  0.25500000920E-02 0.  1.
    10030    2    1    2    0    0  0.00000000000E+00  0.00000000000E+00 -0.41086643718E+03  0.98542744328E+03  0.89568745485E+03 0.  0.
        1    1    3    3  502    0  0.18609275344E+03  0.17832919920E+03 -0.60836791507E+03  0.66071426221E+03  0.50400001928E-02 0.  1.
       -1    1    3    3    0  502 -0.18609275344E+03 -0.17832919920E+03  0.19750147789E+03  0.32471318108E+03  0.50400001928E-02 0. -1.
</event>
<event>
 5   0  0.2074970E-03  0.8972596E+03  0.7818609E-02  0.9429014E-01
        1   -1    0    0  501    0  0.00000000000E+00  0.00000000000E+00  0.64934297391E+03  0.64934297393E+03  0.50400001928E-02 0. -1.
       -1   -1    0    0    0  501  0.00000000000E+00  0.00000000000E+00 -0.30995744748E+03  0.30995744752E+03  0.50400001928E-02 0.  1.
    10030    2    1    2    0    0  0.00000000000E+00  0.00000000000E+00  0.33938552644E+03  0.95930042145E+03  0.89725958509E+03 0.  0.
        2    1    3    3  502    0  0.28900405326E+03  0.19478301909E+03  0.47172365951E+03  0.58650403091E+03  0.25500000920E-02 0. -1.
       -2    1    3    3    0  502 -0.28900405326E+03 -0.19478301909E+03 -0.13233813308E+03  0.37279639054E+03  0.25500000920E-02 0.  1.
</event>
<event>
 5   0  0.3815269E-03  0.9030667E+03  0.7818609E-02  0.9421756E-01
       -2   -1    0    0    0  501  0.00000000000E+00  0.00000000000E+00  0.19118453765E+03  0.19118453767E+03  0.25500000920E-02 0.  1.
        2   -1    0    0  501    0  0.00000000000E+00  0.00000000000E+00 -0.10664165101E+04  0.10664165101E+04  0.25500000920E-02 0. -1.
    10030    2    1    2    0    0  0.00000000000E+00  0.00000000000E+00 -0.87523197243E+03  0.12576010477E+04  0.90306665852E+03 0.  0.
        5    1    3    3  502    0 -0.12422744592E+03  0.17713746524E+02  0.16637946387E+03  0.20844771798E+03  0.46999998093E+01 0.  1.
       -5    1    3    3    0  502  0.12422744592E+03 -0.17713746524E+02 -0.10416114363E+04  0.10491533298E+04  0.46999998093E+01 0. -1.
</event>
<event>
 5   0  0.2074970E-03  0.8986906E+03  0.7818609E-02  0.9427220E-01
        1   -1    0    0  501    0  0.00000000000E+00  0.00000000000E+00  0.74133925063E+03  0.74133925065E+03  0.50400001928E-02 0.  1.
       -1   -1    0    0    0  501  0.00000000000E+00  0.00000000000E+00 -0.27236003680E+03  0.27236003684E+03  0.50400001928E-02 0. -1.
    10030    2    1    2    0    0  0.00000000000E+00  0.00000000000E+00  0.46897921383E+03  0.10136992875E+04  0.89869057102E+03 0.  0.
        2    1    3    3  502    0 -0.44351214623E+03  0.23838973127E+02  0.31132328680E+03  0.54239608166E+03  0.25500000920E-02 0.  1.
       -2    1    3    3    0  502  0.44351214623E+03 -0.23838973127E+02  0.15765592704E+03  0.47130320583E+03  0.25500000920E-02 0. -1.
</event>
<event>
 5   0  0.2129280E-03  0.9085326E+03  0.7818609E-02  0.9414978E-01
       -1   -1    0    0    0  501  0.00000000000E+00  0.00000000000E+00  0.32967698770E+03  0.32967698774E+03  0.50400001928E-02 0. -1.
        1   -1    0    0  501    0  0.00000000000E+00  0.00000000000E+00 -0.62593955997E+03  0.62593955999E+03  0.50400001928E-02 0.  1.
    10030    2    1    2    0    0  0.00000000000E+00  0.00000000000E+00 -0.29626257226E+03  0.95561654773E+03  0.90853259412E+03 0.  0.
        3    1    3    3  502    0  0.41736820985E+03  0.17621432105E+03 -0.18317690761E+03  0.48867320289E+03  0.10100000352E+00 0. -1.
       -3    1    3    3    0  502 -0.41736820985E+03 -0.17621432105E+03 -0.11308566465E+03  0.46694334484E+03  0.10100000352E+00 0.  1.
</event>
<event>
 5   0  0.2130975E-03  0.8872557E+03  0.7818609E-02  0.9441654E-01
       -1   -1    0    0    0  501  0.00000000000E+00  0.00000000000E+00  0.14743422721E+03  0.14743422730E+03  0.50400001928E-02 0. -1.
        1   -1    0    0  501    0  0.00000000000E+00  0.00000000000E+00 -0.13348710288E+04  0.13348710288E+04  0.50400001928E-02 0.  1.
    10030    2    1    2    0    0  0.00000000000E+00  0.00000000000E+00 -0.11874368015E+04  0.14823052561E+04  0.88725572103E+03 0.  0.
        5    1    3    3  502    0  0.47651145423E+02  0.10867211988E+03  0.12038659036E+03  0.16910139691E+03  0.46999998093E+01 0. -1.
       -5    1    3    3    0  502 -0.47651145423E+02 -0.10867211988E+03 -0.13078233919E+04  0.13132038592E+04  0.46999998093E+01 0.  1.
</event>
<event>
 5   0  0.3685879E-03  0.8982273E+03  0.7818609E-02  0.9427800E-01
        2   -1    0    0  501    0  0.00000000000E+00  0.00000000000E+00  0.60877288714E+03  0.60877288714E+03  0.25500000920E-02 0. -1.
       -2   -1    0    0    0  501  0.00000000000E+00  0.00000000000E+00 -0.33132725604E+03  0.33132725605E+03  0.25500000920E-02 0.  1.
    10030    2    1    2    0    0  0.00000000000E+00  0.00000000000E+00  0.27744563109E+03  0.94010014320E+03  0.89822725467E+03 0.  0.
        1    1    3    3  502    0 -0.17052979805E+03 -0.10242360960E+03  0.56014977719E+03  0.59442306545E+03  0.50400001928E-02 0. -1.
       -1    1    3    3    0  502  0.17052979805E+03  0.10242360960E+03 -0.28270414610E+03  0.34567707774E+03  0.50400001928E-02 0.  1.
</event>
<event>
 5   0  0.2129280E-03  0.8971011E+03  0.7818609E-02  0.9429212E-01
        1   -1    0    0  501    0  0.00000000000E+00  0.00000000000E+00  0.55643920302E+03  0.55643920304E+03  0.50400001928E-02 0. -1.
       -1   -1    0    0    0  501  0.00000000000E+00  0.00000000000E+00 -0.36158054007E+03  0.36158054010E+03  0.50400001928E-02 0.  1.
    10030    2    1    2    0    0  0.00000000000E+00  0.00000000000E+00  0.19485866296E+03  0.91801974314E+03  0.89710108141E+03 0.  0.
        3    1    3    3  502    0 -0.39049076858E+03 -0.21920442382E+03  0.71061111379E+02  0.45341295914E+03  0.10100000352E+00 0.  1.
       -3    1    3    3    0  502  0.39049076858E+03  0.21920442382E+03  0.12379755158E+03  0.46460678400E+03  0.10100000352E+00 0. -1.
</event>
<event>
 5   0  0.3806019E-03  0.8937257E+03  0.7818609E-02  0.9433459E-01
        2   -1    0    0  501    0  0.00000000000E+00  0.00000000000E+00  0.57065323281E+03  0.57065323282E+03  0.25500000920E-02 0.  1.
       -2   -1    0    0    0  501  0.00000000000E+00  0.00000000000E+00 -0.34992603000E+03  0.34992603001E+03  0.25500000920E-02 0. -1.
    10030    2    1    2    0    0  0.00000000000E+00  0.00000000000E+00  0.22072720281E+03  0.92057926283E+03  0.89372573035E+03 0.  0.
        2    1    3    3  502    0 -0.14163190824E+03  0.29698964945E+03 -0.20108541709E+03  0.38561352970E+03  0.25500000920E-02 0. -1.
       -2    1    3    3    0  502  0.14163190824E+03 -0.29698964945E+03  0.42181261990E+03  0.53496573313E+03  0.25500000920E-02 0.  1.
</event>
<event>
 5   0  0.2295158E-03  0.9006606E+03  0.7818609E-02  0.9424756E-01
        1   -1    0    0  501    0  0.00000000000E+00  0.00000000000E+00  0.99296356847E+03  0.99296356848E+03  0.50400001928E-02 0.  1.
       -1   -1    0    0    0  501  0.00000000000E+00  0.00000000000E+00 -0.20423445687E+03  0.20423445693E+03  0.50400001928E-02 0. -1.
    10030    2    1    2    0    0  0.00000000000E+00  0.00000000000E+00  0.78872911160E+03  0.11971980254E+04  0.90066059122E+03 0.  0.
        4    1    3    3  502    0 -0.33432803873E+03 -0.17238757265E+03  0.65250923942E+02  0.38177481407E+03  0.12699999809E+01 0. -1.
       -4    1    3    3    0  502  0.33432803873E+03  0.17238757265E+03  0.72347818766E+03  0.81542321134E+03  0.12699999809E+01 0.  1.
</event>
<event>
 5   0  0.2130975E-03  0.9026754E+03  0.7818609E-02  0.9422243E-01
       -1   -1    0    0    0  501  0.00000000000E+00  0.00000000000E+00  0.25025215228E+03  0.25025215234E+03  0.50400001928E-02 0. -1.
        1   -1    0    0  501    0  0.00000000000E+00  0.00000000000E+00 -0.81400184900E+03  0.81400184901E+03  0.50400001928E-02 0.  1.
    10030    2    1    2    0    0  0.00000000000E+00  0.00000000000E+00 -0.56374969671E+03  0.10642540013E+04  0.90267538952E+03 0.  0.
        5    1    3    3  502    0  0.42761342824E+03  0.87115214177E+02 -0.41754344507E+03  0.60399248594E+03  0.46999998093E+01 0. -1.
       -5    1    3    3    0  502 -0.42761342824E+03 -0.87115214177E+02 -0.14620625165E+03  0.46026151541E+03  0.46999998093E+01 0.  1.
</event>
<event>
 5   0  0.3815269E-03  0.9000404E+03  0.7818609E-02  0.9425531E-01
        2   -1    0    0  501    0  0.00000000000E+00  0.00000000000E+00  0.23551889310E+03  0.23551889312E+03  0.25500000920E-02 0.  1.
       -2   -1    0    0    0  501  0.00000000000E+00  0.00000000000E+00 -0.85988089022E+03  0.85988089022E+03  0.25500000920E-02 0. -1.
    10030    2    1    2    0    0  0.00000000000E+00  0.00000000000E+00 -0.62436199711E+03  0.10953997833E+04  0.90004043348E+03 0.  0.
        5    1    3    3  502    0 -0.14607100906E+03  0.41732010095E+03 -0.41403121798E+03  0.60575304027E+03  0.46999998093E+01 0. -1.
       -5    1    3    3    0  502  0.14607100906E+03 -0.41732010095E+03 -0.21033077913E+03  0.48964674306E+03  0.46999998093E+01 0.  1.
</event>
<event>
 5   0  0.2130975E-03  0.9011011E+03  0.7818609E-02  0.9424206E-01
       -1   -1    0    0    0  501  0.00000000000E+00  0.00000000000E+00  0.57899832000E+03  0.57899832002E+03  0.50400001928E-02 0. -1.
        1   -1    0    0  501    0  0.00000000000E+00  0.00000000000E+00 -0.35059822629E+03  0.35059822632E+03  0.50400001928E-02 0.  1.
    10030    2    1    2    0    0  0.00000000000E+00  0.00000000000E+00  0.22840009371E+03  0.92959654634E+03  0.90110106879E+03 0.  0.
        5    1    3    3  502    0  0.27818168798E+03 -0.39909239330E+02  0.47746596236E+03  0.55405201392E+03  0.46999998093E+01 0. -1.
       -5    1    3    3    0  502 -0.27818168798E+03  0.39909239330E+02 -0.24906586865E+03  0.37554453243E+03  0.46999998093E+01 0.  1.
</event>
<event>
 5   0  0.2074970E-03  0.8992346E+03  0.7818609E-02  0.9426539E-01
       -1   -1    0    0    0  501  0.00000000000E+00  0.00000000000E+00  0.58646038417E+03  0.58646038419E+03  0.50400001928E-02 0. -1.
        1   -1    0    0  501    0  0.00000000000E+00  0.00000000000E+00 -0.34470479402E+03  0.34470479405E+03  0.50400001928E-02 0.  1.
    10030    2    1    2    0    0  0.00000000000E+00  0.00000000000E+00  0.24175559016E+03  0.93116517825E+03  0.89923457663E+03 0.  0.
        2    1    3    3  502    0  0.21857649932E+02  0.29845613598E+03  0.46835519052E+03  0.55579709109E+03  0.25500000920E-02 0. -1.
       -2    1    3    3    0  502 -0.21857649932E+02 -0.29845613598E+03 -0.22659960037E+03  0.37536808716E+03  0.25500000920E-02 0.  1.
</event>
<event>
 5   0  0.3685879E-03  0.8985319E+03  0.7818609E-02  0.9427418E-01
        2   -1    0    0  501    0  0.00000000000E+00  0.00000000000E+00  0.19738543661E+04  0.19738543661E+04  0.25500000920E-02 0.  1.
       -2   -1    0    0    0  501  0.00000000000E+00  0.00000000000E+00 -0.10225672983E+03  0.10225672987E+03  0.25500000920E-02 0. -1.
    10030    2    1    2    0    0  0.00000000000E+00  0.00000000000E+00  0.18715976363E+04  0.20761110960E+04  0.89853189745E+03 0.  0.
        1    1    3    3  502    0 -0.35963996125E+02  0.87344959871E+02  0.19506508487E+04  0.19529365798E+04  0.50400001928E-02 0.  1.
       -1    1    3    3    0  502  0.35963996125E+02 -0.87344959871E+02 -0.79053212403E+02  0.12317451623E+03  0.50400001928E-02 0. -1.
</event>
<event>
 5   0  0.2295158E-03  0.8980802E+03  0.7818609E-02  0.9427985E-01
       -1   -1    0    0    0  501  0.00000000000E+00  0.00000000000E+00  0.18446434627E+03  0.18446434634E+03  0.50400001928E-02 0.  1.
        1   -1    0    0  501    0  0.00000000000E+00  0.00000000000E+00 -0.10930946674E+04  0.10930946675E+04  0.50400001928E-02 0. -1.
    10030    2    1    2    0    0  0.00000000000E+00  0.00000000000E+00 -0.90863032118E+03  0.12775590138E+04  0.89808015965E+03 0.  0.
        4    1    3    3  502    0 -0.17472177976E+03  0.15731443266E+03  0.89907780832E+02  0.25171522203E+03  0.12699999809E+01 0.  1.
       -4    1    3    3    0  502  0.17472177976E+03 -0.15731443266E+03 -0.99853810201E+03  0.10258437918E+04  0.12699999809E+01 0. -1.
</event>
<event>
 5   0  0.3685879E-03  0.9001620E+03  0.7818609E-02  0.9425379E-01
       -2   -1    0    0    0  501  0.00000000000E+00  0.00000000000E+00  0.84665139501E+03  0.84665139501E+03  0.25500000920E-02 0. -1.
        2   -1    0    0  501    0  0.00000000000E+00  0.00000000000E+00 -0.23926367094E+03  0.23926367095E+03  0.25500000920E-02 0.  1.
    10030    2    1    2    0    0  0.00000000000E+00  0.00000000000E+00  0.60738772407E+03  0.10859150660E+04  0.90016203161E+03 0.  0.
        1    1    3    3  502    0  0.69094205453E+02  0.15050577686E+02  0.83990804435E+03  0.84287961899E+03  0.50400001928E-02 0. -1.
       -1    1    3    3    0  502 -0.69094205453E+02 -0.15050577686E+02 -0.23252032028E+03  0.24303544698E+03  0.50400001928E-02 0.  1.
</event>
<event>
 5   0  0.3685879E-03  0.8964239E+03  0.7818609E-02  0.9430063E-01
        2   -1    0    0  501    0  0.00000000000E+00  0.00000000000E+00  0.57643907921E+03  0.57643907922E+03  0.25500000920E-02 0. -1.
       -2   -1    0    0    0  501  0.00000000000E+00  0.00000000000E+00 -0.34850853993E+03  0.34850853994E+03  0.25500000920E-02 0.  1.
    10030    2    1    2    0    0  0.00000000000E+00  0.00000000000E+00  0.22793053929E+03  0.92494761916E+03  0.89642387710E+03 0.  0.
        1    1    3    3  502    0 -0.23937727485E+02  0.44410425346E+03  0.56587022275E+02  0.44833435498E+03  0.50400001928E-02 0.  1.
       -1    1    3    3    0  502  0.23937727485E+02 -0.44410425346E+03  0.17134351701E+03  0.47661326417E+03  0.50400001928E-02 0. -1.
</event>
<event>
 5   0  0.2295158E-03  0.8970589E+03  0.7818609E-02  0.9429265E-01
        1   -1    0    0  501    0  0.00000000000E+00  0.00000000000E+00  0.10005597267E+04  0.10005597267E+04  0.50400001928E-02 0.  1.
       -1   -1    0    0    0  501  0.00000000000E+00  0.00000000000E+00 -0.20106612190E+03  0.20106612196E+03  0.50400001928E-02 0. -1.
    10030    2    1    2    0    0  0.00000000000E+00  0.00000000000E+00  0.79949360475E+03  0.12016258486E+04  0.89705889219E+03 0.  0.
        4    1    3    3  502    0  0.13843949897E+03 -0.18107228407E+02  0.97070757423E+03  0.98069779961E+03  0.12699999809E+01 0.  1.
       -4    1    3    3    0  502 -0.13843949897E+03  0.18107228407E+02 -0.17121396948E+03  0.22092804901E+03  0.12699999809E+01 0. -1.
</event>
<event>
 5   0  0.2129280E-03  0.9064822E+03  0.7818609E-02  0.9417514E-01
       -1   -1    0    0    0  501  0.00000000000E+00  0.00000000000E+00  0.26637526543E+03  0.26637526547E+03  0.50400001928E-02 0.  1.
        1   -1    0    0  501    0  0.00000000000E+00  0.00000000000E+00 -0.77119583335E+03  0.77119583337E+03  0.50400001928E-02 0. -1.
    10030    2    1    2    0    0  0.00000000000E+00  0.00000000000E+00 -0.50482056792E+03  0.10375710988E+04  0.90648220024E+03 0.  0.
        3    1    3    3  502    0  0.20804831740E+03  0.91360452833E+02  0.19647154294E+03  0.30038627149E+03  0.10100000352E+00 0.  1.
       -3    1    3    3    0  502 -0.20804831740E+03 -0.91360452833E+02 -0.70129211086E+03  0.73718482735E+03  0.10100000352E+00 0. -1.
</event>
<event>
 5   0  0.1436000E-03  0.9017838E+03  0.7818609E-02  0.9423354E-01
        3   -1    0    0  501    0  0.00000000000E+00  0.00000000000E+00  0.20364404754E+03  0.20364407258E+03  0.10100000352E+00 0.  1.
       -3   -1    0    0    0  501  0.00000000000E+00  0.00000000000E+00 -0.99832760842E+03  0.99832761353E+03  0.10100000352E+00 0. -1.
    10030    2    1    2    0    0  0.00000000000E+00  0.00000000000E+00 -0.79468356089E+03  0.12019716861E+04  0.90178377246E+03 0.  0.
        5    1    3    3  502    0  0.81855584896E+02  0.37300793098E+03 -0.77877516175E+02  0.38977204989E+03  0.46999998093E+01 0.  1.
       -5    1    3    3    0  502 -0.81855584896E+02 -0.37300793098E+03 -0.71680604471E+03  0.81219963622E+03  0.46999998093E+01 0. -1.
</event>
<event>
 5   0  0.3663255E-03  0.8993629E+03  0.7818609E-02  0.9426378E-01
        2   -1    0    0  501    0  0.00000000000E+00  0.00000000000E+00  0.20991086426E+04  0.20991086426E+04  0.25500000920E-02 0.  1.
       -2   -1    0    0    0  501  0.00000000000E+00  0.00000000000E+00 -0.96332977752E+02  0.96332977786E+02  0.25500000920E-02 0. -1.
    10030    2    1    2    0    0  0.00000000000E+00  0.00000000000E+00  0.20027756648E+04  0.21954416204E+04  0.89936285492E+03 0.  0.
        4    1    3    3  502    0  0.23076898345E+03 -0.20507930851E+02  0.60573148723E+02  0.23946945149E+03  0.12699999809E+01 0. -1.
       -4    1    3    3    0  502 -0.23076898345E+03  0.20507930851E+02  0.19422025161E+04  0.19559721689E+04  0.12699999809E+01 0.  1.
</event>
<event>
 5   0  0.2295158E-03  0.8956821E+03  0.7818609E-02  0.9430995E-01
       -1   -1    0    0    0  501  0.00000000000E+00  0.00000000000E+00  0.15961848349E+03  0.15961848357E+03  0.50400001928E-02 0. -1.
        1   -1    0    0  501    0  0.00000000000E+00  0.00000000000E+00 -0.12565062549E+04  0.12565062549E+04  0.50400001928E-02 0.  1.
    10030    2    1    2    0    0  0.00000000000E+00  0.00000000000E+00 -0.10968877714E+04  0.14161247385E+04  0.89568213774E+03 0.  0.
        4    1    3    3  502    0 -0.51039152760E+02 -0.39082885507E+03 -0.21227742356E+03  0.44767790489E+03  0.12699999809E+01 0. -1.
       -4    1    3    3    0  502  0.51039152760E+02  0.39082885507E+03 -0.88461034784E+03  0.96844683358E+03  0.12699999809E+01 0.  1.
</event>
<event>
 5   0  0.2134145E-03  0.8990799E+03  0.7818609E-02  0.9426732E-01
       -1   -1    0    0    0  501  0.00000000000E+00  0.00000000000E+00  0.47264627728E+03  0.47264627731E+03  0.50400001928E-02 0.  1.
        1   -1    0    0  501    0  0.00000000000E+00  0.00000000000E+00 -0.42756321763E+03  0.42756321766E+03  0.50400001928E-02 0. -1.
    10030    2    1    2    0    0  0.00000000000E+00  0.00000000000E+00  0.45083059646E+02  0.90020949497E+03  0.89907989221E+03 0.  0.
        1    1    3    3  502    0 -0.18687541558E+03  0.17216700625E+03 -0.34876433707E+03  0.43150951533E+03  0.50400001928E-02 0. -1.
       -1    1    3    3    0  502  0.18687541558E+03 -0.17216700625E+03  0.39384739671E+03  0.46869997964E+03  0.50400001928E-02 0.  1.
</event>
<event>
 5   0  0.2130975E-03  0.8889316E+03  0.7818609E-02  0.9439524E-01
       -1   -1    0    0    0  501  0.00000000000E+00  0.00000000000E+00  0.13950217789E+03  0.13950217798E+03  0.50400001928E-02 0. -1.
        1   -1    0    0  501    0  0.00000000000E+00  0.00000000000E+00 -0.14161059883E+04  0.14161059883E+04  0.50400001928E-02 0.  1.
    10030    2    1    2    0    0  0.00000000000E+00  0.00000000000E+00 -0.12766038104E+04  0.15556081663E+04  0.88893164996E+03 0.  0.
        5    1    3    3  502    0 -0.16296782398E+03 -0.34003083748E+03 -0.10500048547E+04  0.11156665124E+04  0.46999998093E+01 0.  1.
       -5    1    3    3    0  502  0.16296782398E+03  0.34003083748E+03 -0.22659895576E+03  0.43994165391E+03  0.46999998093E+01 0. -1.
</event>
<event>
 5   0  0.3663255E-03  0.8986099E+03  0.7818609E-02  0.9427321E-01
        2   -1    0    0  501    0  0.00000000000E+00  0.00000000000E+00  0.17323756490E+04  0.17323756490E+04  0.25500000920E-02 0.  1.
       -2   -1    0    0    0  501  0.00000000000E+00  0.00000000000E+00 -0.11653069690E+03  0.11653069693E+03  0.25500000920E-02 0. -1.
    10030    2    1    2    0    0  0.00000000000E+00  0.00000000000E+00  0.16158449521E+04  0.18489063460E+04  0.89860990804E+03 0.  0.
        4    1    3    3  502    0 -0.17400165695E+02  0.32303841166E+03  0.16639648814E+03  0.36379387755E+03  0.12699999809E+01 0. -1.
       -4    1    3    3    0  502  0.17400165695E+02 -0.32303841166E+03  0.14494484640E+04  0.14851124684E+04  0.12699999809E+01 0.  1.
</event>
<event>
 5   0  0.3806019E-03  0.9042720E+03  0.7818609E-02  0.9420257E-01
       -2   -1    0    0    0  501  0.00000000000E+00  0.00000000000E+00  0.57753651259E+03  0.57753651259E+03  0.25500000920E-02 0.  1.
        2   -1    0    0  501    0  0.00000000000E+00  0.00000000000E+00 -0.35396370958E+03  0.35396370959E+03  0.25500000920E-02 0. -1.
    10030    2    1    2    0    0  0.00000000000E+00  0.00000000000E+00  0.22357280301E+03  0.93150022218E+03  0.90427200868E+03 0.  0.
        2    1    3    3  502    0 -0.48562617992E+02  0.37984347043E+03  0.35941518030E+03  0.52518440736E+03  0.25500000920E-02 0.  1.
       -2    1    3    3    0  502  0.48562617992E+02 -0.37984347043E+03 -0.13584237729E+03  0.40631581482E+03  0.25500000920E-02 0. -1.
</event>
<event>
 5   0  0.2130975E-03  0.8993217E+03  0.7818609E-02  0.9426430E-01
       -1   -1    0    0    0  501  0.00000000000E+00  0.00000000000E+00  0.56307733086E+03  0.56307733088E+03  0.50400001928E-02 0.  1.
        1   -1    0    0  501    0  0.00000000000E+00  0.00000000000E+00 -0.35908898286E+03  0.35908898290E+03  0.50400001928E-02 0. -1.
    10030    2    1    2    0    0  0.00000000000E+00  0.00000000000E+00  0.20398834799E+03  0.92216631377E+03  0.89932166889E+03 0.  0.
        5    1    3    3  502    0 -0.34198789844E+03  0.23532962610E+03  0.27911593513E+03  0.50026348142E+03  0.46999998093E+01 0.  1.
       -5    1    3    3    0  502  0.34198789844E+03 -0.23532962610E+03 -0.75127587134E+02  0.42190283235E+03  0.46999998093E+01 0. -1.
</event>
<event>
 5   0  0.2134145E-03  0.9001578E+03  0.7818609E-02  0.9425384E-01
       -1   -1    0    0    0  501  0.00000000000E+00  0.00000000000E+00  0.25268162424E+03  0.25268162429E+03  0.50400001928E-02 0.  1.
        1   -1    0    0  501    0  0.00000000000E+00  0.00000000000E+00 -0.80168477991E+03  0.80168477993E+03  0.50400001928E-02 0. -1.
    10030    2    1    2    0    0  0.00000000000E+00  0.00000000000E+00 -0.54900315567E+03  0.10543664042E+04  0.90015779140E+03 0.  0.
        1    1    3    3  502    0 -0.16639399001E+03 -0.13804204561E+03  0.18787548764E+03  0.28642584581E+03  0.50400001928E-02 0.  1.
       -1    1    3    3    0  502  0.16639399001E+03  0.13804204561E+03 -0.73687864331E+03  0.76794055841E+03  0.50400001928E-02 0. -1.
</event>
<event>
 5   0  0.3626546E-03  0.8945538E+03  0.7818609E-02  0.9432415E-01
        2   -1    0    0  501    0  0.00000000000E+00  0.00000000000E+00  0.88472589259E+03  0.88472589260E+03  0.25500000920E-02 0. -1.
       -2   -1    0    0    0  501  0.00000000000E+00  0.00000000000E+00 -0.22612270612E+03  0.22612270614E+03  0.25500000920E-02 0.  1.
    10030    2    1    2    0    0  0.00000000000E+00  0.00000000000E+00  0.65860318647E+03  0.11108485987E+04  0.89455377261E+03 0.  0.
        3    1    3    3  502    0  0.34737063983E+03 -0.77981659503E+02 -0.69213691460E+01  0.35608343992E+03  0.10100000352E+00 0.  1.
       -3    1    3    3    0  502 -0.34737063983E+03  0.77981659503E+02  0.66552455561E+03  0.75476515881E+03  0.10100000352E+00 0. -1.
</event>
<event>
 5   0  0.3663255E-03  0.8979797E+03  0.7818609E-02  0.9428110E-01
       -2   -1    0    0    0  501  0.00000000000E+00  0.00000000000E+00  0.22600703842E+03  0.22600703844E+03  0.25500000920E-02 0.  1.
        2   -1    0    0  501    0  0.00000000000E+00  0.00000000000E+00 -0.89197179845E+03  0.89197179846E+03  0.25500000920E-02 0. -1.
    10030    2    1    2    0    0  0.00000000000E+00  0.00000000000E+00 -0.66596476003E+03  0.11179788369E+04  0.89797974261E+03 0.  0.
        4    1    3    3  502    0  0.34867492607E+03  0.17652455962E+03 -0.60816582034E+03  0.72291244431E+03  0.12699999809E+01 0.  1.
       -4    1    3    3    0  502 -0.34867492607E+03 -0.17652455962E+03 -0.57798939690E+02  0.39506639258E+03  0.12699999809E+01 0. -1.
</event>
<event>
 5   0  0.3663255E-03  0.8964695E+03  0.7818609E-02  0.9430006E-01
        2   -1    0    0  501    0  0.00000000000E+00  0.00000000000E+00  0.56919130122E+03  0.56919130122E+03  0.25500000920E-02 0.  1.
       -2   -1    0    0    0  501  0.00000000000E+00  0.00000000000E+00 -0.35298219163E+03  0.35298219164E+03  0.25500000920E-02 0. -1.
    10030    2    1    2    0    0  0.00000000000E+00  0.00000000000E+00  0.21620910959E+03  0.92217349287E+03  0.89646950415E+03 0.  0.
        4    1    3    3  502    0 -0.42856838362E+03  0.15206127803E+01  0.24316892941E+03  0.49275339962E+03  0.12699999809E+01 0.  1.
       -4    1    3    3    0  502  0.42856838362E+03 -0.15206127803E+01 -0.26959819826E+02  0.42942009325E+03  0.12699999809E+01 0. -1.
</event>
<event>
 5   0  0.2129280E-03  0.8905927E+03  0.7818609E-02  0.9437418E-01
       -1   -1    0    0    0  501  0.00000000000E+00  0.00000000000E+00  0.40837120332E+03  0.40837120335E+03  0.50400001928E-02 0. -1.
        1   -1    0    0  501    0  0.00000000000E+00  0.00000000000E+00 -0.48556031685E+03  0.48556031687E+03  0.50400001928E-02 0.  1.
    10030    2    1    2    0    0  0.00000000000E+00  0.00000000000E+00 -0.77189113523E+02  0.89393152023E+03  0.89059272600E+03 0.  0.
        3    1    3    3  502    0  0.41216017373E+03  0.14948855122E+03 -0.11677110435E+03  0.45371614118E+03  0.10100000352E+00 0.  1.
       -3    1    3    3    0  502 -0.41216017373E+03 -0.14948855122E+03  0.39581990829E+02  0.44021537905E+03  0.10100000352E+00 0. -1.
</event>
<event>
 5   0  0.2129280E-03  0.8964358E+03  0.7818609E-02  0.9430048E-01
        1   -1    0    0  501    0  0.00000000000E+00  0.00000000000E+00  0.10463516078E+04  0.10463516078E+04  0.50400001928E-02 0. -1.
       -1   -1    0    0    0  501  0.00000000000E+00  0.00000000000E+00 -0.19199977700E+03  0.19199977706E+03  0.50400001928E-02 0.  1.
    10030    2    1    2    0    0  0.00000000000E+00  0.00000000000E+00  0.85435183077E+03  0.12383513848E+04  0.89643577662E+03 0.  0.
        3    1    3    3  502    0  0.34957256087E+03 -0.14704991758E+03  0.97151404715E+02  0.39148826191E+03  0.10100000352E+00 0.  1.
       -3    1    3    3    0  502 -0.34957256087E+03  0.14704991758E+03  0.75720042606E+03  0.84686312294E+03  0.10100000352E+00 0. -1.
</event>
<event>
 5   0  0.2134145E-03  0.9192648E+03  0.7818609E-02  0.9401815E-01
        1   -1    0    0  501    0  0.00000000000E+00  0.00000000000E+00  0.89503702891E+03  0.89503702893E+03  0.50400001928E-02 0. -1.
       -1   -1    0    0    0  501  0.00000000000E+00  0.00000000000E+00 -0.23603710652E+03  0.23603710658E+03  0.50400001928E-02 0.  1.
    10030    2    1    2    0    0  0.00000000000E+00  0.00000000000E+00  0.65899992239E+03  0.11310741355E+04  0.91926481619E+03 0.  0.
        1    1    3    3  502    0  0.15914747907E+03  0.21369046854E+03 -0.13132232337E+03  0.29704728425E+03  0.50400001928E-02 0.  1.
       -1    1    3    3    0  502 -0.15914747907E+03 -0.21369046854E+03  0.79032224576E+03  0.83402685125E+03  0.50400001928E-02 0. -1.
</event>
<event>
 5   0  0.2074970E-03  0.8980106E+03  0.7818609E-02  0.9428072E-01
        1   -1    0    0  501    0  0.00000000000E+00  0.00000000000E+00  0.12499962642E+04  0.12499962642E+04  0.50400001928E-02 0. -1.
       -1   -1    0    0    0  501  0.00000000000E+00  0.00000000000E+00 -0.16128507278E+03  0.16128507285E+03  0.50400001928E-02 0.  1.
    10030    2    1    2    0    0  0.00000000000E+00  0.00000000000E+00  0.10887111914E+04  0.14112813371E+04  0.89801055339E+03 0.  0.
        2    1    3    3  502    0  0.21512035446E+02  0.42678885637E+03  0.32776322659E+03  0.53855383046E+03  0.25500000920E-02 0.  1.
       -2    1    3    3    0  502 -0.21512035446E+02 -0.42678885637E+03  0.76094796483E+03  0.87272750660E+03  0.25500000920E-02 0. -1.
</event>
<event>
 5   0  0.3626546E-03  0.8981782E+03  0.7818609E-02  0.9427862E-01
       -2   -1    0    0    0  501  0.00000000000E+00  0.00000000000E+00  0.15949840015E+03  0.15949840017E+03  0.25500000920E-02 0. -1.
        2   -1    0    0  501    0  0.00000000000E+00  0.00000000000E+00 -0.12644703783E+04  0.12644703783E+04  0.25500000920E-02 0.  1.
    10030    2    1    2    0    0  0.00000000000E+00  0.00000000000E+00 -0.11049719781E+04  0.14239687785E+04  0.89817816136E+03 0.  0.
        3    1    3    3  502    0  0.28739284319E+03 -0.32534330706E+03 -0.37007522998E+03  0.57043720059E+03  0.10100000352E+00 0.  1.
       -3    1    3    3    0  502 -0.28739284319E+03  0.32534330706E+03 -0.73489674816E+03  0.85353157788E+03  0.10100000352E+00 0. -1.
</event>
<event>
 5   0  0.3626546E-03  0.9024492E+03  0.7818609E-02  0.9422525E-01
        2   -1    0    0  501    0  0.00000000000E+00  0.00000000000E+00  0.66745513303E+03  0.66745513304E+03  0.25500000920E-02 0.  1.
       -2   -1    0    0    0  501  0.00000000000E+00  0.00000000000E+00 -0.30504467064E+03  0.30504467065E+03  0.25500000920E-02 0. -1.
    10030    2    1    2    0    0  0.00000000000E+00  0.00000000000E+00  0.36241046239E+03  0.97249980369E+03  0.90244918135E+03 0.  0.
        3    1    3    3  502    0  0.36952965180E+03 -0.11606382497E+03 -0.68237434923E+02  0.39329293504E+03  0.10100000352E+00 0. -1.
       -3    1    3    3    0  502 -0.36952965180E+03  0.11606382497E+03  0.43064789732E+03  0.57920686865E+03  0.10100000352E+00 0.  1.
</event>
<event>
 5   0  0.2129280E-03  0.8970366E+03  0.7818609E-02  0.9429293E-01
        1   -1    0    0  501    0  0.00000000000E+00  0.00000000000E+00  0.76628631480E+03  0.76628631482E+03  0.50400001928E-02 0. -1.
       -1   -1    0    0    0  501  0.00000000000E+00  0.00000000000E+00 -0.26252416643E+03  0.26252416648E+03  0.50400001928E-02 0.  1.
    10030    2    1    2    0    0  0.00000000000E+00  0.00000000000E+00  0.50376214836E+03  0.10288104813E+04  0.89703662373E+03 0.  0.
        3    1    3    3  502    0  0.12088183721E+03  0.32146449118E+02 -0.24211547237E+03  0.27251738462E+03  0.10100000352E+00 0.  1.
       -3    1    3    3    0  502 -0.12088183721E+03 -0.32146449118E+02  0.74587762074E+03  0.75629309667E+03  0.10100000352E+00 0. -1.
</event>
<event>
 5   0  0.3663255E-03  0.8958377E+03  0.7818609E-02  0.9430800E-01
        2   -1    0    0  501    0  0.00000000000E+00  0.00000000000E+00  0.55997003996E+03  0.55997003997E+03  0.25500000920E-02 0. -1.
       -2   -1    0    0    0  501  0.00000000000E+00  0.00000000000E+00 -0.35828933009E+03  0.35828933010E+03  0.25500000920E-02 0.  1.
    10030    2    1    2    0    0  0.00000000000E+00  0.00000000000E+00  0.20168070987E+03  0.91825937007E+03  0.89583768729E+03 0.  0.
        4    1    3    3  502    0 -0.39423708560E+03  0.17205302115E+03 -0.27204385939E+02  0.43100674387E+03  0.12699999809E+01 0.  1.
       -4    1    3    3    0  502  0.39423708560E+03 -0.17205302115E+03  0.22888509581E+03  0.48725262619E+03  0.12699999809E+01 0. -1.
</event>
<event>
 5   0  0.3685879E-03  0.8983733E+03  0.7818609E-02  0.9427617E-01
        2   -1    0    0  501    0  0.00000000000E+00  0.00000000000E+00  0.29948816082E+03  0.29948816084E+03  0.25500000920E-02 0.  1.
       -2   -1    0    0    0  501  0.00000000000E+00  0.00000000000E+00 -0.67371165945E+03  0.67371165946E+03  0.25500000920E-02 0. -1.
    10030    2    1    2    0    0  0.00000000000E+00  0.00000000000E+00 -0.37422349863E+03  0.97319982029E+03  0.89837334293E+03 0.  0.
        1    1    3    3  502    0  0.32907657691E+03  0.11102872396E+03  0.12148343448E+03  0.36793613018E+03  0.50400001928E-02 0.  1.
       -1    1    3    3    0  502 -0.32907657691E+03 -0.11102872396E+03 -0.49570693310E+03  0.60526369011E+03  0.50400001928E-02 0. -1.
</event>
<event>
 5   0  0.3663255E-03  0.8994129E+03  0.7818609E-02  0.9426316E-01
        2   -1    0    0  501    0  0.00000000000E+00  0.00000000000E+00  0.41138898472E+03  0.41138898473E+03  0.25500000920E-02 0.  1.
       -2   -1    0    0    0  501  0.00000000000E+00  0.00000000000E+00 -0.49159285943E+03  0.49159285943E+03  0.25500000920E-02 0. -1.
    10030    2    1    2    0    0  0.00000000000E+00  0.00000000000E+00 -0.80203874702E+02  0.90298184416E+03  0.89941289149E+03 0.  0.
        4    1    3    3  502    0  0.36226958838E+03 -0.26346125611E+03 -0.15477613401E+00  0.44794276978E+03  0.12699999809E+01 0. -1.
       -4    1    3    3    0  502 -0.36226958838E+03  0.26346125611E+03 -0.80049098568E+02  0.45503907439E+03  0.12699999809E+01 0.  1.
</event>
<event>
 5   0  0.2130975E-03  0.8975383E+03  0.7818609E-02  0.9428664E-01
        1   -1    0    0  501    0  0.00000000000E+00  0.00000000000E+00  0.37009723445E+03  0.37009723448E+03  0.50400001928E-02 0.  1.
       -1   -1    0    0    0  501  0.00000000000E+00  0.00000000000E+00 -0.54416447365E+03  0.54416447367E+03  0.50400001928E-02 0. -1.
    10030    2    1    2    0    0  0.00000000000E+00  0.00000000000E+00 -0.17406723920E+03  0.91426170815E+03  0.89753833747E+03 0.  0.
        5    1    3    3  502    0 -0.31668448073E+03  0.21552753419E+03  0.15105306323E+03  0.41180128246E+03  0.46999998093E+01 0.  1.
       -5    1    3    3    0  502  0.31668448073E+03 -0.21552753419E+03 -0.32512030244E+03  0.50246042569E+03  0.46999998093E+01 0. -1.
</event>
<event>
 5   0  0.3685879E-03  0.9051265E+03  0.7818609E-02  0.9419196E-01
        2   -1    0    0  501    0  0.00000000000E+00  0.00000000000E+00  0.15448271665E+04  0.15448271665E+04  0.25500000920E-02 0. -1.
       -2   -1    0    0    0  501  0.00000000000E+00  0.00000000000E+00 -0.13258018877E+03  0.13258018880E+03  0.25500000920E-02 0.  1.
    10030    2    1    2    0    0  0.00000000000E+00  0.00000000000E+00  0.14122469777E+04  0.16774073553E+04  0.90512646049E+03 0.  0.
        1    1    3    3  502    0  0.15880713188E+03 -0.28355785847E+03  0.12897841323E+04  0.13301007000E+04  0.50400001928E-02 0. -1.
       -1    1    3    3    0  502 -0.15880713188E+03  0.28355785847E+03  0.12246284537E+03  0.34730665522E+03  0.50400001928E-02 0.  1.
</event>
<event>
 5   0  0.3626546E-03  0.9008592E+03  0.7818609E-02  0.9424508E-01
        2   -1    0    0  501    0  0.00000000000E+00  0.00000000000E+00  0.43123501566E+03  0.43123501566E+03  0.25500000920E-02 0.  1.
       -2   -1    0    0    0  501  0.00000000000E+00  0.00000000000E+00 -0.47047855252E+03  0.47047855253E+03  0.25500000920E-02 0. -1.
    10030    2    1    2    0    0  0.00000000000E+00  0.00000000000E+00 -0.39243536863E+02  0.90171356819E+03  0.90085920314E+03 0.  0.
        3    1    3    3  502    0  0.25918041925E+03  0.17075452909E+03 -0.34635931493E+03  0.46507675084E+03  0.10100000352E+00 0. -1.
       -3    1    3    3    0  502 -0.25918041925E+03 -0.17075452909E+03  0.30711577807E+03  0.43663681735E+03  0.10100000352E+00 0.  1.
</event>
<event>
 5   0  0.2295158E-03  0.9243374E+03  0.7818609E-02  0.9395660E-01
        1   -1    0    0  501    0  0.00000000000E+00  0.00000000000E+00  0.10189139795E+04  0.10189139795E+04  0.50400001928E-02 0. -1.
       -1   -1    0    0    0  501  0.00000000000E+00  0.00000000000E+00 -0.20963485654E+03  0.20963485660E+03  0.50400001928E-02 0.  1.
    10030    2    1    2    0    0  0.00000000000E+00  0.00000000000E+00  0.80927912300E+03  0.12285488361E+04  0.92433735393E+03 0.  0.
        4    1    3    3  502    0 -0.32413829409E+03  0.78887117826E+02 -0.20488547913E+02  0.33423076541E+03  0.12699999809E+01 0.  1.
       -4    1    3    3    0  502  0.32413829409E+03 -0.78887117826E+02  0.82976767091E+03  0.89431807073E+03  0.12699999809E+01 0. -1.
</event>
<event>
 5   0  0.3815269E-03  0.9020012E+03  0.7818609E-02  0.9423083E-01
       -2   -1    0    0    0  501  0.00000000000E+00  0.00000000000E+00  0.10994581736E+03  0.10994581739E+03  0.25500000920E-02 0.  1.
        2   -1    0    0  501    0  0.00000000000E+00  0.00000000000E+00 -0.18500162689E+04  0.18500162689E+04  0.25500000920E-02 0. -1.
    10030    2    1    2    0    0  0.00000000000E+00  0.00000000000E+00 -0.17400704516E+04  0.19599620863E+04  0.90200122140E+03 0.  0.
        5    1    3    3  502    0 -0.15928043002E+03 -0.56958251603E+02 -0.17784155726E+04  0.17864485822E+04  0.46999998093E+01 0. -1.
       -5    1    3    3    0  502  0.15928043002E+03  0.56958251603E+02  0.38345121062E+02  0.17351350414E+03  0.46999998093E+01 0.  1.
</event>
<event>
 5   0  0.3806019E-03  0.8981636E+03  0.7818609E-02  0.9427880E-01
        2   -1    0    0  501    0  0.00000000000E+00  0.00000000000E+00  0.20779207760E+04  0.20779207760E+04  0.25500000920E-02 0.  1.
       -2   -1    0    0    0  501  0.00000000000E+00  0.00000000000E+00 -0.97055899688E+02  0.97055899721E+02  0.25500000920E-02 0. -1.
    10030    2    1    2    0    0  0.00000000000E+00  0.00000000000E+00  0.19808648764E+04  0.21749766758E+04  0.89816361636E+03 0.  0.
        2    1    3    3  502    0  0.16567615338E+03  0.15439351035E+03  0.19295208856E+04  0.19427652436E+04  0.25500000920E-02 0.  1.
       -2    1    3    3    0  502 -0.16567615338E+03 -0.15439351035E+03  0.51343990779E+02  0.23221143217E+03  0.25500000920E-02 0. -1.
</event>
<event>
 5   0  0.3806019E-03  0.9015823E+03  0.7818609E-02  0.9423606E-01
        2   -1    0    0  501    0  0.00000000000E+00  0.00000000000E+00  0.31037122327E+03  0.31037122328E+03  0.25500000920E-02 0. -1.
       -2   -1    0    0    0  501  0.00000000000E+00  0.00000000000E+00 -0.65474063339E+03  0.65474063339E+03  0.25500000920E-02 0.  1.
    10030    2    1    2    0    0  0.00000000000E+00  0.00000000000E+00 -0.34436941012E+03  0.96511185667E+03  0.90158227870E+03 0.  0.
        2    1    3    3  502    0  0.17036070123E+03 -0.12552809782E+03 -0.59826802288E+03  0.63459018199E+03  0.25500000920E-02 0.  1.
       -2    1    3    3    0  502 -0.17036070123E+03  0.12552809782E+03  0.25389861277E+03  0.33052167468E+03  0.25500000920E-02 0. -1.
</event>
<event>
 5   0  0.2129280E-03  0.8887876E+03  0.7818609E-02  0.9439707E-01
        1   -1    0    0  501    0  0.00000000000E+00  0.00000000000E+00  0.10037404623E+04  0.10037404623E+04  0.50400001928E-02 0.  1.
       -1   -1    0    0    0  501  0.00000000000E+00  0.00000000000E+00 -0.19674992110E+03  0.19674992117E+03  0.50400001928E-02 0. -1.
    10030    2    1    2    0    0  0.00000000000E+00  0.00000000000E+00  0.80699054118E+03  0.12004903835E+04  0.88878761649E+03 0.  0.
        3    1    3    3  502    0  0.40195201354E+03  0.16030288611E+03  0.26692424144E+03  0.50843976768E+03  0.10100000352E+00 0. -1.
       -3    1    3    3    0  502 -0.40195201354E+03 -0.16030288611E+03  0.54006629974E+03  0.69205061578E+03  0.10100000352E+00 0.  1.
</event>
<event>
 5   0  0.2074970E-03  0.9010543E+03  0.7818609E-02  0.9424264E-01
       -1   -1    0    0    0  501  0.00000000000E+00  0.00000000000E+00  0.14281149544E+03  0.14281149553E+03  0.50400001928E-02 0. -1.
        1   -1    0    0  501    0  0.00000000000E+00  0.00000000000E+00 -0.14212771197E+04  0.14212771197E+04  0.50400001928E-02 0.  1.
    10030    2    1    2    0    0  0.00000000000E+00  0.00000000000E+00 -0.12784656242E+04  0.15640886152E+04  0.90105429574E+03 0.  0.
        2    1    3    3  502    0 -0.22912756118E+03  0.31399477683E+03 -0.24384702155E+03  0.45886112179E+03  0.25500000920E-02 0. -1.
       -2    1    3    3    0  502  0.22912756118E+03 -0.31399477683E+03 -0.10346186027E+04  0.11052274934E+04  0.25500000920E-02 0.  1.
</event>
<event>
 5   0  0.3685879E-03  0.8967766E+03  0.7818609E-02  0.9429620E-01
        2   -1    0    0  501    0  0.00000000000E+00  0.00000000000E+00  0.64187429313E+03  0.64187429314E+03  0.25500000920E-02 0. -1.
       -2   -1    0    0    0  501  0.00000000000E+00  0.00000000000E+00 -0.31322653436E+03  0.31322653437E+03  0.25500000920E-02 0.  1.
    10030    2    1    2    0    0  0.00000000000E+00  0.00000000000E+00  0.32864775877E+03  0.95510082751E+03  0.89677658387E+03 0.  0.
        1    1    3    3  502    0  0.38582998948E+03 -0.10067469286E+02  0.40739040586E+03  0.56118898558E+03  0.50400001928E-02 0. -1.
       -1    1    3    3    0  502 -0.38582998948E+03  0.10067469286E+02 -0.78742647083E+02  0.39391184194E+03  0.50400001928E-02 0.  1.
</event>
<event>
 5   0  0.1436000E-03  0.9005269E+03  0.7818609E-02  0.9424923E-01
        4   -1    0    0  501    0  0.00000000000E+00  0.00000000000E+00  0.46733059352E+03  0.46733231917E+03  0.12699999809E+01 0.  1.
       -4   -1    0    0    0  501  0.00000000000E+00  0.00000000000E+00 -0.43381612973E+03  0.43381798869E+03  0.12699999809E+01 0. -1.
    10030    2    1    2    0    0  0.00000000000E+00  0.00000000000E+00  0.33514463785E+02  0.90115030786E+03  0.90052687804E+03 0.  0.
        5    1    3    3  502    0 -0.18302354971E+03 -0.40373644696E+03 -0.62128403339E+02  0.44764133729E+03  0.46999998093E+01 0. -1.
       -5    1    3    3    0  502  0.18302354971E+03  0.40373644696E+03  0.95642867124E+02  0.45350897057E+03  0.46999998093E+01 0.  1.
</event>
<event>
 5   0  0.2130975E-03  0.9001862E+03  0.7818609E-02  0.9425349E-01
       -1   -1    0    0    0  501  0.00000000000E+00  0.00000000000E+00  0.27843550853E+03  0.27843550857E+03  0.50400001928E-02 0. -1.
        1   -1    0    0  501    0  0.00000000000E+00  0.00000000000E+00 -0.72757892443E+03  0.72757892444E+03  0.50400001928E-02 0.  1.
    10030    2    1    2    0    0  0.00000000000E+00  0.00000000000E+00 -0.44914341590E+03  0.10060144330E+04  0.90018622040E+03 0.  0.
        5    1    3    3  502    0  0.20949667077E+03 -0.17024370642E+03 -0.62703381894E+03  0.68268973534E+03  0.46999998093E+01 0.  1.
       -5    1    3    3    0  502 -0.20949667077E+03  0.17024370642E+03  0.17789040304E+03  0.32332469768E+03  0.46999998093E+01 0. -1.
</event>
<event>
 5   0  0.3815269E-03  0.8965278E+03  0.7818609E-02  0.9429932E-01
       -2   -1    0    0    0  501  0.00000000000E+00  0.00000000000E+00  0.63344988012E+03  0.63344988013E+03  0.25500000920E-02 0. -1.
        2   -1    0    0  501    0  0.00000000000E+00  0.00000000000E+00 -0.31721613361E+03  0.31721613362E+03  0.25500000920E-02 0.  1.
    10030    2    1    2    0    0  0.00000000000E+00  0.00000000000E+00  0.31623374651E+03  0.95066601375E+03  0.89652779504E+03 0.  0.
        5    1    3    3  502    0  0.23828712510E+03  0.19577709147E+03 -0.18680880870E+03  0.36059540282E+03  0.46999998093E+01 0.  1.
       -5    1    3    3    0  502 -0.23828712510E+03 -0.19577709147E+03  0.50304255521E+03  0.59007061093E+03  0.46999998093E+01 0. -1.
</event>
<event>
 5   0  0.2074970E-03  0.9003004E+03  0.7818609E-02  0.9425206E-01
        1   -1    0    0  501    0  0.00000000000E+00  0.00000000000E+00  0.59690983604E+03  0.59690983606E+03  0.50400001928E-02 0.  1.
       -1   -1    0    0    0  501  0.00000000000E+00  0.00000000000E+00 -0.33947375120E+03  0.33947375124E+03  0.50400001928E-02 0. -1.
    10030    2    1    2    0    0  0.00000000000E+00  0.00000000000E+00  0.25743608484E+03  0.93638358730E+03  0.90030044140E+03 0.  0.
        2    1    3    3  502    0 -0.22892919998E+03 -0.25722514424E+01 -0.27439815286E+03  0.35736471759E+03  0.25500000920E-02 0. -1.
       -2    1    3    3    0  502  0.22892919998E+03  0.25722514424E+01  0.53183423770E+03  0.57901886971E+03  0.25500000920E-02 0.  1.
</event>
<event>
 5   0  0.2129280E-03  0.9012400E+03  0.7818609E-02  0.9424033E-01
       -1   -1    0    0    0  501  0.00000000000E+00  0.00000000000E+00  0.27696321725E+03  0.27696321729E+03  0.50400001928E-02 0. -1.
        1   -1    0    0  501    0  0.00000000000E+00  0.00000000000E+00 -0.73316011788E+03  0.73316011790E+03  0.50400001928E-02 0.  1.
    10030    2    1    2    0    0  0.00000000000E+00  0.00000000000E+00 -0.45619690064E+03  0.10101233352E+04  0.90124000142E+03 0.  0.
        3    1    3    3  502    0  0.16475185916E+03  0.16143257608E+03 -0.66197798150E+03  0.70101248912E+03  0.10100000352E+00 0.  1.
       -3    1    3    3    0  502 -0.16475185916E+03 -0.16143257608E+03  0.20578108086E+03  0.30911084607E+03  0.10100000352E+00 0. -1.
</event>
<event>
 5   0  0.2129280E-03  0.8997442E+03  0.7818609E-02  0.9425901E-01
       -1   -1    0    0    0  501  0.00000000000E+00  0.00000000000E+00  0.77840245490E+03  0.77840245492E+03  0.50400001928E-02 0.  1.
        1   -1    0    0  501    0  0.00000000000E+00  0.00000000000E+00 -0.26000032836E+03  0.26000032840E+03  0.50400001928E-02 0. -1.
    10030    2    1    2    0    0  0.00000000000E+00  0.00000000000E+00  0.51840212655E+03  0.10384027833E+04  0.89974417231E+03 0.  0.
        3    1    3    3  502    0  0.61216421034E+02 -0.30876892516E+03  0.63013387139E+03  0.70438228642E+03  0.10100000352E+00 0.  1.
       -3    1    3    3    0  502 -0.61216421034E+02  0.30876892516E+03 -0.11173174484E+03  0.33402049690E+03  0.10100000352E+00 0. -1.
</event>
<event>
 5   0  0.3806019E-03  0.8996717E+03  0.7818609E-02  0.9425992E-01
        2   -1    0    0  501    0  0.00000000000E+00  0.00000000000E+00  0.82607922753E+03  0.82607922754E+03  0.25500000920E-02 0.  1.
       -2   -1    0    0    0  501  0.00000000000E+00  0.00000000000E+00 -0.24495506399E+03  0.24495506401E+03  0.25500000920E-02 0. -1.
    10030    2    1    2    0    0  0.00000000000E+00  0.00000000000E+00  0.58112416354E+03  0.10710342915E+04  0.89967169579E+03 0.  0.
        2    1    3    3  502    0  0.53070664552E+02  0.11896130495E+03  0.80313475119E+03  0.81362996263E+03  0.25500000920E-02 0.  1.
       -2    1    3    3    0  502 -0.53070664552E+02 -0.11896130495E+03 -0.22201058765E+03  0.25740432892E+03  0.25500000920E-02 0. -1.
</event>
<event>
 5   0  0.3626546E-03  0.9013794E+03  0.7818609E-02  0.9423859E-01
       -2   -1    0    0    0  501  0.00000000000E+00  0.00000000000E+00  0.28600283927E+03  0.28600283928E+03  0.25500000920E-02 0.  1.
        2   -1    0    0  501    0  0.00000000000E+00  0.00000000000E+00 -0.71020688821E+03  0.71020688821E+03  0.25500000920E-02 0. -1.
    10030    2    1    2    0    0  0.00000000000E+00  0.00000000000E+00 -0.42420404894E+03  0.99620972750E+03  0.90137935744E+03 0.  0.
        3    1    3    3  502    0 -0.77471446600E+02  0.96907796788E+02 -0.69096136487E+03  0.70201179766E+03  0.10100000352E+00 0. -1.
       -3    1    3    3    0  502  0.77471446600E+02 -0.96907796788E+02  0.26675731593E+03  0.29419792983E+03  0.10100000352E+00 0.  1.
</event>
<event>
 5   0  0.2129280E-03  0.8987306E+03  0.7818609E-02  0.9427170E-01
       -1   -1    0    0    0  501  0.00000000000E+00  0.00000000000E+00  0.86484514958E+03  0.86484514960E+03  0.50400001928E-02 0. -1.
        1   -1    0    0  501    0  0.00000000000E+00  0.00000000000E+00 -0.23348595338E+03  0.23348595343E+03  0.50400001928E-02 0.  1.
    10030    2    1    2    0    0  0.00000000000E+00  0.00000000000E+00  0.63135919621E+03  0.10983311030E+04  0.89873064777E+03 0.  0.
        3    1    3    3  502    0 -0.36267608893E+03 -0.29526383055E+02  0.63791208993E+03  0.73439607669E+03  0.10100000352E+00 0. -1.
       -3    1    3    3    0  502  0.36267608893E+03  0.29526383055E+02 -0.65528937223E+01  0.36393502634E+03  0.10100000352E+00 0.  1.
</event>
<event>
 5   0  0.3685879E-03  0.8980297E+03  0.7818609E-02  0.9428048E-01
       -2   -1    0    0    0  501  0.00000000000E+00  0.00000000000E+00  0.34653195268E+03  0.34653195269E+03  0.25500000920E-02 0.  1.
        2   -1    0    0  501    0  0.00000000000E+00  0.00000000000E+00 -0.58180586451E+03  0.58180586451E+03  0.25500000920E-02 0. -1.
    10030    2    1    2    0    0  0.00000000000E+00  0.00000000000E+00 -0.23527391183E+03  0.92833781721E+03  0.89802967059E+03 0.  0.
        1    1    3    3  502    0 -0.35433823699E+03  0.25961173370E+03 -0.21434439095E+02  0.43978775980E+03  0.50400001928E-02 0.  1.
       -1    1    3    3    0  502  0.35433823699E+03 -0.25961173370E+03 -0.21383947273E+03  0.48855005740E+03  0.50400001928E-02 0. -1.
</event>
<event>
 5   0  0.3685879E-03  0.9018153E+03  0.7818609E-02  0.9423315E-01
        2   -1    0    0  501    0  0.00000000000E+00  0.00000000000E+00  0.13001075339E+04  0.13001075339E+04  0.25500000920E-02 0. -1.
       -2   -1    0    0    0  501  0.00000000000E+00  0.00000000000E+00 -0.15638528836E+03  0.15638528838E+03  0.25500000920E-02 0.  1.
    10030    2    1    2    0    0  0.00000000000E+00  0.00000000000E+00  0.11437222456E+04  0.14564928223E+04  0.90181526180E+03 0.  0.
        1    1    3    3  502    0 -0.20978720913E+03  0.34262014861E+03  0.90253005067E+03  0.98790674243E+03  0.50400001928E-02 0. -1.
       -1    1    3    3    0  502  0.20978720913E+03 -0.34262014861E+03  0.24119219488E+03  0.46858607986E+03  0.50400001928E-02 0.  1.
</event>
<event>
 5   0  0.3815269E-03  0.9017838E+03  0.7818609E-02  0.9423354E-01
        2   -1    0    0  501    0  0.00000000000E+00  0.00000000000E+00  0.44542494577E+03  0.44542494578E+03  0.25500000920E-02 0. -1.
       -2   -1    0    0    0  501  0.00000000000E+00  0.00000000000E+00 -0.45642590943E+03  0.45642590944E+03  0.25500000920E-02 0.  1.
    10030    2    1    2    0    0  0.00000000000E+00  0.00000000000E+00 -0.11000963661E+02  0.90185085522E+03  0.90178375670E+03 0.  0.
        5    1    3    3  502    0 -0.16422611672E+03  0.40740517714E+03  0.96154512224E+02  0.44968541892E+03  0.46999998093E+01 0.  1.
       -5    1    3    3    0  502  0.16422611672E+03 -0.40740517714E+03 -0.10715547588E+03  0.45216543630E+03  0.46999998093E+01 0. -1.
</event>
<event>
 5   0  0.3626546E-03  0.8985842E+03  0.7818609E-02  0.9427353E-01
       -2   -1    0    0    0  501  0.00000000000E+00  0.00000000000E+00  0.12047765694E+03  0.12047765696E+03  0.25500000920E-02 0.  1.
        2   -1    0    0  501    0  0.00000000000E+00  0.00000000000E+00 -0.16755253848E+04  0.16755253848E+04  0.25500000920E-02 0. -1.
    10030    2    1    2    0    0  0.00000000000E+00  0.00000000000E+00 -0.15550477279E+04  0.17960030418E+04  0.89858415861E+03 0.  0.
        3    1    3    3  502    0 -0.92323789245E+02 -0.43400906304E+03 -0.63653644648E+03  0.77592925371E+03  0.10100000352E+00 0. -1.
       -3    1    3    3    0  502  0.92323789245E+02  0.43400906304E+03 -0.91851128138E+03  0.10200737881E+04  0.10100000352E+00 0.  1.
</event>
<event>
 5   0  0.2134145E-03  0.9017766E+03  0.7818609E-02  0.9423363E-01
       -1   -1    0    0    0  501  0.00000000000E+00  0.00000000000E+00  0.55434994138E+03  0.55434994140E+03  0.50400001928E-02 0.  1.
        1   -1    0    0  501    0  0.00000000000E+00  0.00000000000E+00 -0.36673632947E+03  0.36673632950E+03  0.50400001928E-02 0. -1.
    10030    2    1    2    0    0  0.00000000000E+00  0.00000000000E+00  0.18761361191E+03  0.92108627090E+03  0.90177660818E+03 0.  0.
        1    1    3    3  502    0 -0.19103669954E+03 -0.35043441601E+03  0.30806252858E+03  0.50418431355E+03  0.50400001928E-02 0.  1.
       -1    1    3    3    0  502  0.19103669954E+03  0.35043441601E+03 -0.12044891666E+03  0.41690195735E+03  0.50400001928E-02 0. -1.
</event>
<event>
 5   0  0.2134145E-03  0.9092195E+03  0.7818609E-02  0.9414129E-01
        1   -1    0    0  501    0  0.00000000000E+00  0.00000000000E+00  0.67163680786E+03  0.67163680788E+03  0.50400001928E-02 0.  1.
       -1   -1    0    0    0  501  0.00000000000E+00  0.00000000000E+00 -0.30771100519E+03  0.30771100524E+03  0.50400001928E-02 0. -1.
    10030    2    1    2    0    0  0.00000000000E+00  0.00000000000E+00  0.36392580267E+03  0.97934781312E+03  0.90921952751E+03 0.  0.
        1    1    3    3  502    0  0.32036558785E+02 -0.62180363874E+02  0.66580578172E+03  0.66946999764E+03  0.50400001928E-02 0.  1.
       -1    1    3    3    0  502 -0.32036558785E+02  0.62180363874E+02 -0.30187997905E+03  0.30987781548E+03  0.50400001928E-02 0. -1.
</event>
<event>
 5   0  0.2134145E-03  0.9011577E+03  0.7818609E-02  0.9424135E-01
       -1   -1    0    0    0  501  0.00000000000E+00  0.00000000000E+00  0.23558268400E+03  0.23558268406E+03  0.50400001928E-02 0. -1.
        1   -1    0    0  501    0  0.00000000000E+00  0.00000000000E+00 -0.86178358225E+03  0.86178358227E+03  0.50400001928E-02 0.  1.
    10030    2    1    2    0    0  0.00000000000E+00  0.00000000000E+00 -0.62620089825E+03  0.10973662663E+04  0.90115767627E+03 0.  0.
        1    1    3    3  502    0 -0.43424181965E+03 -0.10702439724E+03 -0.24639032294E+03  0.51061567818E+03  0.50400001928E-02 0. -1.
       -1    1    3    3    0  502  0.43424181965E+03  0.10702439724E+03 -0.37981057531E+03  0.58675058814E+03  0.50400001928E-02 0.  1.
</event>
<event>
 5   0  0.3815269E-03  0.8992135E+03  0.7818609E-02  0.9426565E-01
       -2   -1    0    0    0  501  0.00000000000E+00  0.00000000000E+00  0.52007435402E+03  0.52007435403E+03  0.25500000920E-02 0. -1.
        2   -1    0    0  501    0  0.00000000000E+00  0.00000000000E+00 -0.38868717658E+03  0.38868717659E+03  0.25500000920E-02 0.  1.
    10030    2    1    2    0    0  0.00000000000E+00  0.00000000000E+00  0.13138717744E+03  0.90876153062E+03  0.89921350587E+03 0.  0.
        5    1    3    3  502    0  0.18268048314E+03  0.28318957585E+03  0.36643639269E+03  0.49786164210E+03  0.46999998093E+01 0. -1.
       -5    1    3    3    0  502 -0.18268048314E+03 -0.28318957585E+03 -0.23504921525E+03  0.41089988851E+03  0.46999998093E+01 0.  1.
</event>
<event>
 5   0  0.3685879E-03  0.9171944E+03  0.7818609E-02  0.9404339E-01
       -2   -1    0    0    0  501  0.00000000000E+00  0.00000000000E+00  0.18679910360E+03  0.18679910362E+03  0.25500000920E-02 0. -1.
        2   -1    0    0  501    0  0.00000000000E+00  0.00000000000E+00 -0.11258693540E+04  0.11258693540E+04  0.25500000920E-02 0.  1.
    10030    2    1    2    0    0  0.00000000000E+00  0.00000000000E+00 -0.93907025039E+03  0.13126684576E+04  0.91719438749E+03 0.  0.
        1    1    3    3  502    0  0.37438303661E+03  0.21433968535E+03 -0.24686283039E+03  0.49703663433E+03  0.50400001928E-02 0. -1.
       -1    1    3    3    0  502 -0.37438303661E+03 -0.21433968535E+03 -0.69220742000E+03  0.81563182328E+03  0.50400001928E-02 0.  1.
</event>
<event>
 5   0  0.2130975E-03  0.8953410E+03  0.7818609E-02  0.9431424E-01
        1   -1    0    0  501    0  0.00000000000E+00  0.00000000000E+00  0.32581920748E+03  0.32581920752E+03  0.50400001928E-02 0.  1.
       -1   -1    0    0    0  501  0.00000000000E+00  0.00000000000E+00 -0.61509231739E+03  0.61509231742E+03  0.50400001928E-02 0. -1.
    10030    2    1    2    0    0  0.00000000000E+00  0.00000000000E+00 -0.28927310992E+03  0.94091152493E+03  0.89534103314E+03 0.  0.
        5    1    3    3  502    0  0.27762314385E+03  0.38863040084E+02  0.22212791053E+03  0.35769797948E+03  0.46999998093E+01 0.  1.
       -5    1    3    3    0  502 -0.27762314385E+03 -0.38863040084E+02 -0.51140102045E+03  0.58321354545E+03  0.46999998093E+01 0. -1.
</event>
<event>
 5   0  0.2129280E-03  0.9071406E+03  0.7818609E-02  0.9416699E-01
        1   -1    0    0  501    0  0.00000000000E+00  0.00000000000E+00  0.10308007798E+04  0.10308007798E+04  0.50400001928E-02 0.  1.
       -1   -1    0    0    0  501  0.00000000000E+00  0.00000000000E+00 -0.19957882662E+03  0.19957882668E+03  0.50400001928E-02 0. -1.
    10030    2    1    2    0    0  0.00000000000E+00  0.00000000000E+00  0.83122195321E+03  0.12303796065E+04  0.90714058484E+03 0.  0.
        3    1    3    3  502    0 -0.29373833819E+03  0.28478010178E+03  0.68120218848E+03  0.79461836720E+03  0.10100000352E+00 0.  1.
       -3    1    3    3    0  502  0.29373833819E+03 -0.28478010178E+03  0.15001976473E+03  0.43576123933E+03  0.10100000352E+00 0. -1.
</event>
<event>
 5   0  0.3685879E-03  0.8969403E+03  0.7818609E-02  0.9429414E-01
       -2   -1    0    0    0  501  0.00000000000E+00  0.00000000000E+00  0.23522741127E+03  0.23522741128E+03  0.25500000920E-02 0. -1.
        2   -1    0    0  501    0  0.00000000000E+00  0.00000000000E+00 -0.85502565265E+03  0.85502565265E+03  0.25500000920E-02 0.  1.
    10030    2    1    2    0    0  0.00000000000E+00  0.00000000000E+00 -0.61979824138E+03  0.10902530639E+04  0.89694028976E+03 0.  0.
        1    1    3    3  502    0 -0.16029499456E+03 -0.30786199734E+03  0.35301278871E+02  0.34888346909E+03  0.50400001928E-02 0. -1.
       -1    1    3    3    0  502  0.16029499456E+03  0.30786199734E+03 -0.65509952025E+03  0.74136959484E+03  0.50400001928E-02 0.  1.
</event>
<event>
 5   0  0.2134145E-03  0.8980597E+03  0.7818609E-02  0.9428010E-01
       -1   -1    0    0    0  501  0.00000000000E+00  0.00000000000E+00  0.27533775315E+03  0.27533775320E+03  0.50400001928E-02 0.  1.
        1   -1    0    0  501    0  0.00000000000E+00  0.00000000000E+00 -0.73229261871E+03  0.73229261873E+03  0.50400001928E-02 0. -1.
    10030    2    1    2    0    0  0.00000000000E+00  0.00000000000E+00 -0.45695486556E+03  0.10076303719E+04  0.89805969583E+03 0.  0.
        1    1    3    3  502    0  0.34349062613E+03  0.26320811259E+03 -0.94007269072E+02  0.44283370179E+03  0.50400001928E-02 0.  1.
       -1    1    3    3    0  502 -0.34349062613E+03 -0.26320811259E+03 -0.36294759649E+03  0.56479667014E+03  0.50400001928E-02 0. -1.
</event>
<event>
 5   0  0.2074970E-03  0.8933739E+03  0.7818609E-02  0.9433902E-01
        1   -1    0    0  501    0  0.00000000000E+00  0.00000000000E+00  0.11529871000E+04  0.11529871000E+04  0.50400001928E-02 0.  1.
       -1   -1    0    0    0  501  0.00000000000E+00  0.00000000000E+00 -0.17305419102E+03  0.17305419109E+03  0.50400001928E-02 0. -1.
    10030    2    1    2    0    0  0.00000000000E+00  0.00000000000E+00  0.97993290897E+03  0.13260412911E+04  0.89337394163E+03 0.  0.
        2    1    3    3  502    0 -0.22960512513E+03 -0.11420193074E+03 -0.52909927420E+02  0.26183975042E+03  0.25500000920E-02 0. -1.
       -2    1    3    3    0  502  0.22960512513E+03  0.11420193074E+03  0.10328428364E+04  0.10642015407E+04  0.25500000920E-02 0.  1.
</event>
<event>
 5   0  0.2295158E-03  0.9013544E+03  0.7818609E-02  0.9423890E-01
       -1   -1    0    0    0  501  0.00000000000E+00  0.00000000000E+00  0.50914622431E+03  0.50914622434E+03  0.50400001928E-02 0.  1.
        1   -1    0    0  501    0  0.00000000000E+00  0.00000000000E+00 -0.39892258797E+03  0.39892258801E+03  0.50400001928E-02 0. -1.
    10030    2    1    2    0    0  0.00000000000E+00  0.00000000000E+00  0.11022363634E+03  0.90806881234E+03  0.90135437978E+03 0.  0.
        4    1    3    3  502    0 -0.31399765240E+03 -0.75319420194E+02 -0.26161968326E+03  0.41558875386E+03  0.12699999809E+01 0. -1.
       -4    1    3    3    0  502  0.31399765240E+03  0.75319420194E+02  0.37184331960E+03  0.49248005848E+03  0.12699999809E+01 0.  1.
</event>
<event>
 5   0  0.2074970E-03  0.8975736E+03  0.7818609E-02  0.9428620E-01
       -1   -1    0    0    0  501  0.00000000000E+00  0.00000000000E+00  0.10894744074E+03  0.10894744086E+03  0.50400001928E-02 0.  1.
        1   -1    0    0  501    0  0.00000000000E+00  0.00000000000E+00 -0.18486859286E+04  0.18486859286E+04  0.50400001928E-02 0. -1.
    10030    2    1    2    0    0  0.00000000000E+00  0.00000000000E+00 -0.17397384878E+04  0.19576333694E+04  0.89757361988E+03 0.  0.
        2    1    3    3  502    0  0.99950340095E+01  0.36803183181E+03 -0.14296005908E+04  0.14762469912E+04  0.25500000920E-02 0.  1.
       -2    1    3    3    0  502 -0.99950340095E+01 -0.36803183181E+03 -0.31013789704E+03  0.48138637820E+03  0.25500000920E-02 0. -1.
</event>
<event>
 5   0  0.2134145E-03  0.9011429E+03  0.7818609E-02  0.9424154E-01
       -1   -1    0    0    0  501  0.00000000000E+00  0.00000000000E+00  0.32464884597E+03  0.32464884601E+03  0.50400001928E-02 0. -1.
        1   -1    0    0  501    0  0.00000000000E+00  0.00000000000E+00 -0.62533610296E+03  0.62533610298E+03  0.50400001928E-02 0.  1.
    10030    2    1    2    0    0  0.00000000000E+00  0.00000000000E+00 -0.30068725698E+03  0.94998494899E+03  0.90114292806E+03 0.  0.
        1    1    3    3  502    0 -0.33242438150E+03 -0.23329470133E+03 -0.35606735667E+03  0.54010772036E+03  0.50400001928E-02 0.  1.
       -1    1    3    3    0  502  0.33242438150E+03  0.23329470133E+03  0.55380099681E+02  0.40987722863E+03  0.50400001928E-02 0. -1.
</event>
<event>
 5   0  0.2129280E-03  0.8972475E+03  0.7818609E-02  0.9429029E-01
        1   -1    0    0  501    0  0.00000000000E+00  0.00000000000E+00  0.83688037303E+03  0.83688037304E+03  0.50400001928E-02 0.  1.
       -1   -1    0    0    0  501  0.00000000000E+00  0.00000000000E+00 -0.24049229525E+03  0.24049229531E+03  0.50400001928E-02 0. -1.
    10030    2    1    2    0    0  0.00000000000E+00  0.00000000000E+00  0.59638807778E+03  0.10773726684E+04  0.89724752839E+03 0.  0.
        3    1    3    3  502    0 -0.18268630812E+03  0.37485817133E+03  0.49684640678E+03  0.64865190813E+03  0.10100000352E+00 0.  1.
       -3    1    3    3    0  502  0.18268630812E+03 -0.37485817133E+03  0.99541670994E+02  0.42872076023E+03  0.10100000352E+00 0. -1.
</event>
<event>
 5   0  0.2295158E-03  0.8974579E+03  0.7818609E-02  0.9428765E-01
        1   -1    0    0  501    0  0.00000000000E+00  0.00000000000E+00  0.50411976376E+03  0.50411976378E+03  0.50400001928E-02 0. -1.
       -1   -1    0    0    0  501  0.00000000000E+00  0.00000000000E+00 -0.39942428809E+03  0.39942428812E+03  0.50400001928E-02 0.  1.
    10030    2    1    2    0    0  0.00000000000E+00  0.00000000000E+00  0.10469547567E+03  0.90354405190E+03  0.89745791606E+03 0.  0.
        4    1    3    3  502    0  0.85676007945E+02 -0.42137798312E+03  0.18149972643E+03  0.46673712793E+03  0.12699999809E+01 0. -1.
       -4    1    3    3    0  502 -0.85676007945E+02  0.42137798312E+03 -0.76804250763E+02  0.43680692397E+03  0.12699999809E+01 0.  1.
</event>
<event>
 5   0  0.3815269E-03  0.9012392E+03  0.7818609E-02  0.9424034E-01
        2   -1    0    0  501    0  0.00000000000E+00  0.00000000000E+00  0.17472951915E+04  0.17472951915E+04  0.25500000920E-02 0.  1.
       -2   -1    0    0    0  501  0.00000000000E+00  0.00000000000E+00 -0.11621278722E+03  0.11621278724E+03  0.25500000920E-02 0. -1.
    10030    2    1    2    0    0  0.00000000000E+00  0.00000000000E+00  0.16310824043E+04  0.18635079788E+04  0.90123924532E+03 0.  0.
        5    1    3    3  502    0  0.40683611966E+03 -0.74088489535E+02  0.11856061180E+04  0.12556626496E+04  0.46999998093E+01 0. -1.
       -5    1    3    3    0  502 -0.40683611966E+03  0.74088489535E+02  0.44547628630E+03  0.60784532917E+03  0.46999998093E+01 0.  1.
</event>
<event>
 5   0  0.2074970E-03  0.9053532E+03  0.7818609E-02  0.9418914E-01
        1   -1    0    0  501    0  0.00000000000E+00  0.00000000000E+00  0.60067000196E+03  0.60067000198E+03  0.50400001928E-02 0.  1.
       -1   -1    0    0    0  501  0.00000000000E+00  0.00000000000E+00 -0.34114586742E+03  0.34114586746E+03  0.50400001928E-02 0. -1.
    10030    2    1    2    0    0  0.00000000000E+00  0.00000000000E+00  0.25952413454E+03  0.94181586944E+03  0.90535316619E+03 0.  0.
        2    1    3    3  502    0 -0.12462025719E+03  0.26839756162E+03 -0.22659632406E+03  0.37271081775E+03  0.25500000920E-02 0. -1.
       -2    1    3    3    0  502  0.12462025719E+03 -0.26839756162E+03  0.48612045860E+03  0.56910505169E+03  0.25500000920E-02 0.  1.
</event>
<event>
 5   0  0.2129280E-03  0.9017346E+03  0.7818609E-02  0.9423416E-01
        1   -1    0    0  501    0  0.00000000000E+00  0.00000000000E+00  0.14996584599E+04  0.14996584599E+04  0.50400001928E-02 0. -1.
       -1   -1    0    0    0  501  0.00000000000E+00  0.00000000000E+00 -0.13555173357E+03  0.13555173366E+03  0.50400001928E-02 0.  1.
    10030    2    1    2    0    0  0.00000000000E+00  0.00000000000E+00  0.13641067263E+04  0.16352101935E+04  0.90173455979E+03 0.  0.
        3    1    3    3  502    0 -0.59014269191E+02 -0.84841586785E+02  0.14778893858E+04  0.14814985068E+04  0.10100000352E+00 0. -1.
       -3    1    3    3    0  502  0.59014269191E+02  0.84841586785E+02 -0.11378265953E+03  0.15371168670E+03  0.10100000352E+00 0.  1.
</event>
<event>
 5   0  0.2074970E-03  0.8981461E+03  0.7818609E-02  0.9427902E-01
       -1   -1    0    0    0  501  0.00000000000E+00  0.00000000000E+00  0.22343590705E+03  0.22343590711E+03  0.50400001928E-02 0. -1.
        1   -1    0    0  501    0  0.00000000000E+00  0.00000000000E+00 -0.90257027186E+03  0.90257027188E+03  0.50400001928E-02 0.  1.
    10030    2    1    2    0    0  0.00000000000E+00  0.00000000000E+00 -0.67913436481E+03  0.11260061790E+04  0.89814610707E+03 0.  0.
        2    1    3    3  502    0  0.24752573202E+03  0.53016046260E+01 -0.80927758391E+03  0.84630213449E+03  0.25500000920E-02 0.  1.
       -2    1    3    3    0  502 -0.24752573202E+03 -0.53016046260E+01  0.13014321910E+03  0.27970404449E+03  0.25500000920E-02 0. -1.
</event>
<event>
 5   0  0.3685879E-03  0.9010396E+03  0.7818609E-02  0.9424283E-01
        2   -1    0    0  501    0  0.00000000000E+00  0.00000000000E+00  0.14112668511E+04  0.14112668511E+04  0.25500000920E-02 0.  1.
       -2   -1    0    0    0  501  0.00000000000E+00  0.00000000000E+00 -0.14381977505E+03  0.14381977507E+03  0.25500000920E-02 0. -1.
    10030    2    1    2    0    0  0.00000000000E+00  0.00000000000E+00  0.12674470760E+04  0.15550866261E+04  0.90103957976E+03 0.  0.
        1    1    3    3  502    0  0.36708036383E+03 -0.16500809879E+03  0.28429170240E+03  0.49274480033E+03  0.50400001928E-02 0. -1.
       -1    1    3    3    0  502 -0.36708036383E+03  0.16500809879E+03  0.98315537362E+03  0.10623418258E+04  0.50400001928E-02 0.  1.
</event>
<event>
 5   0  0.1436000E-03  0.8981516E+03  0.7818609E-02  0.9427895E-01
       -3   -1    0    0    0  501  0.00000000000E+00  0.00000000000E+00  0.75664355862E+03  0.75664356536E+03  0.10100000352E+00 0. -1.
        3   -1    0    0  501    0  0.00000000000E+00  0.00000000000E+00 -0.26653115265E+03  0.26653117179E+03  0.10100000352E+00 0.  1.
    10030    2    1    2    0    0  0.00000000000E+00  0.00000000000E+00  0.49011240596E+03  0.10231747371E+04  0.89815164213E+03 0.  0.
        5    1    3    3  502    0  0.33796408577E+03  0.29334509290E+03  0.28731326506E+03  0.53182898480E+03  0.46999998093E+01 0. -1.
       -5    1    3    3    0  502 -0.33796408577E+03 -0.29334509290E+03  0.20279914091E+03  0.49134575235E+03  0.46999998093E+01 0.  1.
</event>
<event>
 5   0  0.2134145E-03  0.8998430E+03  0.7818609E-02  0.9425778E-01
        1   -1    0    0  501    0  0.00000000000E+00  0.00000000000E+00  0.11842668589E+04  0.11842668589E+04  0.50400001928E-02 0. -1.
       -1   -1    0    0    0  501  0.00000000000E+00  0.00000000000E+00 -0.17093222127E+03  0.17093222135E+03  0.50400001928E-02 0.  1.
    10030    2    1    2    0    0  0.00000000000E+00  0.00000000000E+00  0.10133346376E+04  0.13551990803E+04  0.89984301927E+03 0.  0.
        1    1    3    3  502    0  0.30335056464E+03  0.32918406259E+03  0.43855082348E+03  0.62666620855E+03  0.50400001928E-02 0.  1.
       -1    1    3    3    0  502 -0.30335056464E+03 -0.32918406259E+03  0.57478381415E+03  0.72853287171E+03  0.50400001928E-02 0. -1.
</event>
<event>
 5   0  0.3806019E-03  0.8990234E+03  0.7818609E-02  0.9426803E-01
       -2   -1    0    0    0  501  0.00000000000E+00  0.00000000000E+00  0.22015870674E+03  0.22015870676E+03  0.25500000920E-02 0.  1.
        2   -1    0    0  501    0  0.00000000000E+00  0.00000000000E+00 -0.91779597082E+03  0.91779597083E+03  0.25500000920E-02 0. -1.
    10030    2    1    2    0    0  0.00000000000E+00  0.00000000000E+00 -0.69763726408E+03  0.11379546776E+04  0.89902341237E+03 0.  0.
        2    1    3    3  502    0 -0.32620229779E+03  0.26013669610E+03 -0.56055296126E+03  0.69878370196E+03  0.25500000920E-02 0.  1.
       -2    1    3    3    0  502  0.32620229779E+03 -0.26013669610E+03 -0.13708430282E+03  0.43917097562E+03  0.25500000920E-02 0. -1.
</event>
<event>
 5   0  0.2130975E-03  0.9036300E+03  0.7818609E-02  0.9421055E-01
        1   -1    0    0  501    0  0.00000000000E+00  0.00000000000E+00  0.19111466493E+04  0.19111466493E+04  0.50400001928E-02 0. -1.
       -1   -1    0    0    0  501  0.00000000000E+00  0.00000000000E+00 -0.10681377871E+03  0.10681377883E+03  0.50400001928E-02 0.  1.
    10030    2    1    2    0    0  0.00000000000E+00  0.00000000000E+00  0.18043328705E+04  0.20179604281E+04  0.90363000260E+03 0.  0.
        5    1    3    3  502    0 -0.69633411865E+02 -0.44613267454E+03  0.93614661656E+03  0.10393631478E+04  0.46999998093E+01 0. -1.
       -5    1    3    3    0  502  0.69633411865E+02  0.44613267454E+03  0.86818625398E+03  0.97859728027E+03  0.46999998093E+01 0.  1.
</event>
<event>
 5   0  0.2295158E-03  0.9345330E+03  0.7818609E-02  0.9383414E-01
        1   -1    0    0  501    0  0.00000000000E+00  0.00000000000E+00  0.22303419481E+03  0.22303419487E+03  0.50400001928E-02 0.  1.
       -1   -1    0    0    0  501  0.00000000000E+00  0.00000000000E+00 -0.97894394242E+03  0.97894394243E+03  0.50400001928E-02 0. -1.
    10030    2    1    2    0    0  0.00000000000E+00  0.00000000000E+00 -0.75590974761E+03  0.12019781373E+04  0.93453298285E+03 0.  0.
        4    1    3    3  502    0 -0.11417411606E+03 -0.32924183019E+03 -0.77832791848E+03  0.85277891221E+03  0.12699999809E+01 0. -1.
       -4    1    3    3    0  502  0.11417411606E+03  0.32924183019E+03  0.22418170874E+02  0.34919922510E+03  0.12699999809E+01 0.  1.
</event>
<event>
 5   0  0.2129280E-03  0.9003124E+03  0.7818609E-02  0.9425191E-01
       -1   -1    0    0    0  501  0.00000000000E+00  0.00000000000E+00  0.43543468418E+03  0.43543468420E+03  0.50400001928E-02 0.  1.
        1   -1    0    0  501    0  0.00000000000E+00  0.00000000000E+00 -0.46537541363E+03  0.46537541365E+03  0.50400001928E-02 0. -1.
    10030    2    1    2    0    0  0.00000000000E+00  0.00000000000E+00 -0.29940729451E+02  0.90081009786E+03  0.90031238197E+03 0.  0.
        3    1    3    3  502    0 -0.37716686682E+03  0.24570810775E+03 -0.18614690389E+02  0.45052617742E+03  0.10100000352E+00 0. -1.
       -3    1    3    3    0  502  0.37716686682E+03 -0.24570810775E+03 -0.11326039062E+02  0.45028392044E+03  0.10100000352E+00 0.  1.
</event>
<event>
 5   0  0.1436000E-03  0.9001868E+03  0.7818609E-02  0.9425348E-01
       -3   -1    0    0    0  501  0.00000000000E+00  0.00000000000E+00  0.56230238147E+03  0.56230239054E+03  0.10100000352E+00 0. -1.
        3   -1    0    0  501    0  0.00000000000E+00  0.00000000000E+00 -0.36027601518E+03  0.36027602933E+03  0.10100000352E+00 0.  1.
    10030    2    1    2    0    0  0.00000000000E+00  0.00000000000E+00  0.20202636629E+03  0.92257841987E+03  0.90018680736E+03 0.  0.
        1    1    3    3  502    0  0.86954030219E+01  0.24366967719E+03  0.48875386517E+03  0.54619672497E+03  0.50400001928E-02 0. -1.
       -1    1    3    3    0  502 -0.86954030219E+01 -0.24366967719E+03 -0.28672749889E+03  0.37638169490E+03  0.50400001928E-02 0.  1.
</event>
<event>
 5   0  0.3626546E-03  0.9150552E+03  0.7818609E-02  0.9406955E-01
        2   -1    0    0  501    0  0.00000000000E+00  0.00000000000E+00  0.48828505167E+03  0.48828505168E+03  0.25500000920E-02 0. -1.
       -2   -1    0    0    0  501  0.00000000000E+00  0.00000000000E+00 -0.42870756617E+03  0.42870756618E+03  0.25500000920E-02 0.  1.
    10030    2    1    2    0    0  0.00000000000E+00  0.00000000000E+00  0.59577485498E+02  0.91699261786E+03  0.91505518108E+03 0.  0.
        3    1    3    3  502    0  0.10046653914E+03 -0.15529411900E+03 -0.38957273469E+03  0.43125017646E+03  0.10100000352E+00 0.  1.
       -3    1    3    3    0  502 -0.10046653914E+03  0.15529411900E+03  0.44915022018E+03  0.48574244140E+03  0.10100000352E+00 0. -1.
</event>
<event>
 5   0  0.3663255E-03  0.9132919E+03  0.7818609E-02  0.9409117E-01
        2   -1    0    0  501    0  0.00000000000E+00  0.00000000000E+00  0.12367641753E+04  0.12367641753E+04  0.25500000920E-02 0. -1.
       -2   -1    0    0    0  501  0.00000000000E+00  0.00000000000E+00 -0.16860573068E+03  0.16860573070E+03  0.25500000920E-02 0.  1.
    10030    2    1    2    0    0  0.00000000000E+00  0.00000000000E+00  0.10681584447E+04  0.14053699060E+04  0.91329190838E+03 0.  0.
        4    1    3    3  502    0  0.41849427692E+03  0.13735952103E+03  0.34866345984E+03  0.56175877293E+03  0.12699999809E+01 0.  1.
       -4    1    3    3    0  502 -0.41849427692E+03 -0.13735952103E+03  0.71949498481E+03  0.84361113311E+03  0.12699999809E+01 0. -1.
</event>
<event>
 5   0  0.2295158E-03  0.8967307E+03  0.7818609E-02  0.9429677E-01
       -1   -1    0    0    0  501  0.00000000000E+00  0.00000000000E+00  0.27670735823E+03  0.27670735827E+03  0.50400001928E-02 0. -1.
        1   -1    0    0  501    0  0.00000000000E+00  0.00000000000E+00 -0.72651294129E+03  0.72651294131E+03  0.50400001928E-02 0.  1.
    10030    2    1    2    0    0  0.00000000000E+00  0.00000000000E+00 -0.44980558307E+03  0.10032202996E+04  0.89673067692E+03 0.  0.
        4    1    3    3  502    0 -0.44289716757E+03 -0.69672081837E+02 -0.22961801513E+03  0.50372427557E+03  0.12699999809E+01 0. -1.
       -4    1    3    3    0  502  0.44289716757E+03  0.69672081837E+02 -0.22018756793E+03  0.49949602401E+03  0.12699999809E+01 0.  1.
</event>
<event>
 5   0  0.2130975E-03  0.8996557E+03  0.7818609E-02  0.9426012E-01
       -1   -1    0    0    0  501  0.00000000000E+00  0.00000000000E+00  0.10602939854E+04  0.10602939854E+04  0.50400001928E-02 0.  1.
        1   -1    0    0  501    0  0.00000000000E+00  0.00000000000E+00 -0.19083868622E+03  0.19083868628E+03  0.50400001928E-02 0. -1.
    10030    2    1    2    0    0  0.00000000000E+00  0.00000000000E+00  0.86945529920E+03  0.12511326717E+04  0.89965573689E+03 0.  0.
        5    1    3    3  502    0  0.31826385194E+03 -0.20635559360E+03  0.77094005721E+03  0.85921194840E+03  0.46999998093E+01 0.  1.
       -5    1    3    3    0  502 -0.31826385194E+03  0.20635559360E+03  0.98515241996E+02  0.39192072332E+03  0.46999998093E+01 0. -1.
</event>
<event>
 5   0  0.3626546E-03  0.8969262E+03  0.7818609E-02  0.9429432E-01
       -2   -1    0    0    0  501  0.00000000000E+00  0.00000000000E+00  0.32938653493E+03  0.32938653494E+03  0.25500000920E-02 0. -1.
        2   -1    0    0  501    0  0.00000000000E+00  0.00000000000E+00 -0.61058702553E+03  0.61058702553E+03  0.25500000920E-02 0.  1.
    10030    2    1    2    0    0  0.00000000000E+00  0.00000000000E+00 -0.28120049060E+03  0.93997356047E+03  0.89692618340E+03 0.  0.
        3    1    3    3  502    0 -0.31058146280E+03  0.20596332225E+03  0.12084735130E+03  0.39177267346E+03  0.10100000352E+00 0. -1.
       -3    1    3    3    0  502  0.31058146280E+03 -0.20596332225E+03 -0.40204784190E+03  0.54820088702E+03  0.10100000352E+00 0.  1.
</event>
<event>
 5   0  0.2295158E-03  0.8973620E+03  0.7818609E-02  0.9428885E-01
        1   -1    0    0  501    0  0.00000000000E+00  0.00000000000E+00  0.67009874291E+03  0.67009874293E+03  0.50400001928E-02 0. -1.
       -1   -1    0    0    0  501  0.00000000000E+00  0.00000000000E+00 -0.30042533076E+03  0.30042533080E+03  0.50400001928E-02 0.  1.
    10030    2    1    2    0    0  0.00000000000E+00  0.00000000000E+00  0.36967341215E+03  0.97052407374E+03  0.89736199276E+03 0.  0.
        4    1    3    3  502    0  0.13838525784E+03  0.40401687569E+03  0.33365191060E+03  0.54194586978E+03  0.12699999809E+01 0.  1.
       -4    1    3    3    0  502 -0.13838525784E+03 -0.40401687569E+03  0.36021501551E+02  0.42857820395E+03  0.12699999809E+01 0. -1.
</event>
<event>
 5   0  0.3626546E-03  0.8990990E+03  0.7818609E-02  0.9426708E-01
        2   -1    0    0  501    0  0.00000000000E+00  0.00000000000E+00  0.13012549398E+04  0.13012549398E+04  0.25500000920E-02 0.  1.
       -2   -1    0    0    0  501  0.00000000000E+00  0.00000000000E+00 -0.15530757233E+03  0.15530757235E+03  0.25500000920E-02 0. -1.
    10030    2    1    2    0    0  0.00000000000E+00  0.00000000000E+00  0.11459473674E+04  0.14565625121E+04  0.89909898386E+03 0.  0.
        3    1    3    3  502    0 -0.40139114587E+03  0.62166867058E+01  0.90076851247E+03  0.98617311991E+03  0.10100000352E+00 0.  1.
       -3    1    3    3    0  502  0.40139114587E+03 -0.62166867058E+01  0.24517885496E+03  0.47038939221E+03  0.10100000352E+00 0. -1.
</event>
<event>
 5   0  0.2130975E-03  0.8989419E+03  0.7818609E-02  0.9426905E-01
        1   -1    0    0  501    0  0.00000000000E+00  0.00000000000E+00  0.12275074198E+04  0.12275074198E+04  0.50400001928E-02 0.  1.
       -1   -1    0    0    0  501  0.00000000000E+00  0.00000000000E+00 -0.16458079876E+03  0.16458079884E+03  0.50400001928E-02 0. -1.
    10030    2    1    2    0    0  0.00000000000E+00  0.00000000000E+00  0.10629266210E+04  0.13920882186E+04  0.89894193737E+03 0.  0.
        5    1    3    3  502    0 -0.30712414685E+03  0.31185066825E+03  0.37334084501E+03  0.57530996638E+03  0.46999998093E+01 0.  1.
       -5    1    3    3    0  502  0.30712414685E+03 -0.31185066825E+03  0.68958577600E+03  0.81677825223E+03  0.46999998093E+01 0. -1.
</event>
<event>
 5   0  0.2074970E-03  0.8859825E+03  0.7818609E-02  0.9443276E-01
        1   -1    0    0  501    0  0.00000000000E+00  0.00000000000E+00  0.16075550642E+04  0.16075550642E+04  0.50400001928E-02 0.  1.
       -1   -1    0    0    0  501  0.00000000000E+00  0.00000000000E+00 -0.12207436091E+03  0.12207436102E+03  0.50400001928E-02 0. -1.
    10030    2    1    2    0    0  0.00000000000E+00  0.00000000000E+00  0.14854807033E+04  0.17296294253E+04  0.88598252171E+03 0.  0.
        2    1    3    3  502    0 -0.33378488710E+03 -0.22990187412E+03  0.10918216890E+04  0.11646208924E+04  0.25500000920E-02 0.  1.
       -2    1    3    3    0  502  0.33378488710E+03  0.22990187412E+03  0.39365901435E+03  0.56500853282E+03  0.25500000920E-02 0. -1.
</event>
<event>
 5   0  0.3815269E-03  0.9022399E+03  0.7818609E-02  0.9422786E-01
        2   -1    0    0  501    0  0.00000000000E+00  0.00000000000E+00  0.11992659985E+03  0.11992659988E+03  0.25500000920E-02 0.  1.
       -2   -1    0    0    0  501  0.00000000000E+00  0.00000000000E+00 -0.16969480833E+04  0.16969480833E+04  0.25500000920E-02 0. -1.
    10030    2    1    2    0    0  0.00000000000E+00  0.00000000000E+00 -0.15770214835E+04  0.18168746832E+04  0.90223990996E+03 0.  0.
        5    1    3    3  502    0 -0.11135073138E+03  0.40473163745E+03 -0.11211156281E+04  0.11971336706E+04  0.46999998093E+01 0. -1.
       -5    1    3    3    0  502  0.11135073138E+03 -0.40473163745E+03 -0.45590585534E+03  0.61974101256E+03  0.46999998093E+01 0.  1.
</event>
<event>
 5   0  0.2134145E-03  0.9149507E+03  0.7818609E-02  0.9407083E-01
        1   -1    0    0  501    0  0.00000000000E+00  0.00000000000E+00  0.22970940584E+03  0.22970940590E+03  0.50400001928E-02 0.  1.
       -1   -1    0    0    0  501  0.00000000000E+00  0.00000000000E+00 -0.91108012126E+03  0.91108012128E+03  0.50400001928E-02 0. -1.
    10030    2    1    2    0    0  0.00000000000E+00  0.00000000000E+00 -0.68137071542E+03  0.11407895272E+04  0.91495065085E+03 0.  0.
        1    1    3    3  502    0  0.24147914501E+03  0.37826957302E+03 -0.22997943354E+03  0.50427233438E+03  0.50400001928E-02 0. -1.
       -1    1    3    3    0  502 -0.24147914501E+03 -0.37826957302E+03 -0.45139128188E+03  0.63651719280E+03  0.50400001928E-02 0.  1.
</event>
<event>
 5   0  0.2134145E-03  0.8958357E+03  0.7818609E-02  0.9430802E-01
        1   -1    0    0  501    0  0.00000000000E+00  0.00000000000E+00  0.12002038648E+04  0.12002038648E+04  0.50400001928E-02 0. -1.
       -1   -1    0    0    0  501  0.00000000000E+00  0.00000000000E+00 -0.16716360466E+03  0.16716360474E+03  0.50400001928E-02 0.  1.
    10030    2    1    2    0    0  0.00000000000E+00  0.00000000000E+00  0.10330402602E+04  0.13673674696E+04  0.89583570912E+03 0.  0.
        1    1    3    3  502    0 -0.28308402145E+03 -0.29546753554E+03  0.79460583565E+03  0.89377629295E+03  0.50400001928E-02 0. -1.
       -1    1    3    3    0  502  0.28308402145E+03  0.29546753554E+03  0.23843442452E+03  0.47359117663E+03  0.50400001928E-02 0.  1.
</event>
<event>
 5   0  0.3626546E-03  0.9032938E+03  0.7818609E-02  0.9421473E-01
        2   -1    0    0  501    0  0.00000000000E+00  0.00000000000E+00  0.32484654526E+03  0.32484654527E+03  0.25500000920E-02 0.  1.
       -2   -1    0    0    0  501  0.00000000000E+00  0.00000000000E+00 -0.62794237571E+03  0.62794237572E+03  0.25500000920E-02 0. -1.
    10030    2    1    2    0    0  0.00000000000E+00  0.00000000000E+00 -0.30309583045E+03  0.95278892099E+03  0.90329377587E+03 0.  0.
        3    1    3    3  502    0 -0.37917281116E+02 -0.19002944807E+03  0.27877185799E+03  0.33950356456E+03  0.10100000352E+00 0.  1.
       -3    1    3    3    0  502  0.37917281116E+02  0.19002944807E+03 -0.58186768845E+03  0.61328535642E+03  0.10100000352E+00 0. -1.
</event>
<event>
 5   0  0.2295158E-03  0.9041459E+03  0.7818609E-02  0.9420414E-01
       -1   -1    0    0    0  501  0.00000000000E+00  0.00000000000E+00  0.23727778198E+03  0.23727778203E+03  0.50400001928E-02 0. -1.
        1   -1    0    0  501    0  0.00000000000E+00  0.00000000000E+00 -0.86131093254E+03  0.86131093255E+03  0.50400001928E-02 0.  1.
    10030    2    1    2    0    0  0.00000000000E+00  0.00000000000E+00 -0.62403315056E+03  0.10985887146E+04  0.90414589023E+03 0.  0.
        4    1    3    3  502    0  0.21331795460E+03  0.26715158590E+02 -0.79522148246E+03  0.82377003376E+03  0.12699999809E+01 0.  1.
       -4    1    3    3    0  502 -0.21331795460E+03 -0.26715158590E+02  0.17118833190E+03  0.27481868083E+03  0.12699999809E+01 0. -1.
</event>
<event>
 5   0  0.2134145E-03  0.9060853E+03  0.7818609E-02  0.9418006E-01
       -1   -1    0    0    0  501  0.00000000000E+00  0.00000000000E+00  0.68454403241E+02  0.68454403427E+02  0.50400001928E-02 0.  1.
        1   -1    0    0  501    0  0.00000000000E+00  0.00000000000E+00 -0.29983118565E+04  0.29983118565E+04  0.50400001928E-02 0. -1.
    10030    2    1    2    0    0  0.00000000000E+00  0.00000000000E+00 -0.29298574533E+04  0.30667662600E+04  0.90608531422E+03 0.  0.
        1    1    3    3  502    0  0.98235085030E+02 -0.40704778919E+02 -0.29554768268E+04  0.29573890993E+04  0.50400001928E-02 0. -1.
       -1    1    3    3    0  502 -0.98235085030E+02  0.40704778919E+02  0.25619373472E+02  0.10937716069E+03  0.50400001928E-02 0.  1.
</event>
<event>
 5   0  0.3815269E-03  0.9038911E+03  0.7818609E-02  0.9420730E-01
        2   -1    0    0  501    0  0.00000000000E+00  0.00000000000E+00  0.26285175945E+04  0.26285175945E+04  0.25500000920E-02 0.  1.
       -2   -1    0    0    0  501  0.00000000000E+00  0.00000000000E+00 -0.77707212694E+02  0.77707212736E+02  0.25500000920E-02 0. -1.
    10030    2    1    2    0    0  0.00000000000E+00  0.00000000000E+00  0.25508103818E+04  0.27062248072E+04  0.90389109044E+03 0.  0.
        5    1    3    3  502    0 -0.20931580998E+03 -0.12416385401E+03  0.24154873026E+04  0.24277213123E+04  0.46999998093E+01 0.  1.
       -5    1    3    3    0  502  0.20931580998E+03  0.12416385401E+03  0.13532307918E+03  0.27850349496E+03  0.46999998093E+01 0. -1.
</event>
<event>
 5   0  0.2130975E-03  0.9001324E+03  0.7818609E-02  0.9425416E-01
       -1   -1    0    0    0  501  0.00000000000E+00  0.00000000000E+00  0.33638569781E+03  0.33638569785E+03  0.50400001928E-02 0. -1.
        1   -1    0    0  501    0  0.00000000000E+00  0.00000000000E+00 -0.60216469908E+03  0.60216469910E+03  0.50400001928E-02 0.  1.
    10030    2    1    2    0    0  0.00000000000E+00  0.00000000000E+00 -0.26577900127E+03  0.93855039695E+03  0.90013241810E+03 0.  0.
        5    1    3    3  502    0  0.47983872920E+02  0.29944435062E+03  0.21382034900E+03  0.37109379249E+03  0.46999998093E+01 0. -1.
       -5    1    3    3    0  502 -0.47983872920E+02 -0.29944435062E+03 -0.47959935027E+03  0.56745660447E+03  0.46999998093E+01 0.  1.
</event>
<event>
 5   0  0.3626546E-03  0.8998956E+03  0.7818609E-02  0.9425712E-01
       -2   -1    0    0    0  501  0.00000000000E+00  0.00000000000E+00  0.16659212404E+03  0.16659212406E+03  0.25500000920E-02 0. -1.
        2   -1    0    0  501    0  0.00000000000E+00  0.00000000000E+00 -0.12152616056E+04  0.12152616056E+04  0.25500000920E-02 0.  1.
    10030    2    1    2    0    0  0.00000000000E+00  0.00000000000E+00 -0.10486694816E+04  0.13818537297E+04  0.89989557652E+03 0.  0.
        3    1    3    3  502    0  0.34758799083E+03 -0.34309077032E+02 -0.95990263871E+03  0.10214732547E+04  0.10100000352E+00 0.  1.
       -3    1    3    3    0  502 -0.34758799083E+03  0.34309077032E+02 -0.88766842883E+02  0.36038047496E+03  0.10100000352E+00 0. -1.
</event>
<event>
 5   0  0.2074970E-03  0.8989821E+03  0.7818609E-02  0.9426855E-01
        1   -1    0    0  501    0  0.00000000000E+00  0.00000000000E+00  0.40154485766E+03  0.40154485769E+03  0.50400001928E-02 0.  1.
       -1   -1    0    0    0  501  0.00000000000E+00  0.00000000000E+00 -0.50316221366E+03  0.50316221369E+03  0.50400001928E-02 0. -1.
    10030    2    1    2    0    0  0.00000000000E+00  0.00000000000E+00 -0.10161735600E+03  0.90470707137E+03  0.89898208990E+03 0.  0.
        2    1    3    3  502    0 -0.27827970685E+03 -0.25643595403E+03 -0.29492965965E+03  0.47977338183E+03  0.25500000920E-02 0. -1.
       -2    1    3    3    0  502  0.27827970685E+03  0.25643595403E+03  0.19331230365E+03  0.42493368955E+03  0.25500000920E-02 0.  1.
</event>
<event>
 5   0  0.2295158E-03  0.9015209E+03  0.7818609E-02  0.9423682E-01
       -1   -1    0    0    0  501  0.00000000000E+00  0.00000000000E+00  0.20845237680E+03  0.20845237686E+03  0.50400001928E-02 0.  1.
        1   -1    0    0  501    0  0.00000000000E+00  0.00000000000E+00 -0.97473092501E+03  0.97473092502E+03  0.50400001928E-02 0. -1.
    10030    2    1    2    0    0  0.00000000000E+00  0.00000000000E+00 -0.76627854821E+03  0.11831833019E+04  0.90152088850E+03 0.  0.
        4    1    3    3  502    0 -0.16034603347E+03  0.38051682840E+03 -0.62039333839E+03  0.74524721694E+03  0.12699999809E+01 0. -1.
       -4    1    3    3    0  502  0.16034603347E+03 -0.38051682840E+03 -0.14588520983E+03  0.43793608494E+03  0.12699999809E+01 0.  1.
</event>
<event>
 5   0  0.2134145E-03  0.8984788E+03  0.7818609E-02  0.9427485E-01
        1   -1    0    0  501    0  0.00000000000E+00  0.00000000000E+00  0.76986726035E+03  0.76986726036E+03  0.50400001928E-02 0.  1.
       -1   -1    0    0    0  501  0.00000000000E+00  0.00000000000E+00 -0.26214392791E+03  0.26214392796E+03  0.50400001928E-02 0. -1.
    10030    2    1    2    0    0  0.00000000000E+00  0.00000000000E+00  0.50772333244E+03  0.10320111883E+04  0.89847877578E+03 0.  0.
        1    1    3    3  502    0  0.40818584478E+03 -0.11828251029E+03  0.86582161087E+02  0.43370831991E+03  0.50400001928E-02 0. -1.
       -1    1    3    3    0  502 -0.40818584478E+03  0.11828251029E+03  0.42114117135E+03  0.59830286841E+03  0.50400001928E-02 0.  1.
</event>
<event>
 5   0  0.2295158E-03  0.9000052E+03  0.7818609E-02  0.9425575E-01
       -1   -1    0    0    0  501  0.00000000000E+00  0.00000000000E+00  0.15834870762E+03  0.15834870770E+03  0.50400001928E-02 0.  1.
        1   -1    0    0  501    0  0.00000000000E+00  0.00000000000E+00 -0.12788379539E+04  0.12788379539E+04  0.50400001928E-02 0. -1.
    10030    2    1    2    0    0  0.00000000000E+00  0.00000000000E+00 -0.11204892463E+04  0.14371866616E+04  0.90000519402E+03 0.  0.
        4    1    3    3  502    0 -0.35840091152E+02 -0.44778041760E+03 -0.51772751859E+03  0.68544526472E+03  0.12699999809E+01 0. -1.
       -4    1    3    3    0  502  0.35840091152E+02  0.44778041760E+03 -0.60276172769E+03  0.75174139688E+03  0.12699999809E+01 0.  1.
</event>
<event>
 5   0  0.3806019E-03  0.8873750E+03  0.7818609E-02  0.9441502E-01
        2   -1    0    0  501    0  0.00000000000E+00  0.00000000000E+00  0.71244112066E+03  0.71244112066E+03  0.25500000920E-02 0.  1.
       -2   -1    0    0    0  501  0.00000000000E+00  0.00000000000E+00 -0.27631559524E+03  0.27631559525E+03  0.25500000920E-02 0. -1.
    10030    2    1    2    0    0  0.00000000000E+00  0.00000000000E+00  0.43612552542E+03  0.98875671591E+03  0.88737498801E+03 0.  0.
        2    1    3    3  502    0  0.42252867031E+03 -0.13315096212E+02  0.67945572307E+02  0.42816395204E+03  0.25500000920E-02 0. -1.
       -2    1    3    3    0  502 -0.42252867031E+03  0.13315096212E+02  0.36817995311E+03  0.56059276387E+03  0.25500000920E-02 0.  1.
</event>
<event>
 5   0  0.3685879E-03  0.8870339E+03  0.7818609E-02  0.9441936E-01
        2   -1    0    0  501    0  0.00000000000E+00  0.00000000000E+00  0.94342029417E+03  0.94342029417E+03  0.25500000920E-02 0. -1.
       -2   -1    0    0    0  501  0.00000000000E+00  0.00000000000E+00 -0.20850438471E+03  0.20850438473E+03  0.25500000920E-02 0.  1.
    10030    2    1    2    0    0  0.00000000000E+00  0.00000000000E+00  0.73491590945E+03  0.11519246789E+04  0.88703386174E+03 0.  0.
        1    1    3    3  502    0 -0.73755688485E+02 -0.11082960784E+03 -0.18194524954E+03  0.22544883547E+03  0.50400001928E-02 0.  1.
       -1    1    3    3    0  502  0.73755688485E+02  0.11082960784E+03  0.91686115900E+03  0.92647584343E+03  0.50400001928E-02 0. -1.
</event>
<event>
 5   0  0.3626546E-03  0.8991899E+03  0.7818609E-02  0.9426595E-01
       -2   -1    0    0    0  501  0.00000000000E+00  0.00000000000E+00  0.15096724493E+03  0.15096724496E+03  0.25500000920E-02 0.  1.
        2   -1    0    0  501    0  0.00000000000E+00  0.00000000000E+00 -0.13389368603E+04  0.13389368603E+04  0.25500000920E-02 0. -1.
    10030    2    1    2    0    0  0.00000000000E+00  0.00000000000E+00 -0.11879696154E+04  0.14899041053E+04  0.89918987753E+03 0.  0.
        3    1    3    3  502    0 -0.11300785592E+03  0.22543955612E+03 -0.12107180634E+04  0.12367020693E+04  0.10100000352E+00 0. -1.
       -3    1    3    3    0  502  0.11300785592E+03 -0.22543955612E+03  0.22748447966E+02  0.25320203603E+03  0.10100000352E+00 0.  1.
</event>
<event>
 5   0  0.3685879E-03  0.9001643E+03  0.7818609E-02  0.9425376E-01
       -2   -1    0    0    0  501  0.00000000000E+00  0.00000000000E+00  0.17352090341E+03  0.17352090343E+03  0.25500000920E-02 0.  1.
        2   -1    0    0  501    0  0.00000000000E+00  0.00000000000E+00 -0.11674324759E+04  0.11674324759E+04  0.25500000920E-02 0. -1.
    10030    2    1    2    0    0  0.00000000000E+00  0.00000000000E+00 -0.99391157250E+03  0.13409533793E+04  0.90016429146E+03 0.  0.
        1    1    3    3  502    0  0.10595782432E+03 -0.42207916135E+03 -0.66808100677E+03  0.79731431105E+03  0.50400001928E-02 0.  1.
       -1    1    3    3    0  502 -0.10595782432E+03  0.42207916135E+03 -0.32583056573E+03  0.54363906829E+03  0.50400001928E-02 0. -1.
</event>
<event>
 5   0  0.3663255E-03  0.9003705E+03  0.7818609E-02  0.9425118E-01
       -2   -1    0    0    0  501  0.00000000000E+00  0.00000000000E+00  0.20921943971E+03  0.20921943973E+03  0.25500000920E-02 0. -1.
        2   -1    0    0  501    0  0.00000000000E+00  0.00000000000E+00 -0.96868037459E+03  0.96868037459E+03  0.25500000920E-02 0.  1.
    10030    2    1    2    0    0  0.00000000000E+00  0.00000000000E+00 -0.75946093488E+03  0.11778998143E+04  0.90037051316E+03 0.  0.
        4    1    3    3  502    0 -0.11619125520E+03 -0.43022547943E+03 -0.29626131939E+03  0.53513246323E+03  0.12699999809E+01 0.  1.
       -4    1    3    3    0  502  0.11619125520E+03  0.43022547943E+03 -0.46319961549E+03  0.64276735109E+03  0.12699999809E+01 0. -1.
</event>
<event>
 5   0  0.2129280E-03  0.9042197E+03  0.7818609E-02  0.9420322E-01
        1   -1    0    0  501    0  0.00000000000E+00  0.00000000000E+00  0.63427700673E+03  0.63427700675E+03  0.50400001928E-02 0.  1.
       -1   -1    0    0    0  501  0.00000000000E+00  0.00000000000E+00 -0.32226190189E+03  0.32226190193E+03  0.50400001928E-02 0. -1.
    10030    2    1    2    0    0  0.00000000000E+00  0.00000000000E+00  0.31201510484E+03  0.95653890868E+03  0.90421969574E+03 0.  0.
        3    1    3    3  502    0 -0.49291987550E+02  0.26466178029E+02 -0.31858573884E+03  0.32346103600E+03  0.10100000352E+00 0. -1.
       -3    1    3    3    0  502  0.49291987550E+02 -0.26466178029E+02  0.63060084368E+03  0.63307787267E+03  0.10100000352E+00 0.  1.
</event>
<event>
 5   0  0.2134145E-03  0.9093077E+03  0.7818609E-02  0.9414021E-01
       -1   -1    0    0    0  501  0.00000000000E+00  0.00000000000E+00  0.20917243222E+03  0.20917243229E+03  0.50400001928E-02 0.  1.
        1   -1    0    0  501    0  0.00000000000E+00  0.00000000000E+00 -0.98822836707E+03  0.98822836708E+03  0.50400001928E-02 0. -1.
    10030    2    1    2    0    0  0.00000000000E+00  0.00000000000E+00 -0.77905593484E+03  0.11974007994E+04  0.90930771728E+03 0.  0.
        1    1    3    3  502    0 -0.21449946456E+03 -0.38472012572E+03 -0.53787150951E+03  0.69521605002E+03  0.50400001928E-02 0. -1.
       -1    1    3    3    0  502  0.21449946456E+03  0.38472012572E+03 -0.24118442533E+03  0.50218474935E+03  0.50400001928E-02 0.  1.
</event>
<event>
 5   0  0.2130975E-03  0.9005492E+03  0.7818609E-02  0.9424895E-01
       -1   -1    0    0    0  501  0.00000000000E+00  0.00000000000E+00  0.14474319956E+04  0.14474319956E+04  0.50400001928E-02 0. -1.
        1   -1    0    0  501    0  0.00000000000E+00  0.00000000000E+00 -0.14007373089E+03  0.14007373098E+03  0.50400001928E-02 0.  1.
    10030    2    1    2    0    0  0.00000000000E+00  0.00000000000E+00  0.13073582647E+04  0.15875057266E+04  0.90054916559E+03 0.  0.
        5    1    3    3  502    0 -0.26797984688E+02 -0.34967130281E+03  0.15589883389E+03  0.38381595642E+03  0.46999998093E+01 0.  1.
       -5    1    3    3    0  502  0.26797984688E+02  0.34967130281E+03  0.11514594308E+04  0.12036897701E+04  0.46999998093E+01 0. -1.
</event>
<event>
 5   0  0.2134145E-03  0.8935468E+03  0.7818609E-02  0.9433684E-01
        1   -1    0    0  501    0  0.00000000000E+00  0.00000000000E+00  0.29583539963E+03  0.29583539967E+03  0.50400001928E-02 0. -1.
       -1   -1    0    0    0  501  0.00000000000E+00  0.00000000000E+00 -0.67472136926E+03  0.67472136928E+03  0.50400001928E-02 0.  1.
    10030    2    1    2    0    0  0.00000000000E+00  0.00000000000E+00 -0.37888596964E+03  0.97055676895E+03  0.89354678880E+03 0.  0.
        1    1    3    3  502    0 -0.32854447550E+03 -0.22485489399E+03  0.30774804202E+02  0.39930975987E+03  0.50400001928E-02 0. -1.
       -1    1    3    3    0  502  0.32854447550E+03  0.22485489399E+03 -0.40966077384E+03  0.57124700908E+03  0.50400001928E-02 0.  1.
</event>
<event>
 5   0  0.2295158E-03  0.8991344E+03  0.7818609E-02  0.9426664E-01
        1   -1    0    0  501    0  0.00000000000E+00  0.00000000000E+00  0.27750385140E+03  0.27750385144E+03  0.50400001928E-02 0.  1.
       -1   -1    0    0    0  501  0.00000000000E+00  0.00000000000E+00 -0.72831666910E+03  0.72831666912E+03  0.50400001928E-02 0. -1.
    10030    2    1    2    0    0  0.00000000000E+00  0.00000000000E+00 -0.45081281770E+03  0.10058205206E+04  0.89913442987E+03 0.  0.
        4    1    3    3  502    0  0.16446110898E+03  0.25924366455E+03  0.14197287575E+03  0.33824938185E+03  0.12699999809E+01 0.  1.
       -4    1    3    3    0  502 -0.16446110898E+03 -0.25924366455E+03 -0.59278569345E+03  0.66757113871E+03  0.12699999809E+01 0. -1.
</event>
<event>
 5   0  0.2129280E-03  0.8829095E+03  0.7818609E-02  0.9447201E-01
       -1   -1    0    0    0  501  0.00000000000E+00  0.00000000000E+00  0.27502488259E+03  0.27502488264E+03  0.50400001928E-02 0.  1.
        1   -1    0    0  501    0  0.00000000000E+00  0.00000000000E+00 -0.70859878747E+03  0.70859878749E+03  0.50400001928E-02 0. -1.
    10030    2    1    2    0    0  0.00000000000E+00  0.00000000000E+00 -0.43357390488E+03  0.98362367013E+03  0.88290950467E+03 0.  0.
        3    1    3    3  502    0 -0.13133257640E+03 -0.25936330796E+03  0.15332056476E+03  0.32867122923E+03  0.10100000352E+00 0.  1.
       -3    1    3    3    0  502  0.13133257640E+03  0.25936330796E+03 -0.58689446964E+03  0.65495244090E+03  0.10100000352E+00 0. -1.
</event>
<event>
 5   0  0.3663255E-03  0.8988663E+03  0.7818609E-02  0.9427000E-01
       -2   -1    0    0    0  501  0.00000000000E+00  0.00000000000E+00  0.28797288927E+03  0.28797288928E+03  0.25500000920E-02 0.  1.
        2   -1    0    0  501    0  0.00000000000E+00  0.00000000000E+00 -0.70142078564E+03  0.70142078565E+03  0.25500000920E-02 0. -1.
    10030    2    1    2    0    0  0.00000000000E+00  0.00000000000E+00 -0.41344789637E+03  0.98939367493E+03  0.89886633098E+03 0.  0.
        4    1    3    3  502    0  0.78535897606E+02 -0.20764536241E+03  0.22340564933E+03  0.31495425191E+03  0.12699999809E+01 0.  1.
       -4    1    3    3    0  502 -0.78535897606E+02  0.20764536241E+03 -0.63685354570E+03  0.67443942302E+03  0.12699999809E+01 0. -1.
</event>
<event>
 5   0  0.2074970E-03  0.9012339E+03  0.7818609E-02  0.9424040E-01
       -1   -1    0    0    0  501  0.00000000000E+00  0.00000000000E+00  0.13894940829E+03  0.13894940838E+03  0.50400001928E-02 0.  1.
        1   -1    0    0  501    0  0.00000000000E+00  0.00000000000E+00 -0.14613637811E+04  0.14613637811E+04  0.50400001928E-02 0. -1.
    10030    2    1    2    0    0  0.00000000000E+00  0.00000000000E+00 -0.13224143728E+04  0.16003131895E+04  0.90123389364E+03 0.  0.
        2    1    3    3  502    0  0.29832853077E+03  0.30090532925E+03 -0.93348328229E+03  0.10251511926E+04  0.25500000920E-02 0. -1.
       -2    1    3    3    0  502 -0.29832853077E+03 -0.30090532925E+03 -0.38893109049E+03  0.57516199683E+03  0.25500000920E-02 0.  1.
</event>
<event>
 5   0  0.2129280E-03  0.9005345E+03  0.7818609E-02  0.9424914E-01
       -1   -1    0    0    0  501  0.00000000000E+00  0.00000000000E+00  0.25087752840E+03  0.25087752845E+03  0.50400001928E-02 0.  1.
        1   -1    0    0  501    0  0.00000000000E+00  0.00000000000E+00 -0.80812579387E+03  0.80812579388E+03  0.50400001928E-02 0. -1.
    10030    2    1    2    0    0  0.00000000000E+00  0.00000000000E+00 -0.55724826547E+03  0.10590033223E+04  0.90053451203E+03 0.  0.
        3    1    3    3  502    0 -0.69163415188E+02 -0.25817720663E+03  0.14749582683E+03  0.30527704983E+03  0.10100000352E+00 0.  1.
       -3    1    3    3    0  502  0.69163415188E+02  0.25817720663E+03 -0.70474409230E+03  0.75372627250E+03  0.10100000352E+00 0. -1.
</event>
<event>
 5   0  0.3815269E-03  0.8847950E+03  0.7818609E-02  0.9444791E-01
       -2   -1    0    0    0  501  0.00000000000E+00  0.00000000000E+00  0.31804013674E+03  0.31804013675E+03  0.25500000920E-02 0.  1.
        2   -1    0    0  501    0  0.00000000000E+00  0.00000000000E+00 -0.61537996195E+03  0.61537996195E+03  0.25500000920E-02 0. -1.
    10030    2    1    2    0    0  0.00000000000E+00  0.00000000000E+00 -0.29733982521E+03  0.93342009870E+03  0.88479495309E+03 0.  0.
        5    1    3    3  502    0  0.17255201107E+03 -0.32568294709E+03  0.10941705566E+03  0.38449676282E+03  0.46999998093E+01 0.  1.
       -5    1    3    3    0  502 -0.17255201107E+03  0.32568294709E+03 -0.40675688087E+03  0.54892333589E+03  0.46999998093E+01 0. -1.
</event>
<event>
 5   0  0.2074970E-03  0.8492106E+03  0.7818609E-02  0.9491397E-01
        1   -1    0    0  501    0  0.00000000000E+00  0.00000000000E+00  0.45864984377E+03  0.45864984380E+03  0.50400001928E-02 0. -1.
       -1   -1    0    0    0  501  0.00000000000E+00  0.00000000000E+00 -0.39308777875E+03  0.39308777879E+03  0.50400001928E-02 0.  1.
    10030    2    1    2    0    0  0.00000000000E+00  0.00000000000E+00  0.65562065020E+02  0.85173762259E+03  0.84921057068E+03 0.  0.
        2    1    3    3  502    0  0.31860945697E+03 -0.26319622474E+02  0.31304939712E+03  0.44744232438E+03  0.25500000920E-02 0. -1.
       -2    1    3    3    0  502 -0.31860945697E+03  0.26319622474E+02 -0.24748733210E+03  0.40429529821E+03  0.25500000920E-02 0.  1.
</event>
<event>
 5   0  0.2129280E-03  0.9038977E+03  0.7818609E-02  0.9420722E-01
       -1   -1    0    0    0  501  0.00000000000E+00  0.00000000000E+00  0.45597018157E+03  0.45597018160E+03  0.50400001928E-02 0.  1.
        1   -1    0    0  501    0  0.00000000000E+00  0.00000000000E+00 -0.44796296780E+03  0.44796296783E+03  0.50400001928E-02 0. -1.
    10030    2    1    2    0    0  0.00000000000E+00  0.00000000000E+00  0.80072137716E+01  0.90393314943E+03  0.90389768401E+03 0.  0.
        3    1    3    3  502    0  0.31753050657E+03 -0.83398914963E+01 -0.31750950396E+03  0.44911854971E+03  0.10100000352E+00 0. -1.
       -3    1    3    3    0  502 -0.31753050657E+03  0.83398914963E+01  0.32551671773E+03  0.45481459972E+03  0.10100000352E+00 0.  1.
</event>
<event>
 5   0  0.2130975E-03  0.9007664E+03  0.7818609E-02  0.9424624E-01
        1   -1    0    0  501    0  0.00000000000E+00  0.00000000000E+00  0.22722604415E+03  0.22722604421E+03  0.50400001928E-02 0. -1.
       -1   -1    0    0    0  501  0.00000000000E+00  0.00000000000E+00 -0.89270147915E+03  0.89270147916E+03  0.50400001928E-02 0.  1.
    10030    2    1    2    0    0  0.00000000000E+00  0.00000000000E+00 -0.66547543500E+03  0.11199275234E+04  0.90076639759E+03 0.  0.
        5    1    3    3  502    0 -0.18642779674E+03  0.16103799796E+03  0.13599719733E+03  0.28143540620E+03  0.46999998093E+01 0. -1.
       -5    1    3    3    0  502  0.18642779674E+03 -0.16103799796E+03 -0.80147263233E+03  0.83849211717E+03  0.46999998093E+01 0.  1.
</event>
<event>
 5   0  0.3806019E-03  0.9134606E+03  0.7818609E-02  0.9408910E-01
       -2   -1    0    0    0  501  0.00000000000E+00  0.00000000000E+00  0.29336860762E+03  0.29336860763E+03  0.25500000920E-02 0. -1.
        2   -1    0    0  501    0  0.00000000000E+00  0.00000000000E+00 -0.71105960873E+03  0.71105960873E+03  0.25500000920E-02 0.  1.
    10030    2    1    2    0    0  0.00000000000E+00  0.00000000000E+00 -0.41769100111E+03  0.10044282164E+04  0.91346060091E+03 0.  0.
        2    1    3    3  502    0 -0.29339354218E+03  0.11860174935E+03  0.15327800856E+03  0.35162521732E+03  0.25500000920E-02 0. -1.
       -2    1    3    3    0  502  0.29339354218E+03 -0.11860174935E+03 -0.57096900967E+03  0.65280299904E+03  0.25500000920E-02 0.  1.
</event>
<event>
 5   0  0.3806019E-03  0.9112898E+03  0.7818609E-02  0.9411578E-01
        2   -1    0    0  501    0  0.00000000000E+00  0.00000000000E+00  0.15335376294E+04  0.15335376295E+04  0.25500000920E-02 0.  1.
       -2   -1    0    0    0  501  0.00000000000E+00  0.00000000000E+00 -0.13538128211E+03  0.13538128213E+03  0.25500000920E-02 0. -1.
    10030    2    1    2    0    0  0.00000000000E+00  0.00000000000E+00  0.13981563473E+04  0.16689189116E+04  0.91128983416E+03 0.  0.
        2    1    3    3  502    0  0.26526493330E+03 -0.10690324178E+03  0.49470769420E+02  0.29024325138E+03  0.25500000920E-02 0. -1.
       -2    1    3    3    0  502 -0.26526493330E+03  0.10690324178E+03  0.13486855779E+04  0.13786756602E+04  0.25500000920E-02 0.  1.
</event>
<event>
 5   0  0.3815269E-03  0.8972384E+03  0.7818609E-02  0.9429040E-01
       -2   -1    0    0    0  501  0.00000000000E+00  0.00000000000E+00  0.21229885864E+03  0.21229885866E+03  0.25500000920E-02 0. -1.
        2   -1    0    0  501    0  0.00000000000E+00  0.00000000000E+00 -0.94799947878E+03  0.94799947879E+03  0.25500000920E-02 0.  1.
    10030    2    1    2    0    0  0.00000000000E+00  0.00000000000E+00 -0.73570062014E+03  0.11602983374E+04  0.89723844623E+03 0.  0.
        5    1    3    3  502    0 -0.80029572971E+02  0.24752884796E+03  0.10475980802E+03  0.28048524114E+03  0.46999998093E+01 0. -1.
       -5    1    3    3    0  502  0.80029572971E+02 -0.24752884796E+03 -0.84046042816E+03  0.87981309630E+03  0.46999998093E+01 0.  1.
</event>
<event>
 5   0  0.3663255E-03  0.9002875E+03  0.7818609E-02  0.9425222E-01
        2   -1    0    0  501    0  0.00000000000E+00  0.00000000000E+00  0.66502735528E+03  0.66502735529E+03  0.25500000920E-02 0. -1.
       -2   -1    0    0    0  501  0.00000000000E+00  0.00000000000E+00 -0.30469331110E+03  0.30469331111E+03  0.25500000920E-02 0.  1.
    10030    2    1    2    0    0  0.00000000000E+00  0.00000000000E+00  0.36033404418E+03  0.96972066640E+03  0.90028748044E+03 0.  0.
        4    1    3    3  502    0  0.43275396792E+02  0.41333444361E+02  0.66072166661E+03  0.66342742423E+03  0.12699999809E+01 0. -1.
       -4    1    3    3    0  502 -0.43275396792E+02 -0.41333444361E+02 -0.30038762243E+03  0.30629324217E+03  0.12699999809E+01 0.  1.
</event>
<event>
 5   0  0.2134145E-03  0.9023121E+03  0.7818609E-02  0.9422696E-01
        1   -1    0    0  501    0  0.00000000000E+00  0.00000000000E+00  0.41055642402E+03  0.41055642405E+03  0.50400001928E-02 0.  1.
       -1   -1    0    0    0  501  0.00000000000E+00  0.00000000000E+00 -0.49577057300E+03  0.49577057302E+03  0.50400001928E-02 0. -1.
    10030    2    1    2    0    0  0.00000000000E+00  0.00000000000E+00 -0.85214148981E+02  0.90632699707E+03  0.90231212695E+03 0.  0.
        1    1    3    3  502    0 -0.84687208177E+02  0.23832909759E+03  0.33264472145E+03  0.41788179276E+03  0.50400001928E-02 0.  1.
       -1    1    3    3    0  502  0.84687208177E+02 -0.23832909759E+03 -0.41785887043E+03  0.48844520431E+03  0.50400001928E-02 0. -1.
</event>
<event>
 5   0  0.3663255E-03  0.8985306E+03  0.7818609E-02  0.9427420E-01
       -2   -1    0    0    0  501  0.00000000000E+00  0.00000000000E+00  0.22461724750E+03  0.22461724751E+03  0.25500000920E-02 0. -1.
        2   -1    0    0  501    0  0.00000000000E+00  0.00000000000E+00 -0.89859218654E+03  0.89859218654E+03  0.25500000920E-02 0.  1.
    10030    2    1    2    0    0  0.00000000000E+00  0.00000000000E+00 -0.67397493904E+03  0.11232094341E+04  0.89853058618E+03 0.  0.
        4    1    3    3  502    0  0.27452028201E+03 -0.33658493941E+03 -0.48053607250E+03  0.64774017673E+03  0.12699999809E+01 0.  1.
       -4    1    3    3    0  502 -0.27452028201E+03  0.33658493941E+03 -0.19343886654E+03  0.47546925733E+03  0.12699999809E+01 0. -1.
</event>
<event>
 5   0  0.2295158E-03  0.8959697E+03  0.7818609E-02  0.9430634E-01
        1   -1    0    0  501    0  0.00000000000E+00  0.00000000000E+00  0.27377378885E+04  0.27377378886E+04  0.50400001928E-02 0.  1.
       -1   -1    0    0    0  501  0.00000000000E+00  0.00000000000E+00 -0.73305196061E+02  0.73305196235E+02  0.50400001928E-02 0. -1.
    10030    2    1    2    0    0  0.00000000000E+00  0.00000000000E+00  0.26644326925E+04  0.28110430848E+04  0.89596967122E+03 0.  0.
        4    1    3    3  502    0  0.41021697953E+03  0.15256932982E+03  0.10323752688E+04  0.11213187233E+04  0.12699999809E+01 0.  1.
       -4    1    3    3    0  502 -0.41021697953E+03 -0.15256932982E+03  0.16320574237E+04  0.16897243615E+04  0.12699999809E+01 0. -1.
</event>
<event>
 5   0  0.3685879E-03  0.9019703E+03  0.7818609E-02  0.9423122E-01
       -2   -1    0    0    0  501  0.00000000000E+00  0.00000000000E+00  0.67408718493E+03  0.67408718493E+03  0.25500000920E-02 0. -1.
        2   -1    0    0  501    0  0.00000000000E+00  0.00000000000E+00 -0.30172302913E+03  0.30172302914E+03  0.25500000920E-02 0.  1.
    10030    2    1    2    0    0  0.00000000000E+00  0.00000000000E+00  0.37236415580E+03  0.97581021407E+03  0.90197034838E+03 0.  0.
        1    1    3    3  502    0 -0.57302210545E+01  0.32761559170E+03  0.52142554073E+03  0.61583228716E+03  0.50400001928E-02 0. -1.
       -1    1    3    3    0  502  0.57302210545E+01 -0.32761559170E+03 -0.14906138493E+03  0.35997792691E+03  0.50400001928E-02 0.  1.
</event>
<event>
 5   0  0.2129280E-03  0.9009245E+03  0.7818609E-02  0.9424427E-01
       -1   -1    0    0    0  501  0.00000000000E+00  0.00000000000E+00  0.26165135886E+03  0.26165135891E+03  0.50400001928E-02 0. -1.
        1   -1    0    0  501    0  0.00000000000E+00  0.00000000000E+00 -0.77552135699E+03  0.77552135700E+03  0.50400001928E-02 0.  1.
    10030    2    1    2    0    0  0.00000000000E+00  0.00000000000E+00 -0.51386999813E+03  0.10371727159E+04  0.90092445169E+03 0.  0.
        3    1    3    3  502    0 -0.90635578398E+02 -0.27328301936E+03 -0.65576289023E+03  0.71618670411E+03  0.10100000352E+00 0.  1.
       -3    1    3    3    0  502  0.90635578398E+02  0.27328301936E+03  0.14189289210E+03  0.32098601180E+03  0.10100000352E+00 0. -1.
</event>
<event>
 5   0  0.3626546E-03  0.8997424E+03  0.7818609E-02  0.9425903E-01
       -2   -1    0    0    0  501  0.00000000000E+00  0.00000000000E+00  0.28138780487E+03  0.28138780488E+03  0.25500000920E-02 0.  1.
        2   -1    0    0  501    0  0.00000000000E+00  0.00000000000E+00 -0.71923553400E+03  0.71923553400E+03  0.25500000920E-02 0. -1.
    10030    2    1    2    0    0  0.00000000000E+00  0.00000000000E+00 -0.43784772913E+03  0.10006233389E+04  0.89974242559E+03 0.  0.
        3    1    3    3  502    0  0.20490716472E+03  0.21393761833E+03 -0.59545205499E+03  0.66507098169E+03  0.10100000352E+00 0. -1.
       -3    1    3    3    0  502 -0.20490716472E+03 -0.21393761833E+03  0.15760432586E+03  0.33555235719E+03  0.10100000352E+00 0.  1.
</event>
<event>
 5   0  0.2130975E-03  0.8998273E+03  0.7818609E-02  0.9425797E-01
       -1   -1    0    0    0  501  0.00000000000E+00  0.00000000000E+00  0.40771835408E+03  0.40771835411E+03  0.50400001928E-02 0. -1.
        1   -1    0    0  501    0  0.00000000000E+00  0.00000000000E+00 -0.49647583627E+03  0.49647583630E+03  0.50400001928E-02 0.  1.
    10030    2    1    2    0    0  0.00000000000E+00  0.00000000000E+00 -0.88757482189E+02  0.90419419041E+03  0.89982734084E+03 0.  0.
        5    1    3    3  502    0 -0.31988371573E+03  0.27537627220E+02 -0.36105303545E+03  0.48318246751E+03  0.46999998093E+01 0.  1.
       -5    1    3    3    0  502  0.31988371573E+03 -0.27537627220E+02  0.27229555326E+03  0.42101172291E+03  0.46999998093E+01 0. -1.
</event>
<event>
 5   0  0.3685879E-03  0.8997218E+03  0.7818609E-02  0.9425929E-01
       -2   -1    0    0    0  501  0.00000000000E+00  0.00000000000E+00  0.10185279701E+03  0.10185279704E+03  0.25500000920E-02 0.  1.
        2   -1    0    0  501    0  0.00000000000E+00  0.00000000000E+00 -0.19869342898E+04  0.19869342898E+04  0.25500000920E-02 0. -1.
    10030    2    1    2    0    0  0.00000000000E+00  0.00000000000E+00 -0.18850814928E+04  0.20887870868E+04  0.89972176794E+03 0.  0.
        1    1    3    3  502    0  0.31149365867E+03 -0.28533662565E+03 -0.58340966752E+03  0.72028614419E+03  0.50400001928E-02 0.  1.
       -1    1    3    3    0  502 -0.31149365867E+03  0.28533662565E+03 -0.13016718252E+04  0.13685009426E+04  0.50400001928E-02 0. -1.
</event>
<event>
 5   0  0.3626546E-03  0.9033854E+03  0.7818609E-02  0.9421359E-01
        2   -1    0    0  501    0  0.00000000000E+00  0.00000000000E+00  0.31566159182E+03  0.31566159183E+03  0.25500000920E-02 0.  1.
       -2   -1    0    0    0  501  0.00000000000E+00  0.00000000000E+00 -0.64634507561E+03  0.64634507561E+03  0.25500000920E-02 0. -1.
    10030    2    1    2    0    0  0.00000000000E+00  0.00000000000E+00 -0.33068348379E+03  0.96200666744E+03  0.90338544473E+03 0.  0.
        3    1    3    3  502    0  0.11234481283E+03  0.23375912484E+03 -0.55915207841E+03  0.61637305457E+03  0.10100000352E+00 0. -1.
       -3    1    3    3    0  502 -0.11234481283E+03 -0.23375912484E+03  0.22846859462E+03  0.34563361287E+03  0.10100000352E+00 0.  1.
</event>
<event>
 5   0  0.2130975E-03  0.8973908E+03  0.7818609E-02  0.9428849E-01
       -1   -1    0    0    0  501  0.00000000000E+00  0.00000000000E+00  0.11038154341E+03  0.11038154352E+03  0.50400001928E-02 0. -1.
        1   -1    0    0  501    0  0.00000000000E+00  0.00000000000E+00 -0.18239239866E+04  0.18239239866E+04  0.50400001928E-02 0.  1.
    10030    2    1    2    0    0  0.00000000000E+00  0.00000000000E+00 -0.17135424432E+04  0.19343055301E+04  0.89739076175E+03 0.  0.
        5    1    3    3  502    0 -0.36515463556E+00  0.38634831889E+03 -0.36505632399E+03  0.53155749128E+03  0.46999998093E+01 0. -1.
       -5    1    3    3    0  502  0.36515463556E+00 -0.38634831889E+03 -0.13484861192E+04  0.14027480388E+04  0.46999998093E+01 0.  1.
</event>
<event>
 5   0  0.2295158E-03  0.9066398E+03  0.7818609E-02  0.9417319E-01
        1   -1    0    0  501    0  0.00000000000E+00  0.00000000000E+00  0.96606876121E+03  0.96606876122E+03  0.50400001928E-02 0. -1.
       -1   -1    0    0    0  501  0.00000000000E+00  0.00000000000E+00 -0.21271667382E+03  0.21271667388E+03  0.50400001928E-02 0.  1.
    10030    2    1    2    0    0  0.00000000000E+00  0.00000000000E+00  0.75335208739E+03  0.11787854351E+04  0.90663980413E+03 0.  0.
        4    1    3    3  502    0  0.17017709399E+02 -0.23143675619E+03  0.88298273081E+03  0.91296916178E+03  0.12699999809E+01 0. -1.
       -4    1    3    3    0  502 -0.17017709399E+02  0.23143675619E+03 -0.12963064342E+03  0.26581627332E+03  0.12699999809E+01 0.  1.
</event>
<event>
 5   0  0.2074970E-03  0.8990305E+03  0.7818609E-02  0.9426794E-01
       -1   -1    0    0    0  501  0.00000000000E+00  0.00000000000E+00  0.90931092889E+03  0.90931092891E+03  0.50400001928E-02 0.  1.
        1   -1    0    0  501    0  0.00000000000E+00  0.00000000000E+00 -0.22221656893E+03  0.22221656899E+03  0.50400001928E-02 0. -1.
    10030    2    1    2    0    0  0.00000000000E+00  0.00000000000E+00  0.68709435996E+03  0.11315274979E+04  0.89903048836E+03 0.  0.
        2    1    3    3  502    0 -0.80009320755E+02 -0.26407691246E+02  0.89928394379E+03  0.90322227006E+03  0.25500000920E-02 0.  1.
       -2    1    3    3    0  502  0.80009320755E+02  0.26407691246E+02 -0.21218958383E+03  0.22830522784E+03  0.25500000920E-02 0. -1.
</event>
<event>
 5   0  0.3663255E-03  0.8854713E+03  0.7818609E-02  0.9443928E-01
        2   -1    0    0  501    0  0.00000000000E+00  0.00000000000E+00  0.88399976748E+03  0.88399976748E+03  0.25500000920E-02 0. -1.
       -2   -1    0    0    0  501  0.00000000000E+00  0.00000000000E+00 -0.22173630160E+03  0.22173630161E+03  0.25500000920E-02 0.  1.
    10030    2    1    2    0    0  0.00000000000E+00  0.00000000000E+00  0.66226346588E+03  0.11057360691E+04  0.88547126224E+03 0.  0.
        4    1    3    3  502    0 -0.35561440747E+03 -0.56469228744E+02  0.94402923194E+01  0.36019593642E+03  0.12699999809E+01 0.  1.
       -4    1    3    3    0  502  0.35561440747E+03  0.56469228744E+02  0.65282317356E+03  0.74554013268E+03  0.12699999809E+01 0. -1.
</event>
<event>
 5   0  0.3685879E-03  0.8998472E+03  0.7818609E-02  0.9425772E-01
        2   -1    0    0  501    0  0.00000000000E+00  0.00000000000E+00  0.37755906949E+03  0.37755906950E+03  0.25500000920E-02 0.  1.
       -2   -1    0    0    0  501  0.00000000000E+00  0.00000000000E+00 -0.53615779233E+03  0.53615779234E+03  0.25500000920E-02 0. -1.
    10030    2    1    2    0    0  0.00000000000E+00  0.00000000000E+00 -0.15859872284E+03  0.91371686184E+03  0.89984718076E+03 0.  0.
        1    1    3    3  502    0  0.24945889771E+03  0.37433483708E+03 -0.70510006262E+02  0.45533281553E+03  0.50400001928E-02 0.  1.
       -1    1    3    3    0  502 -0.24945889771E+03 -0.37433483708E+03 -0.88088716573E+02  0.45838404630E+03  0.50400001928E-02 0. -1.
</event>
<event>
 5   0  0.2134145E-03  0.8963513E+03  0.7818609E-02  0.9430154E-01
        1   -1    0    0  501    0  0.00000000000E+00  0.00000000000E+00  0.10061729124E+04  0.10061729124E+04  0.50400001928E-02 0. -1.
       -1   -1    0    0    0  501  0.00000000000E+00  0.00000000000E+00 -0.19962913717E+03  0.19962913723E+03  0.50400001928E-02 0.  1.
    10030    2    1    2    0    0  0.00000000000E+00  0.00000000000E+00  0.80654377522E+03  0.12058020496E+04  0.89635133823E+03 0.  0.
        1    1    3    3  502    0 -0.16328943029E+03 -0.36481031258E+03  0.67603084924E+03  0.78534559995E+03  0.50400001928E-02 0. -1.
       -1    1    3    3    0  502  0.16328943029E+03  0.36481031258E+03  0.13051292598E+03  0.42045644968E+03  0.50400001928E-02 0.  1.
</event>
<event>
 5   0  0.3815269E-03  0.8961367E+03  0.7818609E-02  0.9430424E-01
        2   -1    0    0  501    0  0.00000000000E+00  0.00000000000E+00  0.37168029428E+03  0.37168029429E+03  0.25500000920E-02 0.  1.
       -2   -1    0    0    0  501  0.00000000000E+00  0.00000000000E+00 -0.54015579218E+03  0.54015579219E+03  0.25500000920E-02 0. -1.
    10030    2    1    2    0    0  0.00000000000E+00  0.00000000000E+00 -0.16847549790E+03  0.91183608647E+03  0.89613673912E+03 0.  0.
        5    1    3    3  502    0  0.15052389433E+02  0.24797403198E+03  0.29515558235E+03  0.38581939136E+03  0.46999998093E+01 0.  1.
       -5    1    3    3    0  502 -0.15052389433E+02 -0.24797403198E+03 -0.46363108025E+03  0.52601669511E+03  0.46999998093E+01 0. -1.
</event>
<event>
 5   0  0.2295158E-03  0.9029059E+03  0.7818609E-02  0.9421956E-01
        1   -1    0    0  501    0  0.00000000000E+00  0.00000000000E+00  0.81772758223E+03  0.81772758224E+03  0.50400001928E-02 0. -1.
       -1   -1    0    0    0  501  0.00000000000E+00  0.00000000000E+00 -0.24923920403E+03  0.24923920409E+03  0.50400001928E-02 0.  1.
    10030    2    1    2    0    0  0.00000000000E+00  0.00000000000E+00  0.56848837819E+03  0.10669667863E+04  0.90290591259E+03 0.  0.
        4    1    3    3  502    0 -0.57499520182E+02 -0.34505268061E+03 -0.52987918536E+02  0.35380344774E+03  0.12699999809E+01 0.  1.
       -4    1    3    3    0  502  0.57499520182E+02  0.34505268061E+03  0.62147629673E+03  0.71316333859E+03  0.12699999809E+01 0. -1.
</event>
<event>
 5   0  0.2129280E-03  0.9023130E+03  0.7818609E-02  0.9422695E-01
        1   -1    0    0  501    0  0.00000000000E+00  0.00000000000E+00  0.66313744908E+03  0.66313744909E+03  0.50400001928E-02 0. -1.
       -1   -1    0    0    0  501  0.00000000000E+00  0.00000000000E+00 -0.30693813249E+03  0.30693813253E+03  0.50400001928E-02 0.  1.
    10030    2    1    2    0    0  0.00000000000E+00  0.00000000000E+00  0.35619931658E+03  0.97007558163E+03  0.90231296175E+03 0.  0.
        3    1    3    3  502    0  0.53121214954E+02 -0.42713176676E+03  0.32747452181E+02  0.43166632424E+03  0.10100000352E+00 0. -1.
       -3    1    3    3    0  502 -0.53121214954E+02  0.42713176676E+03  0.32345186440E+03  0.53840925739E+03  0.10100000352E+00 0.  1.
</event>
<event>
 5   0  0.1436000E-03  0.8980855E+03  0.7818609E-02  0.9427978E-01
       -3   -1    0    0    0  501  0.00000000000E+00  0.00000000000E+00  0.32445939739E+03  0.32445941311E+03  0.10100000352E+00 0.  1.
        3   -1    0    0  501    0  0.00000000000E+00  0.00000000000E+00 -0.62146256633E+03  0.62146257454E+03  0.10100000352E+00 0. -1.
    10030    2    1    2    0    0  0.00000000000E+00  0.00000000000E+00 -0.29700316895E+03  0.94592198765E+03  0.89808547720E+03 0.  0.
        1    1    3    3  502    0  0.12943001503E+02  0.22554387587E+03 -0.55724687042E+03  0.60129995497E+03  0.50400001928E-02 0. -1.
       -1    1    3    3    0  502 -0.12943001503E+02 -0.22554387587E+03  0.26024370147E+03  0.34462203268E+03  0.50400001928E-02 0.  1.
</event>
<event>
 5   0  0.2074970E-03  0.8981153E+03  0.7818609E-02  0.9427941E-01
       -1   -1    0    0    0  501  0.00000000000E+00  0.00000000000E+00  0.22115460987E+03  0.22115460993E+03  0.50400001928E-02 0.  1.
        1   -1    0    0  501    0  0.00000000000E+00  0.00000000000E+00 -0.91181799955E+03  0.91181799956E+03  0.50400001928E-02 0. -1.
    10030    2    1    2    0    0  0.00000000000E+00  0.00000000000E+00 -0.69066338967E+03  0.11329726095E+04  0.89811525765E+03 0.  0.
        2    1    3    3  502    0  0.15150412517E+03  0.27073798168E+03  0.64219363186E+02  0.31682279160E+03  0.25500000920E-02 0.  1.
       -2    1    3    3    0  502 -0.15150412517E+03 -0.27073798168E+03 -0.75488275286E+03  0.81614981789E+03  0.25500000920E-02 0. -1.
</event>
<event>
 5   0  0.1436000E-03  0.8985634E+03  0.7818609E-02  0.9427379E-01
        3   -1    0    0  501    0  0.00000000000E+00  0.00000000000E+00  0.13090655489E+03  0.13090659386E+03  0.10100000352E+00 0.  1.
       -3   -1    0    0    0  501  0.00000000000E+00  0.00000000000E+00 -0.15419702099E+04  0.15419702132E+04  0.10100000352E+00 0. -1.
    10030    2    1    2    0    0  0.00000000000E+00  0.00000000000E+00 -0.14110636550E+04  0.16728768071E+04  0.89856339405E+03 0.  0.
        3    1    3    3  502    0  0.12901121534E+03  0.85879789086E+02 -0.14906293644E+04  0.14986644534E+04  0.10100000352E+00 0. -1.
       -3    1    3    3    0  502 -0.12901121534E+03 -0.85879789086E+02  0.79565709351E+02  0.17421235365E+03  0.10100000352E+00 0.  1.
</event>
<event>
 5   0  0.3663255E-03  0.9077053E+03  0.7818609E-02  0.9416000E-01
       -2   -1    0    0    0  501  0.00000000000E+00  0.00000000000E+00  0.29223882274E+03  0.29223882275E+03  0.25500000920E-02 0. -1.
        2   -1    0    0  501    0  0.00000000000E+00  0.00000000000E+00 -0.70484206512E+03  0.70484206512E+03  0.25500000920E-02 0.  1.
    10030    2    1    2    0    0  0.00000000000E+00  0.00000000000E+00 -0.41260324238E+03  0.99708088787E+03  0.90770527229E+03 0.  0.
        4    1    3    3  502    0  0.44373490462E+03  0.83595420017E+02 -0.15606277519E+03  0.47775104660E+03  0.12699999809E+01 0.  1.
       -4    1    3    3    0  502 -0.44373490462E+03 -0.83595420017E+02 -0.25654046718E+03  0.51932984127E+03  0.12699999809E+01 0. -1.
</event>
<event>
 5   0  0.2134145E-03  0.9016994E+03  0.7818609E-02  0.9423460E-01
       -1   -1    0    0    0  501  0.00000000000E+00  0.00000000000E+00  0.41311906637E+03  0.41311906640E+03  0.50400001928E-02 0. -1.
        1   -1    0    0  501    0  0.00000000000E+00  0.00000000000E+00 -0.49202636740E+03  0.49202636742E+03  0.50400001928E-02 0.  1.
    10030    2    1    2    0    0  0.00000000000E+00  0.00000000000E+00 -0.78907301027E+02  0.90514543383E+03  0.90169944783E+03 0.  0.
        1    1    3    3  502    0 -0.15657739031E+03 -0.45550463227E+02  0.38247893416E+03  0.41579016217E+03  0.50400001928E-02 0. -1.
       -1    1    3    3    0  502  0.15657739031E+03  0.45550463227E+02 -0.46138623519E+03  0.48935527166E+03  0.50400001928E-02 0.  1.
</event>
<event>
 5   0  0.2129280E-03  0.8976713E+03  0.7818609E-02  0.9428497E-01
       -1   -1    0    0    0  501  0.00000000000E+00  0.00000000000E+00  0.39635162304E+03  0.39635162307E+03  0.50400001928E-02 0.  1.
        1   -1    0    0  501    0  0.00000000000E+00  0.00000000000E+00 -0.50826950082E+03  0.50826950084E+03  0.50400001928E-02 0. -1.
    10030    2    1    2    0    0  0.00000000000E+00  0.00000000000E+00 -0.11191787778E+03  0.90462112391E+03  0.89767130202E+03 0.  0.
        3    1    3    3  502    0 -0.13879813392E+03  0.38070166690E+03  0.13855028979E+03  0.42824627747E+03  0.10100000352E+00 0.  1.
       -3    1    3    3    0  502  0.13879813392E+03 -0.38070166690E+03 -0.25046816757E+03  0.47637484645E+03  0.10100000352E+00 0. -1.
</event>
<event>
 5   0  0.3806019E-03  0.9022220E+03  0.7818609E-02  0.9422808E-01
        2   -1    0    0  501    0  0.00000000000E+00  0.00000000000E+00  0.12778182460E+04  0.12778182460E+04  0.25500000920E-02 0.  1.
       -2   -1    0    0    0  501  0.00000000000E+00  0.00000000000E+00 -0.15925670478E+03  0.15925670480E+03  0.25500000920E-02 0. -1.
    10030    2    1    2    0    0  0.00000000000E+00  0.00000000000E+00  0.11185615412E+04  0.14370749508E+04  0.90222197530E+03 0.  0.
        2    1    3    3  502    0  0.24901003500E+02  0.14806382023E+03 -0.11829070423E+03  0.19114299765E+03  0.25500000920E-02 0. -1.
       -2    1    3    3    0  502 -0.24901003500E+02 -0.14806382023E+03  0.12368522454E+04  0.12459319531E+04  0.25500000920E-02 0.  1.
</event>
<event>
 5   0  0.3663255E-03  0.9012737E+03  0.7818609E-02  0.9423991E-01
        2   -1    0    0  501    0  0.00000000000E+00  0.00000000000E+00  0.12002393142E+04  0.12002393142E+04  0.25500000920E-02 0. -1.
       -2   -1    0    0    0  501  0.00000000000E+00  0.00000000000E+00 -0.16919422214E+03  0.16919422216E+03  0.25500000920E-02 0.  1.
    10030    2    1    2    0    0  0.00000000000E+00  0.00000000000E+00  0.10310450920E+04  0.13694335363E+04  0.90127367022E+03 0.  0.
        4    1    3    3  502    0 -0.55021137132E+02 -0.34041642622E+03  0.74723719428E+02  0.35283978789E+03  0.12699999809E+01 0.  1.
       -4    1    3    3    0  502  0.55021137132E+02  0.34041642622E+03  0.95632137262E+03  0.10165937485E+04  0.12699999809E+01 0. -1.
</event>
<event>
 5   0  0.2130975E-03  0.8987747E+03  0.7818609E-02  0.9427114E-01
        1   -1    0    0  501    0  0.00000000000E+00  0.00000000000E+00  0.35604559119E+03  0.35604559122E+03  0.50400001928E-02 0.  1.
       -1   -1    0    0    0  501  0.00000000000E+00  0.00000000000E+00 -0.56719978775E+03  0.56719978777E+03  0.50400001928E-02 0. -1.
    10030    2    1    2    0    0  0.00000000000E+00  0.00000000000E+00 -0.21115419656E+03  0.92324537900E+03  0.89877468540E+03 0.  0.
        5    1    3    3  502    0  0.77038529807E+02 -0.29395743873E+03 -0.44562015126E+03  0.53939347426E+03  0.46999998093E+01 0. -1.
       -5    1    3    3    0  502 -0.77038529807E+02  0.29395743873E+03  0.23446595470E+03  0.38385190474E+03  0.46999998093E+01 0.  1.
</event>
<event>
 5   0  0.3663255E-03  0.8933490E+03  0.7818609E-02  0.9433934E-01
        2   -1    0    0  501    0  0.00000000000E+00  0.00000000000E+00  0.62551849302E+03  0.62551849303E+03  0.25500000920E-02 0. -1.
       -2   -1    0    0    0  501  0.00000000000E+00  0.00000000000E+00 -0.31896440052E+03  0.31896440053E+03  0.25500000920E-02 0.  1.
    10030    2    1    2    0    0  0.00000000000E+00  0.00000000000E+00  0.30655409250E+03  0.94448289356E+03  0.89334904970E+03 0.  0.
        4    1    3    3  502    0 -0.37587378010E+03 -0.81779176962E+02  0.39331343378E+03  0.55015089061E+03  0.12699999809E+01 0. -1.
       -4    1    3    3    0  502  0.37587378010E+03  0.81779176962E+02 -0.86759341272E+02  0.39433200295E+03  0.12699999809E+01 0.  1.
</event>
<event>
 5   0  0.2074970E-03  0.8968147E+03  0.7818609E-02  0.9429572E-01
        1   -1    0    0  501    0  0.00000000000E+00  0.00000000000E+00  0.12437372915E+04  0.12437372915E+04  0.50400001928E-02 0. -1.
       -1   -1    0    0    0  501  0.00000000000E+00  0.00000000000E+00 -0.16166527347E+03  0.16166527354E+03  0.50400001928E-02 0.  1.
    10030    2    1    2    0    0  0.00000000000E+00  0.00000000000E+00  0.10820720180E+04  0.14054025650E+04  0.89681465066E+03 0.  0.
        2    1    3    3  502    0  0.33227739657E+03  0.16840219808E+03  0.14988224755E+03  0.40153736654E+03  0.25500000920E-02 0.  1.
       -2    1    3    3    0  502 -0.33227739657E+03 -0.16840219808E+03  0.93218977047E+03  0.10038651985E+04  0.25500000920E-02 0. -1.
</event>
<event>
 5   0  0.3815269E-03  0.9017512E+03  0.7818609E-02  0.9423395E-01
       -2   -1    0    0    0  501  0.00000000000E+00  0.00000000000E+00  0.32288567257E+03  0.32288567258E+03  0.25500000920E-02 0.  1.
        2   -1    0    0  501    0  0.00000000000E+00  0.00000000000E+00 -0.62959998897E+03  0.62959998898E+03  0.25500000920E-02 0. -1.
    10030    2    1    2    0    0  0.00000000000E+00  0.00000000000E+00 -0.30671431640E+03  0.95248566156E+03  0.90175122045E+03 0.  0.
        5    1    3    3  502    0  0.43505215026E+03  0.86304653921E+02 -0.67885648934E+02  0.44871975448E+03  0.46999998093E+01 0.  1.
       -5    1    3    3    0  502 -0.43505215026E+03 -0.86304653921E+02 -0.23882866747E+03  0.50376590708E+03  0.46999998093E+01 0. -1.
</event>
<event>
 5   0  0.2074970E-03  0.8995186E+03  0.7818609E-02  0.9426183E-01
       -1   -1    0    0    0  501  0.00000000000E+00  0.00000000000E+00  0.54053010411E+03  0.54053010413E+03  0.50400001928E-02 0.  1.
        1   -1    0    0  501    0  0.00000000000E+00  0.00000000000E+00 -0.37423155703E+03  0.37423155706E+03  0.50400001928E-02 0. -1.
    10030    2    1    2    0    0  0.00000000000E+00  0.00000000000E+00  0.16629854708E+03  0.91476166119E+03  0.89951858793E+03 0.  0.
        2    1    3    3  502    0  0.39457183180E+03  0.19786069346E+03  0.17091139095E+03  0.47333549205E+03  0.25500000920E-02 0.  1.
       -2    1    3    3    0  502 -0.39457183180E+03 -0.19786069346E+03 -0.46128438662E+01  0.44142616914E+03  0.25500000920E-02 0. -1.
</event>
<event>
 5   0  0.3626546E-03  0.8838118E+03  0.7818609E-02  0.9446047E-01
       -2   -1    0    0    0  501  0.00000000000E+00  0.00000000000E+00  0.34525618724E+03  0.34525618725E+03  0.25500000920E-02 0.  1.
        2   -1    0    0  501    0  0.00000000000E+00  0.00000000000E+00 -0.56561141119E+03  0.56561141120E+03  0.25500000920E-02 0. -1.
    10030    2    1    2    0    0  0.00000000000E+00  0.00000000000E+00 -0.22035522395E+03  0.91086759845E+03  0.88381183358E+03 0.  0.
        3    1    3    3  502    0 -0.21868446676E+03 -0.35933107864E+03 -0.24974519496E+03  0.48919770306E+03  0.10100000352E+00 0. -1.
       -3    1    3    3    0  502  0.21868446676E+03  0.35933107864E+03  0.29389971007E+02  0.42166989538E+03  0.10100000352E+00 0.  1.
</event>
<event>
 5   0  0.1436000E-03  0.8986591E+03  0.7818609E-02  0.9427259E-01
       -4   -1    0    0    0  501  0.00000000000E+00  0.00000000000E+00  0.10401933191E+04  0.10401940944E+04  0.12699999809E+01 0. -1.
        4   -1    0    0  501    0  0.00000000000E+00  0.00000000000E+00 -0.19409278623E+03  0.19409694116E+03  0.12699999809E+01 0.  1.
    10030    2    1    2    0    0  0.00000000000E+00  0.00000000000E+00  0.84610053288E+03  0.12342910356E+04  0.89865913934E+03 0.  0.
        1    1    3    3  502    0  0.13463178013E+03 -0.20274569664E+03  0.94182892763E+03  0.97276577997E+03  0.50400001928E-02 0. -1.
       -1    1    3    3    0  502 -0.13463178013E+03  0.20274569664E+03 -0.95728394749E+02  0.26152525559E+03  0.50400001928E-02 0.  1.
</event>
<event>
 5   0  0.3806019E-03  0.8988812E+03  0.7818609E-02  0.9426981E-01
       -2   -1    0    0    0  501  0.00000000000E+00  0.00000000000E+00  0.10394973230E+03  0.10394973233E+03  0.25500000920E-02 0.  1.
        2   -1    0    0  501    0  0.00000000000E+00  0.00000000000E+00 -0.19432168047E+04  0.19432168047E+04  0.25500000920E-02 0. -1.
    10030    2    1    2    0    0  0.00000000000E+00  0.00000000000E+00 -0.18392670724E+04  0.20471665370E+04  0.89888123062E+03 0.  0.
        2    1    3    3  502    0  0.18688738944E+03 -0.35162279768E+03 -0.44500628631E+03  0.59715666541E+03  0.25500000920E-02 0.  1.
       -2    1    3    3    0  502 -0.18688738944E+03  0.35162279768E+03 -0.13942607861E+04  0.14500098716E+04  0.25500000920E-02 0. -1.
</event>
<event>
 5   0  0.1436000E-03  0.8944298E+03  0.7818609E-02  0.9432571E-01
       -3   -1    0    0    0  501  0.00000000000E+00  0.00000000000E+00  0.41022823785E+03  0.41022825028E+03  0.10100000352E+00 0. -1.
        3   -1    0    0  501    0  0.00000000000E+00  0.00000000000E+00 -0.48753630076E+03  0.48753631122E+03  0.10100000352E+00 0.  1.
    10030    2    1    2    0    0  0.00000000000E+00  0.00000000000E+00 -0.77308062912E+02  0.89776456150E+03  0.89442980233E+03 0.  0.
        2    1    3    3  502    0  0.30229166455E+03 -0.24486207389E+01 -0.36945055985E+03  0.47736774334E+03  0.25500000920E-02 0.  1.
       -2    1    3    3    0  502 -0.30229166455E+03  0.24486207389E+01  0.29214249694E+03  0.42039681816E+03  0.25500000920E-02 0. -1.
</event>
<event>
 5   0  0.3663255E-03  0.9005835E+03  0.7818609E-02  0.9424852E-01
       -2   -1    0    0    0  501  0.00000000000E+00  0.00000000000E+00  0.71888060586E+03  0.71888060586E+03  0.25500000920E-02 0.  1.
        2   -1    0    0  501    0  0.00000000000E+00  0.00000000000E+00 -0.28205333171E+03  0.28205333172E+03  0.25500000920E-02 0. -1.
    10030    2    1    2    0    0  0.00000000000E+00  0.00000000000E+00  0.43682727415E+03  0.10009339376E+04  0.90058352192E+03 0.  0.
        4    1    3    3  502    0 -0.43592210028E+01 -0.15383766710E+03 -0.25191361411E+03  0.29520689779E+03  0.12699999809E+01 0. -1.
       -4    1    3    3    0  502  0.43592210028E+01  0.15383766710E+03  0.68874088826E+03  0.70572703979E+03  0.12699999809E+01 0.  1.
</event>
<event>
 5   0  0.3815269E-03  0.8903796E+03  0.7818609E-02  0.9437688E-01
       -2   -1    0    0    0  501  0.00000000000E+00  0.00000000000E+00  0.16184139069E+03  0.16184139071E+03  0.25500000920E-02 0.  1.
        2   -1    0    0  501    0  0.00000000000E+00  0.00000000000E+00 -0.12246184856E+04  0.12246184856E+04  0.25500000920E-02 0. -1.
    10030    2    1    2    0    0  0.00000000000E+00  0.00000000000E+00 -0.10627770950E+04  0.13864598764E+04  0.89037960173E+03 0.  0.
        5    1    3    3  502    0 -0.24314000724E+03  0.18120433005E+03 -0.23889961813E+02  0.30421192058E+03  0.46999998093E+01 0.  1.
       -5    1    3    3    0  502  0.24314000724E+03 -0.18120433005E+03 -0.10388871331E+04  0.10822479558E+04  0.46999998093E+01 0. -1.
</event>
<event>
 5   0  0.2295158E-03  0.8999669E+03  0.7818609E-02  0.9425623E-01
       -1   -1    0    0    0  501  0.00000000000E+00  0.00000000000E+00  0.33151906109E+03  0.33151906113E+03  0.50400001928E-02 0. -1.
        1   -1    0    0  501    0  0.00000000000E+00  0.00000000000E+00 -0.61077970183E+03  0.61077970185E+03  0.50400001928E-02 0.  1.
    10030    2    1    2    0    0  0.00000000000E+00  0.00000000000E+00 -0.27926064074E+03  0.94229876298E+03  0.89996691786E+03 0.  0.
        4    1    3    3  502    0 -0.81014275090E+02 -0.39537561366E+03 -0.34798363357E+03  0.53289718593E+03  0.12699999809E+01 0.  1.
       -4    1    3    3    0  502  0.81014275090E+02  0.39537561366E+03  0.68722992829E+02  0.40940157705E+03  0.12699999809E+01 0. -1.
</event>
<event>
 5   0  0.1436000E-03  0.9001092E+03  0.7818609E-02  0.9425445E-01
        4   -1    0    0  501    0  0.00000000000E+00  0.00000000000E+00  0.11221232769E+04  0.11221239956E+04  0.12699999809E+01 0. -1.
       -4   -1    0    0    0  501  0.00000000000E+00  0.00000000000E+00 -0.18050222460E+03  0.18050669236E+03  0.12699999809E+01 0.  1.
    10030    2    1    2    0    0  0.00000000000E+00  0.00000000000E+00  0.94162105229E+03  0.13026306879E+04  0.90010916172E+03 0.  0.
        5    1    3    3  502    0 -0.41112556645E+03  0.11401106202E+03  0.67803851266E+03  0.80111239430E+03  0.46999998093E+01 0. -1.
       -5    1    3    3    0  502  0.41112556645E+03 -0.11401106202E+03  0.26358253962E+03  0.50151829363E+03  0.46999998093E+01 0.  1.
</event>
<event>
 5   0  0.3815269E-03  0.8978685E+03  0.7818609E-02  0.9428250E-01
        2   -1    0    0  501    0  0.00000000000E+00  0.00000000000E+00  0.11051453548E+04  0.11051453548E+04  0.25500000920E-02 0.  1.
       -2   -1    0    0    0  501  0.00000000000E+00  0.00000000000E+00 -0.18236690800E+03  0.18236690801E+03  0.25500000920E-02 0. -1.
    10030    2    1    2    0    0  0.00000000000E+00  0.00000000000E+00  0.92277844685E+03  0.12875122629E+04  0.89786845643E+03 0.  0.
        5    1    3    3  502    0 -0.15212418109E+02  0.79286773672E+02  0.10946144942E+04  0.10975977365E+04  0.46999998093E+01 0.  1.
       -5    1    3    3    0  502  0.15212418109E+02 -0.79286773672E+02 -0.17183604740E+03  0.18991452637E+03  0.46999998093E+01 0. -1.
</event>
<event>
 5   0  0.2129280E-03  0.9025206E+03  0.7818609E-02  0.9422436E-01
        1   -1    0    0  501    0  0.00000000000E+00  0.00000000000E+00  0.73325682745E+03  0.73325682746E+03  0.50400001928E-02 0. -1.
       -1   -1    0    0    0  501  0.00000000000E+00  0.00000000000E+00 -0.27771423746E+03  0.27771423751E+03  0.50400001928E-02 0.  1.
    10030    2    1    2    0    0  0.00000000000E+00  0.00000000000E+00  0.45554258998E+03  0.10109710650E+04  0.90252060526E+03 0.  0.
        3    1    3    3  502    0 -0.39349720324E+03  0.14851160714E+03  0.44597582860E+02  0.42294763389E+03  0.10100000352E+00 0.  1.
       -3    1    3    3    0  502  0.39349720324E+03 -0.14851160714E+03  0.41094500712E+03  0.58802343108E+03  0.10100000352E+00 0. -1.
</event>
<event>
 5   0  0.3685879E-03  0.8953778E+03  0.7818609E-02  0.9431378E-01
       -2   -1    0    0    0  501  0.00000000000E+00  0.00000000000E+00  0.25564346842E+03  0.25564346843E+03  0.25500000920E-02 0. -1.
        2   -1    0    0  501    0  0.00000000000E+00  0.00000000000E+00 -0.78400336676E+03  0.78400336676E+03  0.25500000920E-02 0.  1.
    10030    2    1    2    0    0  0.00000000000E+00  0.00000000000E+00 -0.52835989834E+03  0.10396468352E+04  0.89537777489E+03 0.  0.
        1    1    3    3  502    0  0.44735817048E+03  0.13652403579E+02 -0.27633684360E+03  0.52600168438E+03  0.50400001928E-02 0.  1.
       -1    1    3    3    0  502 -0.44735817048E+03 -0.13652403579E+02 -0.25202305474E+03  0.51364515082E+03  0.50400001928E-02 0. -1.
</event>
<event>
 5   0  0.2134145E-03  0.9023369E+03  0.7818609E-02  0.9422665E-01
        1   -1    0    0  501    0  0.00000000000E+00  0.00000000000E+00  0.86715573075E+03  0.86715573077E+03  0.50400001928E-02 0.  1.
       -1   -1    0    0    0  501  0.00000000000E+00  0.00000000000E+00 -0.23473633751E+03  0.23473633756E+03  0.50400001928E-02 0. -1.
    10030    2    1    2    0    0  0.00000000000E+00  0.00000000000E+00  0.63241939324E+03  0.11018920683E+04  0.90233687795E+03 0.  0.
        1    1    3    3  502    0 -0.39949940319E+03 -0.14964851155E+03  0.13690993091E+03  0.44803881457E+03  0.50400001928E-02 0. -1.
       -1    1    3    3    0  502  0.39949940319E+03  0.14964851155E+03  0.49550946234E+03  0.65385325376E+03  0.50400001928E-02 0.  1.
</event>
<event>
 5   0  0.3685879E-03  0.9040807E+03  0.7818609E-02  0.9420495E-01
       -2   -1    0    0    0  501  0.00000000000E+00  0.00000000000E+00  0.82832041856E+02  0.82832041895E+02  0.25500000920E-02 0.  1.
        2   -1    0    0  501    0  0.00000000000E+00  0.00000000000E+00 -0.24669254432E+04  0.24669254432E+04  0.25500000920E-02 0. -1.
    10030    2    1    2    0    0  0.00000000000E+00  0.00000000000E+00 -0.23840934013E+04  0.25497574850E+04  0.90408068581E+03 0.  0.
        1    1    3    3  502    0  0.42347219337E+03  0.58082975877E+01 -0.74631775938E+03  0.85810991887E+03  0.50400001928E-02 0.  1.
       -1    1    3    3    0  502 -0.42347219337E+03 -0.58082975877E+01 -0.16377756419E+04  0.16916475662E+04  0.50400001928E-02 0. -1.
</event>
<event>
 5   0  0.3685879E-03  0.9018153E+03  0.7818609E-02  0.9423315E-01
       -2   -1    0    0    0  501  0.00000000000E+00  0.00000000000E+00  0.83729819819E+02  0.83729819858E+02  0.25500000920E-02 0.  1.
        2   -1    0    0  501    0  0.00000000000E+00  0.00000000000E+00 -0.24282592321E+04  0.24282592321E+04  0.25500000920E-02 0. -1.
    10030    2    1    2    0    0  0.00000000000E+00  0.00000000000E+00 -0.23445294122E+04  0.25119890519E+04  0.90181529822E+03 0.  0.
        1    1    3    3  502    0  0.31730258117E+03  0.28421623799E+03 -0.76044752541E+03  0.87163079161E+03  0.50400001928E-02 0.  1.
       -1    1    3    3    0  502 -0.31730258117E+03 -0.28421623799E+03 -0.15840818868E+04  0.16403582603E+04  0.50400001928E-02 0. -1.
</event>
<event>
 5   0  0.3815269E-03  0.9004277E+03  0.7818609E-02  0.9425047E-01
       -2   -1    0    0    0  501  0.00000000000E+00  0.00000000000E+00  0.10054915126E+03  0.10054915129E+03  0.25500000920E-02 0.  1.
        2   -1    0    0  501    0  0.00000000000E+00  0.00000000000E+00 -0.20158549351E+04  0.20158549351E+04  0.25500000920E-02 0. -1.
    10030    2    1    2    0    0  0.00000000000E+00  0.00000000000E+00 -0.19153057838E+04  0.21164040864E+04  0.90042768242E+03 0.  0.
        5    1    3    3  502    0 -0.14530329544E+03 -0.33654722481E+03 -0.34341175325E+03  0.50232539699E+03  0.46999998093E+01 0. -1.
       -5    1    3    3    0  502  0.14530329544E+03  0.33654722481E+03 -0.15718940305E+04  0.16140786894E+04  0.46999998093E+01 0.  1.
</event>
<event>
 5   0  0.3626546E-03  0.9030173E+03  0.7818609E-02  0.9421818E-01
       -2   -1    0    0    0  501  0.00000000000E+00  0.00000000000E+00  0.66889535892E+03  0.66889535893E+03  0.25500000920E-02 0.  1.
        2   -1    0    0  501    0  0.00000000000E+00  0.00000000000E+00 -0.30477120553E+03  0.30477120554E+03  0.25500000920E-02 0. -1.
    10030    2    1    2    0    0  0.00000000000E+00  0.00000000000E+00  0.36412415340E+03  0.97366656447E+03  0.90301726433E+03 0.  0.
        3    1    3    3  502    0  0.27650576219E+03 -0.12057856239E+03 -0.18017644439E+03  0.35136617303E+03  0.10100000352E+00 0. -1.
       -3    1    3    3    0  502 -0.27650576219E+03  0.12057856239E+03  0.54430059779E+03  0.62230039144E+03  0.10100000352E+00 0.  1.
</event>
<event>
 5   0  0.2074970E-03  0.8999156E+03  0.7818609E-02  0.9425687E-01
       -1   -1    0    0    0  501  0.00000000000E+00  0.00000000000E+00  0.24673603164E+03  0.24673603169E+03  0.50400001928E-02 0.  1.
        1   -1    0    0  501    0  0.00000000000E+00  0.00000000000E+00 -0.82056122387E+03  0.82056122389E+03  0.50400001928E-02 0. -1.
    10030    2    1    2    0    0  0.00000000000E+00  0.00000000000E+00 -0.57382519223E+03  0.10672972556E+04  0.89991559633E+03 0.  0.
        2    1    3    3  502    0 -0.18999359240E+03 -0.40692397572E+03 -0.31997901423E+03  0.55142656513E+03  0.25500000920E-02 0.  1.
       -2    1    3    3    0  502  0.18999359240E+03  0.40692397572E+03 -0.25384617800E+03  0.51587069045E+03  0.25500000920E-02 0. -1.
</event>
<event>
 5   0  0.2129280E-03  0.8981037E+03  0.7818609E-02  0.9427955E-01
        1   -1    0    0  501    0  0.00000000000E+00  0.00000000000E+00  0.35257994661E+03  0.35257994665E+03  0.50400001928E-02 0.  1.
       -1   -1    0    0    0  501  0.00000000000E+00  0.00000000000E+00 -0.57192009996E+03  0.57192009999E+03  0.50400001928E-02 0. -1.
    10030    2    1    2    0    0  0.00000000000E+00  0.00000000000E+00 -0.21934015335E+03  0.92450004664E+03  0.89810368742E+03 0.  0.
        3    1    3    3  502    0 -0.14917155431E+03  0.89320293451E+02  0.31652434253E+03  0.36113423689E+03  0.10100000352E+00 0.  1.
       -3    1    3    3    0  502  0.14917155431E+03 -0.89320293451E+02 -0.53586449588E+03  0.56336580974E+03  0.10100000352E+00 0. -1.
</event>
<event>
 5   0  0.1436000E-03  0.8980549E+03  0.7818609E-02  0.9428016E-01
       -3   -1    0    0    0  501  0.00000000000E+00  0.00000000000E+00  0.43101985986E+03  0.43101987169E+03  0.10100000352E+00 0.  1.
        3   -1    0    0  501    0  0.00000000000E+00  0.00000000000E+00 -0.46778738753E+03  0.46778739844E+03  0.10100000352E+00 0. -1.
    10030    2    1    2    0    0  0.00000000000E+00  0.00000000000E+00 -0.36767527675E+02  0.89880727013E+03  0.89805493025E+03 0.  0.
        2    1    3    3  502    0 -0.45956109041E+02 -0.65216944738E+02  0.42386926788E+03  0.43131238111E+03  0.25500000920E-02 0.  1.
       -2    1    3    3    0  502  0.45956109041E+02  0.65216944738E+02 -0.46063679555E+03  0.46749488902E+03  0.25500000920E-02 0. -1.
</event>
<event>
 5   0  0.1436000E-03  0.9008811E+03  0.7818609E-02  0.9424481E-01
        3   -1    0    0  501    0  0.00000000000E+00  0.00000000000E+00  0.24784399447E+03  0.24784401505E+03  0.10100000352E+00 0. -1.
       -3   -1    0    0    0  501  0.00000000000E+00  0.00000000000E+00 -0.81864675984E+03  0.81864676607E+03  0.10100000352E+00 0.  1.
    10030    2    1    2    0    0  0.00000000000E+00  0.00000000000E+00 -0.57080276536E+03  0.10664907811E+04  0.90088111827E+03 0.  0.
        5    1    3    3  502    0 -0.47763019990E+02  0.31941541586E+03 -0.65706974673E+03  0.73216818835E+03  0.46999998093E+01 0.  1.
       -5    1    3    3    0  502  0.47763019990E+02 -0.31941541586E+03  0.86266981361E+02  0.33432259277E+03  0.46999998093E+01 0. -1.
</event>
<event>
 5   0  0.2074970E-03  0.9024442E+03  0.7818609E-02  0.9422531E-01
       -1   -1    0    0    0  501  0.00000000000E+00  0.00000000000E+00  0.20827411113E+03  0.20827411119E+03  0.50400001928E-02 0. -1.
        1   -1    0    0  501    0  0.00000000000E+00  0.00000000000E+00 -0.97756456806E+03  0.97756456807E+03  0.50400001928E-02 0.  1.
    10030    2    1    2    0    0  0.00000000000E+00  0.00000000000E+00 -0.76929045693E+03  0.11858386793E+04  0.90244421773E+03 0.  0.
        2    1    3    3  502    0 -0.32238084042E+03 -0.16603088398E+02  0.29631372204E+02  0.32416521566E+03  0.25500000920E-02 0. -1.
       -2    1    3    3    0  502  0.32238084042E+03  0.16603088398E+02 -0.79892182913E+03  0.86167346361E+03  0.25500000920E-02 0.  1.
</event>
<event>
 5   0  0.2134145E-03  0.9002228E+03  0.7818609E-02  0.9425303E-01
       -1   -1    0    0    0  501  0.00000000000E+00  0.00000000000E+00  0.76084556514E+03  0.76084556516E+03  0.50400001928E-02 0.  1.
        1   -1    0    0  501    0  0.00000000000E+00  0.00000000000E+00 -0.26628304091E+03  0.26628304096E+03  0.50400001928E-02 0. -1.
    10030    2    1    2    0    0  0.00000000000E+00  0.00000000000E+00  0.49456252423E+03  0.10271286061E+04  0.90022279638E+03 0.  0.
        1    1    3    3  502    0  0.71948485388E+02 -0.28626460575E+03 -0.14044139144E+03  0.32687580747E+03  0.50400001928E-02 0. -1.
       -1    1    3    3    0  502 -0.71948485388E+02  0.28626460575E+03  0.63500391568E+03  0.70025279864E+03  0.50400001928E-02 0.  1.
</event>
<event>
 5   0  0.3685879E-03  0.8912259E+03  0.7818609E-02  0.9436616E-01
        2   -1    0    0  501    0  0.00000000000E+00  0.00000000000E+00  0.15882728316E+04  0.15882728316E+04  0.25500000920E-02 0.  1.
       -2   -1    0    0    0  501  0.00000000000E+00  0.00000000000E+00 -0.12502315867E+03  0.12502315870E+03  0.25500000920E-02 0. -1.
    10030    2    1    2    0    0  0.00000000000E+00  0.00000000000E+00  0.14632496729E+04  0.17132959902E+04  0.89122586645E+03 0.  0.
        1    1    3    3  502    0 -0.30962079752E+03  0.12808273963E+03  0.12963688991E+04  0.13389707051E+04  0.50400001928E-02 0.  1.
       -1    1    3    3    0  502  0.30962079752E+03 -0.12808273963E+03  0.16688077380E+03  0.37432528520E+03  0.50400001928E-02 0. -1.
</event>
<event>
 5   0  0.2129280E-03  0.9008465E+03  0.7818609E-02  0.9424524E-01
        1   -1    0    0  501    0  0.00000000000E+00  0.00000000000E+00  0.26536795851E+03  0.26536795856E+03  0.50400001928E-02 0.  1.
       -1   -1    0    0    0  501  0.00000000000E+00  0.00000000000E+00 -0.76452745616E+03  0.76452745617E+03  0.50400001928E-02 0. -1.
    10030    2    1    2    0    0  0.00000000000E+00  0.00000000000E+00 -0.49915949764E+03  0.10298954147E+04  0.90084646927E+03 0.  0.
        3    1    3    3  502    0 -0.21098182402E+01  0.32959033874E+03 -0.60055438834E+03  0.68505461555E+03  0.10100000352E+00 0. -1.
       -3    1    3    3    0  502  0.21098182402E+01 -0.32959033874E+03  0.10139489070E+03  0.34484079919E+03  0.10100000352E+00 0.  1.
</event>
<event>
 5   0  0.3806019E-03  0.9010534E+03  0.7818609E-02  0.9424266E-01
       -2   -1    0    0    0  501  0.00000000000E+00  0.00000000000E+00  0.72455813317E+03  0.72455813317E+03  0.25500000920E-02 0. -1.
        2   -1    0    0  501    0  0.00000000000E+00  0.00000000000E+00 -0.28013528227E+03  0.28013528229E+03  0.25500000920E-02 0.  1.
    10030    2    1    2    0    0  0.00000000000E+00  0.00000000000E+00  0.44442285089E+03  0.10046934155E+04  0.90105337726E+03 0.  0.
        2    1    3    3  502    0  0.17321394179E+03  0.11679899945E+03 -0.22286106725E+03  0.30547034424E+03  0.25500000920E-02 0.  1.
       -2    1    3    3    0  502 -0.17321394179E+03 -0.11679899945E+03  0.66728391814E+03  0.69922307122E+03  0.25500000920E-02 0. -1.
</event>
<event>
 5   0  0.2130975E-03  0.8969254E+03  0.7818609E-02  0.9429433E-01
        1   -1    0    0  501    0  0.00000000000E+00  0.00000000000E+00  0.62896716390E+03  0.62896716392E+03  0.50400001928E-02 0.  1.
       -1   -1    0    0    0  501  0.00000000000E+00  0.00000000000E+00 -0.31976040307E+03  0.31976040311E+03  0.50400001928E-02 0. -1.
    10030    2    1    2    0    0  0.00000000000E+00  0.00000000000E+00  0.30920676083E+03  0.94872756703E+03  0.89692540131E+03 0.  0.
        5    1    3    3  502    0 -0.21581085475E+03  0.38638422039E+03  0.23109607779E+03  0.49929407964E+03  0.46999998093E+01 0.  1.
       -5    1    3    3    0  502  0.21581085475E+03 -0.38638422039E+03  0.78110683039E+02  0.44943348740E+03  0.46999998093E+01 0. -1.
</event>
<event>
 5   0  0.3663255E-03  0.9155251E+03  0.7818609E-02  0.9406380E-01
        2   -1    0    0  501    0  0.00000000000E+00  0.00000000000E+00  0.14567470238E+04  0.14567470238E+04  0.25500000920E-02 0. -1.
       -2   -1    0    0    0  501  0.00000000000E+00  0.00000000000E+00 -0.14384552770E+03  0.14384552773E+03  0.25500000920E-02 0.  1.
    10030    2    1    2    0    0  0.00000000000E+00  0.00000000000E+00  0.13129014961E+04  0.16005925515E+04  0.91552508297E+03 0.  0.
        4    1    3    3  502    0  0.36863403041E+03 -0.18408855605E+03  0.30782247637E+03  0.51433056948E+03  0.12699999809E+01 0.  1.
       -4    1    3    3    0  502 -0.36863403041E+03  0.18408855605E+03  0.10050790197E+04  0.10862619820E+04  0.12699999809E+01 0. -1.
</event>
<event>
 5   0  0.3685879E-03  0.8996937E+03  0.7818609E-02  0.9425964E-01
        2   -1    0    0  501    0  0.00000000000E+00  0.00000000000E+00  0.98919920656E+03  0.98919920657E+03  0.25500000920E-02 0. -1.
       -2   -1    0    0    0  501  0.00000000000E+00  0.00000000000E+00 -0.20457173087E+03  0.20457173089E+03  0.25500000920E-02 0.  1.
    10030    2    1    2    0    0  0.00000000000E+00  0.00000000000E+00  0.78462747569E+03  0.11937709375E+04  0.89969371205E+03 0.  0.
        1    1    3    3  502    0 -0.12747449397E+03  0.12819747532E+03  0.93887506425E+03  0.95612275654E+03  0.50400001928E-02 0. -1.
       -1    1    3    3    0  502  0.12747449397E+03 -0.12819747532E+03 -0.15424758856E+03  0.23764818091E+03  0.50400001928E-02 0.  1.
</event>
<event>
 5   0  0.3685879E-03  0.8951657E+03  0.7818609E-02  0.9431645E-01
        2   -1    0    0  501    0  0.00000000000E+00  0.00000000000E+00  0.15142551693E+04  0.15142551693E+04  0.25500000920E-02 0. -1.
       -2   -1    0    0    0  501  0.00000000000E+00  0.00000000000E+00 -0.13229634089E+03  0.13229634092E+03  0.25500000920E-02 0.  1.
    10030    2    1    2    0    0  0.00000000000E+00  0.00000000000E+00  0.13819588284E+04  0.16465515102E+04  0.89516572343E+03 0.  0.
        1    1    3    3  502    0 -0.11289012981E+03  0.30293817191E+03  0.12161810585E+03  0.34540799225E+03  0.50400001928E-02 0.  1.
       -1    1    3    3    0  502  0.11289012981E+03 -0.30293817191E+03  0.12603407226E+04  0.13011435180E+04  0.50400001928E-02 0. -1.
</event>
<event>
 5   0  0.2295158E-03  0.8986868E+03  0.7818609E-02  0.9427224E-01
       -1   -1    0    0    0  501  0.00000000000E+00  0.00000000000E+00  0.99848902960E+03  0.99848902961E+03  0.50400001928E-02 0.  1.
        1   -1    0    0  501    0  0.00000000000E+00  0.00000000000E+00 -0.20221504404E+03  0.20221504410E+03  0.50400001928E-02 0. -1.
    10030    2    1    2    0    0  0.00000000000E+00  0.00000000000E+00  0.79627398556E+03  0.12007040737E+04  0.89868682673E+03 0.  0.
        4    1    3    3  502    0 -0.57201262803E+02 -0.28925595716E+03  0.85115348538E+03  0.90078014065E+03  0.12699999809E+01 0.  1.
       -4    1    3    3    0  502  0.57201262803E+02  0.28925595716E+03 -0.54879499820E+02  0.29992393306E+03  0.12699999809E+01 0. -1.
</event>
<event>
 5   0  0.3663255E-03  0.8987965E+03  0.7818609E-02  0.9427087E-01
        2   -1    0    0  501    0  0.00000000000E+00  0.00000000000E+00  0.44961522861E+03  0.44961522861E+03  0.25500000920E-02 0.  1.
       -2   -1    0    0    0  501  0.00000000000E+00  0.00000000000E+00 -0.44918135248E+03  0.44918135249E+03  0.25500000920E-02 0. -1.
    10030    2    1    2    0    0  0.00000000000E+00  0.00000000000E+00  0.43387612541E+00  0.89879658110E+03  0.89879647638E+03 0.  0.
        4    1    3    3  502    0  0.10093010796E+02  0.40837691381E+03 -0.18708922617E+03  0.44930787223E+03  0.12699999809E+01 0. -1.
       -4    1    3    3    0  502 -0.10093010796E+02 -0.40837691381E+03  0.18752310230E+03  0.44948870887E+03  0.12699999809E+01 0.  1.
</event>
<event>
 5   0  0.3663255E-03  0.9000760E+03  0.7818609E-02  0.9425486E-01
        2   -1    0    0  501    0  0.00000000000E+00  0.00000000000E+00  0.24200783816E+04  0.24200783816E+04  0.25500000920E-02 0. -1.
       -2   -1    0    0    0  501  0.00000000000E+00  0.00000000000E+00 -0.83689116175E+02  0.83689116214E+02  0.25500000920E-02 0.  1.
    10030    2    1    2    0    0  0.00000000000E+00  0.00000000000E+00  0.23363892654E+04  0.25037674978E+04  0.90007604319E+03 0.  0.
        4    1    3    3  502    0 -0.19158505315E+03  0.40719089461E+03  0.11547525946E+04  0.12393403184E+04  0.12699999809E+01 0. -1.
       -4    1    3    3    0  502  0.19158505315E+03 -0.40719089461E+03  0.11816366708E+04  0.12644271794E+04  0.12699999809E+01 0.  1.
</event>
<event>
 5   0  0.1436000E-03  0.9035962E+03  0.7818609E-02  0.9421097E-01
        4   -1    0    0  501    0  0.00000000000E+00  0.00000000000E+00  0.23732840692E+03  0.23733180493E+03  0.12699999809E+01 0.  1.
       -4   -1    0    0    0  501  0.00000000000E+00  0.00000000000E+00 -0.86007046693E+03  0.86007140459E+03  0.12699999809E+01 0. -1.
    10030    2    1    2    0    0  0.00000000000E+00  0.00000000000E+00 -0.62274206001E+03  0.10974032095E+04  0.90359622119E+03 0.  0.
        5    1    3    3  502    0  0.10449567629E+03  0.29844109561E+03  0.80501047017E+02  0.32632643546E+03  0.46999998093E+01 0.  1.
       -5    1    3    3    0  502 -0.10449567629E+03 -0.29844109561E+03 -0.70324310703E+03  0.77107677406E+03  0.46999998093E+01 0. -1.
</event>
<event>
 5   0  0.3685879E-03  0.9000877E+03  0.7818609E-02  0.9425472E-01
       -2   -1    0    0    0  501  0.00000000000E+00  0.00000000000E+00  0.15292254283E+03  0.15292254285E+03  0.25500000920E-02 0. -1.
        2   -1    0    0  501    0  0.00000000000E+00  0.00000000000E+00 -0.13244577491E+04  0.13244577491E+04  0.25500000920E-02 0.  1.
    10030    2    1    2    0    0  0.00000000000E+00  0.00000000000E+00 -0.11715352063E+04  0.14773802920E+04  0.90008765547E+03 0.  0.
        1    1    3    3  502    0 -0.18409340524E+03  0.33880237606E+03 -0.20483443032E+03  0.43661719589E+03  0.50400001928E-02 0. -1.
       -1    1    3    3    0  502  0.18409340524E+03 -0.33880237606E+03 -0.96670077599E+03  0.10407630961E+04  0.50400001928E-02 0.  1.
</event>
<event>
 5   0  0.2129280E-03  0.9047571E+03  0.7818609E-02  0.9419654E-01
        1   -1    0    0  501    0  0.00000000000E+00  0.00000000000E+00  0.24400262560E+03  0.24400262565E+03  0.50400001928E-02 0. -1.
       -1   -1    0    0    0  501  0.00000000000E+00  0.00000000000E+00 -0.83870550029E+03  0.83870550030E+03  0.50400001928E-02 0.  1.
    10030    2    1    2    0    0  0.00000000000E+00  0.00000000000E+00 -0.59470287469E+03  0.10827081260E+04  0.90475708168E+03 0.  0.
        3    1    3    3  502    0  0.18736614684E+03 -0.17209630197E+03  0.15028368152E+03  0.29547995747E+03  0.10100000352E+00 0. -1.
       -3    1    3    3    0  502 -0.18736614684E+03  0.17209630197E+03 -0.74498655621E+03  0.78722816849E+03  0.10100000352E+00 0.  1.
</event>
<event>
 5   0  0.2130975E-03  0.8997762E+03  0.7818609E-02  0.9425861E-01
        1   -1    0    0  501    0  0.00000000000E+00  0.00000000000E+00  0.23368643433E+04  0.23368643433E+04  0.50400001928E-02 0.  1.
       -1   -1    0    0    0  501  0.00000000000E+00  0.00000000000E+00 -0.86611492634E+02  0.86611492781E+02  0.50400001928E-02 0. -1.
    10030    2    1    2    0    0  0.00000000000E+00  0.00000000000E+00  0.22502528507E+04  0.24234758361E+04  0.89977621449E+03 0.  0.
        5    1    3    3  502    0 -0.39787487630E+03  0.18835563651E+03  0.13748307220E+04  0.14435940798E+04  0.46999998093E+01 0.  1.
       -5    1    3    3    0  502  0.39787487630E+03 -0.18835563651E+03  0.87542212864E+03  0.97988175629E+03  0.46999998093E+01 0. -1.
</event>
<event>
 5   0  0.2130975E-03  0.9001618E+03  0.7818609E-02  0.9425379E-01
        1   -1    0    0  501    0  0.00000000000E+00  0.00000000000E+00  0.18986922883E+03  0.18986922890E+03  0.50400001928E-02 0. -1.
       -1   -1    0    0    0  501  0.00000000000E+00  0.00000000000E+00 -0.10669069437E+04  0.10669069437E+04  0.50400001928E-02 0.  1.
    10030    2    1    2    0    0  0.00000000000E+00  0.00000000000E+00 -0.87703771487E+03  0.12567761726E+04  0.90016176031E+03 0.  0.
        5    1    3    3  502    0  0.36771897199E+03 -0.19044149280E+03 -0.68459900664E+03  0.80011442584E+03  0.46999998093E+01 0.  1.
       -5    1    3    3    0  502 -0.36771897199E+03  0.19044149280E+03 -0.19243870823E+03  0.45666174677E+03  0.46999998093E+01 0. -1.
</event>
<event>
 5   0  0.2074970E-03  0.9133416E+03  0.7818609E-02  0.9409056E-01
        1   -1    0    0  501    0  0.00000000000E+00  0.00000000000E+00  0.45732923267E+03  0.45732923270E+03  0.50400001928E-02 0.  1.
       -1   -1    0    0    0  501  0.00000000000E+00  0.00000000000E+00 -0.45601329727E+03  0.45601329730E+03  0.50400001928E-02 0. -1.
    10030    2    1    2    0    0  0.00000000000E+00  0.00000000000E+00  0.13159353957E+01  0.91334253000E+03  0.91334158200E+03 0.  0.
        2    1    3    3  502    0 -0.93850167410E+02  0.54901616053E+02 -0.44288073226E+03  0.45603221858E+03  0.25500000920E-02 0. -1.
       -2    1    3    3    0  502  0.93850167410E+02 -0.54901616053E+02  0.44419666766E+03  0.45731031142E+03  0.25500000920E-02 0.  1.
</event>
<event>
 5   0  0.3626546E-03  0.8960028E+03  0.7818609E-02  0.9430592E-01
       -2   -1    0    0    0  501  0.00000000000E+00  0.00000000000E+00  0.51318797039E+03  0.51318797040E+03  0.25500000920E-02 0. -1.
        2   -1    0    0  501    0  0.00000000000E+00  0.00000000000E+00 -0.39109497336E+03  0.39109497337E+03  0.25500000920E-02 0.  1.
    10030    2    1    2    0    0  0.00000000000E+00  0.00000000000E+00  0.12209299703E+03  0.90428294377E+03  0.89600275807E+03 0.  0.
        3    1    3    3  502    0 -0.36320275791E+03  0.25892976335E+03  0.10319799688E+03  0.45783261402E+03  0.10100000352E+00 0. -1.
       -3    1    3    3    0  502  0.36320275791E+03 -0.25892976335E+03  0.18895000147E+02  0.44645032975E+03  0.10100000352E+00 0.  1.
</event>
<event>
 5   0  0.3815269E-03  0.9006034E+03  0.7818609E-02  0.9424827E-01
        2   -1    0    0  501    0  0.00000000000E+00  0.00000000000E+00  0.24007036499E+04  0.24007036499E+04  0.25500000920E-02 0. -1.
       -2   -1    0    0    0  501  0.00000000000E+00  0.00000000000E+00 -0.84463419507E+02  0.84463419545E+02  0.25500000920E-02 0.  1.
    10030    2    1    2    0    0  0.00000000000E+00  0.00000000000E+00  0.23162402304E+04  0.24851670694E+04  0.90060344113E+03 0.  0.
        5    1    3    3  502    0  0.27489271689E+03  0.34884532342E+03  0.13625890367E+04  0.14331538782E+04  0.46999998093E+01 0. -1.
       -5    1    3    3    0  502 -0.27489271689E+03 -0.34884532342E+03  0.95365119365E+03  0.10520131913E+04  0.46999998093E+01 0.  1.
</event>
<event>
 5   0  0.3806019E-03  0.9058595E+03  0.7818609E-02  0.9418286E-01
       -2   -1    0    0    0  501  0.00000000000E+00  0.00000000000E+00  0.94853626067E+03  0.94853626068E+03  0.25500000920E-02 0.  1.
        2   -1    0    0  501    0  0.00000000000E+00  0.00000000000E+00 -0.21627572490E+03  0.21627572492E+03  0.25500000920E-02 0. -1.
    10030    2    1    2    0    0  0.00000000000E+00  0.00000000000E+00  0.73226053577E+03  0.11648119856E+04  0.90585951976E+03 0.  0.
        2    1    3    3  502    0  0.56556175866E+02 -0.67539706558E+02  0.93741447830E+03  0.94154453805E+03  0.25500000920E-02 0.  1.
       -2    1    3    3    0  502 -0.56556175866E+02  0.67539706558E+02 -0.20515394253E+03  0.22326744754E+03  0.25500000920E-02 0. -1.
</event>
<event>
 5   0  0.2074970E-03  0.8913295E+03  0.7818609E-02  0.9436485E-01
        1   -1    0    0  501    0  0.00000000000E+00  0.00000000000E+00  0.82059915101E+03  0.82059915103E+03  0.50400001928E-02 0.  1.
       -1   -1    0    0    0  501  0.00000000000E+00  0.00000000000E+00 -0.24203907811E+03  0.24203907816E+03  0.50400001928E-02 0. -1.
    10030    2    1    2    0    0  0.00000000000E+00  0.00000000000E+00  0.57856007291E+03  0.10626382292E+04  0.89132948351E+03 0.  0.
        2    1    3    3  502    0 -0.43815740196E+03  0.12781470848E+02  0.38518901731E+03  0.58353736294E+03  0.25500000920E-02 0.  1.
       -2    1    3    3    0  502  0.43815740196E+03 -0.12781470848E+02  0.19337105560E+03  0.47910086624E+03  0.25500000920E-02 0. -1.
</event>
<event>
 5   0  0.3685879E-03  0.8986432E+03  0.7818609E-02  0.9427279E-01
       -2   -1    0    0    0  501  0.00000000000E+00  0.00000000000E+00  0.43847483739E+03  0.43847483739E+03  0.25500000920E-02 0.  1.
        2   -1    0    0  501    0  0.00000000000E+00  0.00000000000E+00 -0.46043670153E+03  0.46043670153E+03  0.25500000920E-02 0. -1.
    10030    2    1    2    0    0  0.00000000000E+00  0.00000000000E+00 -0.21961864139E+02  0.89891153893E+03  0.89864321693E+03 0.  0.
        1    1    3    3  502    0  0.39649033072E+02  0.32578278241E+03  0.29600390912E+03  0.44195563282E+03  0.50400001928E-02 0.  1.
       -1    1    3    3    0  502 -0.39649033072E+02 -0.32578278241E+03 -0.31796577326E+03  0.45695590611E+03  0.50400001928E-02 0. -1.
</event>
<event>
 5   0  0.1436000E-03  0.9124457E+03  0.7818609E-02  0.9410156E-01
        3   -1    0    0  501    0  0.00000000000E+00  0.00000000000E+00  0.58975318048E+03  0.58975318913E+03  0.10100000352E+00 0.  1.
       -3   -1    0    0    0  501  0.00000000000E+00  0.00000000000E+00 -0.35292604940E+03  0.35292606385E+03  0.10100000352E+00 0. -1.
    10030    2    1    2    0    0  0.00000000000E+00  0.00000000000E+00  0.23682713109E+03  0.94267925298E+03  0.91244566084E+03 0.  0.
        4    1    3    3  502    0  0.42139127880E+03 -0.88828924003E+02 -0.37163175034E+02  0.43225444135E+03  0.12699999809E+01 0. -1.
       -4    1    3    3    0  502 -0.42139127880E+03  0.88828924003E+02  0.27399030612E+03  0.51042481163E+03  0.12699999809E+01 0.  1.
</event>
<event>
 5   0  0.1436000E-03  0.8990870E+03  0.7818609E-02  0.9426723E-01
       -4   -1    0    0    0  501  0.00000000000E+00  0.00000000000E+00  0.18825804968E+04  0.18825809251E+04  0.12699999809E+01 0.  1.
        4   -1    0    0  501    0  0.00000000000E+00  0.00000000000E+00 -0.10734280572E+03  0.10735031830E+03  0.12699999809E+01 0. -1.
    10030    2    1    2    0    0  0.00000000000E+00  0.00000000000E+00  0.17752376910E+04  0.19899312434E+04  0.89908703354E+03 0.  0.
        3    1    3    3  502    0 -0.33192796298E+03 -0.23481429448E+03  0.46317986566E+03  0.61631933577E+03  0.10100000352E+00 0. -1.
       -3    1    3    3    0  502  0.33192796298E+03  0.23481429448E+03  0.13120578254E+04  0.13736119077E+04  0.10100000352E+00 0.  1.
</event>
<event>
 5   0  0.2134145E-03  0.9040880E+03  0.7818609E-02  0.9420486E-01
        1   -1    0    0  501    0  0.00000000000E+00  0.00000000000E+00  0.43108346928E+03  0.43108346931E+03  0.50400001928E-02 0.  1.
       -1   -1    0    0    0  501  0.00000000000E+00  0.00000000000E+00 -0.47402369345E+03  0.47402369348E+03  0.50400001928E-02 0. -1.
    10030    2    1    2    0    0  0.00000000000E+00  0.00000000000E+00 -0.42940224173E+02  0.90510716279E+03  0.90408800085E+03 0.  0.
        1    1    3    3  502    0  0.46173318328E+02 -0.44783984254E+03  0.19211621101E+02  0.45062355276E+03  0.50400001928E-02 0. -1.
       -1    1    3    3    0  502 -0.46173318328E+02  0.44783984254E+03 -0.62151845274E+02  0.45448361003E+03  0.50400001928E-02 0.  1.
</event>
<event>
 5   0  0.2129280E-03  0.9001225E+03  0.7818609E-02  0.9425428E-01
       -1   -1    0    0    0  501  0.00000000000E+00  0.00000000000E+00  0.10150322268E+03  0.10150322281E+03  0.50400001928E-02 0. -1.
        1   -1    0    0  501    0  0.00000000000E+00  0.00000000000E+00 -0.19955537295E+04  0.19955537295E+04  0.50400001928E-02 0.  1.
    10030    2    1    2    0    0  0.00000000000E+00  0.00000000000E+00 -0.18940505068E+04  0.20970569523E+04  0.90012251324E+03 0.  0.
        3    1    3    3  502    0  0.21222932768E+03  0.39546459016E+03 -0.86900153997E+03  0.97805787981E+03  0.10100000352E+00 0.  1.
       -3    1    3    3    0  502 -0.21222932768E+03 -0.39546459016E+03 -0.10250489668E+04  0.11189990725E+04  0.10100000352E+00 0. -1.
</event>
<event>
 5   0  0.2074970E-03  0.8957636E+03  0.7818609E-02  0.9430893E-01
       -1   -1    0    0    0  501  0.00000000000E+00  0.00000000000E+00  0.60813012320E+03  0.60813012322E+03  0.50400001928E-02 0. -1.
        1   -1    0    0  501    0  0.00000000000E+00  0.00000000000E+00 -0.32986051485E+03  0.32986051489E+03  0.50400001928E-02 0.  1.
    10030    2    1    2    0    0  0.00000000000E+00  0.00000000000E+00  0.27826960835E+03  0.93799063811E+03  0.89576361963E+03 0.  0.
        2    1    3    3  502    0  0.25019866299E+03  0.12864706094E+03  0.50405800887E+03  0.57725550111E+03  0.25500000920E-02 0. -1.
       -2    1    3    3    0  502 -0.25019866299E+03 -0.12864706094E+03 -0.22578840052E+03  0.36073513700E+03  0.25500000920E-02 0.  1.
</event>
<event>
 5   0  0.2129280E-03  0.8971547E+03  0.7818609E-02  0.9429145E-01
       -1   -1    0    0    0  501  0.00000000000E+00  0.00000000000E+00  0.30112690895E+03  0.30112690900E+03  0.50400001928E-02 0.  1.
        1   -1    0    0  501    0  0.00000000000E+00  0.00000000000E+00 -0.66822867186E+03  0.66822867188E+03  0.50400001928E-02 0. -1.
    10030    2    1    2    0    0  0.00000000000E+00  0.00000000000E+00 -0.36710176290E+03  0.96935558087E+03  0.89715469003E+03 0.  0.
        3    1    3    3  502    0  0.39843552951E+03  0.11490855366E+03  0.12922150579E+01  0.41467641228E+03  0.10100000352E+00 0.  1.
       -3    1    3    3    0  502 -0.39843552951E+03 -0.11490855366E+03 -0.36839397796E+03  0.55467916860E+03  0.10100000352E+00 0. -1.
</event>
<event>
 5   0  0.2295158E-03  0.9006133E+03  0.7818609E-02  0.9424815E-01
       -1   -1    0    0    0  501  0.00000000000E+00  0.00000000000E+00  0.18121516718E+03  0.18121516725E+03  0.50400001928E-02 0.  1.
        1   -1    0    0  501    0  0.00000000000E+00  0.00000000000E+00 -0.11189796065E+04  0.11189796065E+04  0.50400001928E-02 0. -1.
    10030    2    1    2    0    0  0.00000000000E+00  0.00000000000E+00 -0.93776443929E+03  0.13001947737E+04  0.90061329439E+03 0.  0.
        4    1    3    3  502    0 -0.26250080203E+03  0.33630107614E+02 -0.99485800169E+03  0.10294569984E+04  0.12699999809E+01 0. -1.
       -4    1    3    3    0  502  0.26250080203E+03 -0.33630107614E+02  0.57093562400E+02  0.27073777529E+03  0.12699999809E+01 0.  1.
</event>
<event>
 5   0  0.2074970E-03  0.8949518E+03  0.7818609E-02  0.9431914E-01
       -1   -1    0    0    0  501  0.00000000000E+00  0.00000000000E+00  0.10629322783E+03  0.10629322795E+03  0.50400001928E-02 0. -1.
        1   -1    0    0  501    0  0.00000000000E+00  0.00000000000E+00 -0.18837954026E+04  0.18837954026E+04  0.50400001928E-02 0.  1.
    10030    2    1    2    0    0  0.00000000000E+00  0.00000000000E+00 -0.17775021748E+04  0.19900886306E+04  0.89495182898E+03 0.  0.
        2    1    3    3  502    0 -0.30217083698E+03 -0.76234284790E+02 -0.17468995538E+03  0.35726105499E+03  0.25500000920E-02 0. -1.
       -2    1    3    3    0  502  0.30217083698E+03  0.76234284790E+02 -0.16028122194E+04  0.16328275756E+04  0.25500000920E-02 0.  1.
</event>
<event>
 5   0  0.3806019E-03  0.8965271E+03  0.7818609E-02  0.9429933E-01
        2   -1    0    0  501    0  0.00000000000E+00  0.00000000000E+00  0.10456762216E+04  0.10456762216E+04  0.25500000920E-02 0.  1.
       -2   -1    0    0    0  501  0.00000000000E+00  0.00000000000E+00 -0.19216293516E+03  0.19216293517E+03  0.25500000920E-02 0. -1.
    10030    2    1    2    0    0  0.00000000000E+00  0.00000000000E+00  0.85351328647E+03  0.12378391568E+04  0.89652710385E+03 0.  0.
        2    1    3    3  502    0 -0.16069721019E+03  0.12120370504E+03 -0.12626044372E+03  0.23760393754E+03  0.25500000920E-02 0. -1.
       -2    1    3    3    0  502  0.16069721019E+03 -0.12120370504E+03  0.97977373019E+03  0.10002352193E+04  0.25500000920E-02 0.  1.
</event>
<event>
 5   0  0.2074970E-03  0.9030152E+03  0.7818609E-02  0.9421820E-01
        1   -1    0    0  501    0  0.00000000000E+00  0.00000000000E+00  0.11997240354E+04  0.11997240354E+04  0.50400001928E-02 0. -1.
       -1   -1    0    0    0  501  0.00000000000E+00  0.00000000000E+00 -0.16992167992E+03  0.16992167999E+03  0.50400001928E-02 0.  1.
    10030    2    1    2    0    0  0.00000000000E+00  0.00000000000E+00  0.10298023555E+04  0.13696457154E+04  0.90301522377E+03 0.  0.
        2    1    3    3  502    0 -0.32943213710E+03 -0.59004548524E+02  0.97458329304E+03  0.10304463425E+04  0.25500000920E-02 0. -1.
       -2    1    3    3    0  502  0.32943213710E+03  0.59004548524E+02  0.55219062416E+02  0.33919937288E+03  0.25500000920E-02 0.  1.
</event>
<event>
 5   0  0.2130975E-03  0.9001581E+03  0.7818609E-02  0.9425384E-01
        1   -1    0    0  501    0  0.00000000000E+00  0.00000000000E+00  0.12893619122E+04  0.12893619122E+04  0.50400001928E-02 0.  1.
       -1   -1    0    0    0  501  0.00000000000E+00  0.00000000000E+00 -0.15710961906E+03  0.15710961915E+03  0.50400001928E-02 0. -1.
    10030    2    1    2    0    0  0.00000000000E+00  0.00000000000E+00  0.11322522931E+04  0.14464715313E+04  0.90015811706E+03 0.  0.
        5    1    3    3  502    0  0.89136209752E+02 -0.25061361307E+03 -0.17242693503E+02  0.26659303708E+03  0.46999998093E+01 0. -1.
       -5    1    3    3    0  502 -0.89136209752E+02  0.25061361307E+03  0.11494949866E+04  0.11798784943E+04  0.46999998093E+01 0.  1.
</event>
<event>
 5   0  0.1436000E-03  0.9008599E+03  0.7818609E-02  0.9424507E-01
        3   -1    0    0  501    0  0.00000000000E+00  0.00000000000E+00  0.37148936596E+03  0.37148937969E+03  0.10100000352E+00 0.  1.
       -3   -1    0    0    0  501  0.00000000000E+00  0.00000000000E+00 -0.54614517140E+03  0.54614518074E+03  0.10100000352E+00 0. -1.
    10030    2    1    2    0    0  0.00000000000E+00  0.00000000000E+00 -0.17465580545E+03  0.91763456043E+03  0.90085988706E+03 0.  0.
        2    1    3    3  502    0 -0.42690049840E+03 -0.58094567761E+02 -0.22118303807E+03  0.48429428107E+03  0.25500000920E-02 0. -1.
       -2    1    3    3    0  502  0.42690049840E+03  0.58094567761E+02  0.46527232621E+02  0.43334027937E+03  0.25500000920E-02 0.  1.
</event>
<event>
 5   0  0.3626546E-03  0.9284018E+03  0.7818609E-02  0.9390758E-01
       -2   -1    0    0    0  501  0.00000000000E+00  0.00000000000E+00  0.70021919162E+03  0.70021919162E+03  0.25500000920E-02 0.  1.
        2   -1    0    0  501    0  0.00000000000E+00  0.00000000000E+00 -0.30773571423E+03  0.30773571424E+03  0.25500000920E-02 0. -1.
    10030    2    1    2    0    0  0.00000000000E+00  0.00000000000E+00  0.39248347738E+03  0.10079549059E+04  0.92840175152E+03 0.  0.
        3    1    3    3  502    0  0.45491508812E+03  0.68601023755E+02  0.12906399197E+03  0.47781938229E+03  0.10100000352E+00 0. -1.
       -3    1    3    3    0  502 -0.45491508812E+03 -0.68601023755E+02  0.26341948541E+03  0.53013552358E+03  0.10100000352E+00 0.  1.
</event>
<event>
 5   0  0.3626546E-03  0.9023291E+03  0.7818609E-02  0.9422675E-01
       -2   -1    0    0    0  501  0.00000000000E+00  0.00000000000E+00  0.44834298221E+03  0.44834298222E+03  0.25500000920E-02 0.  1.
        2   -1    0    0  501    0  0.00000000000E+00  0.00000000000E+00 -0.45400385115E+03  0.45400385116E+03  0.25500000920E-02 0. -1.
    10030    2    1    2    0    0  0.00000000000E+00  0.00000000000E+00 -0.56608689401E+01  0.90234683338E+03  0.90232907649E+03 0.  0.
        3    1    3    3  502    0 -0.36743364381E+03  0.22839570837E+03 -0.13080696649E+03  0.45197627691E+03  0.10100000352E+00 0. -1.
       -3    1    3    3    0  502  0.36743364381E+03 -0.22839570837E+03  0.12514609755E+03  0.45037055647E+03  0.10100000352E+00 0.  1.
</event>
<event>
 5   0  0.3663255E-03  0.9043276E+03  0.7818609E-02  0.9420188E-01
       -2   -1    0    0    0  501  0.00000000000E+00  0.00000000000E+00  0.11243680650E+03  0.11243680653E+03  0.25500000920E-02 0. -1.
        2   -1    0    0  501    0  0.00000000000E+00  0.00000000000E+00 -0.18183734485E+04  0.18183734485E+04  0.25500000920E-02 0.  1.
    10030    2    1    2    0    0  0.00000000000E+00  0.00000000000E+00 -0.17059366420E+04  0.19308102550E+04  0.90432760348E+03 0.  0.
        4    1    3    3  502    0 -0.21426840588E+03  0.38489821379E+03 -0.63530647484E+03  0.77309347081E+03  0.12699999809E+01 0. -1.
       -4    1    3    3    0  502  0.21426840588E+03 -0.38489821379E+03 -0.10706301672E+04  0.11577167842E+04  0.12699999809E+01 0.  1.
</event>
<event>
 5   0  0.3626546E-03  0.9009015E+03  0.7818609E-02  0.9424455E-01
        2   -1    0    0  501    0  0.00000000000E+00  0.00000000000E+00  0.45383137362E+03  0.45383137362E+03  0.25500000920E-02 0.  1.
       -2   -1    0    0    0  501  0.00000000000E+00  0.00000000000E+00 -0.44709528148E+03  0.44709528149E+03  0.25500000920E-02 0. -1.
    10030    2    1    2    0    0  0.00000000000E+00  0.00000000000E+00  0.67360921352E+01  0.90092665511E+03  0.90090147239E+03 0.  0.
        3    1    3    3  502    0 -0.65779195973E+02 -0.24229869332E+03  0.37737087463E+03  0.45325969006E+03  0.10100000352E+00 0.  1.
       -3    1    3    3    0  502  0.65779195973E+02  0.24229869332E+03 -0.37063478250E+03  0.44766696506E+03  0.10100000352E+00 0. -1.
</event>
<event>
 5   0  0.3685879E-03  0.8999329E+03  0.7818609E-02  0.9425665E-01
        2   -1    0    0  501    0  0.00000000000E+00  0.00000000000E+00  0.14022840559E+04  0.14022840559E+04  0.25500000920E-02 0.  1.
       -2   -1    0    0    0  501  0.00000000000E+00  0.00000000000E+00 -0.14438571675E+03  0.14438571677E+03  0.25500000920E-02 0. -1.
    10030    2    1    2    0    0  0.00000000000E+00  0.00000000000E+00  0.12578983392E+04  0.15466697727E+04  0.89993286087E+03 0.  0.
        1    1    3    3  502    0  0.11285415134E+02 -0.11564826736E+03 -0.11815560718E+03  0.16571852604E+03  0.50400001928E-02 0. -1.
       -1    1    3    3    0  502 -0.11285415134E+02  0.11564826736E+03  0.13760539464E+04  0.13809512467E+04  0.50400001928E-02 0.  1.
</event>
<event>
 5   0  0.3815269E-03  0.9004662E+03  0.7818609E-02  0.9424999E-01
       -2   -1    0    0    0  501  0.00000000000E+00  0.00000000000E+00  0.40753855269E+03  0.40753855270E+03  0.25500000920E-02 0. -1.
        2   -1    0    0  501    0  0.00000000000E+00  0.00000000000E+00 -0.49740042157E+03  0.49740042157E+03  0.25500000920E-02 0.  1.
    10030    2    1    2    0    0  0.00000000000E+00  0.00000000000E+00 -0.89861868872E+02  0.90493897427E+03  0.90046620796E+03 0.  0.
        5    1    3    3  502    0  0.32201932622E+02 -0.21461144332E+03 -0.44134267861E+03  0.49183379919E+03  0.46999998093E+01 0.  1.
       -5    1    3    3    0  502 -0.32201932622E+02  0.21461144332E+03  0.35148080974E+03  0.41310517508E+03  0.46999998093E+01 0. -1.
</event>
<event>
 5   0  0.3815269E-03  0.9001726E+03  0.7818609E-02  0.9425366E-01
        2   -1    0    0  501    0  0.00000000000E+00  0.00000000000E+00  0.50963617896E+03  0.50963617897E+03  0.25500000920E-02 0. -1.
       -2   -1    0    0    0  501  0.00000000000E+00  0.00000000000E+00 -0.39749473831E+03  0.39749473832E+03  0.25500000920E-02 0.  1.
    10030    2    1    2    0    0  0.00000000000E+00  0.00000000000E+00  0.11214144065E+03  0.90713091729E+03  0.90017264921E+03 0.  0.
        5    1    3    3  502    0 -0.21158936324E+03 -0.21433955109E+03 -0.28094542775E+03  0.41190281035E+03  0.46999998093E+01 0.  1.
       -5    1    3    3    0  502  0.21158936324E+03  0.21433955109E+03  0.39308686840E+03  0.49522810694E+03  0.46999998093E+01 0. -1.
</event>
<event>
 5   0  0.2129280E-03  0.8988952E+03  0.7818609E-02  0.9426963E-01
       -1   -1    0    0    0  501  0.00000000000E+00  0.00000000000E+00  0.64609319851E+03  0.64609319853E+03  0.50400001928E-02 0.  1.
        1   -1    0    0  501    0  0.00000000000E+00  0.00000000000E+00 -0.31265328022E+03  0.31265328026E+03  0.50400001928E-02 0. -1.
    10030    2    1    2    0    0  0.00000000000E+00  0.00000000000E+00  0.33343991829E+03  0.95874647880E+03  0.89889522832E+03 0.  0.
        3    1    3    3  502    0  0.40832569568E+03  0.12698190150E+03  0.31431313888E+03  0.53070428351E+03  0.10100000352E+00 0.  1.
       -3    1    3    3    0  502 -0.40832569568E+03 -0.12698190150E+03  0.19126779409E+02  0.42804219529E+03  0.10100000352E+00 0. -1.
</event>
<event>
 5   0  0.2134145E-03  0.8996787E+03  0.7818609E-02  0.9425983E-01
       -1   -1    0    0    0  501  0.00000000000E+00  0.00000000000E+00  0.33382965177E+03  0.33382965180E+03  0.50400001928E-02 0.  1.
        1   -1    0    0  501    0  0.00000000000E+00  0.00000000000E+00 -0.60616372882E+03  0.60616372885E+03  0.50400001928E-02 0. -1.
    10030    2    1    2    0    0  0.00000000000E+00  0.00000000000E+00 -0.27233407706E+03  0.93999338065E+03  0.89967866827E+03 0.  0.
        1    1    3    3  502    0 -0.20343262519E+02 -0.43056106811E+03 -0.27061402697E+03  0.50894855665E+03  0.50400001928E-02 0. -1.
       -1    1    3    3    0  502  0.20343262519E+02  0.43056106811E+03 -0.17200500936E+01  0.43104482400E+03  0.50400001928E-02 0.  1.
</event>
<event>
 5   0  0.2129280E-03  0.9166286E+03  0.7818609E-02  0.9405030E-01
       -1   -1    0    0    0  501  0.00000000000E+00  0.00000000000E+00  0.28349454956E+03  0.28349454961E+03  0.50400001928E-02 0. -1.
        1   -1    0    0  501    0  0.00000000000E+00  0.00000000000E+00 -0.74093844981E+03  0.74093844983E+03  0.50400001928E-02 0.  1.
    10030    2    1    2    0    0  0.00000000000E+00  0.00000000000E+00 -0.45744390025E+03  0.10244329994E+04  0.91662863170E+03 0.  0.
        3    1    3    3  502    0  0.22442200961E+03  0.85140585838E+02 -0.66507351728E+03  0.70706219765E+03  0.10100000352E+00 0.  1.
       -3    1    3    3    0  502 -0.22442200961E+03 -0.85140585838E+02  0.20762961703E+03  0.31737080178E+03  0.10100000352E+00 0. -1.
</event>
<event>
 5   0  0.2134145E-03  0.9001095E+03  0.7818609E-02  0.9425445E-01
       -1   -1    0    0    0  501  0.00000000000E+00  0.00000000000E+00  0.17837257717E+03  0.17837257724E+03  0.50400001928E-02 0.  1.
        1   -1    0    0  501    0  0.00000000000E+00  0.00000000000E+00 -0.11355405527E+04  0.11355405527E+04  0.50400001928E-02 0. -1.
    10030    2    1    2    0    0  0.00000000000E+00  0.00000000000E+00 -0.95716797553E+03  0.13139131299E+04  0.90010953760E+03 0.  0.
        1    1    3    3  502    0 -0.89792208935E+02 -0.44058568725E+03 -0.45047123384E+03  0.63647680330E+03  0.50400001928E-02 0. -1.
       -1    1    3    3    0  502  0.89792208935E+02  0.44058568725E+03 -0.50669674168E+03  0.67743632664E+03  0.50400001928E-02 0.  1.
</event>
<event>
 5   0  0.2295158E-03  0.9012662E+03  0.7818609E-02  0.9424000E-01
        1   -1    0    0  501    0  0.00000000000E+00  0.00000000000E+00  0.29080563282E+03  0.29080563286E+03  0.50400001928E-02 0.  1.
       -1   -1    0    0    0  501  0.00000000000E+00  0.00000000000E+00 -0.69830211327E+03  0.69830211329E+03  0.50400001928E-02 0. -1.
    10030    2    1    2    0    0  0.00000000000E+00  0.00000000000E+00 -0.40749648046E+03  0.98910774615E+03  0.90126619370E+03 0.  0.
        4    1    3    3  502    0 -0.11624831822E+03 -0.41948150527E+03 -0.75809234330E+02  0.44184506069E+03  0.12699999809E+01 0.  1.
       -4    1    3    3    0  502  0.11624831822E+03  0.41948150527E+03 -0.33168724613E+03  0.54726268546E+03  0.12699999809E+01 0. -1.
</event>
<event>
 5   0  0.3663255E-03  0.8661815E+03  0.7818609E-02  0.9468872E-01
       -2   -1    0    0    0  501  0.00000000000E+00  0.00000000000E+00  0.17159460514E+03  0.17159460516E+03  0.25500000920E-02 0. -1.
        2   -1    0    0  501    0  0.00000000000E+00  0.00000000000E+00 -0.10930856280E+04  0.10930856280E+04  0.25500000920E-02 0.  1.
    10030    2    1    2    0    0  0.00000000000E+00  0.00000000000E+00 -0.92149102281E+03  0.12646802331E+04  0.86618149768E+03 0.  0.
        4    1    3    3  502    0 -0.41413638016E+02  0.18569625028E+03  0.10730711637E+03  0.21843675722E+03  0.12699999809E+01 0. -1.
       -4    1    3    3    0  502  0.41413638016E+02 -0.18569625028E+03 -0.10287981392E+04  0.10462434759E+04  0.12699999809E+01 0.  1.
</event>
<event>
 5   0  0.3815269E-03  0.8978172E+03  0.7818609E-02  0.9428314E-01
       -2   -1    0    0    0  501  0.00000000000E+00  0.00000000000E+00  0.16268341184E+03  0.16268341186E+03  0.25500000920E-02 0.  1.
        2   -1    0    0  501    0  0.00000000000E+00  0.00000000000E+00 -0.12387184766E+04  0.12387184766E+04  0.25500000920E-02 0. -1.
    10030    2    1    2    0    0  0.00000000000E+00  0.00000000000E+00 -0.10760350648E+04  0.14014018885E+04  0.89781723776E+03 0.  0.
        5    1    3    3  502    0 -0.21374562843E+03  0.10184824624E+03 -0.11332842681E+04  0.11577631801E+04  0.46999998093E+01 0. -1.
       -5    1    3    3    0  502  0.21374562843E+03 -0.10184824624E+03  0.57249203318E+02  0.24363870837E+03  0.46999998093E+01 0.  1.
</event>
<event>
 5   0  0.2134145E-03  0.8766873E+03  0.7818609E-02  0.9455202E-01
       -1   -1    0    0    0  501  0.00000000000E+00  0.00000000000E+00  0.28613861738E+03  0.28613861742E+03  0.50400001928E-02 0. -1.
        1   -1    0    0  501    0  0.00000000000E+00  0.00000000000E+00 -0.67151072792E+03  0.67151072793E+03  0.50400001928E-02 0.  1.
    10030    2    1    2    0    0  0.00000000000E+00  0.00000000000E+00 -0.38537211054E+03  0.95764934535E+03  0.87668729036E+03 0.  0.
        1    1    3    3  502    0 -0.11354224472E+03  0.41599013511E+03 -0.10663606916E+03  0.44419689904E+03  0.50400001928E-02 0.  1.
       -1    1    3    3    0  502  0.11354224472E+03 -0.41599013511E+03 -0.27873604138E+03  0.51345244632E+03  0.50400001928E-02 0. -1.
</event>
<event>
 5   0  0.3626546E-03  0.8997134E+03  0.7818609E-02  0.9425940E-01
        2   -1    0    0  501    0  0.00000000000E+00  0.00000000000E+00  0.32169821860E+03  0.32169821861E+03  0.25500000920E-02 0.  1.
       -2   -1    0    0    0  501  0.00000000000E+00  0.00000000000E+00 -0.62907109372E+03  0.62907109372E+03  0.25500000920E-02 0. -1.
    10030    2    1    2    0    0  0.00000000000E+00  0.00000000000E+00 -0.30737287512E+03  0.95076931233E+03  0.89971339932E+03 0.  0.
        3    1    3    3  502    0  0.34247630019E+03  0.27819723224E+03 -0.61033636205E+02  0.44543106220E+03  0.10100000352E+00 0.  1.
       -3    1    3    3    0  502 -0.34247630019E+03 -0.27819723224E+03 -0.24633923891E+03  0.50533825014E+03  0.10100000352E+00 0. -1.
</event>
<event>
 5   0  0.3685879E-03  0.8960983E+03  0.7818609E-02  0.9430472E-01
       -2   -1    0    0    0  501  0.00000000000E+00  0.00000000000E+00  0.17346554985E+03  0.17346554987E+03  0.25500000920E-02 0.  1.
        2   -1    0    0  501    0  0.00000000000E+00  0.00000000000E+00 -0.11572790033E+04  0.11572790033E+04  0.25500000920E-02 0. -1.
    10030    2    1    2    0    0  0.00000000000E+00  0.00000000000E+00 -0.98381345344E+03  0.13307445532E+04  0.89609829516E+03 0.  0.
        1    1    3    3  502    0 -0.26427104141E+03 -0.91874405736E+02  0.27790343217E+02  0.28116257389E+03  0.50400001928E-02 0.  1.
       -1    1    3    3    0  502  0.26427104141E+03  0.91874405736E+02 -0.10116037967E+04  0.10495819793E+04  0.50400001928E-02 0. -1.
</event>
<event>
 5   0  0.3806019E-03  0.9016037E+03  0.7818609E-02  0.9423579E-01
       -2   -1    0    0    0  501  0.00000000000E+00  0.00000000000E+00  0.58645064099E+03  0.58645064099E+03  0.25500000920E-02 0. -1.
        2   -1    0    0  501    0  0.00000000000E+00  0.00000000000E+00 -0.34652925516E+03  0.34652925517E+03  0.25500000920E-02 0.  1.
    10030    2    1    2    0    0  0.00000000000E+00  0.00000000000E+00  0.23992138582E+03  0.93297989617E+03  0.90160369081E+03 0.  0.
        2    1    3    3  502    0 -0.33180763264E+03  0.24688034083E+03  0.30558005662E+03  0.51422308270E+03  0.25500000920E-02 0.  1.
       -2    1    3    3    0  502  0.33180763264E+03 -0.24688034083E+03 -0.65658670800E+02  0.41875681347E+03  0.25500000920E-02 0. -1.
</event>
<event>
 5   0  0.1436000E-03  0.8926771E+03  0.7818609E-02  0.9434782E-01
        4   -1    0    0  501    0  0.00000000000E+00  0.00000000000E+00  0.39933524588E+03  0.39933726536E+03  0.12699999809E+01 0. -1.
       -4   -1    0    0    0  501  0.00000000000E+00  0.00000000000E+00 -0.49887028620E+03  0.49887190275E+03  0.12699999809E+01 0.  1.
    10030    2    1    2    0    0  0.00000000000E+00  0.00000000000E+00 -0.99535040316E+02  0.89820916810E+03  0.89267714511E+03 0.  0.
        5    1    3    3  502    0 -0.32289105433E+03 -0.27171658276E+03  0.96417016764E+02  0.43290514600E+03  0.46999998093E+01 0. -1.
       -5    1    3    3    0  502  0.32289105433E+03  0.27171658276E+03 -0.19595205708E+03  0.46530402210E+03  0.46999998093E+01 0.  1.
</event>
<event>
 5   0  0.2295158E-03  0.9066805E+03  0.7818609E-02  0.9417269E-01
        1   -1    0    0  501    0  0.00000000000E+00  0.00000000000E+00  0.75683858721E+03  0.75683858722E+03  0.50400001928E-02 0.  1.
       -1   -1    0    0    0  501  0.00000000000E+00  0.00000000000E+00 -0.27154716972E+03  0.27154716977E+03  0.50400001928E-02 0. -1.
    10030    2    1    2    0    0  0.00000000000E+00  0.00000000000E+00  0.48529141749E+03  0.10283857570E+04  0.90668048688E+03 0.  0.
        4    1    3    3  502    0 -0.40078647972E+03 -0.15070770226E+03  0.73751220342E+02  0.43449219699E+03  0.12699999809E+01 0. -1.
       -4    1    3    3    0  502  0.40078647972E+03  0.15070770226E+03  0.41154019714E+03  0.59389356000E+03  0.12699999809E+01 0.  1.
</event>
<event>
 5   0  0.3815269E-03  0.9020870E+03  0.7818609E-02  0.9422976E-01
        2   -1    0    0  501    0  0.00000000000E+00  0.00000000000E+00  0.10576850736E+04  0.10576850736E+04  0.25500000920E-02 0.  1.
       -2   -1    0    0    0  501  0.00000000000E+00  0.00000000000E+00 -0.19234479833E+03  0.19234479834E+03  0.25500000920E-02 0. -1.
    10030    2    1    2    0    0  0.00000000000E+00  0.00000000000E+00  0.86534027524E+03  0.12500298719E+04  0.90208696295E+03 0.  0.
        5    1    3    3  502    0 -0.77591182246E+02  0.37287423227E+03  0.76743441271E+03  0.85675740584E+03  0.46999998093E+01 0.  1.
       -5    1    3    3    0  502  0.77591182246E+02 -0.37287423227E+03  0.97905862536E+02  0.39327246608E+03  0.46999998093E+01 0. -1.
</event>
<event>
 5   0  0.1436000E-03  0.8998683E+03  0.7818609E-02  0.9425746E-01
        4   -1    0    0  501    0  0.00000000000E+00  0.00000000000E+00  0.41980608469E+03  0.41980800569E+03  0.12699999809E+01 0. -1.
       -4   -1    0    0    0  501  0.00000000000E+00  0.00000000000E+00 -0.48222053276E+03  0.48222220513E+03  0.12699999809E+01 0.  1.
    10030    2    1    2    0    0  0.00000000000E+00  0.00000000000E+00 -0.62414448076E+02  0.90203021082E+03  0.89986828919E+03 0.  0.
        1    1    3    3  502    0  0.13174782651E+03 -0.35294450096E+03 -0.27779298716E+03  0.46807718839E+03  0.50400001928E-02 0.  1.
       -1    1    3    3    0  502 -0.13174782651E+03  0.35294450096E+03  0.21537853909E+03  0.43395302243E+03  0.50400001928E-02 0. -1.
</event>
<event>
 5   0  0.2130975E-03  0.8843939E+03  0.7818609E-02  0.9445303E-01
       -1   -1    0    0    0  501  0.00000000000E+00  0.00000000000E+00  0.21755668754E+03  0.21755668760E+03  0.50400001928E-02 0.  1.
        1   -1    0    0  501    0  0.00000000000E+00  0.00000000000E+00 -0.89879170550E+03  0.89879170552E+03  0.50400001928E-02 0. -1.
    10030    2    1    2    0    0  0.00000000000E+00  0.00000000000E+00 -0.68123501796E+03  0.11163483931E+04  0.88439390835E+03 0.  0.
        5    1    3    3  502    0  0.11369241484E+02  0.89209352947E+02 -0.88709441047E+03  0.89165360505E+03  0.46999998093E+01 0. -1.
       -5    1    3    3    0  502 -0.11369241484E+02 -0.89209352947E+02  0.20585939251E+03  0.22469478808E+03  0.46999998093E+01 0.  1.
</event>
<event>
 5   0  0.2295158E-03  0.8990899E+03  0.7818609E-02  0.9426720E-01
       -1   -1    0    0    0  501  0.00000000000E+00  0.00000000000E+00  0.35038261635E+03  0.35038261639E+03  0.50400001928E-02 0. -1.
        1   -1    0    0  501    0  0.00000000000E+00  0.00000000000E+00 -0.57677139736E+03  0.57677139738E+03  0.50400001928E-02 0.  1.
    10030    2    1    2    0    0  0.00000000000E+00  0.00000000000E+00 -0.22638878101E+03  0.92715401377E+03  0.89908992047E+03 0.  0.
        4    1    3    3  502    0  0.14773854355E+03  0.27256835146E+03  0.22249523189E+03  0.38160964949E+03  0.12699999809E+01 0. -1.
       -4    1    3    3    0  502 -0.14773854355E+03 -0.27256835146E+03 -0.44888401290E+03  0.54554436429E+03  0.12699999809E+01 0.  1.
</event>
<event>
 5   0  0.2129280E-03  0.9031471E+03  0.7818609E-02  0.9421656E-01
       -1   -1    0    0    0  501  0.00000000000E+00  0.00000000000E+00  0.22939434741E+03  0.22939434747E+03  0.50400001928E-02 0.  1.
        1   -1    0    0  501    0  0.00000000000E+00  0.00000000000E+00 -0.88894376692E+03  0.88894376693E+03  0.50400001928E-02 0. -1.
    10030    2    1    2    0    0  0.00000000000E+00  0.00000000000E+00 -0.65954941950E+03  0.11183381144E+04  0.90314710948E+03 0.  0.
        3    1    3    3  502    0  0.74546517375E+02 -0.35296721075E+03 -0.66610895855E+03  0.75752504248E+03  0.10100000352E+00 0. -1.
       -3    1    3    3    0  502 -0.74546517375E+02  0.35296721075E+03  0.65595390543E+01  0.36081307192E+03  0.10100000352E+00 0.  1.
</event>
<event>
 5   0  0.1436000E-03  0.8778749E+03  0.7818609E-02  0.9453669E-01
       -3   -1    0    0    0  501  0.00000000000E+00  0.00000000000E+00  0.17735179746E+04  0.17735179774E+04  0.10100000352E+00 0. -1.
        3   -1    0    0  501    0  0.00000000000E+00  0.00000000000E+00 -0.10863495638E+03  0.10863500333E+03  0.10100000352E+00 0.  1.
    10030    2    1    2    0    0  0.00000000000E+00  0.00000000000E+00  0.16648830182E+04  0.18821529808E+04  0.87787492208E+03 0.  0.
        1    1    3    3  502    0 -0.16162139988E+02  0.38854849713E+03  0.12688625309E+04  0.13271184091E+04  0.50400001928E-02 0. -1.
       -1    1    3    3    0  502  0.16162139988E+02 -0.38854849713E+03  0.39602048726E+03  0.55503457167E+03  0.50400001928E-02 0.  1.
</event>
<event>
 5   0  0.2130975E-03  0.9020707E+03  0.7818609E-02  0.9422997E-01
        1   -1    0    0  501    0  0.00000000000E+00  0.00000000000E+00  0.45427627775E+03  0.45427627778E+03  0.50400001928E-02 0.  1.
       -1   -1    0    0    0  501  0.00000000000E+00  0.00000000000E+00 -0.44781757727E+03  0.44781757730E+03  0.50400001928E-02 0. -1.
    10030    2    1    2    0    0  0.00000000000E+00  0.00000000000E+00  0.64587004785E+01  0.90209385508E+03  0.90207073368E+03 0.  0.
        5    1    3    3  502    0 -0.80457116819E+02 -0.43629502165E+03 -0.77915311322E+02  0.45046595799E+03  0.46999998093E+01 0. -1.
       -5    1    3    3    0  502  0.80457116819E+02  0.43629502165E+03  0.84374011801E+02  0.45162789709E+03  0.46999998093E+01 0.  1.
</event>
<event>
 5   0  0.2134145E-03  0.8990656E+03  0.7818609E-02  0.9426750E-01
        1   -1    0    0  501    0  0.00000000000E+00  0.00000000000E+00  0.10591946768E+04  0.10591946768E+04  0.50400001928E-02 0. -1.
       -1   -1    0    0    0  501  0.00000000000E+00  0.00000000000E+00 -0.19078619459E+03  0.19078619465E+03  0.50400001928E-02 0.  1.
    10030    2    1    2    0    0  0.00000000000E+00  0.00000000000E+00  0.86840848223E+03  0.12499808715E+04  0.89906556327E+03 0.  0.
        1    1    3    3  502    0  0.88574168008E+01  0.22484535182E+03  0.97525831538E+03  0.10008809459E+04  0.50400001928E-02 0. -1.
       -1    1    3    3    0  502 -0.88574168008E+01 -0.22484535182E+03 -0.10684983315E+03  0.24909992561E+03  0.50400001928E-02 0.  1.
</event>
<event>
 5   0  0.1436000E-03  0.8981118E+03  0.7818609E-02  0.9427945E-01
       -3   -1    0    0    0  501  0.00000000000E+00  0.00000000000E+00  0.11728663846E+04  0.11728663890E+04  0.10100000352E+00 0.  1.
        3   -1    0    0  501    0  0.00000000000E+00  0.00000000000E+00 -0.17193021245E+03  0.17193024212E+03  0.10100000352E+00 0. -1.
    10030    2    1    2    0    0  0.00000000000E+00  0.00000000000E+00  0.10009361722E+04  0.13447966311E+04  0.89811177380E+03 0.  0.
        2    1    3    3  502    0  0.19645193472E+03 -0.12242351574E+03  0.10766507870E+04  0.11012528306E+04  0.25500000920E-02 0.  1.
       -2    1    3    3    0  502 -0.19645193472E+03  0.12242351574E+03 -0.75714614766E+02  0.24354380049E+03  0.25500000920E-02 0. -1.
</event>
<event>
 5   0  0.3685879E-03  0.8887715E+03  0.7818609E-02  0.9439727E-01
        2   -1    0    0  501    0  0.00000000000E+00  0.00000000000E+00  0.63115928012E+03  0.63115928013E+03  0.25500000920E-02 0. -1.
       -2   -1    0    0    0  501  0.00000000000E+00  0.00000000000E+00 -0.31288249459E+03  0.31288249460E+03  0.25500000920E-02 0.  1.
    10030    2    1    2    0    0  0.00000000000E+00  0.00000000000E+00  0.31827678553E+03  0.94404177473E+03  0.88877148932E+03 0.  0.
        1    1    3    3  502    0  0.37429981312E+03  0.19596840029E+03  0.30545339389E+03  0.52134992076E+03  0.50400001928E-02 0. -1.
       -1    1    3    3    0  502 -0.37429981312E+03 -0.19596840029E+03  0.12823391638E+02  0.42269185397E+03  0.50400001928E-02 0.  1.
</event>
<event>
 5   0  0.2134145E-03  0.8788790E+03  0.7818609E-02  0.9452376E-01
        1   -1    0    0  501    0  0.00000000000E+00  0.00000000000E+00  0.12760805226E+04  0.12760805226E+04  0.50400001928E-02 0. -1.
       -1   -1    0    0    0  501  0.00000000000E+00  0.00000000000E+00 -0.15132827146E+03  0.15132827155E+03  0.50400001928E-02 0.  1.
    10030    2    1    2    0    0  0.00000000000E+00  0.00000000000E+00  0.11247522512E+04  0.14274087942E+04  0.87887896733E+03 0.  0.
        1    1    3    3  502    0  0.29732838359E+03 -0.16770275305E+03  0.11293456373E+03  0.35955889195E+03  0.50400001928E-02 0.  1.
       -1    1    3    3    0  502 -0.29732838359E+03  0.16770275305E+03  0.10118176874E+04  0.10678499022E+04  0.50400001928E-02 0. -1.
</event>
<event>
 5   0  0.3663255E-03  0.9010874E+03  0.7818609E-02  0.9424223E-01
       -2   -1    0    0    0  501  0.00000000000E+00  0.00000000000E+00  0.59285182090E+03  0.59285182090E+03  0.25500000920E-02 0. -1.
        2   -1    0    0  501    0  0.00000000000E+00  0.00000000000E+00 -0.34239519273E+03  0.34239519274E+03  0.25500000920E-02 0.  1.
    10030    2    1    2    0    0  0.00000000000E+00  0.00000000000E+00  0.25045662816E+03  0.93524701364E+03  0.90108737309E+03 0.  0.
        4    1    3    3  502    0  0.71012990078E+02  0.31436543981E+03 -0.20153932068E+03  0.38011601543E+03  0.12699999809E+01 0.  1.
       -4    1    3    3    0  502 -0.71012990078E+02 -0.31436543981E+03  0.45199594885E+03  0.55513099821E+03  0.12699999809E+01 0. -1.
</event>
<event>
 5   0  0.3815269E-03  0.8789342E+03  0.7818609E-02  0.9452305E-01
       -2   -1    0    0    0  501  0.00000000000E+00  0.00000000000E+00  0.28101360542E+03  0.28101360543E+03  0.25500000920E-02 0.  1.
        2   -1    0    0  501    0  0.00000000000E+00  0.00000000000E+00 -0.68726676107E+03  0.68726676107E+03  0.25500000920E-02 0. -1.
    10030    2    1    2    0    0  0.00000000000E+00  0.00000000000E+00 -0.40625315565E+03  0.96828036651E+03  0.87893415094E+03 0.  0.
        5    1    3    3  502    0 -0.38439470564E+03  0.24722698093E+02  0.29889859851E+02  0.38637545891E+03  0.46999998093E+01 0.  1.
       -5    1    3    3    0  502  0.38439470564E+03 -0.24722698093E+02 -0.43614301550E+03  0.58190490760E+03  0.46999998093E+01 0. -1.
</event>
<event>
 5   0  0.2074970E-03  0.8977162E+03  0.7818609E-02  0.9428441E-01
        1   -1    0    0  501    0  0.00000000000E+00  0.00000000000E+00  0.88808044731E+03  0.88808044732E+03  0.50400001928E-02 0.  1.
       -1   -1    0    0    0  501  0.00000000000E+00  0.00000000000E+00 -0.22686413754E+03  0.22686413759E+03  0.50400001928E-02 0. -1.
    10030    2    1    2    0    0  0.00000000000E+00  0.00000000000E+00  0.66121630977E+03  0.11149445849E+04  0.89771622416E+03 0.  0.
        2    1    3    3  502    0  0.19949515007E+03 -0.10396808180E+03  0.81301092441E+03  0.84356057290E+03  0.25500000920E-02 0.  1.
       -2    1    3    3    0  502 -0.19949515007E+03  0.10396808180E+03 -0.15179461464E+03  0.27138401201E+03  0.25500000920E-02 0. -1.
</event>
<event>
 5   0  0.2134145E-03  0.8996190E+03  0.7818609E-02  0.9426058E-01
        1   -1    0    0  501    0  0.00000000000E+00  0.00000000000E+00  0.62441687217E+03  0.62441687219E+03  0.50400001928E-02 0.  1.
       -1   -1    0    0    0  501  0.00000000000E+00  0.00000000000E+00 -0.32402806867E+03  0.32402806871E+03  0.50400001928E-02 0. -1.
    10030    2    1    2    0    0  0.00000000000E+00  0.00000000000E+00  0.30038880350E+03  0.94844494090E+03  0.89961901528E+03 0.  0.
        1    1    3    3  502    0 -0.33570315129E+03 -0.27844385938E+03  0.34219447609E+02  0.43749121046E+03  0.50400001928E-02 0. -1.
       -1    1    3    3    0  502  0.33570315129E+03  0.27844385938E+03  0.26616935589E+03  0.51095373044E+03  0.50400001928E-02 0.  1.
</event>
<event>
 5   0  0.3806019E-03  0.8943897E+03  0.7818609E-02  0.9432622E-01
       -2   -1    0    0    0  501  0.00000000000E+00  0.00000000000E+00  0.20935851347E+03  0.20935851349E+03  0.25500000920E-02 0. -1.
        2   -1    0    0  501    0  0.00000000000E+00  0.00000000000E+00 -0.95521906146E+03  0.95521906147E+03  0.25500000920E-02 0.  1.
    10030    2    1    2    0    0  0.00000000000E+00  0.00000000000E+00 -0.74586054799E+03  0.11645775750E+04  0.89438971988E+03 0.  0.
        2    1    3    3  502    0  0.44124471217E+03 -0.52900763564E+01 -0.27850965189E+03  0.52181654547E+03  0.25500000920E-02 0.  1.
       -2    1    3    3    0  502 -0.44124471217E+03  0.52900763564E+01 -0.46735089611E+03  0.64276102948E+03  0.25500000920E-02 0. -1.
</event>
<event>
 5   0  0.2129280E-03  0.8945975E+03  0.7818609E-02  0.9432360E-01
        1   -1    0    0  501    0  0.00000000000E+00  0.00000000000E+00  0.78446262521E+03  0.78446262522E+03  0.50400001928E-02 0.  1.
       -1   -1    0    0    0  501  0.00000000000E+00  0.00000000000E+00 -0.25504867933E+03  0.25504867938E+03  0.50400001928E-02 0. -1.
    10030    2    1    2    0    0  0.00000000000E+00  0.00000000000E+00  0.52941394588E+03  0.10395113046E+04  0.89459746607E+03 0.  0.
        3    1    3    3  502    0 -0.13716110176E+03  0.13368169192E+03  0.73440332969E+03  0.75896786721E+03  0.10100000352E+00 0.  1.
       -3    1    3    3    0  502  0.13716110176E+03 -0.13368169192E+03 -0.20498938381E+03  0.28054343740E+03  0.10100000352E+00 0. -1.
</event>
<event>
 5   0  0.2129280E-03  0.8842057E+03  0.7818609E-02  0.9445543E-01
       -1   -1    0    0    0  501  0.00000000000E+00  0.00000000000E+00  0.28872437353E+03  0.28872437358E+03  0.50400001928E-02 0.  1.
        1   -1    0    0  501    0  0.00000000000E+00  0.00000000000E+00 -0.67696023884E+03  0.67696023886E+03  0.50400001928E-02 0. -1.
    10030    2    1    2    0    0  0.00000000000E+00  0.00000000000E+00 -0.38823586531E+03  0.96568461243E+03  0.88420567945E+03 0.  0.
        3    1    3    3  502    0 -0.27900019803E+03  0.30221090810E+03 -0.17060464131E+02  0.41165958402E+03  0.10100000352E+00 0.  1.
       -3    1    3    3    0  502  0.27900019803E+03 -0.30221090810E+03 -0.37117540118E+03  0.55402502842E+03  0.10100000352E+00 0. -1.
</event>
<event>
 5   0  0.3806019E-03  0.9218602E+03  0.7818609E-02  0.9398660E-01
       -2   -1    0    0    0  501  0.00000000000E+00  0.00000000000E+00  0.68922642139E+03  0.68922642140E+03  0.25500000920E-02 0. -1.
        2   -1    0    0  501    0  0.00000000000E+00  0.00000000000E+00 -0.30825361277E+03  0.30825361278E+03  0.25500000920E-02 0.  1.
    10030    2    1    2    0    0  0.00000000000E+00  0.00000000000E+00  0.38097280863E+03  0.99748003417E+03  0.92186015082E+03 0.  0.
        2    1    3    3  502    0 -0.16091363419E+03  0.97284608208E+02  0.64583843215E+03  0.67265501791E+03  0.25500000920E-02 0. -1.
       -2    1    3    3    0  502  0.16091363419E+03 -0.97284608208E+02 -0.26486562352E+03  0.32482501627E+03  0.25500000920E-02 0.  1.
</event>
<event>
 5   0  0.2130975E-03  0.9032767E+03  0.7818609E-02  0.9421495E-01
       -1   -1    0    0    0  501  0.00000000000E+00  0.00000000000E+00  0.36820422520E+03  0.36820422523E+03  0.50400001928E-02 0.  1.
        1   -1    0    0  501    0  0.00000000000E+00  0.00000000000E+00 -0.55397847746E+03  0.55397847748E+03  0.50400001928E-02 0. -1.
    10030    2    1    2    0    0  0.00000000000E+00  0.00000000000E+00 -0.18577425226E+03  0.92218270272E+03  0.90327673743E+03 0.  0.
        5    1    3    3  502    0  0.21553709718E+03 -0.27792723897E+03 -0.38211031086E+03  0.51935553341E+03  0.46999998093E+01 0. -1.
       -5    1    3    3    0  502 -0.21553709718E+03  0.27792723897E+03  0.19633605860E+03  0.40282716930E+03  0.46999998093E+01 0.  1.
</event>
<event>
 5   0  0.3626546E-03  0.8812586E+03  0.7818609E-02  0.9449317E-01
        2   -1    0    0  501    0  0.00000000000E+00  0.00000000000E+00  0.85280653166E+03  0.85280653167E+03  0.25500000920E-02 0. -1.
       -2   -1    0    0    0  501  0.00000000000E+00  0.00000000000E+00 -0.22766498971E+03  0.22766498973E+03  0.25500000920E-02 0.  1.
    10030    2    1    2    0    0  0.00000000000E+00  0.00000000000E+00  0.62514154195E+03  0.10804715214E+04  0.88125862326E+03 0.  0.
        3    1    3    3  502    0 -0.37736495308E+03  0.22610084750E+03  0.28183909672E+03  0.52245496236E+03  0.10100000352E+00 0.  1.
       -3    1    3    3    0  502  0.37736495308E+03 -0.22610084750E+03  0.34330244523E+03  0.55801655903E+03  0.10100000352E+00 0. -1.
</event>
<event>
 5   0  0.3626546E-03  0.9067661E+03  0.7818609E-02  0.9417163E-01
        2   -1    0    0  501    0  0.00000000000E+00  0.00000000000E+00  0.72024842534E+03  0.72024842534E+03  0.25500000920E-02 0. -1.
       -2   -1    0    0    0  501  0.00000000000E+00  0.00000000000E+00 -0.28539624436E+03  0.28539624437E+03  0.25500000920E-02 0.  1.
    10030    2    1    2    0    0  0.00000000000E+00  0.00000000000E+00  0.43485218097E+03  0.10056446697E+04  0.90676611231E+03 0.  0.
        3    1    3    3  502    0 -0.30122337382E+03 -0.28572336991E+03  0.41945146600E+03  0.59018040257E+03  0.10100000352E+00 0. -1.
       -3    1    3    3    0  502  0.30122337382E+03  0.28572336991E+03  0.15400714970E+02  0.41546426714E+03  0.10100000352E+00 0.  1.
</event>
<event>
 5   0  0.3806019E-03  0.9004234E+03  0.7818609E-02  0.9425052E-01
       -2   -1    0    0    0  501  0.00000000000E+00  0.00000000000E+00  0.16512242729E+03  0.16512242730E+03  0.25500000920E-02 0. -1.
        2   -1    0    0  501    0  0.00000000000E+00  0.00000000000E+00 -0.12275169705E+04  0.12275169705E+04  0.25500000920E-02 0.  1.
    10030    2    1    2    0    0  0.00000000000E+00  0.00000000000E+00 -0.10623945432E+04  0.13926393978E+04  0.90042341534E+03 0.  0.
        2    1    3    3  502    0 -0.22242055647E+03 -0.22525797889E+03 -0.36079721385E+02  0.31861231504E+03  0.25500000920E-02 0. -1.
       -2    1    3    3    0  502  0.22242055647E+03  0.22525797889E+03 -0.10263148219E+04  0.10740270828E+04  0.25500000920E-02 0.  1.
</event>
<event>
 5   0  0.2295158E-03  0.9027923E+03  0.7818609E-02  0.9422098E-01
        1   -1    0    0  501    0  0.00000000000E+00  0.00000000000E+00  0.66879732196E+03  0.66879732198E+03  0.50400001928E-02 0. -1.
       -1   -1    0    0    0  501  0.00000000000E+00  0.00000000000E+00 -0.30466402301E+03  0.30466402305E+03  0.50400001928E-02 0.  1.
    10030    2    1    2    0    0  0.00000000000E+00  0.00000000000E+00  0.36413329895E+03  0.97346134503E+03  0.90279229664E+03 0.  0.
        4    1    3    3  502    0  0.10376457329E+03  0.27557533862E+03  0.55097025031E+03  0.62472288541E+03  0.12699999809E+01 0. -1.
       -4    1    3    3    0  502 -0.10376457329E+03 -0.27557533862E+03 -0.18683695136E+03  0.34873845962E+03  0.12699999809E+01 0.  1.
</event>
<event>
 5   0  0.3685879E-03  0.8974010E+03  0.7818609E-02  0.9428836E-01
        2   -1    0    0  501    0  0.00000000000E+00  0.00000000000E+00  0.13150293626E+03  0.13150293629E+03  0.25500000920E-02 0.  1.
       -2   -1    0    0    0  501  0.00000000000E+00  0.00000000000E+00 -0.15310086005E+04  0.15310086005E+04  0.25500000920E-02 0. -1.
    10030    2    1    2    0    0  0.00000000000E+00  0.00000000000E+00 -0.13995056642E+04  0.16625115368E+04  0.89740097266E+03 0.  0.
        1    1    3    3  502    0 -0.28408107865E+02 -0.44297336174E+03 -0.82123080678E+03  0.93351617974E+03  0.50400001928E-02 0. -1.
       -1    1    3    3    0  502  0.28408107865E+02  0.44297336174E+03 -0.57827485746E+03  0.72899535705E+03  0.50400001928E-02 0.  1.
</event>
<event>
 5   0  0.3806019E-03  0.9032663E+03  0.7818609E-02  0.9421508E-01
        2   -1    0    0  501    0  0.00000000000E+00  0.00000000000E+00  0.14644306568E+04  0.14644306568E+04  0.25500000920E-02 0.  1.
       -2   -1    0    0    0  501  0.00000000000E+00  0.00000000000E+00 -0.13928451859E+03  0.13928451862E+03  0.25500000920E-02 0. -1.
    10030    2    1    2    0    0  0.00000000000E+00  0.00000000000E+00  0.13251461383E+04  0.16037151755E+04  0.90326633740E+03 0.  0.
        2    1    3    3  502    0  0.34648651994E+03 -0.31132981857E+01  0.11768748896E+04  0.12268239918E+04  0.25500000920E-02 0.  1.
       -2    1    3    3    0  502 -0.34648651994E+03  0.31132981857E+01  0.14827124866E+03  0.37689118365E+03  0.25500000920E-02 0. -1.
</event>
<event>
 5   0  0.3685879E-03  0.9018041E+03  0.7818609E-02  0.9423329E-01
        2   -1    0    0  501    0  0.00000000000E+00  0.00000000000E+00  0.86186308821E+03  0.86186308821E+03  0.25500000920E-02 0.  1.
       -2   -1    0    0    0  501  0.00000000000E+00  0.00000000000E+00 -0.23589902176E+03  0.23589902177E+03  0.25500000920E-02 0. -1.
    10030    2    1    2    0    0  0.00000000000E+00  0.00000000000E+00  0.62596406645E+03  0.10977621100E+04  0.90180410158E+03 0.  0.
        1    1    3    3  502    0 -0.39506286701E+03 -0.14856747485E+03  0.50609013851E+03  0.65899483442E+03  0.50400001928E-02 0.  1.
       -1    1    3    3    0  502  0.39506286701E+03  0.14856747485E+03  0.11987392794E+03  0.43876727556E+03  0.50400001928E-02 0. -1.
</event>
<event>
 5   0  0.3626546E-03  0.8990020E+03  0.7818609E-02  0.9426830E-01
       -2   -1    0    0    0  501  0.00000000000E+00  0.00000000000E+00  0.12184796126E+03  0.12184796128E+03  0.25500000920E-02 0.  1.
        2   -1    0    0  501    0  0.00000000000E+00  0.00000000000E+00 -0.16582235971E+04  0.16582235971E+04  0.25500000920E-02 0. -1.
    10030    2    1    2    0    0  0.00000000000E+00  0.00000000000E+00 -0.15363756358E+04  0.17800715584E+04  0.89900203478E+03 0.  0.
        3    1    3    3  502    0 -0.43928264973E+03 -0.86551164369E+02 -0.84716199841E+03  0.95819821131E+03  0.10100000352E+00 0. -1.
       -3    1    3    3    0  502  0.43928264973E+03  0.86551164369E+02 -0.68921363742E+03  0.82187334706E+03  0.10100000352E+00 0.  1.
</event>
<event>
 5   0  0.2074970E-03  0.8834698E+03  0.7818609E-02  0.9446484E-01
       -1   -1    0    0    0  501  0.00000000000E+00  0.00000000000E+00  0.18452474048E+03  0.18452474055E+03  0.50400001928E-02 0. -1.
        1   -1    0    0  501    0  0.00000000000E+00  0.00000000000E+00 -0.10574719275E+04  0.10574719275E+04  0.50400001928E-02 0.  1.
    10030    2    1    2    0    0  0.00000000000E+00  0.00000000000E+00 -0.87294718705E+03  0.12419966681E+04  0.88346982528E+03 0.  0.
        2    1    3    3  502    0  0.38734946118E+03  0.17703947076E+03 -0.27164403140E+03  0.50514657188E+03  0.25500000920E-02 0. -1.
       -2    1    3    3    0  502 -0.38734946118E+03 -0.17703947076E+03 -0.60130315565E+03  0.73685009621E+03  0.25500000920E-02 0.  1.
</event>
<event>
 5   0  0.3626546E-03  0.9006587E+03  0.7818609E-02  0.9424758E-01
        2   -1    0    0  501    0  0.00000000000E+00  0.00000000000E+00  0.96233613449E+03  0.96233613450E+03  0.25500000920E-02 0. -1.
       -2   -1    0    0    0  501  0.00000000000E+00  0.00000000000E+00 -0.21073354590E+03  0.21073354591E+03  0.25500000920E-02 0.  1.
    10030    2    1    2    0    0  0.00000000000E+00  0.00000000000E+00  0.75160258859E+03  0.11730696804E+04  0.90065866116E+03 0.  0.
        3    1    3    3  502    0  0.26877228949E+02  0.22121645255E+03 -0.13388646396E+03  0.25997057477E+03  0.10100000352E+00 0.  1.
       -3    1    3    3    0  502 -0.26877228949E+02 -0.22121645255E+03  0.88548905256E+03  0.91309910564E+03  0.10100000352E+00 0. -1.
</event>
<event>
 5   0  0.3663255E-03  0.9013472E+03  0.7818609E-02  0.9423899E-01
        2   -1    0    0  501    0  0.00000000000E+00  0.00000000000E+00  0.14976172419E+04  0.14976172419E+04  0.25500000920E-02 0. -1.
       -2   -1    0    0    0  501  0.00000000000E+00  0.00000000000E+00 -0.13561989949E+03  0.13561989952E+03  0.25500000920E-02 0.  1.
    10030    2    1    2    0    0  0.00000000000E+00  0.00000000000E+00  0.13619973424E+04  0.16332371414E+04  0.90134721356E+03 0.  0.
        4    1    3    3  502    0  0.26138402562E+02  0.44860021580E+03  0.74323530441E+03  0.86851925732E+03  0.12699999809E+01 0. -1.
       -4    1    3    3    0  502 -0.26138402562E+02 -0.44860021580E+03  0.61876203800E+03  0.76471788411E+03  0.12699999809E+01 0.  1.
</event>
<event>
 5   0  0.2134145E-03  0.9070902E+03  0.7818609E-02  0.9416761E-01
       -1   -1    0    0    0  501  0.00000000000E+00  0.00000000000E+00  0.32177780314E+03  0.32177780318E+03  0.50400001928E-02 0.  1.
        1   -1    0    0  501    0  0.00000000000E+00  0.00000000000E+00 -0.63927081372E+03  0.63927081374E+03  0.50400001928E-02 0. -1.
    10030    2    1    2    0    0  0.00000000000E+00  0.00000000000E+00 -0.31749301058E+03  0.96104861692E+03  0.90709020076E+03 0.  0.
        1    1    3    3  502    0 -0.20142486492E+03 -0.21580737731E+03 -0.52355166325E+03  0.60104171605E+03  0.50400001928E-02 0. -1.
       -1    1    3    3    0  502  0.20142486492E+03  0.21580737731E+03  0.20605865267E+03  0.36000690087E+03  0.50400001928E-02 0.  1.
</event>
<event>
 5   0  0.2074970E-03  0.8706155E+03  0.7818609E-02  0.9463078E-01
        1   -1    0    0  501    0  0.00000000000E+00  0.00000000000E+00  0.55094577150E+03  0.55094577153E+03  0.50400001928E-02 0.  1.
       -1   -1    0    0    0  501  0.00000000000E+00  0.00000000000E+00 -0.34394098322E+03  0.34394098326E+03  0.50400001928E-02 0. -1.
    10030    2    1    2    0    0  0.00000000000E+00  0.00000000000E+00  0.20700478828E+03  0.89488675478E+03  0.87061548431E+03 0.  0.
        2    1    3    3  502    0 -0.12815122544E+03  0.10458519329E+03 -0.31037919204E+03  0.35170448120E+03  0.25500000920E-02 0. -1.
       -2    1    3    3    0  502  0.12815122544E+03 -0.10458519329E+03  0.51738398032E+03  0.54318227359E+03  0.25500000920E-02 0.  1.
</event>
<event>
 5   0  0.2130975E-03  0.9086409E+03  0.7818609E-02  0.9414844E-01
        1   -1    0    0  501    0  0.00000000000E+00  0.00000000000E+00  0.90862414528E+02  0.90862414668E+02  0.50400001928E-02 0.  1.
       -1   -1    0    0    0  501  0.00000000000E+00  0.00000000000E+00 -0.22716440723E+04  0.22716440723E+04  0.50400001928E-02 0. -1.
    10030    2    1    2    0    0  0.00000000000E+00  0.00000000000E+00 -0.21807816578E+04  0.23625064870E+04  0.90864088733E+03 0.  0.
        5    1    3    3  502    0  0.51730897094E+02 -0.29544013311E+03 -0.19775509778E+04  0.20001727220E+04  0.46999998093E+01 0. -1.
       -5    1    3    3    0  502 -0.51730897094E+02  0.29544013311E+03 -0.20323067995E+03  0.36233376497E+03  0.46999998093E+01 0.  1.
</event>
<event>
 5   0  0.1436000E-03  0.8980686E+03  0.7818609E-02  0.9427999E-01
        3   -1    0    0  501    0  0.00000000000E+00  0.00000000000E+00  0.68899834556E+03  0.68899835296E+03  0.10100000352E+00 0. -1.
       -3   -1    0    0    0  501  0.00000000000E+00  0.00000000000E+00 -0.29264481325E+03  0.29264483068E+03  0.10100000352E+00 0.  1.
    10030    2    1    2    0    0  0.00000000000E+00  0.00000000000E+00  0.39635353230E+03  0.98164318364E+03  0.89806860396E+03 0.  0.
        2    1    3    3  502    0  0.39545318491E+03 -0.46176853263E+02 -0.28791316422E+02  0.39917973789E+03  0.25500000920E-02 0.  1.
       -2    1    3    3    0  502 -0.39545318491E+03  0.46176853263E+02  0.42514484872E+03  0.58246344575E+03  0.25500000920E-02 0. -1.
</event>
<event>
 5   0  0.2129280E-03  0.9025070E+03  0.7818609E-02  0.9422453E-01
       -1   -1    0    0    0  501  0.00000000000E+00  0.00000000000E+00  0.24777577001E+03  0.24777577006E+03  0.50400001928E-02 0. -1.
        1   -1    0    0  501    0  0.00000000000E+00  0.00000000000E+00 -0.82183071761E+03  0.82183071763E+03  0.50400001928E-02 0.  1.
    10030    2    1    2    0    0  0.00000000000E+00  0.00000000000E+00 -0.57405494760E+03  0.10696064877E+04  0.90250703910E+03 0.  0.
        3    1    3    3  502    0 -0.42104329673E+03 -0.48137025068E+02 -0.47076437072E+03  0.63341434610E+03  0.10100000352E+00 0.  1.
       -3    1    3    3    0  502  0.42104329673E+03  0.48137025068E+02 -0.10329057688E+03  0.43619214158E+03  0.10100000352E+00 0. -1.
</event>
<event>
 5   0  0.3663255E-03  0.8894092E+03  0.7818609E-02  0.9438918E-01
        2   -1    0    0  501    0  0.00000000000E+00  0.00000000000E+00  0.32252401010E+03  0.32252401011E+03  0.25500000920E-02 0.  1.
       -2   -1    0    0    0  501  0.00000000000E+00  0.00000000000E+00 -0.61317038706E+03  0.61317038707E+03  0.25500000920E-02 0. -1.
    10030    2    1    2    0    0  0.00000000000E+00  0.00000000000E+00 -0.29064637696E+03  0.93569439718E+03  0.88940917944E+03 0.  0.
        4    1    3    3  502    0 -0.13508812830E+03 -0.27432029779E+03  0.19437368896E+03  0.36233019754E+03  0.12699999809E+01 0.  1.
       -4    1    3    3    0  502  0.13508812830E+03  0.27432029779E+03 -0.48502006592E+03  0.57336419964E+03  0.12699999809E+01 0. -1.
</event>
<event>
 5   0  0.2134145E-03  0.8992572E+03  0.7818609E-02  0.9426510E-01
       -1   -1    0    0    0  501  0.00000000000E+00  0.00000000000E+00  0.47748339941E+03  0.47748339944E+03  0.50400001928E-02 0.  1.
        1   -1    0    0  501    0  0.00000000000E+00  0.00000000000E+00 -0.42339871704E+03  0.42339871707E+03  0.50400001928E-02 0. -1.
    10030    2    1    2    0    0  0.00000000000E+00  0.00000000000E+00  0.54084682373E+02  0.90088211651E+03  0.89925715731E+03 0.  0.
        1    1    3    3  502    0 -0.12778637309E+03 -0.80151538228E+02  0.45137854602E+03  0.47591618806E+03  0.50400001928E-02 0.  1.
       -1    1    3    3    0  502  0.12778637309E+03  0.80151538228E+02 -0.39729386364E+03  0.42496592845E+03  0.50400001928E-02 0. -1.
</event>
<event>
 5   0  0.3815269E-03  0.9013898E+03  0.7818609E-02  0.9423846E-01
        2   -1    0    0  501    0  0.00000000000E+00  0.00000000000E+00  0.12281495164E+04  0.12281495164E+04  0.25500000920E-02 0. -1.
       -2   -1    0    0    0  501  0.00000000000E+00  0.00000000000E+00 -0.16539182211E+03  0.16539182213E+03  0.25500000920E-02 0.  1.
    10030    2    1    2    0    0  0.00000000000E+00  0.00000000000E+00  0.10627576943E+04  0.13935413386E+04  0.90138978553E+03 0.  0.
        5    1    3    3  502    0 -0.33026920233E+03 -0.29154635814E+03  0.38449520043E+03  0.58475266062E+03  0.46999998093E+01 0.  1.
       -5    1    3    3    0  502  0.33026920233E+03  0.29154635814E+03  0.67826249390E+03  0.80878867795E+03  0.46999998093E+01 0. -1.
</event>
<event>
 5   0  0.3815269E-03  0.8988276E+03  0.7818609E-02  0.9427048E-01
        2   -1    0    0  501    0  0.00000000000E+00  0.00000000000E+00  0.12378899581E+04  0.12378899581E+04  0.25500000920E-02 0.  1.
       -2   -1    0    0    0  501  0.00000000000E+00  0.00000000000E+00 -0.16315890514E+03  0.16315890516E+03  0.25500000920E-02 0. -1.
    10030    2    1    2    0    0  0.00000000000E+00  0.00000000000E+00  0.10747310529E+04  0.14010488632E+04  0.89882761474E+03 0.  0.
        5    1    3    3  502    0 -0.97153719303E+02 -0.36919429896E+03  0.16781515627E+03  0.41704591141E+03  0.46999998093E+01 0. -1.
       -5    1    3    3    0  502  0.97153719303E+02  0.36919429896E+03  0.90691589667E+03  0.98400295182E+03  0.46999998093E+01 0.  1.
</event>
<event>
 5   0  0.3815269E-03  0.9002039E+03  0.7818609E-02  0.9425327E-01
       -2   -1    0    0    0  501  0.00000000000E+00  0.00000000000E+00  0.20337410466E+03  0.20337410468E+03  0.25500000920E-02 0. -1.
        2   -1    0    0  501    0  0.00000000000E+00  0.00000000000E+00 -0.99615314082E+03  0.99615314083E+03  0.25500000920E-02 0.  1.
    10030    2    1    2    0    0  0.00000000000E+00  0.00000000000E+00 -0.79277903616E+03  0.11995272455E+04  0.90020387276E+03 0.  0.
        5    1    3    3  502    0 -0.18971918200E+03  0.21713589827E+03 -0.85688233395E+03  0.90410773173E+03  0.46999998093E+01 0.  1.
       -5    1    3    3    0  502  0.18971918200E+03 -0.21713589827E+03  0.64103297787E+02  0.29541951378E+03  0.46999998093E+01 0. -1.
</event>
<event>
 5   0  0.3806019E-03  0.8960581E+03  0.7818609E-02  0.9430522E-01
       -2   -1    0    0    0  501  0.00000000000E+00  0.00000000000E+00  0.13687782494E+03  0.13687782496E+03  0.25500000920E-02 0. -1.
        2   -1    0    0  501    0  0.00000000000E+00  0.00000000000E+00 -0.14664903899E+04  0.14664903899E+04  0.25500000920E-02 0.  1.
    10030    2    1    2    0    0  0.00000000000E+00  0.00000000000E+00 -0.13296125649E+04  0.16033682148E+04  0.89605806704E+03 0.  0.
        2    1    3    3  502    0 -0.44155460604E+03  0.65090187930E+02 -0.59497978015E+03  0.74377963234E+03  0.25500000920E-02 0. -1.
       -2    1    3    3    0  502  0.44155460604E+03 -0.65090187930E+02 -0.73463278476E+03  0.85958858248E+03  0.25500000920E-02 0.  1.
</event>
<event>
 5   0  0.2295158E-03  0.8998539E+03  0.7818609E-02  0.9425764E-01
        1   -1    0    0  501    0  0.00000000000E+00  0.00000000000E+00  0.10138673997E+04  0.10138673997E+04  0.50400001928E-02 0. -1.
       -1   -1    0    0    0  501  0.00000000000E+00  0.00000000000E+00 -0.19966542460E+03  0.19966542466E+03  0.50400001928E-02 0.  1.
    10030    2    1    2    0    0  0.00000000000E+00  0.00000000000E+00  0.81420197507E+03  0.12135328243E+04  0.89985391012E+03 0.  0.
        4    1    3    3  502    0  0.38019858426E+03  0.15311059826E+03  0.15683390302E+03  0.43885339786E+03  0.12699999809E+01 0.  1.
       -4    1    3    3    0  502 -0.38019858426E+03 -0.15311059826E+03  0.65736807205E+03  0.77467942649E+03  0.12699999809E+01 0. -1.
</event>
<event>
 5   0  0.3685879E-03  0.9007597E+03  0.7818609E-02  0.9424632E-01
        2   -1    0    0  501    0  0.00000000000E+00  0.00000000000E+00  0.38024764155E+03  0.38024764156E+03  0.25500000920E-02 0. -1.
       -2   -1    0    0    0  501  0.00000000000E+00  0.00000000000E+00 -0.53344714393E+03  0.53344714394E+03  0.25500000920E-02 0.  1.
    10030    2    1    2    0    0  0.00000000000E+00  0.00000000000E+00 -0.15319950238E+03  0.91369478550E+03  0.90075972019E+03 0.  0.
        1    1    3    3  502    0 -0.20993066056E+03  0.83637195166E+02  0.31857908432E+03  0.39058762864E+03  0.50400001928E-02 0. -1.
       -1    1    3    3    0  502  0.20993066056E+03 -0.83637195166E+02 -0.47177858670E+03  0.52310715685E+03  0.50400001928E-02 0.  1.
</event>
<event>
 5   0  0.3815269E-03  0.8972924E+03  0.7818609E-02  0.9428972E-01
       -2   -1    0    0    0  501  0.00000000000E+00  0.00000000000E+00  0.10942129937E+03  0.10942129940E+03  0.25500000920E-02 0. -1.
        2   -1    0    0  501    0  0.00000000000E+00  0.00000000000E+00 -0.18395267136E+04  0.18395267136E+04  0.25500000920E-02 0.  1.
    10030    2    1    2    0    0  0.00000000000E+00  0.00000000000E+00 -0.17301054143E+04  0.19489480130E+04  0.89729237882E+03 0.  0.
        5    1    3    3  502    0 -0.20710535327E+03  0.23713476475E+02 -0.17278892353E+04  0.17404247343E+04  0.46999998093E+01 0.  1.
       -5    1    3    3    0  502  0.20710535327E+03 -0.23713476475E+02 -0.22161789427E+01  0.20852327872E+03  0.46999998093E+01 0. -1.
</event>
<event>
 5   0  0.3663255E-03  0.9000737E+03  0.7818609E-02  0.9425489E-01
       -2   -1    0    0    0  501  0.00000000000E+00  0.00000000000E+00  0.16776706244E+03  0.16776706245E+03  0.25500000920E-02 0.  1.
        2   -1    0    0  501    0  0.00000000000E+00  0.00000000000E+00 -0.12072284298E+04  0.12072284298E+04  0.25500000920E-02 0. -1.
    10030    2    1    2    0    0  0.00000000000E+00  0.00000000000E+00 -0.10394613674E+04  0.13749954923E+04  0.90007370225E+03 0.  0.
        4    1    3    3  502    0  0.52505612012E+02 -0.16129794694E+03 -0.11565191891E+04  0.11688935429E+04  0.12699999809E+01 0. -1.
       -4    1    3    3    0  502 -0.52505612012E+02  0.16129794694E+03  0.11705782176E+03  0.20610194933E+03  0.12699999809E+01 0.  1.
</event>
<event>
 5   0  0.3626546E-03  0.8998807E+03  0.7818609E-02  0.9425731E-01
        2   -1    0    0  501    0  0.00000000000E+00  0.00000000000E+00  0.11284626566E+04  0.11284626566E+04  0.25500000920E-02 0.  1.
       -2   -1    0    0    0  501  0.00000000000E+00  0.00000000000E+00 -0.17940009825E+03  0.17940009827E+03  0.25500000920E-02 0. -1.
    10030    2    1    2    0    0  0.00000000000E+00  0.00000000000E+00  0.94906255830E+03  0.13078627548E+04  0.89988068426E+03 0.  0.
        3    1    3    3  502    0  0.40457075879E+02 -0.23660430610E+03  0.10276309524E+04  0.10552932091E+04  0.10100000352E+00 0.  1.
       -3    1    3    3    0  502 -0.40457075879E+02  0.23660430610E+03 -0.78568394127E+02  0.25256954570E+03  0.10100000352E+00 0. -1.
</event>
<event>
 5   0  0.3815269E-03  0.8999258E+03  0.7818609E-02  0.9425674E-01
        2   -1    0    0  501    0  0.00000000000E+00  0.00000000000E+00  0.93636468920E+03  0.93636468920E+03  0.25500000920E-02 0.  1.
       -2   -1    0    0    0  501  0.00000000000E+00  0.00000000000E+00 -0.21622623861E+03  0.21622623862E+03  0.25500000920E-02 0. -1.
    10030    2    1    2    0    0  0.00000000000E+00  0.00000000000E+00  0.72013845059E+03  0.11525909278E+04  0.89992580744E+03 0.  0.
        5    1    3    3  502    0 -0.43573292532E+03  0.93268433360E+02  0.28026693095E+03  0.52643501541E+03  0.46999998093E+01 0. -1.
       -5    1    3    3    0  502  0.43573292532E+03 -0.93268433360E+02  0.43987151964E+03  0.62615591242E+03  0.46999998093E+01 0.  1.
</event>
<event>
 5   0  0.2295158E-03  0.9039403E+03  0.7818609E-02  0.9420669E-01
        1   -1    0    0  501    0  0.00000000000E+00  0.00000000000E+00  0.13453069544E+04  0.13453069544E+04  0.50400001928E-02 0.  1.
       -1   -1    0    0    0  501  0.00000000000E+00  0.00000000000E+00 -0.15184415351E+03  0.15184415360E+03  0.50400001928E-02 0. -1.
    10030    2    1    2    0    0  0.00000000000E+00  0.00000000000E+00  0.11934628009E+04  0.14971511080E+04  0.90394025418E+03 0.  0.
        4    1    3    3  502    0  0.14548690680E+03 -0.34372467597E+03  0.17459133601E+03  0.41206412175E+03  0.12699999809E+01 0. -1.
       -4    1    3    3    0  502 -0.14548690680E+03  0.34372467597E+03  0.10188714649E+04  0.10850869863E+04  0.12699999809E+01 0.  1.
</event>
<event>
 5   0  0.2129280E-03  0.9008371E+03  0.7818609E-02  0.9424536E-01
        1   -1    0    0  501    0  0.00000000000E+00  0.00000000000E+00  0.34677647659E+03  0.34677647663E+03  0.50400001928E-02 0.  1.
       -1   -1    0    0    0  501  0.00000000000E+00  0.00000000000E+00 -0.58503646409E+03  0.58503646411E+03  0.50400001928E-02 0. -1.
    10030    2    1    2    0    0  0.00000000000E+00  0.00000000000E+00 -0.23825998750E+03  0.93181294074E+03  0.90083713005E+03 0.  0.
        3    1    3    3  502    0  0.76946938901E+02 -0.38335736659E+03  0.11214985995E+03  0.40676934891E+03  0.10100000352E+00 0.  1.
       -3    1    3    3    0  502 -0.76946938901E+02  0.38335736659E+03 -0.35040984745E+03  0.52504359183E+03  0.10100000352E+00 0. -1.
</event>
<event>
 5   0  0.2130975E-03  0.9443434E+03  0.7818609E-02  0.9371787E-01
       -1   -1    0    0    0  501  0.00000000000E+00  0.00000000000E+00  0.23319349544E+03  0.23319349549E+03  0.50400001928E-02 0.  1.
        1   -1    0    0  501    0  0.00000000000E+00  0.00000000000E+00 -0.95605623270E+03  0.95605623271E+03  0.50400001928E-02 0. -1.
    10030    2    1    2    0    0  0.00000000000E+00  0.00000000000E+00 -0.72286273726E+03  0.11892497282E+04  0.94434335870E+03 0.  0.
        5    1    3    3  502    0  0.40019336729E+03  0.24861656884E+03 -0.40043180578E+03  0.61833053507E+03  0.46999998093E+01 0.  1.
       -5    1    3    3    0  502 -0.40019336729E+03 -0.24861656884E+03 -0.32243093148E+03  0.57091919314E+03  0.46999998093E+01 0. -1.
</event>
<event>
 5   0  0.3685879E-03  0.9008624E+03  0.7818609E-02  0.9424504E-01
       -2   -1    0    0    0  501  0.00000000000E+00  0.00000000000E+00  0.12663751062E+03  0.12663751065E+03  0.25500000920E-02 0. -1.
        2   -1    0    0  501    0  0.00000000000E+00  0.00000000000E+00 -0.16021183061E+04  0.16021183061E+04  0.25500000920E-02 0.  1.
    10030    2    1    2    0    0  0.00000000000E+00  0.00000000000E+00 -0.14754807955E+04  0.17287558167E+04  0.90086241798E+03 0.  0.
        1    1    3    3  502    0 -0.35464061138E+03 -0.57412036183E+02 -0.12591374663E+04  0.13093865985E+04  0.50400001928E-02 0.  1.
       -1    1    3    3    0  502  0.35464061138E+03  0.57412036183E+02 -0.21634332914E+03  0.41936921826E+03  0.50400001928E-02 0. -1.
</event>
<event>
 5   0  0.3815269E-03  0.9403009E+03  0.7818609E-02  0.9376560E-01
       -2   -1    0    0    0  501  0.00000000000E+00  0.00000000000E+00  0.33279704027E+03  0.33279704028E+03  0.25500000920E-02 0.  1.
        2   -1    0    0  501    0  0.00000000000E+00  0.00000000000E+00 -0.66419296087E+03  0.66419296088E+03  0.25500000920E-02 0. -1.
    10030    2    1    2    0    0  0.00000000000E+00  0.00000000000E+00 -0.33139592060E+03  0.99699000116E+03  0.94030091259E+03 0.  0.
        5    1    3    3  502    0  0.29207107077E+03 -0.16825042281E+03  0.18178819167E+03  0.38299184298E+03  0.46999998093E+01 0.  1.
       -5    1    3    3    0  502 -0.29207107077E+03  0.16825042281E+03 -0.51318411227E+03  0.61399815818E+03  0.46999998093E+01 0. -1.
</event>
<event>
 5   0  0.2130975E-03  0.9005963E+03  0.7818609E-02  0.9424836E-01
        1   -1    0    0  501    0  0.00000000000E+00  0.00000000000E+00  0.55406060962E+03  0.55406060964E+03  0.50400001928E-02 0.  1.
       -1   -1    0    0    0  501  0.00000000000E+00  0.00000000000E+00 -0.36596796768E+03  0.36596796771E+03  0.50400001928E-02 0. -1.
    10030    2    1    2    0    0  0.00000000000E+00  0.00000000000E+00  0.18809264194E+03  0.92002857735E+03  0.90059632533E+03 0.  0.
        5    1    3    3  502    0  0.43365550706E+02 -0.33669329788E+03  0.39623876740E+03  0.52179516921E+03  0.46999998093E+01 0.  1.
       -5    1    3    3    0  502 -0.43365550706E+02  0.33669329788E+03 -0.20814612545E+03  0.39823340814E+03  0.46999998093E+01 0. -1.
</event>
<event>
 5   0  0.2134145E-03  0.8992990E+03  0.7818609E-02  0.9426458E-01
       -1   -1    0    0    0  501  0.00000000000E+00  0.00000000000E+00  0.18110941354E+03  0.18110941361E+03  0.50400001928E-02 0. -1.
        1   -1    0    0  501    0  0.00000000000E+00  0.00000000000E+00 -0.11163675706E+04  0.11163675706E+04  0.50400001928E-02 0.  1.
    10030    2    1    2    0    0  0.00000000000E+00  0.00000000000E+00 -0.93525815704E+03  0.12974769842E+04  0.89929900713E+03 0.  0.
        1    1    3    3  502    0  0.38815619297E+03 -0.20754633972E+03 -0.33505192101E+03  0.55317312215E+03  0.50400001928E-02 0.  1.
       -1    1    3    3    0  502 -0.38815619297E+03  0.20754633972E+03 -0.60020623602E+03  0.74430386205E+03  0.50400001928E-02 0. -1.
</event>
<event>
 5   0  0.3663255E-03  0.8976081E+03  0.7818609E-02  0.9428576E-01
        2   -1    0    0  501    0  0.00000000000E+00  0.00000000000E+00  0.11247428481E+04  0.11247428481E+04  0.25500000920E-02 0.  1.
       -2   -1    0    0    0  501  0.00000000000E+00  0.00000000000E+00 -0.17908544858E+03  0.17908544860E+03  0.25500000920E-02 0. -1.
    10030    2    1    2    0    0  0.00000000000E+00  0.00000000000E+00  0.94565739952E+03  0.13038282967E+04  0.89760810493E+03 0.  0.
        4    1    3    3  502    0 -0.14400957622E+03  0.42275839668E+03  0.40852046126E+03  0.60527183990E+03  0.12699999809E+01 0.  1.
       -4    1    3    3    0  502  0.14400957622E+03 -0.42275839668E+03  0.53713693827E+03  0.69855645681E+03  0.12699999809E+01 0. -1.
</event>
<event>
 5   0  0.2134145E-03  0.9051943E+03  0.7818609E-02  0.9419111E-01
       -1   -1    0    0    0  501  0.00000000000E+00  0.00000000000E+00  0.12969145944E+03  0.12969145954E+03  0.50400001928E-02 0.  1.
        1   -1    0    0  501    0  0.00000000000E+00  0.00000000000E+00 -0.15794733049E+04  0.15794733049E+04  0.50400001928E-02 0. -1.
    10030    2    1    2    0    0  0.00000000000E+00  0.00000000000E+00 -0.14497818455E+04  0.17091647645E+04  0.90519433971E+03 0.  0.
        1    1    3    3  502    0 -0.18674603022E+03  0.69134283879E+02 -0.14923137726E+04  0.15055411071E+04  0.50400001928E-02 0. -1.
       -1    1    3    3    0  502  0.18674603022E+03 -0.69134283879E+02  0.42531927152E+02  0.20362365742E+03  0.50400001928E-02 0.  1.
</event>
<event>
 5   0  0.3663255E-03  0.9058493E+03  0.7818609E-02  0.9418299E-01
       -2   -1    0    0    0  501  0.00000000000E+00  0.00000000000E+00  0.13090254258E+03  0.13090254261E+03  0.25500000920E-02 0. -1.
        2   -1    0    0  501    0  0.00000000000E+00  0.00000000000E+00 -0.15671255343E+04  0.15671255343E+04  0.25500000920E-02 0.  1.
    10030    2    1    2    0    0  0.00000000000E+00  0.00000000000E+00 -0.14362229917E+04  0.16980280769E+04  0.90584925236E+03 0.  0.
        4    1    3    3  502    0 -0.36690578593E+03  0.17564510065E+03 -0.10914556420E+04  0.11647952990E+04  0.12699999809E+01 0. -1.
       -4    1    3    3    0  502  0.36690578593E+03 -0.17564510065E+03 -0.34476734971E+03  0.53323277793E+03  0.12699999809E+01 0.  1.
</event>
<event>
 5   0  0.3685879E-03  0.8999237E+03  0.7818609E-02  0.9425677E-01
        2   -1    0    0  501    0  0.00000000000E+00  0.00000000000E+00  0.28670768365E+03  0.28670768366E+03  0.25500000920E-02 0.  1.
       -2   -1    0    0    0  501  0.00000000000E+00  0.00000000000E+00 -0.70617458287E+03  0.70617458287E+03  0.25500000920E-02 0. -1.
    10030    2    1    2    0    0  0.00000000000E+00  0.00000000000E+00 -0.41946689922E+03  0.99288226653E+03  0.89992372768E+03 0.  0.
        1    1    3    3  502    0 -0.38133285770E+03 -0.20941351206E+03 -0.82989217843E+02  0.44289499624E+03  0.50400001928E-02 0. -1.
       -1    1    3    3    0  502  0.38133285770E+03  0.20941351206E+03 -0.33647768138E+03  0.54998727029E+03  0.50400001928E-02 0.  1.
</event>
<event>
 5   0  0.1436000E-03  0.8969196E+03  0.7818609E-02  0.9429440E-01
        4   -1    0    0  501    0  0.00000000000E+00  0.00000000000E+00  0.14416742097E+03  0.14417301470E+03  0.12699999809E+01 0.  1.
       -4   -1    0    0    0  501  0.00000000000E+00  0.00000000000E+00 -0.13949854013E+04  0.13949859795E+04  0.12699999809E+01 0. -1.
    10030    2    1    2    0    0  0.00000000000E+00  0.00000000000E+00 -0.12508179804E+04  0.15391589942E+04  0.89691961137E+03 0.  0.
        1    1    3    3  502    0 -0.20078526572E+03  0.38606420269E+03 -0.43934684987E+03  0.61837362981E+03  0.50400001928E-02 0. -1.
       -1    1    3    3    0  502  0.20078526572E+03 -0.38606420269E+03 -0.81147113051E+03  0.92078536435E+03  0.50400001928E-02 0.  1.
</event>
<event>
 5   0  0.2134145E-03  0.9024469E+03  0.7818609E-02  0.9422528E-01
       -1   -1    0    0    0  501  0.00000000000E+00  0.00000000000E+00  0.31534269526E+03  0.31534269530E+03  0.50400001928E-02 0. -1.
        1   -1    0    0  501    0  0.00000000000E+00  0.00000000000E+00 -0.64565508198E+03  0.64565508200E+03  0.50400001928E-02 0.  1.
    10030    2    1    2    0    0  0.00000000000E+00  0.00000000000E+00 -0.33031238672E+03  0.96099777731E+03  0.90244692651E+03 0.  0.
        1    1    3    3  502    0  0.33230940643E+03  0.59899896660E+02  0.15357057746E+03  0.37094670980E+03  0.50400001928E-02 0. -1.
       -1    1    3    3    0  502 -0.33230940643E+03 -0.59899896660E+02 -0.48388296418E+03  0.59005106751E+03  0.50400001928E-02 0.  1.
</event>
<event>
 5   0  0.2130975E-03  0.9041537E+03  0.7818609E-02  0.9420404E-01
       -1   -1    0    0    0  501  0.00000000000E+00  0.00000000000E+00  0.23630285396E+04  0.23630285396E+04  0.50400001928E-02 0.  1.
        1   -1    0    0  501    0  0.00000000000E+00  0.00000000000E+00 -0.86487945617E+02  0.86487945764E+02  0.50400001928E-02 0. -1.
    10030    2    1    2    0    0  0.00000000000E+00  0.00000000000E+00  0.22765405939E+04  0.24495164853E+04  0.90415371261E+03 0.  0.
        5    1    3    3  502    0 -0.87055360302E+02  0.18080995835E+03  0.40866130166E+02  0.20484874270E+03  0.46999998093E+01 0. -1.
       -5    1    3    3    0  502  0.87055360302E+02 -0.18080995835E+03  0.22356744638E+04  0.22446677426E+04  0.46999998093E+01 0.  1.
</event>
<event>
 5   0  0.3663255E-03  0.9011440E+03  0.7818609E-02  0.9424153E-01
       -2   -1    0    0    0  501  0.00000000000E+00  0.00000000000E+00  0.15431716813E+03  0.15431716815E+03  0.25500000920E-02 0.  1.
        2   -1    0    0  501    0  0.00000000000E+00  0.00000000000E+00 -0.13155704900E+04  0.13155704900E+04  0.25500000920E-02 0. -1.
    10030    2    1    2    0    0  0.00000000000E+00  0.00000000000E+00 -0.11612533219E+04  0.14698876581E+04  0.90114396742E+03 0.  0.
        4    1    3    3  502    0  0.37302954416E+03 -0.23457690555E+03 -0.42729878677E+03  0.61381041985E+03  0.12699999809E+01 0.  1.
       -4    1    3    3    0  502 -0.37302954416E+03  0.23457690555E+03 -0.73395453509E+03  0.85607723829E+03  0.12699999809E+01 0. -1.
</event>
<event>
 5   0  0.2295158E-03  0.8639002E+03  0.7818609E-02  0.9471868E-01
       -1   -1    0    0    0  501  0.00000000000E+00  0.00000000000E+00  0.95333525642E+03  0.95333525643E+03  0.50400001928E-02 0. -1.
        1   -1    0    0  501    0  0.00000000000E+00  0.00000000000E+00 -0.19571381566E+03  0.19571381572E+03  0.50400001928E-02 0.  1.
    10030    2    1    2    0    0  0.00000000000E+00  0.00000000000E+00  0.75762144076E+03  0.11490490722E+04  0.86390018099E+03 0.  0.
        4    1    3    3  502    0  0.27603996337E+03 -0.30629026887E+03  0.55001050242E+03  0.68740450671E+03  0.12699999809E+01 0. -1.
       -4    1    3    3    0  502 -0.27603996337E+03  0.30629026887E+03  0.20761093834E+03  0.46164456544E+03  0.12699999809E+01 0.  1.
</event>
<event>
 5   0  0.3663255E-03  0.9057341E+03  0.7818609E-02  0.9418442E-01
       -2   -1    0    0    0  501  0.00000000000E+00  0.00000000000E+00  0.26687401814E+03  0.26687401815E+03  0.25500000920E-02 0. -1.
        2   -1    0    0  501    0  0.00000000000E+00  0.00000000000E+00 -0.76848456875E+03  0.76848456876E+03  0.25500000920E-02 0.  1.
    10030    2    1    2    0    0  0.00000000000E+00  0.00000000000E+00 -0.50161055062E+03  0.10353585869E+04  0.90573409950E+03 0.  0.
        4    1    3    3  502    0 -0.19061017065E+03  0.28013292329E+03  0.92662875337E+02  0.35127583639E+03  0.12699999809E+01 0. -1.
       -4    1    3    3    0  502  0.19061017065E+03 -0.28013292329E+03 -0.59427342595E+03  0.68408275052E+03  0.12699999809E+01 0.  1.
</event>
<event>
 5   0  0.2074970E-03  0.8971785E+03  0.7818609E-02  0.9429115E-01
        1   -1    0    0  501    0  0.00000000000E+00  0.00000000000E+00  0.11727440239E+04  0.11727440239E+04  0.50400001928E-02 0. -1.
       -1   -1    0    0    0  501  0.00000000000E+00  0.00000000000E+00 -0.17159100553E+03  0.17159100560E+03  0.50400001928E-02 0.  1.
    10030    2    1    2    0    0  0.00000000000E+00  0.00000000000E+00  0.10011530184E+04  0.13443350295E+04  0.89717852482E+03 0.  0.
        2    1    3    3  502    0 -0.36778851355E+03  0.14649684296E+03  0.81667424858E+03  0.90757178449E+03  0.25500000920E-02 0. -1.
       -2    1    3    3    0  502  0.36778851355E+03 -0.14649684296E+03  0.18447876980E+03  0.43676324504E+03  0.25500000920E-02 0.  1.
</event>
<event>
 5   0  0.3685879E-03  0.8916304E+03  0.7818609E-02  0.9436105E-01
        2   -1    0    0  501    0  0.00000000000E+00  0.00000000000E+00  0.14071406293E+04  0.14071406293E+04  0.25500000920E-02 0.  1.
       -2   -1    0    0    0  501  0.00000000000E+00  0.00000000000E+00 -0.14124473157E+03  0.14124473159E+03  0.25500000920E-02 0. -1.
    10030    2    1    2    0    0  0.00000000000E+00  0.00000000000E+00  0.12658958978E+04  0.15483853609E+04  0.89163041779E+03 0.  0.
        1    1    3    3  502    0 -0.33137828927E+02  0.38633965842E+03  0.10149742996E+04  0.10865216409E+04  0.50400001928E-02 0.  1.
       -1    1    3    3    0  502  0.33137828927E+02 -0.38633965842E+03  0.25092159816E+03  0.46186371997E+03  0.50400001928E-02 0. -1.
</event>
<event>
 5   0  0.2134145E-03  0.8885579E+03  0.7818609E-02  0.9439999E-01
        1   -1    0    0  501    0  0.00000000000E+00  0.00000000000E+00  0.79148732630E+03  0.79148732631E+03  0.50400001928E-02 0. -1.
       -1   -1    0    0    0  501  0.00000000000E+00  0.00000000000E+00 -0.24938338035E+03  0.24938338040E+03  0.50400001928E-02 0.  1.
    10030    2    1    2    0    0  0.00000000000E+00  0.00000000000E+00  0.54210394595E+03  0.10408707067E+04  0.88855789900E+03 0.  0.
        1    1    3    3  502    0 -0.31255908361E+03  0.30961417121E+03  0.19855970549E+03  0.48268009327E+03  0.50400001928E-02 0. -1.
       -1    1    3    3    0  502  0.31255908361E+03 -0.30961417121E+03  0.34354424046E+03  0.55819061345E+03  0.50400001928E-02 0.  1.
</event>
<event>
 5   0  0.2134145E-03  0.8994333E+03  0.7818609E-02  0.9426290E-01
       -1   -1    0    0    0  501  0.00000000000E+00  0.00000000000E+00  0.22975262974E+03  0.22975262980E+03  0.50400001928E-02 0. -1.
        1   -1    0    0  501    0  0.00000000000E+00  0.00000000000E+00 -0.88027317289E+03  0.88027317291E+03  0.50400001928E-02 0.  1.
    10030    2    1    2    0    0  0.00000000000E+00  0.00000000000E+00 -0.65052054315E+03  0.11100258027E+04  0.89943332472E+03 0.  0.
        1    1    3    3  502    0  0.50414507705E+02 -0.30354613505E+03 -0.73001874752E+03  0.79221793116E+03  0.50400001928E-02 0.  1.
       -1    1    3    3    0  502 -0.50414507705E+02  0.30354613505E+03  0.79498204371E+02  0.31780787154E+03  0.50400001928E-02 0. -1.
</event>
<event>
 5   0  0.2129280E-03  0.8956054E+03  0.7818609E-02  0.9431092E-01
        1   -1    0    0  501    0  0.00000000000E+00  0.00000000000E+00  0.64010052556E+03  0.64010052558E+03  0.50400001928E-02 0.  1.
       -1   -1    0    0    0  501  0.00000000000E+00  0.00000000000E+00 -0.31327465324E+03  0.31327465328E+03  0.50400001928E-02 0. -1.
    10030    2    1    2    0    0  0.00000000000E+00  0.00000000000E+00  0.32682587232E+03  0.95337517886E+03  0.89560542699E+03 0.  0.
        3    1    3    3  502    0  0.88405685358E+02 -0.48296813692E+02  0.62788197910E+03  0.63591189429E+03  0.10100000352E+00 0.  1.
       -3    1    3    3    0  502 -0.88405685358E+02  0.48296813692E+02 -0.30105610678E+03  0.31746328457E+03  0.10100000352E+00 0. -1.
</event>
<event>
 5   0  0.3626546E-03  0.8999482E+03  0.7818609E-02  0.9425646E-01
        2   -1    0    0  501    0  0.00000000000E+00  0.00000000000E+00  0.12263541530E+04  0.12263541530E+04  0.25500000920E-02 0. -1.
       -2   -1    0    0    0  501  0.00000000000E+00  0.00000000000E+00 -0.16510456541E+03  0.16510456543E+03  0.25500000920E-02 0.  1.
    10030    2    1    2    0    0  0.00000000000E+00  0.00000000000E+00  0.10612495876E+04  0.13914587184E+04  0.89994815291E+03 0.  0.
        3    1    3    3  502    0 -0.30840584475E+03 -0.18898160022E+03  0.94448744263E+03  0.10113776494E+04  0.10100000352E+00 0. -1.
       -3    1    3    3    0  502  0.30840584475E+03  0.18898160022E+03  0.11676214492E+03  0.38008106896E+03  0.10100000352E+00 0.  1.
</event>
<event>
 5   0  0.3806019E-03  0.8979434E+03  0.7818609E-02  0.9428156E-01
       -2   -1    0    0    0  501  0.00000000000E+00  0.00000000000E+00  0.54806097051E+03  0.54806097052E+03  0.25500000920E-02 0. -1.
        2   -1    0    0  501    0  0.00000000000E+00  0.00000000000E+00 -0.36779771440E+03  0.36779771441E+03  0.25500000920E-02 0.  1.
    10030    2    1    2    0    0  0.00000000000E+00  0.00000000000E+00  0.18026325611E+03  0.91585868493E+03  0.89794336640E+03 0.  0.
        2    1    3    3  502    0  0.43030624912E+03 -0.12461028168E+03  0.59799738709E+02  0.45195928919E+03  0.25500000920E-02 0. -1.
       -2    1    3    3    0  502 -0.43030624912E+03  0.12461028168E+03  0.12046351740E+03  0.46389939573E+03  0.25500000920E-02 0.  1.
</event>
<event>
 5   0  0.2074970E-03  0.9032630E+03  0.7818609E-02  0.9421512E-01
        1   -1    0    0  501    0  0.00000000000E+00  0.00000000000E+00  0.30149889491E+03  0.30149889495E+03  0.50400001928E-02 0. -1.
       -1   -1    0    0    0  501  0.00000000000E+00  0.00000000000E+00 -0.67652331681E+03  0.67652331683E+03  0.50400001928E-02 0.  1.
    10030    2    1    2    0    0  0.00000000000E+00  0.00000000000E+00 -0.37502442190E+03  0.97802221177E+03  0.90326304568E+03 0.  0.
        2    1    3    3  502    0 -0.90362265487E+02  0.35018704451E+03 -0.48040928387E+03  0.60132302900E+03  0.25500000920E-02 0.  1.
       -2    1    3    3    0  502  0.90362265487E+02 -0.35018704451E+03  0.10538486197E+03  0.37669918278E+03  0.25500000920E-02 0. -1.
</event>
<event>
 5   0  0.3685879E-03  0.9024430E+03  0.7818609E-02  0.9422533E-01
       -2   -1    0    0    0  501  0.00000000000E+00  0.00000000000E+00  0.15807386370E+03  0.15807386372E+03  0.25500000920E-02 0.  1.
        2   -1    0    0  501    0  0.00000000000E+00  0.00000000000E+00 -0.12880107162E+04  0.12880107162E+04  0.25500000920E-02 0. -1.
    10030    2    1    2    0    0  0.00000000000E+00  0.00000000000E+00 -0.11299368525E+04  0.14460845799E+04  0.90244297418E+03 0.  0.
        1    1    3    3  502    0  0.10973501226E+03  0.39478874372E+03 -0.26219793778E+03  0.48646447320E+03  0.50400001928E-02 0.  1.
       -1    1    3    3    0  502 -0.10973501226E+03 -0.39478874372E+03 -0.86773891469E+03  0.95962010670E+03  0.50400001928E-02 0. -1.
</event>
<event>
 5   0  0.1436000E-03  0.8998815E+03  0.7818609E-02  0.9425730E-01
        4   -1    0    0  501    0  0.00000000000E+00  0.00000000000E+00  0.27495661131E+03  0.27495954430E+03  0.12699999809E+01 0.  1.
       -4   -1    0    0    0  501  0.00000000000E+00  0.00000000000E+00 -0.73627855975E+03  0.73627965506E+03  0.12699999809E+01 0. -1.
    10030    2    1    2    0    0  0.00000000000E+00  0.00000000000E+00 -0.46132194844E+03  0.10112391994E+04  0.89988153566E+03 0.  0.
        2    1    3    3  502    0  0.12262296044E+02  0.41386606100E+03 -0.32769109575E+02  0.41534238274E+03  0.25500000920E-02 0.  1.
       -2    1    3    3    0  502 -0.12262296044E+02 -0.41386606100E+03 -0.42855283887E+03  0.59589681662E+03  0.25500000920E-02 0. -1.
</event>
<event>
 5   0  0.2295158E-03  0.9002133E+03  0.7818609E-02  0.9425315E-01
        1   -1    0    0  501    0  0.00000000000E+00  0.00000000000E+00  0.47755466706E+03  0.47755466709E+03  0.50400001928E-02 0. -1.
       -1   -1    0    0    0  501  0.00000000000E+00  0.00000000000E+00 -0.42423624847E+03  0.42423624850E+03  0.50400001928E-02 0.  1.
    10030    2    1    2    0    0  0.00000000000E+00  0.00000000000E+00  0.53318418592E+02  0.90179091559E+03  0.90021330899E+03 0.  0.
        4    1    3    3  502    0 -0.23365404747E+03 -0.36184643852E+03 -0.10421172444E+03  0.44315770938E+03  0.12699999809E+01 0.  1.
       -4    1    3    3    0  502  0.23365404747E+03  0.36184643852E+03  0.15753014303E+03  0.45863320621E+03  0.12699999809E+01 0. -1.
</event>
<event>
 5   0  0.3685879E-03  0.9381706E+03  0.7818609E-02  0.9379085E-01
       -2   -1    0    0    0  501  0.00000000000E+00  0.00000000000E+00  0.23453311260E+03  0.23453311262E+03  0.25500000920E-02 0. -1.
        2   -1    0    0  501    0  0.00000000000E+00  0.00000000000E+00 -0.93820871823E+03  0.93820871824E+03  0.25500000920E-02 0.  1.
    10030    2    1    2    0    0  0.00000000000E+00  0.00000000000E+00 -0.70367560563E+03  0.11727418309E+04  0.93817058356E+03 0.  0.
        1    1    3    3  502    0 -0.27978509482E+03  0.18581406116E+03  0.57505568289E+02  0.34075424431E+03  0.50400001928E-02 0. -1.
       -1    1    3    3    0  502  0.27978509482E+03 -0.18581406116E+03 -0.76118117392E+03  0.83198758654E+03  0.50400001928E-02 0.  1.
</event>
<event>
 5   0  0.2134145E-03  0.9017725E+03  0.7818609E-02  0.9423368E-01
       -1   -1    0    0    0  501  0.00000000000E+00  0.00000000000E+00  0.25726606432E+03  0.25726606437E+03  0.50400001928E-02 0.  1.
        1   -1    0    0  501    0  0.00000000000E+00  0.00000000000E+00 -0.79022631311E+03  0.79022631313E+03  0.50400001928E-02 0. -1.
    10030    2    1    2    0    0  0.00000000000E+00  0.00000000000E+00 -0.53296024880E+03  0.10474923775E+04  0.90177250685E+03 0.  0.
        1    1    3    3  502    0 -0.31654063039E+03 -0.20485374142E+03  0.20730310974E+02  0.37761458113E+03  0.50400001928E-02 0.  1.
       -1    1    3    3    0  502  0.31654063039E+03  0.20485374142E+03 -0.55369055977E+03  0.66987779637E+03  0.50400001928E-02 0. -1.
</event>
<event>
 5   0  0.3685879E-03  0.9063566E+03  0.7818609E-02  0.9417670E-01
       -2   -1    0    0    0  501  0.00000000000E+00  0.00000000000E+00  0.22079451205E+03  0.22079451206E+03  0.25500000920E-02 0. -1.
        2   -1    0    0  501    0  0.00000000000E+00  0.00000000000E+00 -0.93014338230E+03  0.93014338230E+03  0.25500000920E-02 0.  1.
    10030    2    1    2    0    0  0.00000000000E+00  0.00000000000E+00 -0.70934887025E+03  0.11509378944E+04  0.90635656171E+03 0.  0.
        1    1    3    3  502    0  0.41350778556E+03  0.10754524743E+02 -0.58973826882E+03  0.72034406658E+03  0.50400001928E-02 0.  1.
       -1    1    3    3    0  502 -0.41350778556E+03 -0.10754524743E+02 -0.11961060143E+03  0.43059382778E+03  0.50400001928E-02 0. -1.
</event>
<event>
 5   0  0.2295158E-03  0.9005812E+03  0.7818609E-02  0.9424855E-01
       -1   -1    0    0    0  501  0.00000000000E+00  0.00000000000E+00  0.15630352675E+03  0.15630352683E+03  0.50400001928E-02 0.  1.
        1   -1    0    0  501    0  0.00000000000E+00  0.00000000000E+00 -0.12972300665E+04  0.12972300665E+04  0.50400001928E-02 0. -1.
    10030    2    1    2    0    0  0.00000000000E+00  0.00000000000E+00 -0.11409265397E+04  0.14535335933E+04  0.90058122222E+03 0.  0.
        4    1    3    3  502    0  0.35276397973E+03  0.11526526245E+02 -0.11916551677E+03  0.37252828012E+03  0.12699999809E+01 0.  1.
       -4    1    3    3    0  502 -0.35276397973E+03 -0.11526526245E+02 -0.10217610229E+04  0.10810053132E+04  0.12699999809E+01 0. -1.
</event>
<event>
 5   0  0.3806019E-03  0.8997749E+03  0.7818609E-02  0.9425863E-01
       -2   -1    0    0    0  501  0.00000000000E+00  0.00000000000E+00  0.23257447354E+03  0.23257447356E+03  0.25500000920E-02 0.  1.
        2   -1    0    0  501    0  0.00000000000E+00  0.00000000000E+00 -0.87025330593E+03  0.87025330594E+03  0.25500000920E-02 0. -1.
    10030    2    1    2    0    0  0.00000000000E+00  0.00000000000E+00 -0.63767883239E+03  0.11028277795E+04  0.89977487070E+03 0.  0.
        2    1    3    3  502    0 -0.38393897793E+03 -0.23374883524E+03 -0.34180391245E+03  0.56469245729E+03  0.25500000920E-02 0. -1.
       -2    1    3    3    0  502  0.38393897793E+03  0.23374883524E+03 -0.29587491994E+03  0.53813532220E+03  0.25500000920E-02 0.  1.
</event>
<event>
 5   0  0.3806019E-03  0.8998374E+03  0.7818609E-02  0.9425785E-01
       -2   -1    0    0    0  501  0.00000000000E+00  0.00000000000E+00  0.25204760871E+03  0.25204760873E+03  0.25500000920E-02 0. -1.
        2   -1    0    0  501    0  0.00000000000E+00  0.00000000000E+00 -0.80312930213E+03  0.80312930213E+03  0.25500000920E-02 0.  1.
    10030    2    1    2    0    0  0.00000000000E+00  0.00000000000E+00 -0.55108169341E+03  0.10551769109E+04  0.89983736330E+03 0.  0.
        2    1    3    3  502    0 -0.23907136295E+03  0.24813926199E+03  0.63709562875E+02  0.35040992899E+03  0.25500000920E-02 0. -1.
       -2    1    3    3    0  502  0.23907136295E+03 -0.24813926199E+03 -0.61479125629E+03  0.70476698187E+03  0.25500000920E-02 0.  1.
</event>
<event>
 5   0  0.2295158E-03  0.9000635E+03  0.7818609E-02  0.9425502E-01
       -1   -1    0    0    0  501  0.00000000000E+00  0.00000000000E+00  0.32050951462E+03  0.32050951466E+03  0.50400001928E-02 0.  1.
        1   -1    0    0  501    0  0.00000000000E+00  0.00000000000E+00 -0.63189568111E+03  0.63189568113E+03  0.50400001928E-02 0. -1.
    10030    2    1    2    0    0  0.00000000000E+00  0.00000000000E+00 -0.31138616649E+03  0.95240519579E+03  0.90006350458E+03 0.  0.
        4    1    3    3  502    0 -0.35848907608E+03 -0.11320869001E+03 -0.41745793281E+03  0.56178587000E+03  0.12699999809E+01 0. -1.
       -4    1    3    3    0  502  0.35848907608E+03  0.11320869001E+03  0.10607176633E+03  0.39061932578E+03  0.12699999809E+01 0.  1.
</event>
<event>
 5   0  0.2130975E-03  0.8656544E+03  0.7818609E-02  0.9469564E-01
        1   -1    0    0  501    0  0.00000000000E+00  0.00000000000E+00  0.10459154780E+04  0.10459154780E+04  0.50400001928E-02 0. -1.
       -1   -1    0    0    0  501  0.00000000000E+00  0.00000000000E+00 -0.17911522573E+03  0.17911522580E+03  0.50400001928E-02 0.  1.
    10030    2    1    2    0    0  0.00000000000E+00  0.00000000000E+00  0.86680025223E+03  0.12250307038E+04  0.86565440445E+03 0.  0.
        5    1    3    3  502    0  0.24619033969E+03 -0.34477639148E+03  0.30812256354E+03  0.52387216727E+03  0.46999998093E+01 0. -1.
       -5    1    3    3    0  502 -0.24619033969E+03  0.34477639148E+03  0.55867768870E+03  0.70115853652E+03  0.46999998093E+01 0.  1.
</event>
<event>
 5   0  0.2074970E-03  0.8999086E+03  0.7818609E-02  0.9425696E-01
        1   -1    0    0  501    0  0.00000000000E+00  0.00000000000E+00  0.38094428421E+03  0.38094428424E+03  0.50400001928E-02 0.  1.
       -1   -1    0    0    0  501  0.00000000000E+00  0.00000000000E+00 -0.53146582927E+03  0.53146582930E+03  0.50400001928E-02 0. -1.
    10030    2    1    2    0    0  0.00000000000E+00  0.00000000000E+00 -0.15052154506E+03  0.91241011354E+03  0.89990859522E+03 0.  0.
        2    1    3    3  502    0 -0.19117672429E+03  0.39686188383E+03 -0.16824619454E+03  0.47154498909E+03  0.25500000920E-02 0. -1.
       -2    1    3    3    0  502  0.19117672429E+03 -0.39686188383E+03  0.17724649478E+02  0.44086512445E+03  0.25500000920E-02 0.  1.
</event>
<event>
 5   0  0.3626546E-03  0.9064130E+03  0.7818609E-02  0.9417600E-01
        2   -1    0    0  501    0  0.00000000000E+00  0.00000000000E+00  0.13090275143E+04  0.13090275143E+04  0.25500000920E-02 0.  1.
       -2   -1    0    0    0  501  0.00000000000E+00  0.00000000000E+00 -0.15690742803E+03  0.15690742805E+03  0.25500000920E-02 0. -1.
    10030    2    1    2    0    0  0.00000000000E+00  0.00000000000E+00  0.11521200863E+04  0.14659349424E+04  0.90641301955E+03 0.  0.
        3    1    3    3  502    0 -0.30796212009E+03  0.31530230727E+03  0.74675848519E+03  0.86712424587E+03  0.10100000352E+00 0. -1.
       -3    1    3    3    0  502  0.30796212009E+03 -0.31530230727E+03  0.40536160110E+03  0.59881069649E+03  0.10100000352E+00 0.  1.
</event>
<event>
 5   0  0.2074970E-03  0.9053530E+03  0.7818609E-02  0.9418915E-01
        1   -1    0    0  501    0  0.00000000000E+00  0.00000000000E+00  0.57273751573E+03  0.57273751575E+03  0.50400001928E-02 0. -1.
       -1   -1    0    0    0  501  0.00000000000E+00  0.00000000000E+00 -0.35778343953E+03  0.35778343957E+03  0.50400001928E-02 0.  1.
    10030    2    1    2    0    0  0.00000000000E+00  0.00000000000E+00  0.21495407619E+03  0.93052095532E+03  0.90535296620E+03 0.  0.
        2    1    3    3  502    0  0.16573664236E+02 -0.40300924203E+03 -0.10372220277E+03  0.41647260517E+03  0.25500000920E-02 0. -1.
       -2    1    3    3    0  502 -0.16573664236E+02  0.40300924203E+03  0.31867627896E+03  0.51404835014E+03  0.25500000920E-02 0.  1.
</event>
<event>
 5   0  0.2134145E-03  0.9085973E+03  0.7818609E-02  0.9414898E-01
        1   -1    0    0  501    0  0.00000000000E+00  0.00000000000E+00  0.92879899040E+03  0.92879899041E+03  0.50400001928E-02 0.  1.
       -1   -1    0    0    0  501  0.00000000000E+00  0.00000000000E+00 -0.22220874396E+03  0.22220874402E+03  0.50400001928E-02 0. -1.
    10030    2    1    2    0    0  0.00000000000E+00  0.00000000000E+00  0.70659024644E+03  0.11510077344E+04  0.90859728613E+03 0.  0.
        1    1    3    3  502    0  0.15055726975E+03  0.67128401667E+02  0.88957588783E+03  0.90472038444E+03  0.50400001928E-02 0.  1.
       -1    1    3    3    0  502 -0.15055726975E+03 -0.67128401667E+02 -0.18298564140E+03  0.24628734999E+03  0.50400001928E-02 0. -1.
</event>
<event>
 5   0  0.3685879E-03  0.9047392E+03  0.7818609E-02  0.9419676E-01
       -2   -1    0    0    0  501  0.00000000000E+00  0.00000000000E+00  0.26652440210E+03  0.26652440212E+03  0.25500000920E-02 0.  1.
        2   -1    0    0  501    0  0.00000000000E+00  0.00000000000E+00 -0.76780309494E+03  0.76780309495E+03  0.25500000920E-02 0. -1.
    10030    2    1    2    0    0  0.00000000000E+00  0.00000000000E+00 -0.50127869284E+03  0.10343274971E+04  0.90473921286E+03 0.  0.
        1    1    3    3  502    0 -0.33213502816E+03  0.29792730418E+03 -0.16536379801E+03  0.47583562416E+03  0.50400001928E-02 0. -1.
       -1    1    3    3    0  502  0.33213502816E+03 -0.29792730418E+03 -0.33591489483E+03  0.55849187290E+03  0.50400001928E-02 0.  1.
</event>
<event>
 5   0  0.2130975E-03  0.8925703E+03  0.7818609E-02  0.9434917E-01
        1   -1    0    0  501    0  0.00000000000E+00  0.00000000000E+00  0.48562144314E+03  0.48562144317E+03  0.50400001928E-02 0.  1.
       -1   -1    0    0    0  501  0.00000000000E+00  0.00000000000E+00 -0.41013520633E+03  0.41013520636E+03  0.50400001928E-02 0. -1.
    10030    2    1    2    0    0  0.00000000000E+00  0.00000000000E+00  0.75486236810E+02  0.89575664953E+03  0.89257033517E+03 0.  0.
        5    1    3    3  502    0 -0.38868829300E+03 -0.17041293650E+03 -0.10069570159E+03  0.43621195806E+03  0.46999998093E+01 0. -1.
       -5    1    3    3    0  502  0.38868829300E+03  0.17041293650E+03  0.17618193840E+03  0.45954469147E+03  0.46999998093E+01 0.  1.
</event>
<event>
 5   0  0.2130975E-03  0.9432202E+03  0.7818609E-02  0.9373110E-01
       -1   -1    0    0    0  501  0.00000000000E+00  0.00000000000E+00  0.54616345479E+03  0.54616345481E+03  0.50400001928E-02 0. -1.
        1   -1    0    0  501    0  0.00000000000E+00  0.00000000000E+00 -0.40723353932E+03  0.40723353935E+03  0.50400001928E-02 0.  1.
    10030    2    1    2    0    0  0.00000000000E+00  0.00000000000E+00  0.13892991547E+03  0.95339699417E+03  0.94322017953E+03 0.  0.
        5    1    3    3  502    0  0.35181238964E+03 -0.10264213616E+03 -0.23053118486E+03  0.43298277426E+03  0.46999998093E+01 0.  1.
       -5    1    3    3    0  502 -0.35181238964E+03  0.10264213616E+03  0.36946110033E+03  0.52041421990E+03  0.46999998093E+01 0. -1.
</event>
<event>
 5   0  0.3806019E-03  0.9019372E+03  0.7818609E-02  0.9423163E-01
       -2   -1    0    0    0  501  0.00000000000E+00  0.00000000000E+00  0.36274813579E+03  0.36274813580E+03  0.25500000920E-02 0. -1.
        2   -1    0    0  501    0  0.00000000000E+00  0.00000000000E+00 -0.56064433108E+03  0.56064433108E+03  0.25500000920E-02 0.  1.
    10030    2    1    2    0    0  0.00000000000E+00  0.00000000000E+00 -0.19789619529E+03  0.92339246688E+03  0.90193721721E+03 0.  0.
        2    1    3    3  502    0 -0.37694989156E+03  0.17850268195E+03  0.76649469093E+02  0.42406316667E+03  0.25500000920E-02 0. -1.
       -2    1    3    3    0  502  0.37694989156E+03 -0.17850268195E+03 -0.27454566438E+03  0.49932930021E+03  0.25500000920E-02 0.  1.
</event>
<event>
 5   0  0.3806019E-03  0.9024218E+03  0.7818609E-02  0.9422559E-01
       -2   -1    0    0    0  501  0.00000000000E+00  0.00000000000E+00  0.18015161432E+03  0.18015161434E+03  0.25500000920E-02 0. -1.
        2   -1    0    0  501    0  0.00000000000E+00  0.00000000000E+00 -0.11301108128E+04  0.11301108128E+04  0.25500000920E-02 0.  1.
    10030    2    1    2    0    0  0.00000000000E+00  0.00000000000E+00 -0.94995919846E+03  0.13102624271E+04  0.90242182442E+03 0.  0.
        2    1    3    3  502    0 -0.21386203678E+03 -0.25711922893E+03 -0.35197470312E+02  0.33628281340E+03  0.25500000920E-02 0. -1.
       -2    1    3    3    0  502  0.21386203678E+03  0.25711922893E+03 -0.91476172815E+03  0.97397961372E+03  0.25500000920E-02 0.  1.
</event>
<event>
 5   0  0.2129280E-03  0.9045894E+03  0.7818609E-02  0.9419863E-01
       -1   -1    0    0    0  501  0.00000000000E+00  0.00000000000E+00  0.18767915142E+03  0.18767915148E+03  0.50400001928E-02 0. -1.
        1   -1    0    0  501    0  0.00000000000E+00  0.00000000000E+00 -0.10900012360E+04  0.10900012360E+04  0.50400001928E-02 0.  1.
    10030    2    1    2    0    0  0.00000000000E+00  0.00000000000E+00 -0.90232208460E+03  0.12776803875E+04  0.90458942525E+03 0.  0.
        3    1    3    3  502    0 -0.17566644895E+03 -0.26458822703E+03  0.36911461592E+01  0.31761496491E+03  0.10100000352E+00 0. -1.
       -3    1    3    3    0  502  0.17566644895E+03  0.26458822703E+03 -0.90601323076E+03  0.96006542260E+03  0.10100000352E+00 0.  1.
</event>
<event>
 5   0  0.3815269E-03  0.9038265E+03  0.7818609E-02  0.9420811E-01
       -2   -1    0    0    0  501  0.00000000000E+00  0.00000000000E+00  0.30041167459E+03  0.30041167460E+03  0.25500000920E-02 0.  1.
        2   -1    0    0  501    0  0.00000000000E+00  0.00000000000E+00 -0.67981906567E+03  0.67981906568E+03  0.25500000920E-02 0. -1.
    10030    2    1    2    0    0  0.00000000000E+00  0.00000000000E+00 -0.37940739108E+03  0.98023074028E+03  0.90382649650E+03 0.  0.
        5    1    3    3  502    0 -0.51201029839E+02  0.22046181951E+03  0.23448442056E+03  0.32592942917E+03  0.46999998093E+01 0.  1.
       -5    1    3    3    0  502  0.51201029839E+02 -0.22046181951E+03 -0.61389181164E+03  0.65430131111E+03  0.46999998093E+01 0. -1.
</event>
<event>
 5   0  0.2295158E-03  0.9029882E+03  0.7818609E-02  0.9421854E-01
        1   -1    0    0  501    0  0.00000000000E+00  0.00000000000E+00  0.35713473822E+03  0.35713473825E+03  0.50400001928E-02 0. -1.
       -1   -1    0    0    0  501  0.00000000000E+00  0.00000000000E+00 -0.57078434539E+03  0.57078434541E+03  0.50400001928E-02 0.  1.
    10030    2    1    2    0    0  0.00000000000E+00  0.00000000000E+00 -0.21364960718E+03  0.92791908366E+03  0.90298818995E+03 0.  0.
        4    1    3    3  502    0 -0.13963846433E+03  0.21906434402E+03 -0.48628576373E+03  0.55132888955E+03  0.12699999809E+01 0.  1.
       -4    1    3    3    0  502  0.13963846433E+03 -0.21906434402E+03  0.27263615656E+03  0.37659019412E+03  0.12699999809E+01 0. -1.
</event>
<event>
 5   0  0.3806019E-03  0.9006196E+03  0.7818609E-02  0.9424807E-01
       -2   -1    0    0    0  501  0.00000000000E+00  0.00000000000E+00  0.23361536962E+03  0.23361536963E+03  0.25500000920E-02 0. -1.
        2   -1    0    0  501    0  0.00000000000E+00  0.00000000000E+00 -0.86800330043E+03  0.86800330043E+03  0.25500000920E-02 0.  1.
    10030    2    1    2    0    0  0.00000000000E+00  0.00000000000E+00 -0.63438793081E+03  0.11016186701E+04  0.90061959089E+03 0.  0.
        2    1    3    3  502    0 -0.11419557513E+03  0.35011201957E+03 -0.20453843178E+00  0.36826498268E+03  0.25500000920E-02 0. -1.
       -2    1    3    3    0  502  0.11419557513E+03 -0.35011201957E+03 -0.63418339238E+03  0.73335368739E+03  0.25500000920E-02 0.  1.
</event>
<event>
 5   0  0.2129280E-03  0.9003625E+03  0.7818609E-02  0.9425128E-01
        1   -1    0    0  501    0  0.00000000000E+00  0.00000000000E+00  0.37895949466E+03  0.37895949470E+03  0.50400001928E-02 0. -1.
       -1   -1    0    0    0  501  0.00000000000E+00  0.00000000000E+00 -0.53478840223E+03  0.53478840225E+03  0.50400001928E-02 0.  1.
    10030    2    1    2    0    0  0.00000000000E+00  0.00000000000E+00 -0.15582890756E+03  0.91374789695E+03  0.90036246631E+03 0.  0.
        3    1    3    3  502    0  0.15503309884E+03 -0.69393890506E+02  0.34519169316E+03  0.38471819427E+03  0.10100000352E+00 0. -1.
       -3    1    3    3    0  502 -0.15503309884E+03  0.69393890506E+02 -0.50102060072E+03  0.52902970268E+03  0.10100000352E+00 0.  1.
</event>
<event>
 5   0  0.2130975E-03  0.9017392E+03  0.7818609E-02  0.9423410E-01
        1   -1    0    0  501    0  0.00000000000E+00  0.00000000000E+00  0.11127785775E+04  0.11127785775E+04  0.50400001928E-02 0. -1.
       -1   -1    0    0    0  501  0.00000000000E+00  0.00000000000E+00 -0.18268089878E+03  0.18268089885E+03  0.50400001928E-02 0.  1.
    10030    2    1    2    0    0  0.00000000000E+00  0.00000000000E+00  0.93009767875E+03  0.12954594764E+04  0.90173918788E+03 0.  0.
        5    1    3    3  502    0 -0.27550699696E+03  0.22224580886E+03  0.63914415361E+02  0.35972829667E+03  0.46999998093E+01 0.  1.
       -5    1    3    3    0  502  0.27550699696E+03 -0.22224580886E+03  0.86618326339E+03  0.93573117973E+03  0.46999998093E+01 0. -1.
</event>
<event>
 5   0  0.2074970E-03  0.8981112E+03  0.7818609E-02  0.9427946E-01
       -1   -1    0    0    0  501  0.00000000000E+00  0.00000000000E+00  0.53853401327E+03  0.53853401330E+03  0.50400001928E-02 0. -1.
        1   -1    0    0  501    0  0.00000000000E+00  0.00000000000E+00 -0.37444418033E+03  0.37444418037E+03  0.50400001928E-02 0.  1.
    10030    2    1    2    0    0  0.00000000000E+00  0.00000000000E+00  0.16408983294E+03  0.91297819366E+03  0.89811118957E+03 0.  0.
        2    1    3    3  502    0  0.95409194017E+02  0.14984763484E+03  0.50129620929E+03  0.53184125209E+03  0.25500000920E-02 0. -1.
       -2    1    3    3    0  502 -0.95409194017E+02 -0.14984763484E+03 -0.33720637635E+03  0.38113694157E+03  0.25500000920E-02 0.  1.
</event>
<event>
 5   0  0.2130975E-03  0.9018094E+03  0.7818609E-02  0.9423322E-01
        1   -1    0    0  501    0  0.00000000000E+00  0.00000000000E+00  0.14382922399E+04  0.14382922400E+04  0.50400001928E-02 0.  1.
       -1   -1    0    0    0  501  0.00000000000E+00  0.00000000000E+00 -0.14135865225E+03  0.14135865234E+03  0.50400001928E-02 0. -1.
    10030    2    1    2    0    0  0.00000000000E+00  0.00000000000E+00  0.12969335877E+04  0.15796508923E+04  0.90180940926E+03 0.  0.
        5    1    3    3  502    0 -0.15847742934E+03  0.14039664681E+03  0.13457597714E+04  0.13623207281E+04  0.46999998093E+01 0.  1.
       -5    1    3    3    0  502  0.15847742934E+03 -0.14039664681E+03 -0.48826183674E+02  0.21733016417E+03  0.46999998093E+01 0. -1.
</event>
<event>
 5   0  0.3806019E-03  0.8987699E+03  0.7818609E-02  0.9427120E-01
        2   -1    0    0  501    0  0.00000000000E+00  0.00000000000E+00  0.69686273818E+03  0.69686273818E+03  0.25500000920E-02 0. -1.
       -2   -1    0    0    0  501  0.00000000000E+00  0.00000000000E+00 -0.28979425185E+03  0.28979425186E+03  0.25500000920E-02 0.  1.
    10030    2    1    2    0    0  0.00000000000E+00  0.00000000000E+00  0.40706848633E+03  0.98665699004E+03  0.89876986122E+03 0.  0.
        2    1    3    3  502    0  0.35032020766E+02  0.44786636401E+03  0.19076527093E+03  0.48806035599E+03  0.25500000920E-02 0.  1.
       -2    1    3    3    0  502 -0.35032020766E+02 -0.44786636401E+03  0.21630321541E+03  0.49859663405E+03  0.25500000920E-02 0. -1.
</event>
<event>
 5   0  0.3806019E-03  0.8984197E+03  0.7818609E-02  0.9427559E-01
        2   -1    0    0  501    0  0.00000000000E+00  0.00000000000E+00  0.95354213802E+03  0.95354213802E+03  0.25500000920E-02 0. -1.
       -2   -1    0    0    0  501  0.00000000000E+00  0.00000000000E+00 -0.21162094530E+03  0.21162094531E+03  0.25500000920E-02 0.  1.
    10030    2    1    2    0    0  0.00000000000E+00  0.00000000000E+00  0.74192119273E+03  0.11651630833E+04  0.89841969844E+03 0.  0.
        2    1    3    3  502    0 -0.22949797265E+03 -0.19097582769E+03  0.80624185536E+03  0.85974822800E+03  0.25500000920E-02 0. -1.
       -2    1    3    3    0  502  0.22949797265E+03  0.19097582769E+03 -0.64320662636E+02  0.30541485533E+03  0.25500000920E-02 0.  1.
</event>
<event>
 5   0  0.2074970E-03  0.8992589E+03  0.7818609E-02  0.9426508E-01
       -1   -1    0    0    0  501  0.00000000000E+00  0.00000000000E+00  0.13459952475E+04  0.13459952475E+04  0.50400001928E-02 0.  1.
        1   -1    0    0  501    0  0.00000000000E+00  0.00000000000E+00 -0.15019864049E+03  0.15019864057E+03  0.50400001928E-02 0. -1.
    10030    2    1    2    0    0  0.00000000000E+00  0.00000000000E+00  0.11957966070E+04  0.14961938881E+04  0.89925893122E+03 0.  0.
        2    1    3    3  502    0  0.13641740312E+03  0.24703923379E+03  0.11802988729E+04  0.12135664466E+04  0.25500000920E-02 0.  1.
       -2    1    3    3    0  502 -0.13641740312E+03 -0.24703923379E+03  0.15497734090E+02  0.28262744147E+03  0.25500000920E-02 0. -1.
</event>
<event>
 5   0  0.3663255E-03  0.8962097E+03  0.7818609E-02  0.9430332E-01
        2   -1    0    0  501    0  0.00000000000E+00  0.00000000000E+00  0.17702696584E+03  0.17702696585E+03  0.25500000920E-02 0. -1.
       -2   -1    0    0    0  501  0.00000000000E+00  0.00000000000E+00 -0.11342789279E+04  0.11342789279E+04  0.25500000920E-02 0.  1.
    10030    2    1    2    0    0  0.00000000000E+00  0.00000000000E+00 -0.95725196209E+03  0.13113058938E+04  0.89620970099E+03 0.  0.
        4    1    3    3  502    0 -0.50914979456E+01  0.22392918972E+03 -0.10464902517E+04  0.10701932840E+04  0.12699999809E+01 0.  1.
       -4    1    3    3    0  502  0.50914979456E+01 -0.22392918972E+03  0.89238289603E+02  0.24111260977E+03  0.12699999809E+01 0. -1.
</event>
<event>
 5   0  0.2130975E-03  0.8986542E+03  0.7818609E-02  0.9427265E-01
        1   -1    0    0  501    0  0.00000000000E+00  0.00000000000E+00  0.30053859275E+03  0.30053859280E+03  0.50400001928E-02 0. -1.
       -1   -1    0    0    0  501  0.00000000000E+00  0.00000000000E+00 -0.67177681112E+03  0.67177681114E+03  0.50400001928E-02 0.  1.
    10030    2    1    2    0    0  0.00000000000E+00  0.00000000000E+00 -0.37123821837E+03  0.97231540394E+03  0.89865423271E+03 0.  0.
        5    1    3    3  502    0 -0.65596041480E+02 -0.16382408031E+03  0.26144673800E+03  0.31546419251E+03  0.46999998093E+01 0. -1.
       -5    1    3    3    0  502  0.65596041480E+02  0.16382408031E+03 -0.63268495637E+03  0.65685121143E+03  0.46999998093E+01 0.  1.
</event>
<event>
 5   0  0.2130975E-03  0.8997591E+03  0.7818609E-02  0.9425883E-01
       -1   -1    0    0    0  501  0.00000000000E+00  0.00000000000E+00  0.19082837945E+03  0.19082837952E+03  0.50400001928E-02 0. -1.
        1   -1    0    0  501    0  0.00000000000E+00  0.00000000000E+00 -0.10605948946E+04  0.10605948946E+04  0.50400001928E-02 0.  1.
    10030    2    1    2    0    0  0.00000000000E+00  0.00000000000E+00 -0.86976651511E+03  0.12514232741E+04  0.89975909004E+03 0.  0.
        5    1    3    3  502    0 -0.18231125089E+03  0.16498596578E+03  0.89063513998E+02  0.26155718424E+03  0.46999998093E+01 0. -1.
       -5    1    3    3    0  502  0.18231125089E+03 -0.16498596578E+03 -0.95883002911E+03  0.98986608984E+03  0.46999998093E+01 0.  1.
</event>
<event>
 5   0  0.2129280E-03  0.8967503E+03  0.7818609E-02  0.9429653E-01
       -1   -1    0    0    0  501  0.00000000000E+00  0.00000000000E+00  0.18730599845E+03  0.18730599852E+03  0.50400001928E-02 0. -1.
        1   -1    0    0  501    0  0.00000000000E+00  0.00000000000E+00 -0.10733253127E+04  0.10733253128E+04  0.50400001928E-02 0.  1.
    10030    2    1    2    0    0  0.00000000000E+00  0.00000000000E+00 -0.88601931429E+03  0.12606313113E+04  0.89675028724E+03 0.  0.
        3    1    3    3  502    0 -0.20256438534E+03  0.23048251735E+03 -0.90260587477E+03  0.95333724168E+03  0.10100000352E+00 0.  1.
       -3    1    3    3    0  502  0.20256438534E+03 -0.23048251735E+03  0.16586560480E+02  0.30729406959E+03  0.10100000352E+00 0. -1.
</event>
<event>
 5   0  0.3806019E-03  0.9011635E+03  0.7818609E-02  0.9424128E-01
       -2   -1    0    0    0  501  0.00000000000E+00  0.00000000000E+00  0.20166593642E+03  0.20166593644E+03  0.25500000920E-02 0.  1.
        2   -1    0    0  501    0  0.00000000000E+00  0.00000000000E+00 -0.10067338456E+04  0.10067338456E+04  0.25500000920E-02 0. -1.
    10030    2    1    2    0    0  0.00000000000E+00  0.00000000000E+00 -0.80506790916E+03  0.12083997820E+04  0.90116352281E+03 0.  0.
        2    1    3    3  502    0 -0.15633221421E+03  0.18931286772E+03  0.10409170638E+03  0.26667247032E+03  0.25500000920E-02 0.  1.
       -2    1    3    3    0  502  0.15633221421E+03 -0.18931286772E+03 -0.90915961554E+03  0.94172731171E+03  0.25500000920E-02 0. -1.
</event>
<event>
 5   0  0.2134145E-03  0.9060373E+03  0.7818609E-02  0.9418066E-01
       -1   -1    0    0    0  501  0.00000000000E+00  0.00000000000E+00  0.76837560739E+03  0.76837560740E+03  0.50400001928E-02 0. -1.
        1   -1    0    0  501    0  0.00000000000E+00  0.00000000000E+00 -0.26709058986E+03  0.26709058990E+03  0.50400001928E-02 0.  1.
    10030    2    1    2    0    0  0.00000000000E+00  0.00000000000E+00  0.50128501753E+03  0.10354661973E+04  0.90603729336E+03 0.  0.
        1    1    3    3  502    0 -0.42797406694E+03 -0.13267883269E+03  0.32696942379E+03  0.55468412519E+03  0.50400001928E-02 0. -1.
       -1    1    3    3    0  502  0.42797406694E+03  0.13267883269E+03  0.17431559374E+03  0.48078207211E+03  0.50400001928E-02 0.  1.
</event>
<event>
 5   0  0.3806019E-03  0.8991902E+03  0.7818609E-02  0.9426594E-01
       -2   -1    0    0    0  501  0.00000000000E+00  0.00000000000E+00  0.13829480609E+03  0.13829480611E+03  0.25500000920E-02 0. -1.
        2   -1    0    0  501    0  0.00000000000E+00  0.00000000000E+00 -0.14616294061E+04  0.14616294061E+04  0.25500000920E-02 0.  1.
    10030    2    1    2    0    0  0.00000000000E+00  0.00000000000E+00 -0.13233346000E+04  0.15999242122E+04  0.89919020304E+03 0.  0.
        2    1    3    3  502    0  0.80118712115E+02  0.87508250968E+02 -0.14332721824E+04  0.14381744856E+04  0.25500000920E-02 0.  1.
       -2    1    3    3    0  502 -0.80118712115E+02 -0.87508250968E+02  0.10993758245E+03  0.16174972661E+03  0.25500000920E-02 0. -1.
</event>
<event>
 5   0  0.3806019E-03  0.9015782E+03  0.7818609E-02  0.9423611E-01
       -2   -1    0    0    0  501  0.00000000000E+00  0.00000000000E+00  0.91487317263E+02  0.91487317298E+02  0.25500000920E-02 0. -1.
        2   -1    0    0  501    0  0.00000000000E+00  0.00000000000E+00 -0.22211909525E+04  0.22211909525E+04  0.25500000920E-02 0.  1.
    10030    2    1    2    0    0  0.00000000000E+00  0.00000000000E+00 -0.21297036353E+04  0.23126782698E+04  0.90157817502E+03 0.  0.
        2    1    3    3  502    0 -0.22757447765E+03  0.82638637320E+02 -0.89450736582E+02  0.25810990206E+03  0.25500000920E-02 0. -1.
       -2    1    3    3    0  502  0.22757447765E+03 -0.82638637320E+02 -0.20402528987E+04  0.20545683678E+04  0.25500000920E-02 0.  1.
</event>
<event>
 5   0  0.2129280E-03  0.8781698E+03  0.7818609E-02  0.9453289E-01
       -1   -1    0    0    0  501  0.00000000000E+00  0.00000000000E+00  0.48178795696E+03  0.48178795699E+03  0.50400001928E-02 0. -1.
        1   -1    0    0  501    0  0.00000000000E+00  0.00000000000E+00 -0.40016683714E+03  0.40016683717E+03  0.50400001928E-02 0.  1.
    10030    2    1    2    0    0  0.00000000000E+00  0.00000000000E+00  0.81621119826E+02  0.88195479416E+03  0.87816983081E+03 0.  0.
        3    1    3    3  502    0 -0.34378736547E+03 -0.23310195968E+03 -0.10217327322E+03  0.42774485880E+03  0.10100000352E+00 0.  1.
       -3    1    3    3    0  502  0.34378736547E+03  0.23310195968E+03  0.18379439304E+03  0.45420993536E+03  0.10100000352E+00 0. -1.
</event>
<event>
 5   0  0.2134145E-03  0.9161879E+03  0.7818609E-02  0.9405569E-01
        1   -1    0    0  501    0  0.00000000000E+00  0.00000000000E+00  0.77217795454E+03  0.77217795456E+03  0.50400001928E-02 0.  1.
       -1   -1    0    0    0  501  0.00000000000E+00  0.00000000000E+00 -0.27176387421E+03  0.27176387426E+03  0.50400001928E-02 0. -1.
    10030    2    1    2    0    0  0.00000000000E+00  0.00000000000E+00  0.50041408033E+03  0.10439418288E+04  0.91618791203E+03 0.  0.
        1    1    3    3  502    0 -0.33581685474E+03 -0.29627661658E+03  0.14033943072E+03  0.46930581639E+03  0.50400001928E-02 0. -1.
       -1    1    3    3    0  502  0.33581685474E+03  0.29627661658E+03  0.36007464962E+03  0.57463601243E+03  0.50400001928E-02 0.  1.
</event>
<event>
 5   0  0.2129280E-03  0.9006747E+03  0.7818609E-02  0.9424738E-01
       -1   -1    0    0    0  501  0.00000000000E+00  0.00000000000E+00  0.38978576656E+03  0.38978576660E+03  0.50400001928E-02 0.  1.
        1   -1    0    0  501    0  0.00000000000E+00  0.00000000000E+00 -0.52029537174E+03  0.52029537176E+03  0.50400001928E-02 0. -1.
    10030    2    1    2    0    0  0.00000000000E+00  0.00000000000E+00 -0.13050960518E+03  0.91008113836E+03  0.90067470340E+03 0.  0.
        3    1    3    3  502    0  0.79152606669E+02  0.29608461345E+03  0.26814951498E+03  0.40722893567E+03  0.10100000352E+00 0.  1.
       -3    1    3    3    0  502 -0.79152606669E+02 -0.29608461345E+03 -0.39865912015E+03  0.50285220269E+03  0.10100000352E+00 0. -1.
</event>
<event>
 5   0  0.2130975E-03  0.8826134E+03  0.7818609E-02  0.9447580E-01
        1   -1    0    0  501    0  0.00000000000E+00  0.00000000000E+00  0.15321287570E+04  0.15321287570E+04  0.50400001928E-02 0. -1.
       -1   -1    0    0    0  501  0.00000000000E+00  0.00000000000E+00 -0.12711178534E+03  0.12711178544E+03  0.50400001928E-02 0.  1.
    10030    2    1    2    0    0  0.00000000000E+00  0.00000000000E+00  0.14050169716E+04  0.16592405424E+04  0.88261344145E+03 0.  0.
        5    1    3    3  502    0  0.48466039020E+02  0.43119128069E+03  0.85354268827E+03  0.95751349242E+03  0.46999998093E+01 0. -1.
       -5    1    3    3    0  502 -0.48466039020E+02 -0.43119128069E+03  0.55147428338E+03  0.70172705001E+03  0.46999998093E+01 0.  1.
</event>
<event>
 5   0  0.2295158E-03  0.8986565E+03  0.7818609E-02  0.9427262E-01
       -1   -1    0    0    0  501  0.00000000000E+00  0.00000000000E+00  0.15883372728E+03  0.15883372736E+03  0.50400001928E-02 0.  1.
        1   -1    0    0  501    0  0.00000000000E+00  0.00000000000E+00 -0.12711145264E+04  0.12711145264E+04  0.50400001928E-02 0. -1.
    10030    2    1    2    0    0  0.00000000000E+00  0.00000000000E+00 -0.11122807991E+04  0.14299482537E+04  0.89865645958E+03 0.  0.
        4    1    3    3  502    0  0.30042714596E+03 -0.44436518008E+02 -0.29205429804E+02  0.30509940051E+03  0.12699999809E+01 0.  1.
       -4    1    3    3    0  502 -0.30042714596E+03  0.44436518008E+02 -0.10830753693E+04  0.11248488532E+04  0.12699999809E+01 0. -1.
</event>
<event>
 5   0  0.2295158E-03  0.9007083E+03  0.7818609E-02  0.9424696E-01
        1   -1    0    0  501    0  0.00000000000E+00  0.00000000000E+00  0.71276582440E+03  0.71276582442E+03  0.50400001928E-02 0. -1.
       -1   -1    0    0    0  501  0.00000000000E+00  0.00000000000E+00 -0.28455191600E+03  0.28455191604E+03  0.50400001928E-02 0.  1.
    10030    2    1    2    0    0  0.00000000000E+00  0.00000000000E+00  0.42821390840E+03  0.99731774046E+03  0.90070834575E+03 0.  0.
        4    1    3    3  502    0 -0.20135387193E+03 -0.26788786016E+03 -0.11901065729E+03  0.35562963433E+03  0.12699999809E+01 0.  1.
       -4    1    3    3    0  502  0.20135387193E+03  0.26788786016E+03  0.54722456569E+03  0.64168810614E+03  0.12699999809E+01 0. -1.
</event>
<event>
 5   0  0.3685879E-03  0.9001403E+03  0.7818609E-02  0.9425406E-01
        2   -1    0    0  501    0  0.00000000000E+00  0.00000000000E+00  0.14537593972E+04  0.14537593972E+04  0.25500000920E-02 0. -1.
       -2   -1    0    0    0  501  0.00000000000E+00  0.00000000000E+00 -0.13933745637E+03  0.13933745640E+03  0.25500000920E-02 0.  1.
    10030    2    1    2    0    0  0.00000000000E+00  0.00000000000E+00  0.13144219409E+04  0.15930968536E+04  0.90014029265E+03 0.  0.
        1    1    3    3  502    0  0.21976636950E+03  0.32543735219E+03  0.26802336592E+03  0.47544006149E+03  0.50400001928E-02 0.  1.
       -1    1    3    3    0  502 -0.21976636950E+03 -0.32543735219E+03  0.10463985750E+04  0.11176567922E+04  0.50400001928E-02 0. -1.
</event>
<event>
 5   0  0.3626546E-03  0.8996505E+03  0.7818609E-02  0.9426018E-01
        2   -1    0    0  501    0  0.00000000000E+00  0.00000000000E+00  0.62652399215E+03  0.62652399216E+03  0.25500000920E-02 0. -1.
       -2   -1    0    0    0  501  0.00000000000E+00  0.00000000000E+00 -0.32296089721E+03  0.32296089722E+03  0.25500000920E-02 0.  1.
    10030    2    1    2    0    0  0.00000000000E+00  0.00000000000E+00  0.30356309494E+03  0.94948488938E+03  0.89965048910E+03 0.  0.
        3    1    3    3  502    0  0.31682768110E+02 -0.37938373157E+03  0.40465101055E+03  0.55558821452E+03  0.10100000352E+00 0. -1.
       -3    1    3    3    0  502 -0.31682768110E+02  0.37938373157E+03 -0.10108791561E+03  0.39389667485E+03  0.10100000352E+00 0.  1.
</event>
<event>
 5   0  0.2130975E-03  0.9014140E+03  0.7818609E-02  0.9423816E-01
        1   -1    0    0  501    0  0.00000000000E+00  0.00000000000E+00  0.15215891392E+04  0.15215891392E+04  0.50400001928E-02 0. -1.
       -1   -1    0    0    0  501  0.00000000000E+00  0.00000000000E+00 -0.13350305212E+03  0.13350305222E+03  0.50400001928E-02 0.  1.
    10030    2    1    2    0    0  0.00000000000E+00  0.00000000000E+00  0.13880860871E+04  0.16550921914E+04  0.90141398757E+03 0.  0.
        5    1    3    3  502    0 -0.32798461050E+03  0.15616020115E+03  0.11838218300E+04  0.12383118058E+04  0.46999998093E+01 0. -1.
       -5    1    3    3    0  502  0.32798461050E+03 -0.15616020115E+03  0.20426425710E+03  0.41678038567E+03  0.46999998093E+01 0.  1.
</event>
<event>
 5   0  0.3806019E-03  0.9007755E+03  0.7818609E-02  0.9424612E-01
        2   -1    0    0  501    0  0.00000000000E+00  0.00000000000E+00  0.12565628099E+04  0.12565628099E+04  0.25500000920E-02 0. -1.
       -2   -1    0    0    0  501  0.00000000000E+00  0.00000000000E+00 -0.16143175949E+03  0.16143175951E+03  0.25500000920E-02 0.  1.
    10030    2    1    2    0    0  0.00000000000E+00  0.00000000000E+00  0.10951310504E+04  0.14179945694E+04  0.90077554438E+03 0.  0.
        2    1    3    3  502    0  0.29560028870E+02 -0.31981125947E+03  0.50518952263E+02  0.32512336357E+03  0.25500000920E-02 0.  1.
       -2    1    3    3    0  502 -0.29560028870E+02  0.31981125947E+03  0.10446120982E+04  0.10928712059E+04  0.25500000920E-02 0. -1.
</event>
<event>
 5   0  0.3663255E-03  0.9029974E+03  0.7818609E-02  0.9421842E-01
       -2   -1    0    0    0  501  0.00000000000E+00  0.00000000000E+00  0.36148476170E+03  0.36148476171E+03  0.25500000920E-02 0.  1.
        2   -1    0    0  501    0  0.00000000000E+00  0.00000000000E+00 -0.56392714660E+03  0.56392714661E+03  0.25500000920E-02 0. -1.
    10030    2    1    2    0    0  0.00000000000E+00  0.00000000000E+00 -0.20244238490E+03  0.92541190832E+03  0.90299738696E+03 0.  0.
        4    1    3    3  502    0 -0.20301445399E+03 -0.38652169531E+03  0.16680456578E+02  0.43691388168E+03  0.12699999809E+01 0.  1.
       -4    1    3    3    0  502  0.20301445399E+03  0.38652169531E+03 -0.21912284148E+03  0.48849802664E+03  0.12699999809E+01 0. -1.
</event>
<event>
 5   0  0.2295158E-03  0.9025493E+03  0.7818609E-02  0.9422400E-01
       -1   -1    0    0    0  501  0.00000000000E+00  0.00000000000E+00  0.97538640053E+03  0.97538640055E+03  0.50400001928E-02 0.  1.
        1   -1    0    0  501    0  0.00000000000E+00  0.00000000000E+00 -0.20878783842E+03  0.20878783848E+03  0.50400001928E-02 0. -1.
    10030    2    1    2    0    0  0.00000000000E+00  0.00000000000E+00  0.76659856211E+03  0.11841742390E+04  0.90254931884E+03 0.  0.
        4    1    3    3  502    0 -0.35982795570E+03  0.17536200259E+03  0.65669118740E+03  0.76907276520E+03  0.12699999809E+01 0.  1.
       -4    1    3    3    0  502  0.35982795570E+03 -0.17536200259E+03  0.10990737471E+03  0.41510147383E+03  0.12699999809E+01 0. -1.
</event>
<event>
 5   0  0.3815269E-03  0.9010079E+03  0.7818609E-02  0.9424322E-01
       -2   -1    0    0    0  501  0.00000000000E+00  0.00000000000E+00  0.25906070647E+03  0.25906070649E+03  0.25500000920E-02 0.  1.
        2   -1    0    0  501    0  0.00000000000E+00  0.00000000000E+00 -0.78342188887E+03  0.78342188887E+03  0.25500000920E-02 0. -1.
    10030    2    1    2    0    0  0.00000000000E+00  0.00000000000E+00 -0.52436118239E+03  0.10424825954E+04  0.90100794226E+03 0.  0.
        5    1    3    3  502    0 -0.33846385673E+02  0.32578874720E+03 -0.62001146197E+03  0.70122762966E+03  0.46999998093E+01 0.  1.
       -5    1    3    3    0  502  0.33846385673E+02 -0.32578874720E+03  0.95650279579E+02  0.34125496569E+03  0.46999998093E+01 0. -1.
</event>
<event>
 5   0  0.3626546E-03  0.9024706E+03  0.7818609E-02  0.9422498E-01
       -2   -1    0    0    0  501  0.00000000000E+00  0.00000000000E+00  0.21518364915E+03  0.21518364916E+03  0.25500000920E-02 0. -1.
        2   -1    0    0  501    0  0.00000000000E+00  0.00000000000E+00 -0.94623025470E+03  0.94623025470E+03  0.25500000920E-02 0.  1.
    10030    2    1    2    0    0  0.00000000000E+00  0.00000000000E+00 -0.73104660555E+03  0.11614139039E+04  0.90247056273E+03 0.  0.
        3    1    3    3  502    0  0.16774926250E+03  0.20669862326E+03 -0.83441206351E+03  0.87584681187E+03  0.10100000352E+00 0.  1.
       -3    1    3    3    0  502 -0.16774926250E+03 -0.20669862326E+03  0.10336545796E+03  0.28556709199E+03  0.10100000352E+00 0. -1.
</event>
<event>
 5   0  0.2295158E-03  0.9014943E+03  0.7818609E-02  0.9423715E-01
        1   -1    0    0  501    0  0.00000000000E+00  0.00000000000E+00  0.10419799445E+04  0.10419799445E+04  0.50400001928E-02 0. -1.
       -1   -1    0    0    0  501  0.00000000000E+00  0.00000000000E+00 -0.19498743944E+03  0.19498743951E+03  0.50400001928E-02 0.  1.
    10030    2    1    2    0    0  0.00000000000E+00  0.00000000000E+00  0.84699250501E+03  0.12369673840E+04  0.90149431805E+03 0.  0.
        4    1    3    3  502    0 -0.18843719780E+03  0.40640734659E+03  0.49204619097E+03  0.66542210350E+03  0.12699999809E+01 0. -1.
       -4    1    3    3    0  502  0.18843719780E+03 -0.40640734659E+03  0.35494631404E+03  0.57154528047E+03  0.12699999809E+01 0.  1.
</event>
<event>
 5   0  0.1436000E-03  0.8962925E+03  0.7818609E-02  0.9430228E-01
       -3   -1    0    0    0  501  0.00000000000E+00  0.00000000000E+00  0.19762716549E+03  0.19762719130E+03  0.10100000352E+00 0.  1.
        3   -1    0    0  501    0  0.00000000000E+00  0.00000000000E+00 -0.10162320451E+04  0.10162320501E+04  0.10100000352E+00 0. -1.
    10030    2    1    2    0    0  0.00000000000E+00  0.00000000000E+00 -0.81860487956E+03  0.12138592414E+04  0.89629253541E+03 0.  0.
        3    1    3    3  502    0  0.27744207417E+01 -0.44779326984E+03 -0.38551288346E+03  0.59088637101E+03  0.10100000352E+00 0.  1.
       -3    1    3    3    0  502 -0.27744207417E+01  0.44779326984E+03 -0.43309199610E+03  0.62297287037E+03  0.10100000352E+00 0. -1.
</event>
<event>
 5   0  0.2134145E-03  0.8982753E+03  0.7818609E-02  0.9427740E-01
       -1   -1    0    0    0  501  0.00000000000E+00  0.00000000000E+00  0.32231993585E+03  0.32231993589E+03  0.50400001928E-02 0. -1.
        1   -1    0    0  501    0  0.00000000000E+00  0.00000000000E+00 -0.62585213266E+03  0.62585213268E+03  0.50400001928E-02 0.  1.
    10030    2    1    2    0    0  0.00000000000E+00  0.00000000000E+00 -0.30353219681E+03  0.94817206858E+03  0.89827527915E+03 0.  0.
        1    1    3    3  502    0  0.36779722591E+02  0.44729495167E+03 -0.13351100404E+03  0.46824214890E+03  0.50400001928E-02 0. -1.
       -1    1    3    3    0  502 -0.36779722591E+02 -0.44729495167E+03 -0.17002119277E+03  0.47992991967E+03  0.50400001928E-02 0.  1.
</event>
<event>
 5   0  0.3663255E-03  0.8974200E+03  0.7818609E-02  0.9428812E-01
        2   -1    0    0  501    0  0.00000000000E+00  0.00000000000E+00  0.30770317526E+03  0.30770317527E+03  0.25500000920E-02 0. -1.
       -2   -1    0    0    0  501  0.00000000000E+00  0.00000000000E+00 -0.65433404610E+03  0.65433404610E+03  0.25500000920E-02 0.  1.
    10030    2    1    2    0    0  0.00000000000E+00  0.00000000000E+00 -0.34663087084E+03  0.96203722137E+03  0.89741999905E+03 0.  0.
        4    1    3    3  502    0 -0.42183357801E+03 -0.94509373892E+02 -0.30223898476E+03  0.52747095285E+03  0.12699999809E+01 0.  1.
       -4    1    3    3    0  502  0.42183357801E+03  0.94509373892E+02 -0.44391886077E+02  0.43456626852E+03  0.12699999809E+01 0. -1.
</event>
<event>
 5   0  0.3626546E-03  0.9005594E+03  0.7818609E-02  0.9424882E-01
        2   -1    0    0  501    0  0.00000000000E+00  0.00000000000E+00  0.11026404478E+04  0.11026404478E+04  0.25500000920E-02 0.  1.
       -2   -1    0    0    0  501  0.00000000000E+00  0.00000000000E+00 -0.18387844133E+03  0.18387844135E+03  0.25500000920E-02 0. -1.
    10030    2    1    2    0    0  0.00000000000E+00  0.00000000000E+00  0.91876200651E+03  0.12865188892E+04  0.90055939706E+03 0.  0.
        3    1    3    3  502    0 -0.25529743376E+03 -0.29835911882E+03  0.77417690654E+03  0.86806960337E+03  0.10100000352E+00 0.  1.
       -3    1    3    3    0  502  0.25529743376E+03  0.29835911882E+03  0.14458509997E+03  0.41844928582E+03  0.10100000352E+00 0. -1.
</event>
<event>
 5   0  0.3806019E-03  0.8999884E+03  0.7818609E-02  0.9425596E-01
        2   -1    0    0  501    0  0.00000000000E+00  0.00000000000E+00  0.18357829522E+04  0.18357829522E+04  0.25500000920E-02 0.  1.
       -2   -1    0    0    0  501  0.00000000000E+00  0.00000000000E+00 -0.11030431263E+03  0.11030431266E+03  0.25500000920E-02 0. -1.
    10030    2    1    2    0    0  0.00000000000E+00  0.00000000000E+00  0.17254786396E+04  0.19460872649E+04  0.89998839264E+03 0.  0.
        2    1    3    3  502    0  0.25395092282E+03 -0.15718694855E+03  0.15905738085E+04  0.16183707388E+04  0.25500000920E-02 0.  1.
       -2    1    3    3    0  502 -0.25395092282E+03  0.15718694855E+03  0.13490483108E+03  0.32771652605E+03  0.25500000920E-02 0. -1.
</event>
<event>
 5   0  0.3806019E-03  0.8882773E+03  0.7818609E-02  0.9440355E-01
        2   -1    0    0  501    0  0.00000000000E+00  0.00000000000E+00  0.90058874277E+03  0.90058874278E+03  0.25500000920E-02 0. -1.
       -2   -1    0    0    0  501  0.00000000000E+00  0.00000000000E+00 -0.21903354276E+03  0.21903354278E+03  0.25500000920E-02 0.  1.
    10030    2    1    2    0    0  0.00000000000E+00  0.00000000000E+00  0.68155520001E+03  0.11196222856E+04  0.88827730560E+03 0.  0.
        2    1    3    3  502    0  0.35897712059E+03 -0.22826260350E+03  0.17990074937E+03  0.46187949607E+03  0.25500000920E-02 0.  1.
       -2    1    3    3    0  502 -0.35897712059E+03  0.22826260350E+03  0.50165445064E+03  0.65774278948E+03  0.25500000920E-02 0. -1.
</event>
<event>
 5   0  0.3663255E-03  0.9000189E+03  0.7818609E-02  0.9425558E-01
        2   -1    0    0  501    0  0.00000000000E+00  0.00000000000E+00  0.39453005351E+03  0.39453005351E+03  0.25500000920E-02 0.  1.
       -2   -1    0    0    0  501  0.00000000000E+00  0.00000000000E+00 -0.51329046969E+03  0.51329046970E+03  0.25500000920E-02 0. -1.
    10030    2    1    2    0    0  0.00000000000E+00  0.00000000000E+00 -0.11876041619E+03  0.90782052321E+03  0.90001892531E+03 0.  0.
        4    1    3    3  502    0  0.43568317412E+03 -0.11230799225E+03 -0.50703887720E+02  0.45277523173E+03  0.12699999809E+01 0.  1.
       -4    1    3    3    0  502 -0.43568317412E+03  0.11230799225E+03 -0.68056528467E+02  0.45504529149E+03  0.12699999809E+01 0. -1.
</event>
<event>
 5   0  0.3815269E-03  0.8840103E+03  0.7818609E-02  0.9445793E-01
        2   -1    0    0  501    0  0.00000000000E+00  0.00000000000E+00  0.49897038368E+03  0.49897038368E+03  0.25500000920E-02 0.  1.
       -2   -1    0    0    0  501  0.00000000000E+00  0.00000000000E+00 -0.39154340480E+03  0.39154340481E+03  0.25500000920E-02 0. -1.
    10030    2    1    2    0    0  0.00000000000E+00  0.00000000000E+00  0.10742697888E+03  0.89051378849E+03  0.88401032330E+03 0.  0.
        5    1    3    3  502    0 -0.43702737699E+03 -0.51022019949E+02  0.95857836597E+02  0.45034097037E+03  0.46999998093E+01 0.  1.
       -5    1    3    3    0  502  0.43702737699E+03  0.51022019949E+02  0.11569142283E+02  0.44017281812E+03  0.46999998093E+01 0. -1.
</event>
<event>
 5   0  0.3815269E-03  0.8981418E+03  0.7818609E-02  0.9427907E-01
        2   -1    0    0  501    0  0.00000000000E+00  0.00000000000E+00  0.10649146607E+04  0.10649146607E+04  0.25500000920E-02 0. -1.
       -2   -1    0    0    0  501  0.00000000000E+00  0.00000000000E+00 -0.18937165696E+03  0.18937165698E+03  0.25500000920E-02 0.  1.
    10030    2    1    2    0    0  0.00000000000E+00  0.00000000000E+00  0.87554300377E+03  0.12542863177E+04  0.89814175683E+03 0.  0.
        5    1    3    3  502    0  0.41547133823E+03  0.13217993209E+03  0.28765473970E+03  0.52235553659E+03  0.46999998093E+01 0. -1.
       -5    1    3    3    0  502 -0.41547133823E+03 -0.13217993209E+03  0.58788826407E+03  0.73193078113E+03  0.46999998093E+01 0.  1.
</event>
<event>
 5   0  0.3626546E-03  0.8960478E+03  0.7818609E-02  0.9430535E-01
       -2   -1    0    0    0  501  0.00000000000E+00  0.00000000000E+00  0.10496138434E+04  0.10496138434E+04  0.25500000920E-02 0.  1.
        2   -1    0    0  501    0  0.00000000000E+00  0.00000000000E+00 -0.19123739706E+03  0.19123739708E+03  0.25500000920E-02 0. -1.
    10030    2    1    2    0    0  0.00000000000E+00  0.00000000000E+00  0.85837644634E+03  0.12408512405E+04  0.89604780975E+03 0.  0.
        3    1    3    3  502    0  0.19287203590E+03  0.14051881093E+03  0.95428355194E+03  0.98366776208E+03  0.10100000352E+00 0.  1.
       -3    1    3    3    0  502 -0.19287203590E+03 -0.14051881093E+03 -0.95907105596E+02  0.25718347840E+03  0.10100000352E+00 0. -1.
</event>
<event>
 5   0  0.2134145E-03  0.8989789E+03  0.7818609E-02  0.9426859E-01
        1   -1    0    0  501    0  0.00000000000E+00  0.00000000000E+00  0.52007278723E+03  0.52007278726E+03  0.50400001928E-02 0.  1.
       -1   -1    0    0    0  501  0.00000000000E+00  0.00000000000E+00 -0.38848555488E+03  0.38848555491E+03  0.50400001928E-02 0. -1.
    10030    2    1    2    0    0  0.00000000000E+00  0.00000000000E+00  0.13158723235E+03  0.90855834217E+03  0.89897889931E+03 0.  0.
        1    1    3    3  502    0 -0.24601728965E+03 -0.34754071262E+03 -0.79725785835E+02  0.43320347954E+03  0.50400001928E-02 0. -1.
       -1    1    3    3    0  502  0.24601728965E+03  0.34754071262E+03  0.21131301819E+03  0.47535486262E+03  0.50400001928E-02 0.  1.
</event>
<event>
 5   0  0.2134145E-03  0.9035473E+03  0.7818609E-02  0.9421158E-01
       -1   -1    0    0    0  501  0.00000000000E+00  0.00000000000E+00  0.20864648713E+03  0.20864648719E+03  0.50400001928E-02 0. -1.
        1   -1    0    0  501    0  0.00000000000E+00  0.00000000000E+00 -0.97820681074E+03  0.97820681076E+03  0.50400001928E-02 0.  1.
    10030    2    1    2    0    0  0.00000000000E+00  0.00000000000E+00 -0.76956032361E+03  0.11868532979E+04  0.90354726449E+03 0.  0.
        1    1    3    3  502    0  0.24235537051E+02  0.10256768254E+03  0.19227287835E+03  0.21926319921E+03  0.50400001928E-02 0. -1.
       -1    1    3    3    0  502 -0.24235537051E+02 -0.10256768254E+03 -0.96183320196E+03  0.96759009873E+03  0.50400001928E-02 0.  1.
</event>
<event>
 5   0  0.3806019E-03  0.9046422E+03  0.7818609E-02  0.9419797E-01
        2   -1    0    0  501    0  0.00000000000E+00  0.00000000000E+00  0.63052811130E+03  0.63052811131E+03  0.25500000920E-02 0. -1.
       -2   -1    0    0    0  501  0.00000000000E+00  0.00000000000E+00 -0.32448096278E+03  0.32448096279E+03  0.25500000920E-02 0.  1.
    10030    2    1    2    0    0  0.00000000000E+00  0.00000000000E+00  0.30604714852E+03  0.95500907409E+03  0.90464218036E+03 0.  0.
        2    1    3    3  502    0  0.26932281921E+03  0.18570937418E+03  0.48277935188E+03  0.58317977950E+03  0.25500000920E-02 0. -1.
       -2    1    3    3    0  502 -0.26932281921E+03 -0.18570937418E+03 -0.17673220336E+03  0.37182929459E+03  0.25500000920E-02 0.  1.
</event>
<event>
 5   0  0.3663255E-03  0.9161220E+03  0.7818609E-02  0.9405650E-01
        2   -1    0    0  501    0  0.00000000000E+00  0.00000000000E+00  0.26892657501E+03  0.26892657503E+03  0.25500000920E-02 0. -1.
       -2   -1    0    0    0  501  0.00000000000E+00  0.00000000000E+00 -0.78021248713E+03  0.78021248714E+03  0.25500000920E-02 0.  1.
    10030    2    1    2    0    0  0.00000000000E+00  0.00000000000E+00 -0.51128591212E+03  0.10491390622E+04  0.91612198305E+03 0.  0.
        4    1    3    3  502    0 -0.19647834427E+02  0.31350085616E+03  0.12615480929E+03  0.33850476070E+03  0.12699999809E+01 0. -1.
       -4    1    3    3    0  502  0.19647834427E+02 -0.31350085616E+03 -0.63744072140E+03  0.71063430146E+03  0.12699999809E+01 0.  1.
</event>
<event>
 5   0  0.2130975E-03  0.8978712E+03  0.7818609E-02  0.9428246E-01
       -1   -1    0    0    0  501  0.00000000000E+00  0.00000000000E+00  0.43601413702E+03  0.43601413705E+03  0.50400001928E-02 0.  1.
        1   -1    0    0  501    0  0.00000000000E+00  0.00000000000E+00 -0.46223997637E+03  0.46223997640E+03  0.50400001928E-02 0. -1.
    10030    2    1    2    0    0  0.00000000000E+00  0.00000000000E+00 -0.26225839353E+02  0.89825411345E+03  0.89787118100E+03 0.  0.
        5    1    3    3  502    0 -0.16517211519E+01  0.31380797833E+03 -0.33425278189E+03  0.45850320353E+03  0.46999998093E+01 0. -1.
       -5    1    3    3    0  502  0.16517211519E+01 -0.31380797833E+03  0.30802694253E+03  0.43975090992E+03  0.46999998093E+01 0.  1.
</event>
<event>
 5   0  0.1436000E-03  0.9012927E+03  0.7818609E-02  0.9423967E-01
       -3   -1    0    0    0  501  0.00000000000E+00  0.00000000000E+00  0.27243448024E+03  0.27243449897E+03  0.10100000352E+00 0.  1.
        3   -1    0    0  501    0  0.00000000000E+00  0.00000000000E+00 -0.74543468748E+03  0.74543469432E+03  0.10100000352E+00 0. -1.
    10030    2    1    2    0    0  0.00000000000E+00  0.00000000000E+00 -0.47300020724E+03  0.10178691933E+04  0.90129268199E+03 0.  0.
        4    1    3    3  502    0 -0.41505071752E+03  0.16032585777E+03 -0.31722276613E+03  0.54644613187E+03  0.12699999809E+01 0. -1.
       -4    1    3    3    0  502  0.41505071752E+03 -0.16032585777E+03 -0.15577744110E+03  0.47142306142E+03  0.12699999809E+01 0.  1.
</event>
<event>
 5   0  0.3685879E-03  0.9003691E+03  0.7818609E-02  0.9425120E-01
        2   -1    0    0  501    0  0.00000000000E+00  0.00000000000E+00  0.10756349353E+04  0.10756349353E+04  0.25500000920E-02 0. -1.
       -2   -1    0    0    0  501  0.00000000000E+00  0.00000000000E+00 -0.18841533939E+03  0.18841533941E+03  0.25500000920E-02 0.  1.
    10030    2    1    2    0    0  0.00000000000E+00  0.00000000000E+00  0.88721959595E+03  0.12640502747E+04  0.90036908301E+03 0.  0.
        1    1    3    3  502    0  0.45700051699E+02 -0.44119743765E+03  0.55165223948E+03  0.70785864907E+03  0.50400001928E-02 0. -1.
       -1    1    3    3    0  502 -0.45700051699E+02  0.44119743765E+03  0.33556735647E+03  0.55619162568E+03  0.50400001928E-02 0.  1.
</event>
<event>
 5   0  0.2130975E-03  0.9005684E+03  0.7818609E-02  0.9424871E-01
       -1   -1    0    0    0  501  0.00000000000E+00  0.00000000000E+00  0.47569583956E+03  0.47569583958E+03  0.50400001928E-02 0. -1.
        1   -1    0    0  501    0  0.00000000000E+00  0.00000000000E+00 -0.42623001122E+03  0.42623001125E+03  0.50400001928E-02 0.  1.
    10030    2    1    2    0    0  0.00000000000E+00  0.00000000000E+00  0.49465828334E+02  0.90192585084E+03  0.90056836067E+03 0.  0.
        5    1    3    3  502    0 -0.38926099750E+03 -0.15359545362E+03  0.19117025847E+03  0.46009112714E+03  0.46999998093E+01 0. -1.
       -5    1    3    3    0  502  0.38926099750E+03  0.15359545362E+03 -0.14170443013E+03  0.44183472370E+03  0.46999998093E+01 0.  1.
</event>
<event>
 5   0  0.2295158E-03  0.8981360E+03  0.7818609E-02  0.9427914E-01
        1   -1    0    0  501    0  0.00000000000E+00  0.00000000000E+00  0.64014512504E+03  0.64014512505E+03  0.50400001928E-02 0. -1.
       -1   -1    0    0    0  501  0.00000000000E+00  0.00000000000E+00 -0.31502557794E+03  0.31502557798E+03  0.50400001928E-02 0.  1.
    10030    2    1    2    0    0  0.00000000000E+00  0.00000000000E+00  0.32511954709E+03  0.95517070304E+03  0.89813604317E+03 0.  0.
        4    1    3    3  502    0  0.15109122379E+03  0.25941907854E+03 -0.19261477954E+03  0.35669157884E+03  0.12699999809E+01 0.  1.
       -4    1    3    3    0  502 -0.15109122379E+03 -0.25941907854E+03  0.51773432663E+03  0.59847912419E+03  0.12699999809E+01 0. -1.
</event>
<event>
 5   0  0.2134145E-03  0.8997690E+03  0.7818609E-02  0.9425870E-01
        1   -1    0    0  501    0  0.00000000000E+00  0.00000000000E+00  0.37589372521E+03  0.37589372524E+03  0.50400001928E-02 0. -1.
       -1   -1    0    0    0  501  0.00000000000E+00  0.00000000000E+00 -0.53843957925E+03  0.53843957928E+03  0.50400001928E-02 0.  1.
    10030    2    1    2    0    0  0.00000000000E+00  0.00000000000E+00 -0.16254585404E+03  0.91433330452E+03  0.89976899096E+03 0.  0.
        1    1    3    3  502    0 -0.28262693899E+03  0.33994152686E+03  0.34908797491E+01  0.44209774326E+03  0.50400001928E-02 0. -1.
       -1    1    3    3    0  502  0.28262693899E+03 -0.33994152686E+03 -0.16603673379E+03  0.47223556126E+03  0.50400001928E-02 0.  1.
</event>
<event>
 5   0  0.2134145E-03  0.9013658E+03  0.7818609E-02  0.9423876E-01
        1   -1    0    0  501    0  0.00000000000E+00  0.00000000000E+00  0.50386565522E+03  0.50386565525E+03  0.50400001928E-02 0. -1.
       -1   -1    0    0    0  501  0.00000000000E+00  0.00000000000E+00 -0.40311351244E+03  0.40311351247E+03  0.50400001928E-02 0.  1.
    10030    2    1    2    0    0  0.00000000000E+00  0.00000000000E+00  0.10075214279E+03  0.90697916772E+03  0.90136575063E+03 0.  0.
        1    1    3    3  502    0  0.31700056688E+03 -0.29892994662E+03 -0.65521884844E+02  0.44061501314E+03  0.50400001928E-02 0. -1.
       -1    1    3    3    0  502 -0.31700056688E+03  0.29892994662E+03  0.16627402763E+03  0.46636415458E+03  0.50400001928E-02 0.  1.
</event>
<event>
 5   0  0.2134145E-03  0.8989053E+03  0.7818609E-02  0.9426951E-01
        1   -1    0    0  501    0  0.00000000000E+00  0.00000000000E+00  0.12373035471E+04  0.12373035471E+04  0.50400001928E-02 0. -1.
       -1   -1    0    0    0  501  0.00000000000E+00  0.00000000000E+00 -0.16326445309E+03  0.16326445317E+03  0.50400001928E-02 0.  1.
    10030    2    1    2    0    0  0.00000000000E+00  0.00000000000E+00  0.10740390940E+04  0.14005680002E+04  0.89890530531E+03 0.  0.
        1    1    3    3  502    0  0.19315533922E+03 -0.34494955967E+03  0.20390871463E+03  0.44483474202E+03  0.50400001928E-02 0.  1.
       -1    1    3    3    0  502 -0.19315533922E+03  0.34494955967E+03  0.87013037934E+03  0.95573325822E+03  0.50400001928E-02 0. -1.
</event>
<event>
 5   0  0.1436000E-03  0.9006977E+03  0.7818609E-02  0.9424710E-01
        4   -1    0    0  501    0  0.00000000000E+00  0.00000000000E+00  0.27234593513E+03  0.27234889623E+03  0.12699999809E+01 0. -1.
       -4   -1    0    0    0  501  0.00000000000E+00  0.00000000000E+00 -0.74468537659E+03  0.74468645953E+03  0.12699999809E+01 0.  1.
    10030    2    1    2    0    0  0.00000000000E+00  0.00000000000E+00 -0.47233944146E+03  0.10170353558E+04  0.90069771117E+03 0.  0.
        5    1    3    3  502    0  0.18901320489E+03  0.40687317631E+03 -0.28019594351E+03  0.52896467744E+03  0.46999998093E+01 0. -1.
       -5    1    3    3    0  502 -0.18901320489E+03 -0.40687317631E+03 -0.19214349796E+03  0.48807067832E+03  0.46999998093E+01 0.  1.
</event>
<event>
 5   0  0.2130975E-03  0.9004078E+03  0.7818609E-02  0.9425072E-01
        1   -1    0    0  501    0  0.00000000000E+00  0.00000000000E+00  0.78936847842E+03  0.78936847843E+03  0.50400001928E-02 0.  1.
       -1   -1    0    0    0  501  0.00000000000E+00  0.00000000000E+00 -0.25676672947E+03  0.25676672952E+03  0.50400001928E-02 0. -1.
    10030    2    1    2    0    0  0.00000000000E+00  0.00000000000E+00  0.53260174894E+03  0.10461352080E+04  0.90040782445E+03 0.  0.
        5    1    3    3  502    0 -0.21069755591E+02 -0.23752726931E+03 -0.17733314242E+03  0.29720745560E+03  0.46999998093E+01 0. -1.
       -5    1    3    3    0  502  0.21069755591E+02  0.23752726931E+03  0.70993489137E+03  0.74892775235E+03  0.46999998093E+01 0.  1.
</event>
<event>
 5   0  0.3626546E-03  0.8993222E+03  0.7818609E-02  0.9426429E-01
       -2   -1    0    0    0  501  0.00000000000E+00  0.00000000000E+00  0.11600069648E+03  0.11600069651E+03  0.25500000920E-02 0.  1.
        2   -1    0    0  501    0  0.00000000000E+00  0.00000000000E+00 -0.17430507798E+04  0.17430507798E+04  0.25500000920E-02 0. -1.
    10030    2    1    2    0    0  0.00000000000E+00  0.00000000000E+00 -0.16270500834E+04  0.18590514764E+04  0.89932219918E+03 0.  0.
        3    1    3    3  502    0  0.40775363857E+03 -0.22583414312E+02 -0.12025818068E+04  0.12700299416E+04  0.10100000352E+00 0. -1.
       -3    1    3    3    0  502 -0.40775363857E+03  0.22583414312E+02 -0.42446827658E+03  0.58902153474E+03  0.10100000352E+00 0.  1.
</event>
<event>
 5   0  0.2129280E-03  0.9008098E+03  0.7818609E-02  0.9424570E-01
       -1   -1    0    0    0  501  0.00000000000E+00  0.00000000000E+00  0.50227720869E+03  0.50227720871E+03  0.50400001928E-02 0. -1.
        1   -1    0    0  501    0  0.00000000000E+00  0.00000000000E+00 -0.40388969368E+03  0.40388969371E+03  0.50400001928E-02 0.  1.
    10030    2    1    2    0    0  0.00000000000E+00  0.00000000000E+00  0.98387515011E+02  0.90616690242E+03  0.90080983117E+03 0.  0.
        3    1    3    3  502    0  0.44773244747E+03 -0.22211531015E+02  0.52662166225E+01  0.44831399696E+03  0.10100000352E+00 0. -1.
       -3    1    3    3    0  502 -0.44773244747E+03  0.22211531015E+02  0.93121298388E+02  0.45785290547E+03  0.10100000352E+00 0.  1.
</event>
<event>
 5   0  0.2074970E-03  0.9179709E+03  0.7818609E-02  0.9403392E-01
       -1   -1    0    0    0  501  0.00000000000E+00  0.00000000000E+00  0.38534618115E+03  0.38534618119E+03  0.50400001928E-02 0. -1.
        1   -1    0    0  501    0  0.00000000000E+00  0.00000000000E+00 -0.54669705368E+03  0.54669705370E+03  0.50400001928E-02 0.  1.
    10030    2    1    2    0    0  0.00000000000E+00  0.00000000000E+00 -0.16135087253E+03  0.93204323489E+03  0.91797085337E+03 0.  0.
        2    1    3    3  502    0 -0.25065203091E+03 -0.35627866452E+03 -0.22748348054E+03  0.49143632478E+03  0.25500000920E-02 0.  1.
       -2    1    3    3    0  502  0.25065203091E+03  0.35627866452E+03  0.66132608008E+02  0.44060691011E+03  0.25500000920E-02 0. -1.
</event>
<event>
 5   0  0.3815269E-03  0.9007135E+03  0.7818609E-02  0.9424690E-01
       -2   -1    0    0    0  501  0.00000000000E+00  0.00000000000E+00  0.90245280371E+02  0.90245280407E+02  0.25500000920E-02 0.  1.
        2   -1    0    0  501    0  0.00000000000E+00  0.00000000000E+00 -0.22474437557E+04  0.22474437557E+04  0.25500000920E-02 0. -1.
    10030    2    1    2    0    0  0.00000000000E+00  0.00000000000E+00 -0.21571984753E+04  0.23376890361E+04  0.90071347696E+03 0.  0.
        5    1    3    3  502    0  0.83561016870E+02  0.41383208299E+03 -0.14853340099E+04  0.15441757178E+04  0.46999998093E+01 0. -1.
       -5    1    3    3    0  502 -0.83561016870E+02 -0.41383208299E+03 -0.67186446548E+03  0.79351331836E+03  0.46999998093E+01 0.  1.
</event>
<event>
 5   0  0.3626546E-03  0.8998830E+03  0.7818609E-02  0.9425728E-01
       -2   -1    0    0    0  501  0.00000000000E+00  0.00000000000E+00  0.24363576696E+03  0.24363576697E+03  0.25500000920E-02 0. -1.
        2   -1    0    0  501    0  0.00000000000E+00  0.00000000000E+00 -0.83094268386E+03  0.83094268386E+03  0.25500000920E-02 0.  1.
    10030    2    1    2    0    0  0.00000000000E+00  0.00000000000E+00 -0.58730691690E+03  0.10745784508E+04  0.89988301037E+03 0.  0.
        3    1    3    3  502    0 -0.23489749053E+03  0.35495354198E+03 -0.11946371555E+03  0.44208645937E+03  0.10100000352E+00 0. -1.
       -3    1    3    3    0  502  0.23489749053E+03 -0.35495354198E+03 -0.46784320135E+03  0.63249199147E+03  0.10100000352E+00 0.  1.
</event>
<event>
 5   0  0.2134145E-03  0.9008168E+03  0.7818609E-02  0.9424561E-01
        1   -1    0    0  501    0  0.00000000000E+00  0.00000000000E+00  0.15302608600E+04  0.15302608600E+04  0.50400001928E-02 0. -1.
       -1   -1    0    0    0  501  0.00000000000E+00  0.00000000000E+00 -0.13257067432E+03  0.13257067441E+03  0.50400001928E-02 0.  1.
    10030    2    1    2    0    0  0.00000000000E+00  0.00000000000E+00  0.13976901857E+04  0.16628315344E+04  0.90081677200E+03 0.  0.
        1    1    3    3  502    0  0.40475147775E+03 -0.19144147583E+03  0.78916520134E+03  0.90733417903E+03  0.50400001928E-02 0. -1.
       -1    1    3    3    0  502 -0.40475147775E+03  0.19144147583E+03  0.60852498433E+03  0.75549735538E+03  0.50400001928E-02 0.  1.
</event>
<event>
 5   0  0.3663255E-03  0.8484153E+03  0.7818609E-02  0.9492466E-01
       -2   -1    0    0    0  501  0.00000000000E+00  0.00000000000E+00  0.20611813924E+03  0.20611813926E+03  0.25500000920E-02 0.  1.
        2   -1    0    0  501    0  0.00000000000E+00  0.00000000000E+00 -0.87305338143E+03  0.87305338144E+03  0.25500000920E-02 0. -1.
    10030    2    1    2    0    0  0.00000000000E+00  0.00000000000E+00 -0.66693524219E+03  0.10791715207E+04  0.84841531917E+03 0.  0.
        4    1    3    3  502    0 -0.13024806001E+03 -0.46479687474E+02  0.17663737115E+03  0.22433745178E+03  0.12699999809E+01 0.  1.
       -4    1    3    3    0  502  0.13024806001E+03  0.46479687474E+02 -0.84357261335E+03  0.85483406891E+03  0.12699999809E+01 0. -1.
</event>
<event>
 5   0  0.3685879E-03  0.9169424E+03  0.7818609E-02  0.9404647E-01
       -2   -1    0    0    0  501  0.00000000000E+00  0.00000000000E+00  0.74956096463E+03  0.74956096463E+03  0.25500000920E-02 0.  1.
        2   -1    0    0  501    0  0.00000000000E+00  0.00000000000E+00 -0.28042525098E+03  0.28042525099E+03  0.25500000920E-02 0. -1.
    10030    2    1    2    0    0  0.00000000000E+00  0.00000000000E+00  0.46913571365E+03  0.10299862156E+04  0.91694235727E+03 0.  0.
        1    1    3    3  502    0  0.88867362163E+02  0.20798145486E+03  0.68253428348E+03  0.71903180859E+03  0.50400001928E-02 0.  1.
       -1    1    3    3    0  502 -0.88867362163E+02 -0.20798145486E+03 -0.21339856983E+03  0.31095440703E+03  0.50400001928E-02 0. -1.
</event>
<event>
 5   0  0.3626546E-03  0.8999671E+03  0.7818609E-02  0.9425623E-01
        2   -1    0    0  501    0  0.00000000000E+00  0.00000000000E+00  0.68680173755E+03  0.68680173755E+03  0.25500000920E-02 0. -1.
       -2   -1    0    0    0  501  0.00000000000E+00  0.00000000000E+00 -0.29482333673E+03  0.29482333674E+03  0.25500000920E-02 0.  1.
    10030    2    1    2    0    0  0.00000000000E+00  0.00000000000E+00  0.39197840082E+03  0.98162507429E+03  0.89996706594E+03 0.  0.
        3    1    3    3  502    0 -0.43027694583E+03 -0.13166992612E+03  0.19942980394E+03  0.49218642450E+03  0.10100000352E+00 0. -1.
       -3    1    3    3    0  502  0.43027694583E+03  0.13166992612E+03  0.19254859687E+03  0.48943864980E+03  0.10100000352E+00 0.  1.
</event>
<event>
 5   0  0.2130975E-03  0.9151917E+03  0.7818609E-02  0.9406788E-01
        1   -1    0    0  501    0  0.00000000000E+00  0.00000000000E+00  0.11020212501E+04  0.11020212501E+04  0.50400001928E-02 0.  1.
       -1   -1    0    0    0  501  0.00000000000E+00  0.00000000000E+00 -0.19000900234E+03  0.19000900241E+03  0.50400001928E-02 0. -1.
    10030    2    1    2    0    0  0.00000000000E+00  0.00000000000E+00  0.91201224775E+03  0.12920302525E+04  0.91519169214E+03 0.  0.
        5    1    3    3  502    0  0.29420284523E+02 -0.45209874061E+02  0.10974831112E+04  0.10988178899E+04  0.46999998093E+01 0.  1.
       -5    1    3    3    0  502 -0.29420284523E+02  0.45209874061E+02 -0.18547086347E+03  0.19321236257E+03  0.46999998093E+01 0. -1.
</event>
<event>
 5   0  0.2074970E-03  0.8988602E+03  0.7818609E-02  0.9427007E-01
        1   -1    0    0  501    0  0.00000000000E+00  0.00000000000E+00  0.51101992289E+03  0.51101992292E+03  0.50400001928E-02 0. -1.
       -1   -1    0    0    0  501  0.00000000000E+00  0.00000000000E+00 -0.39526331576E+03  0.39526331580E+03  0.50400001928E-02 0.  1.
    10030    2    1    2    0    0  0.00000000000E+00  0.00000000000E+00  0.11575660713E+03  0.90628323872E+03  0.89886023201E+03 0.  0.
        2    1    3    3  502    0  0.82502777956E+02  0.21901911992E+03  0.44472814498E+03  0.50255268998E+03  0.25500000920E-02 0. -1.
       -2    1    3    3    0  502 -0.82502777956E+02 -0.21901911992E+03 -0.32897153785E+03  0.40373054874E+03  0.25500000920E-02 0.  1.
</event>
<event>
 5   0  0.2134145E-03  0.8990807E+03  0.7818609E-02  0.9426731E-01
        1   -1    0    0  501    0  0.00000000000E+00  0.00000000000E+00  0.65817959481E+03  0.65817959483E+03  0.50400001928E-02 0.  1.
       -1   -1    0    0    0  501  0.00000000000E+00  0.00000000000E+00 -0.30703854764E+03  0.30703854768E+03  0.50400001928E-02 0. -1.
    10030    2    1    2    0    0  0.00000000000E+00  0.00000000000E+00  0.35114104718E+03  0.96521814251E+03  0.89908065690E+03 0.  0.
        1    1    3    3  502    0  0.32763132712E+02 -0.44773419817E+03  0.20068294992E+03  0.49174483372E+03  0.50400001928E-02 0. -1.
       -1    1    3    3    0  502 -0.32763132712E+02  0.44773419817E+03  0.15045809725E+03  0.47347330879E+03  0.50400001928E-02 0.  1.
</event>
<event>
 5   0  0.3806019E-03  0.9027542E+03  0.7818609E-02  0.9422145E-01
       -2   -1    0    0    0  501  0.00000000000E+00  0.00000000000E+00  0.88764969082E+03  0.88764969082E+03  0.25500000920E-02 0. -1.
        2   -1    0    0  501    0  0.00000000000E+00  0.00000000000E+00 -0.22952894617E+03  0.22952894618E+03  0.25500000920E-02 0.  1.
    10030    2    1    2    0    0  0.00000000000E+00  0.00000000000E+00  0.65812074466E+03  0.11171786370E+04  0.90275422593E+03 0.  0.
        2    1    3    3  502    0 -0.14558633662E+03 -0.27364401734E+03 -0.76999523977E+02  0.31938277402E+03  0.25500000920E-02 0.  1.
       -2    1    3    3    0  502  0.14558633662E+03  0.27364401734E+03  0.73512026863E+03  0.79779586299E+03  0.25500000920E-02 0. -1.
</event>
<event>
 5   0  0.3663255E-03  0.8994171E+03  0.7818609E-02  0.9426310E-01
       -2   -1    0    0    0  501  0.00000000000E+00  0.00000000000E+00  0.81344165867E+03  0.81344165868E+03  0.25500000920E-02 0. -1.
        2   -1    0    0  501    0  0.00000000000E+00  0.00000000000E+00 -0.24861992167E+03  0.24861992168E+03  0.25500000920E-02 0.  1.
    10030    2    1    2    0    0  0.00000000000E+00  0.00000000000E+00  0.56482173700E+03  0.10620615804E+04  0.89941714787E+03 0.  0.
        4    1    3    3  502    0  0.94723253550E+02  0.24840234272E+03 -0.14589144288E+03  0.30325260862E+03  0.12699999809E+01 0.  1.
       -4    1    3    3    0  502 -0.94723253550E+02 -0.24840234272E+03  0.71071317988E+03  0.75880897174E+03  0.12699999809E+01 0. -1.
</event>
<event>
 5   0  0.2074970E-03  0.8987116E+03  0.7818609E-02  0.9427193E-01
        1   -1    0    0  501    0  0.00000000000E+00  0.00000000000E+00  0.11528539938E+04  0.11528539938E+04  0.50400001928E-02 0.  1.
       -1   -1    0    0    0  501  0.00000000000E+00  0.00000000000E+00 -0.17514850812E+03  0.17514850819E+03  0.50400001928E-02 0. -1.
    10030    2    1    2    0    0  0.00000000000E+00  0.00000000000E+00  0.97770548566E+03  0.13280025020E+04  0.89871164929E+03 0.  0.
        2    1    3    3  502    0  0.22584337759E+03 -0.25490625768E+03  0.55669434654E+02  0.34508189951E+03  0.25500000920E-02 0. -1.
       -2    1    3    3    0  502 -0.22584337759E+03  0.25490625768E+03  0.92203605101E+03  0.98292060247E+03  0.25500000920E-02 0.  1.
</event>
<event>
 5   0  0.1436000E-03  0.9019176E+03  0.7818609E-02  0.9423187E-01
        3   -1    0    0  501    0  0.00000000000E+00  0.00000000000E+00  0.95312092250E+03  0.95312092785E+03  0.10100000352E+00 0.  1.
       -3   -1    0    0    0  501  0.00000000000E+00  0.00000000000E+00 -0.21336625054E+03  0.21336627444E+03  0.10100000352E+00 0. -1.
    10030    2    1    2    0    0  0.00000000000E+00  0.00000000000E+00  0.73975467196E+03  0.11664872023E+04  0.90191763394E+03 0.  0.
        5    1    3    3  502    0  0.94156264568E+02 -0.34902292677E+02  0.93844486949E+03  0.94381377149E+03  0.46999998093E+01 0.  1.
       -5    1    3    3    0  502 -0.94156264568E+02  0.34902292677E+02 -0.19869019753E+03  0.22267343080E+03  0.46999998093E+01 0. -1.
</event>
<event>
 5   0  0.2130975E-03  0.9012541E+03  0.7818609E-02  0.9424015E-01
        1   -1    0    0  501    0  0.00000000000E+00  0.00000000000E+00  0.61950642157E+03  0.61950642159E+03  0.50400001928E-02 0.  1.
       -1   -1    0    0    0  501  0.00000000000E+00  0.00000000000E+00 -0.32778475047E+03  0.32778475051E+03  0.50400001928E-02 0. -1.
    10030    2    1    2    0    0  0.00000000000E+00  0.00000000000E+00  0.29172167110E+03  0.94729117210E+03  0.90125414360E+03 0.  0.
        5    1    3    3  502    0 -0.32821961927E+03  0.67566188767E+02 -0.17077349440E+03  0.37613692284E+03  0.46999998093E+01 0. -1.
       -5    1    3    3    0  502  0.32821961927E+03 -0.67566188767E+02  0.46249516550E+03  0.57115424926E+03  0.46999998093E+01 0.  1.
</event>
<event>
 5   0  0.2074970E-03  0.9097842E+03  0.7818609E-02  0.9413433E-01
       -1   -1    0    0    0  501  0.00000000000E+00  0.00000000000E+00  0.12957388399E+03  0.12957388408E+03  0.50400001928E-02 0.  1.
        1   -1    0    0  501    0  0.00000000000E+00  0.00000000000E+00 -0.15969795277E+04  0.15969795277E+04  0.50400001928E-02 0. -1.
    10030    2    1    2    0    0  0.00000000000E+00  0.00000000000E+00 -0.14674056437E+04  0.17265534117E+04  0.90978423845E+03 0.  0.
        2    1    3    3  502    0 -0.79564908524E+02  0.44507909366E+03 -0.82860732216E+03  0.94393647489E+03  0.25500000920E-02 0.  1.
       -2    1    3    3    0  502  0.79564908524E+02 -0.44507909366E+03 -0.63879832151E+03  0.78261693685E+03  0.25500000920E-02 0. -1.
</event>
<event>
 5   0  0.1436000E-03  0.8920246E+03  0.7818609E-02  0.9435606E-01
        3   -1    0    0  501    0  0.00000000000E+00  0.00000000000E+00  0.26208258878E+03  0.26208260824E+03  0.10100000352E+00 0. -1.
       -3   -1    0    0    0  501  0.00000000000E+00  0.00000000000E+00 -0.75902401470E+03  0.75902402142E+03  0.10100000352E+00 0.  1.
    10030    2    1    2    0    0  0.00000000000E+00  0.00000000000E+00 -0.49694142591E+03  0.10211066297E+04  0.89202464559E+03 0.  0.
        4    1    3    3  502    0 -0.20226149316E+03  0.18088483096E+03  0.15672369624E+03  0.31335756501E+03  0.12699999809E+01 0. -1.
       -4    1    3    3    0  502  0.20226149316E+03 -0.18088483096E+03 -0.65366512216E+03  0.70774906465E+03  0.12699999809E+01 0.  1.
</event>
<event>
 5   0  0.3806019E-03  0.8986733E+03  0.7818609E-02  0.9427241E-01
        2   -1    0    0  501    0  0.00000000000E+00  0.00000000000E+00  0.20075910592E+04  0.20075910592E+04  0.25500000920E-02 0. -1.
       -2   -1    0    0    0  501  0.00000000000E+00  0.00000000000E+00 -0.10056999852E+03  0.10056999855E+03  0.25500000920E-02 0.  1.
    10030    2    1    2    0    0  0.00000000000E+00  0.00000000000E+00  0.19070210607E+04  0.21081610578E+04  0.89867331081E+03 0.  0.
        2    1    3    3  502    0 -0.42734064679E+03  0.91955385154E+02  0.70941028413E+03  0.83326992775E+03  0.25500000920E-02 0.  1.
       -2    1    3    3    0  502  0.42734064679E+03 -0.91955385154E+02  0.11976107766E+04  0.12748911300E+04  0.25500000920E-02 0. -1.
</event>
<event>
 5   0  0.3626546E-03  0.9004216E+03  0.7818609E-02  0.9425055E-01
        2   -1    0    0  501    0  0.00000000000E+00  0.00000000000E+00  0.14276012378E+04  0.14276012378E+04  0.25500000920E-02 0. -1.
       -2   -1    0    0    0  501  0.00000000000E+00  0.00000000000E+00 -0.14197926597E+03  0.14197926599E+03  0.25500000920E-02 0.  1.
    10030    2    1    2    0    0  0.00000000000E+00  0.00000000000E+00  0.12856219718E+04  0.15695805038E+04  0.90042162537E+03 0.  0.
        3    1    3    3  502    0 -0.34017910344E+03 -0.19101470631E+03  0.25115654768E+03  0.46399144613E+03  0.10100000352E+00 0.  1.
       -3    1    3    3    0  502  0.34017910344E+03  0.19101470631E+03  0.10344654242E+04  0.11055890577E+04  0.10100000352E+00 0. -1.
</event>
<event>
 5   0  0.3806019E-03  0.9115291E+03  0.7818609E-02  0.9411283E-01
        2   -1    0    0  501    0  0.00000000000E+00  0.00000000000E+00  0.36940350212E+03  0.36940350213E+03  0.25500000920E-02 0. -1.
       -2   -1    0    0    0  501  0.00000000000E+00  0.00000000000E+00 -0.56231553668E+03  0.56231553668E+03  0.25500000920E-02 0.  1.
    10030    2    1    2    0    0  0.00000000000E+00  0.00000000000E+00 -0.19291203456E+03  0.93171903881E+03  0.91152910771E+03 0.  0.
        2    1    3    3  502    0 -0.33726283173E+03 -0.13983091505E+03 -0.37530325083E+03  0.52359472167E+03  0.25500000920E-02 0.  1.
       -2    1    3    3    0  502  0.33726283173E+03  0.13983091505E+03  0.18239121627E+03  0.40812431715E+03  0.25500000920E-02 0. -1.
</event>
<event>
 5   0  0.2129280E-03  0.9009295E+03  0.7818609E-02  0.9424420E-01
        1   -1    0    0  501    0  0.00000000000E+00  0.00000000000E+00  0.13638841762E+04  0.13638841762E+04  0.50400001928E-02 0.  1.
       -1   -1    0    0    0  501  0.00000000000E+00  0.00000000000E+00 -0.14877984066E+03  0.14877984074E+03  0.50400001928E-02 0. -1.
    10030    2    1    2    0    0  0.00000000000E+00  0.00000000000E+00  0.12151043356E+04  0.15126640170E+04  0.90092945448E+03 0.  0.
        3    1    3    3  502    0 -0.11776235335E+03  0.17082451057E+03 -0.63775373858E+02  0.21706287980E+03  0.10100000352E+00 0. -1.
       -3    1    3    3    0  502  0.11776235335E+03 -0.17082451057E+03  0.12788797094E+04  0.12956011372E+04  0.10100000352E+00 0.  1.
</event>
<event>
 5   0  0.2130975E-03  0.8962473E+03  0.7818609E-02  0.9430285E-01
        1   -1    0    0  501    0  0.00000000000E+00  0.00000000000E+00  0.80904081929E+03  0.80904081931E+03  0.50400001928E-02 0.  1.
       -1   -1    0    0    0  501  0.00000000000E+00  0.00000000000E+00 -0.24821344518E+03  0.24821344523E+03  0.50400001928E-02 0. -1.
    10030    2    1    2    0    0  0.00000000000E+00  0.00000000000E+00  0.56082737411E+03  0.10572542645E+04  0.89624730757E+03 0.  0.
        5    1    3    3  502    0 -0.29213950244E+03  0.14065941584E+03 -0.84442462490E+02  0.33508682400E+03  0.46999998093E+01 0. -1.
       -5    1    3    3    0  502  0.29213950244E+03 -0.14065941584E+03  0.64526983660E+03  0.72216744054E+03  0.46999998093E+01 0.  1.
</event>
<event>
 5   0  0.3815269E-03  0.9045607E+03  0.7818609E-02  0.9419898E-01
       -2   -1    0    0    0  501  0.00000000000E+00  0.00000000000E+00  0.13875373871E+03  0.13875373873E+03  0.25500000920E-02 0. -1.
        2   -1    0    0  501    0  0.00000000000E+00  0.00000000000E+00 -0.14742487273E+04  0.14742487273E+04  0.25500000920E-02 0.  1.
    10030    2    1    2    0    0  0.00000000000E+00  0.00000000000E+00 -0.13354949886E+04  0.16130024660E+04  0.90456071707E+03 0.  0.
        5    1    3    3  502    0  0.21798678453E+03 -0.12953421823E+03  0.27708273914E-01  0.25361278100E+03  0.46999998093E+01 0. -1.
       -5    1    3    3    0  502 -0.21798678453E+03  0.12953421823E+03 -0.13355226968E+04  0.13593896850E+04  0.46999998093E+01 0.  1.
</event>
<event>
 5   0  0.2130975E-03  0.9027660E+03  0.7818609E-02  0.9422130E-01
        1   -1    0    0  501    0  0.00000000000E+00  0.00000000000E+00  0.59093733368E+03  0.59093733370E+03  0.50400001928E-02 0. -1.
       -1   -1    0    0    0  501  0.00000000000E+00  0.00000000000E+00 -0.34478550674E+03  0.34478550678E+03  0.50400001928E-02 0.  1.
    10030    2    1    2    0    0  0.00000000000E+00  0.00000000000E+00  0.24615182693E+03  0.93572284048E+03  0.90276603408E+03 0.  0.
        5    1    3    3  502    0  0.27511391448E+03 -0.94725893275E+02 -0.23457721672E+03  0.37377696745E+03  0.46999998093E+01 0.  1.
       -5    1    3    3    0  502 -0.27511391448E+03  0.94725893275E+02  0.48072904366E+03  0.56194587303E+03  0.46999998093E+01 0. -1.
</event>
<event>
 5   0  0.2074970E-03  0.8997209E+03  0.7818609E-02  0.9425930E-01
       -1   -1    0    0    0  501  0.00000000000E+00  0.00000000000E+00  0.20314730707E+03  0.20314730713E+03  0.50400001928E-02 0. -1.
        1   -1    0    0  501    0  0.00000000000E+00  0.00000000000E+00 -0.99619546624E+03  0.99619546625E+03  0.50400001928E-02 0.  1.
    10030    2    1    2    0    0  0.00000000000E+00  0.00000000000E+00 -0.79304815917E+03  0.11993427734E+04  0.89972090412E+03 0.  0.
        2    1    3    3  502    0 -0.21812157038E+03 -0.36488852975E+03 -0.20036778526E+03  0.46996585832E+03  0.25500000920E-02 0. -1.
       -2    1    3    3    0  502  0.21812157038E+03  0.36488852975E+03 -0.59268037391E+03  0.72937691507E+03  0.25500000920E-02 0.  1.
</event>
<event>
 5   0  0.3815269E-03  0.8986868E+03  0.7818609E-02  0.9427224E-01
        2   -1    0    0  501    0  0.00000000000E+00  0.00000000000E+00  0.63998380487E+03  0.63998380487E+03  0.25500000920E-02 0. -1.
       -2   -1    0    0    0  501  0.00000000000E+00  0.00000000000E+00 -0.31549156265E+03  0.31549156266E+03  0.25500000920E-02 0.  1.
    10030    2    1    2    0    0  0.00000000000E+00  0.00000000000E+00  0.32449224222E+03  0.95547536753E+03  0.89868679900E+03 0.  0.
        5    1    3    3  502    0 -0.23713929770E+03  0.75816512400E+02 -0.23542726357E+03  0.34268247183E+03  0.46999998093E+01 0.  1.
       -5    1    3    3    0  502  0.23713929770E+03 -0.75816512400E+02  0.55991950579E+03  0.61279289571E+03  0.46999998093E+01 0. -1.
</event>
<event>
 5   0  0.2134145E-03  0.9001940E+03  0.7818609E-02  0.9425339E-01
       -1   -1    0    0    0  501  0.00000000000E+00  0.00000000000E+00  0.41493007355E+03  0.41493007358E+03  0.50400001928E-02 0. -1.
        1   -1    0    0  501    0  0.00000000000E+00  0.00000000000E+00 -0.48824449329E+03  0.48824449331E+03  0.50400001928E-02 0.  1.
    10030    2    1    2    0    0  0.00000000000E+00  0.00000000000E+00 -0.73314419740E+02  0.90317456689E+03  0.90019403138E+03 0.  0.
        1    1    3    3  502    0 -0.25529817690E+02 -0.33038873104E+01  0.41419087065E+03  0.41499007774E+03  0.50400001928E-02 0. -1.
       -1    1    3    3    0  502  0.25529817690E+02  0.33038873104E+01 -0.48750529039E+03  0.48818448915E+03  0.50400001928E-02 0.  1.
</event>
<event>
 5   0  0.3626546E-03  0.9028527E+03  0.7818609E-02  0.9422022E-01
       -2   -1    0    0    0  501  0.00000000000E+00  0.00000000000E+00  0.11235506817E+03  0.11235506820E+03  0.25500000920E-02 0. -1.
        2   -1    0    0  501    0  0.00000000000E+00  0.00000000000E+00 -0.18137654817E+04  0.18137654817E+04  0.25500000920E-02 0.  1.
    10030    2    1    2    0    0  0.00000000000E+00  0.00000000000E+00 -0.17014104136E+04  0.19261205499E+04  0.90285268872E+03 0.  0.
        3    1    3    3  502    0 -0.23440922505E+03 -0.30300498609E+03 -0.13601570405E+04  0.14130771003E+04  0.10100000352E+00 0.  1.
       -3    1    3    3    0  502  0.23440922505E+03  0.30300498609E+03 -0.34125337307E+03  0.51304344964E+03  0.10100000352E+00 0. -1.
</event>
<event>
 5   0  0.3685879E-03  0.9005207E+03  0.7818609E-02  0.9424931E-01
        2   -1    0    0  501    0  0.00000000000E+00  0.00000000000E+00  0.10735070283E+04  0.10735070283E+04  0.25500000920E-02 0.  1.
       -2   -1    0    0    0  501  0.00000000000E+00  0.00000000000E+00 -0.18885240022E+03  0.18885240024E+03  0.25500000920E-02 0. -1.
    10030    2    1    2    0    0  0.00000000000E+00  0.00000000000E+00  0.88465462806E+03  0.12623594285E+04  0.90052069151E+03 0.  0.
        1    1    3    3  502    0 -0.69675405138E+02 -0.12567157747E+02  0.10656552502E+04  0.10680045449E+04  0.50400001928E-02 0.  1.
       -1    1    3    3    0  502  0.69675405138E+02  0.12567157747E+02 -0.18100062218E+03  0.19435488363E+03  0.50400001928E-02 0. -1.
</event>
<event>
 5   0  0.3626546E-03  0.9119368E+03  0.7818609E-02  0.9410782E-01
       -2   -1    0    0    0  501  0.00000000000E+00  0.00000000000E+00  0.56044405858E+03  0.56044405858E+03  0.25500000920E-02 0.  1.
        2   -1    0    0  501    0  0.00000000000E+00  0.00000000000E+00 -0.37096862460E+03  0.37096862461E+03  0.25500000920E-02 0. -1.
    10030    2    1    2    0    0  0.00000000000E+00  0.00000000000E+00  0.18947543397E+03  0.93141268320E+03  0.91193675567E+03 0.  0.
        3    1    3    3  502    0 -0.26913724764E+03 -0.18905733440E+03 -0.22780668155E+03  0.40009177462E+03  0.10100000352E+00 0. -1.
       -3    1    3    3    0  502  0.26913724764E+03  0.18905733440E+03  0.41728211552E+03  0.53132090858E+03  0.10100000352E+00 0.  1.
</event>
<event>
 5   0  0.2074970E-03  0.9029742E+03  0.7818609E-02  0.9421871E-01
       -1   -1    0    0    0  501  0.00000000000E+00  0.00000000000E+00  0.19706366256E+03  0.19706366262E+03  0.50400001928E-02 0.  1.
        1   -1    0    0  501    0  0.00000000000E+00  0.00000000000E+00 -0.10343894914E+04  0.10343894914E+04  0.50400001928E-02 0. -1.
    10030    2    1    2    0    0  0.00000000000E+00  0.00000000000E+00 -0.83732582888E+03  0.12314531541E+04  0.90297415631E+03 0.  0.
        2    1    3    3  502    0 -0.25367163625E+03  0.29814972671E+03 -0.72543041614E+03  0.82431295467E+03  0.25500000920E-02 0. -1.
       -2    1    3    3    0  502  0.25367163625E+03 -0.29814972671E+03 -0.11189541274E+03  0.40714019940E+03  0.25500000920E-02 0.  1.
</event>
<event>
 5   0  0.3663255E-03  0.9023250E+03  0.7818609E-02  0.9422680E-01
        2   -1    0    0  501    0  0.00000000000E+00  0.00000000000E+00  0.16766643365E+04  0.16766643365E+04  0.25500000920E-02 0. -1.
       -2   -1    0    0    0  501  0.00000000000E+00  0.00000000000E+00 -0.12140034074E+03  0.12140034077E+03  0.25500000920E-02 0.  1.
    10030    2    1    2    0    0  0.00000000000E+00  0.00000000000E+00  0.15552639958E+04  0.17980646773E+04  0.90232504516E+03 0.  0.
        4    1    3    3  502    0  0.44658158544E+03  0.45445151077E+02  0.86775929268E+03  0.97698934341E+03  0.12699999809E+01 0. -1.
       -4    1    3    3    0  502 -0.44658158544E+03 -0.45445151077E+02  0.68750470308E+03  0.82107533385E+03  0.12699999809E+01 0.  1.
</event>
<event>
 5   0  0.2130975E-03  0.9034859E+03  0.7818609E-02  0.9421234E-01
       -1   -1    0    0    0  501  0.00000000000E+00  0.00000000000E+00  0.22567424994E+03  0.22567425000E+03  0.50400001928E-02 0. -1.
        1   -1    0    0  501    0  0.00000000000E+00  0.00000000000E+00 -0.90427547494E+03  0.90427547495E+03  0.50400001928E-02 0.  1.
    10030    2    1    2    0    0  0.00000000000E+00  0.00000000000E+00 -0.67860122499E+03  0.11299497250E+04  0.90348589273E+03 0.  0.
        5    1    3    3  502    0  0.86561052802E+02 -0.17947929494E+03  0.16770717172E+03  0.26048688761E+03  0.46999998093E+01 0. -1.
       -5    1    3    3    0  502 -0.86561052802E+02  0.17947929494E+03 -0.84630839671E+03  0.86946283734E+03  0.46999998093E+01 0.  1.
</event>
<event>
 5   0  0.1436000E-03  0.9077126E+03  0.7818609E-02  0.9415991E-01
       -4   -1    0    0    0  501  0.00000000000E+00  0.00000000000E+00  0.85652886638E+03  0.85652980791E+03  0.12699999809E+01 0. -1.
        4   -1    0    0  501    0  0.00000000000E+00  0.00000000000E+00 -0.24048600290E+03  0.24048935630E+03  0.12699999809E+01 0.  1.
    10030    2    1    2    0    0  0.00000000000E+00  0.00000000000E+00  0.61604286347E+03  0.10970191642E+04  0.90771264010E+03 0.  0.
        3    1    3    3  502    0 -0.94383622705E+02  0.46479243179E+02 -0.22554763884E+03  0.24887815466E+03  0.10100000352E+00 0.  1.
       -3    1    3    3    0  502  0.94383622705E+02 -0.46479243179E+02  0.84159050232E+03  0.84814100954E+03  0.10100000352E+00 0. -1.
</event>
<event>
 5   0  0.1436000E-03  0.9006078E+03  0.7818609E-02  0.9424822E-01
        3   -1    0    0  501    0  0.00000000000E+00  0.00000000000E+00  0.53596857046E+03  0.53596857997E+03  0.10100000352E+00 0. -1.
       -3   -1    0    0    0  501  0.00000000000E+00  0.00000000000E+00 -0.37833112315E+03  0.37833113663E+03  0.10100000352E+00 0.  1.
    10030    2    1    2    0    0  0.00000000000E+00  0.00000000000E+00  0.15763744731E+03  0.91429971660E+03  0.90060779865E+03 0.  0.
        3    1    3    3  502    0  0.14665943300E+02 -0.38950778666E+03  0.30772884123E+03  0.49661701108E+03  0.10100000352E+00 0. -1.
       -3    1    3    3    0  502 -0.14665943300E+02  0.38950778666E+03 -0.15009139392E+03  0.41768270552E+03  0.10100000352E+00 0.  1.
</event>
<event>
 5   0  0.1436000E-03  0.8984803E+03  0.7818609E-02  0.9427483E-01
        3   -1    0    0  501    0  0.00000000000E+00  0.00000000000E+00  0.16593396907E+04  0.16593396937E+04  0.10100000352E+00 0.  1.
       -3   -1    0    0    0  501  0.00000000000E+00  0.00000000000E+00 -0.12162468765E+03  0.12162472958E+03  0.10100000352E+00 0. -1.
    10030    2    1    2    0    0  0.00000000000E+00  0.00000000000E+00  0.15377150030E+04  0.17809644233E+04  0.89848029841E+03 0.  0.
        3    1    3    3  502    0 -0.93036709644E+01 -0.65062805124E+02 -0.11204310522E+03  0.12989763097E+03  0.10100000352E+00 0. -1.
       -3    1    3    3    0  502  0.93036709644E+01  0.65062805124E+02  0.16497581082E+04  0.16510667924E+04  0.10100000352E+00 0.  1.
</event>
<event>
 5   0  0.1436000E-03  0.9001203E+03  0.7818609E-02  0.9425431E-01
        3   -1    0    0  501    0  0.00000000000E+00  0.00000000000E+00  0.47534193462E+03  0.47534194535E+03  0.10100000352E+00 0.  1.
       -3   -1    0    0    0  501  0.00000000000E+00  0.00000000000E+00 -0.42612301590E+03  0.42612302787E+03  0.10100000352E+00 0. -1.
    10030    2    1    2    0    0  0.00000000000E+00  0.00000000000E+00  0.49218918723E+02  0.90146497322E+03  0.90012032306E+03 0.  0.
        2    1    3    3  502    0  0.21241571470E+03 -0.22325938829E+03  0.35310701430E+03  0.46866806363E+03  0.25500000920E-02 0.  1.
       -2    1    3    3    0  502 -0.21241571470E+03  0.22325938829E+03 -0.30388809558E+03  0.43279690959E+03  0.25500000920E-02 0. -1.
</event>
<event>
 5   0  0.2074970E-03  0.8995638E+03  0.7818609E-02  0.9426127E-01
       -1   -1    0    0    0  501  0.00000000000E+00  0.00000000000E+00  0.13384026035E+03  0.13384026045E+03  0.50400001928E-02 0.  1.
        1   -1    0    0  501    0  0.00000000000E+00  0.00000000000E+00 -0.15115314382E+04  0.15115314382E+04  0.50400001928E-02 0. -1.
    10030    2    1    2    0    0  0.00000000000E+00  0.00000000000E+00 -0.13776911779E+04  0.16453716987E+04  0.89956380832E+03 0.  0.
        2    1    3    3  502    0 -0.34454455903E+03 -0.63631418997E+02 -0.17298143125E+03  0.39074606359E+03  0.25500000920E-02 0.  1.
       -2    1    3    3    0  502  0.34454455903E+03  0.63631418997E+02 -0.12047097466E+04  0.12546256351E+04  0.25500000920E-02 0. -1.
</event>
<event>
 5   0  0.2129280E-03  0.8993529E+03  0.7818609E-02  0.9426391E-01
       -1   -1    0    0    0  501  0.00000000000E+00  0.00000000000E+00  0.15072373471E+03  0.15072373479E+03  0.50400001928E-02 0.  1.
        1   -1    0    0  501    0  0.00000000000E+00  0.00000000000E+00 -0.13415863969E+04  0.13415863969E+04  0.50400001928E-02 0. -1.
    10030    2    1    2    0    0  0.00000000000E+00  0.00000000000E+00 -0.11908626622E+04  0.14923101317E+04  0.89935290570E+03 0.  0.
        3    1    3    3  502    0 -0.40575638811E+03  0.18515828608E+03 -0.50029792014E+03  0.67023865637E+03  0.10100000352E+00 0. -1.
       -3    1    3    3    0  502  0.40575638811E+03 -0.18515828608E+03 -0.69056474209E+03  0.82207147537E+03  0.10100000352E+00 0.  1.
</event>
<event>
 5   0  0.2130975E-03  0.9054647E+03  0.7818609E-02  0.9418776E-01
       -1   -1    0    0    0  501  0.00000000000E+00  0.00000000000E+00  0.48152773783E+03  0.48152773786E+03  0.50400001928E-02 0.  1.
        1   -1    0    0  501    0  0.00000000000E+00  0.00000000000E+00 -0.42565890867E+03  0.42565890870E+03  0.50400001928E-02 0. -1.
    10030    2    1    2    0    0  0.00000000000E+00  0.00000000000E+00  0.55868829162E+02  0.90718664656E+03  0.90546467939E+03 0.  0.
        5    1    3    3  502    0  0.19948738043E+03 -0.20553414323E+03  0.37917919526E+03  0.47522463225E+03  0.46999998093E+01 0.  1.
       -5    1    3    3    0  502 -0.19948738043E+03  0.20553414323E+03 -0.32331036609E+03  0.43196201431E+03  0.46999998093E+01 0. -1.
</event>
<event>
 5   0  0.3815269E-03  0.8824982E+03  0.7818609E-02  0.9447728E-01
        2   -1    0    0  501    0  0.00000000000E+00  0.00000000000E+00  0.18096934718E+04  0.18096934718E+04  0.25500000920E-02 0.  1.
       -2   -1    0    0    0  501  0.00000000000E+00  0.00000000000E+00 -0.10758769468E+03  0.10758769471E+03  0.25500000920E-02 0. -1.
    10030    2    1    2    0    0  0.00000000000E+00  0.00000000000E+00  0.17021057771E+04  0.19172811665E+04  0.88249815576E+03 0.  0.
        5    1    3    3  502    0 -0.11480724543E+03  0.80007443216E+02 -0.58045859862E+02  0.15156947720E+03  0.46999998093E+01 0. -1.
       -5    1    3    3    0  502  0.11480724543E+03 -0.80007443216E+02  0.17601516370E+04  0.17657116893E+04  0.46999998093E+01 0.  1.
</event>
<event>
 5   0  0.2134145E-03  0.9224148E+03  0.7818609E-02  0.9397988E-01
        1   -1    0    0  501    0  0.00000000000E+00  0.00000000000E+00  0.93230483953E+03  0.93230483954E+03  0.50400001928E-02 0.  1.
       -1   -1    0    0    0  501  0.00000000000E+00  0.00000000000E+00 -0.22815740606E+03  0.22815740612E+03  0.50400001928E-02 0. -1.
    10030    2    1    2    0    0  0.00000000000E+00  0.00000000000E+00  0.70414743347E+03  0.11604622457E+04  0.92241477414E+03 0.  0.
        1    1    3    3  502    0  0.39122528548E+03  0.86088125928E+02  0.64517730961E+02  0.40574736852E+03  0.50400001928E-02 0. -1.
       -1    1    3    3    0  502 -0.39122528548E+03 -0.86088125928E+02  0.63962970250E+03  0.75471487714E+03  0.50400001928E-02 0.  1.
</event>
<event>
 5   0  0.2130975E-03  0.8855895E+03  0.7818609E-02  0.9443777E-01
       -1   -1    0    0    0  501  0.00000000000E+00  0.00000000000E+00  0.47213329662E+03  0.47213329664E+03  0.50400001928E-02 0.  1.
        1   -1    0    0  501    0  0.00000000000E+00  0.00000000000E+00 -0.41527928514E+03  0.41527928517E+03  0.50400001928E-02 0. -1.
    10030    2    1    2    0    0  0.00000000000E+00  0.00000000000E+00  0.56854011474E+02  0.88741258182E+03  0.88558947134E+03 0.  0.
        5    1    3    3  502    0 -0.35472661612E+03  0.13208185859E+03  0.25861385326E+03  0.45845371047E+03  0.46999998093E+01 0. -1.
       -5    1    3    3    0  502  0.35472661612E+03 -0.13208185859E+03 -0.20175984179E+03  0.42895887135E+03  0.46999998093E+01 0.  1.
</event>
<event>
 5   0  0.2295158E-03  0.8998797E+03  0.7818609E-02  0.9425732E-01
       -1   -1    0    0    0  501  0.00000000000E+00  0.00000000000E+00  0.39733843815E+03  0.39733843818E+03  0.50400001928E-02 0.  1.
        1   -1    0    0  501    0  0.00000000000E+00  0.00000000000E+00 -0.50950489489E+03  0.50950489492E+03  0.50400001928E-02 0. -1.
    10030    2    1    2    0    0  0.00000000000E+00  0.00000000000E+00 -0.11216645674E+03  0.90684333309E+03  0.89987972350E+03 0.  0.
        4    1    3    3  502    0  0.64108254208E+02 -0.34597173118E+03  0.22651140857E+03  0.41846784601E+03  0.12699999809E+01 0.  1.
       -4    1    3    3    0  502 -0.64108254208E+02  0.34597173118E+03 -0.33867786532E+03  0.48837548708E+03  0.12699999809E+01 0. -1.
</event>
<event>
 5   0  0.2074970E-03  0.9178649E+03  0.7818609E-02  0.9403521E-01
       -1   -1    0    0    0  501  0.00000000000E+00  0.00000000000E+00  0.26782116182E+03  0.26782116187E+03  0.50400001928E-02 0. -1.
        1   -1    0    0  501    0  0.00000000000E+00  0.00000000000E+00 -0.78641654174E+03  0.78641654176E+03  0.50400001928E-02 0.  1.
    10030    2    1    2    0    0  0.00000000000E+00  0.00000000000E+00 -0.51859537992E+03  0.10542377036E+04  0.91786489621E+03 0.  0.
        2    1    3    3  502    0 -0.22433022925E+03 -0.33358714179E+03 -0.51358362151E+03  0.65220592547E+03  0.25500000920E-02 0.  1.
       -2    1    3    3    0  502  0.22433022925E+03  0.33358714179E+03 -0.50117584070E+01  0.40203177816E+03  0.25500000920E-02 0. -1.
</event>
<event>
 5   0  0.3806019E-03  0.8935096E+03  0.7818609E-02  0.9433731E-01
       -2   -1    0    0    0  501  0.00000000000E+00  0.00000000000E+00  0.14631380329E+03  0.14631380332E+03  0.25500000920E-02 0.  1.
        2   -1    0    0  501    0  0.00000000000E+00  0.00000000000E+00 -0.13641218661E+04  0.13641218661E+04  0.25500000920E-02 0. -1.
    10030    2    1    2    0    0  0.00000000000E+00  0.00000000000E+00 -0.12178080628E+04  0.15104356694E+04  0.89350961584E+03 0.  0.
        2    1    3    3  502    0 -0.13438537907E+03  0.41098407125E+03 -0.41898168750E+03  0.60209051761E+03  0.25500000920E-02 0.  1.
       -2    1    3    3    0  502  0.13438537907E+03 -0.41098407125E+03 -0.79882637527E+03  0.90834515178E+03  0.25500000920E-02 0. -1.
</event>
<event>
 5   0  0.3626546E-03  0.9006040E+03  0.7818609E-02  0.9424827E-01
        2   -1    0    0  501    0  0.00000000000E+00  0.00000000000E+00  0.88414348214E+03  0.88414348214E+03  0.25500000920E-02 0. -1.
       -2   -1    0    0    0  501  0.00000000000E+00  0.00000000000E+00 -0.22934272366E+03  0.22934272368E+03  0.25500000920E-02 0.  1.
    10030    2    1    2    0    0  0.00000000000E+00  0.00000000000E+00  0.65480075848E+03  0.11134862058E+04  0.90060396249E+03 0.  0.
        3    1    3    3  502    0  0.48145202846E+02 -0.31030696846E+03  0.72643331807E+03  0.79139986798E+03  0.10100000352E+00 0. -1.
       -3    1    3    3    0  502 -0.48145202846E+02  0.31030696846E+03 -0.71632559593E+02  0.32208633785E+03  0.10100000352E+00 0.  1.
</event>
<event>
 5   0  0.3663255E-03  0.9026668E+03  0.7818609E-02  0.9422254E-01
        2   -1    0    0  501    0  0.00000000000E+00  0.00000000000E+00  0.16606758062E+04  0.16606758062E+04  0.25500000920E-02 0. -1.
       -2   -1    0    0    0  501  0.00000000000E+00  0.00000000000E+00 -0.12266202103E+03  0.12266202105E+03  0.25500000920E-02 0.  1.
    10030    2    1    2    0    0  0.00000000000E+00  0.00000000000E+00  0.15380137852E+04  0.17833378273E+04  0.90266682821E+03 0.  0.
        4    1    3    3  502    0 -0.16653176603E+02  0.24112875720E+03  0.15982918496E+02  0.24223433370E+03  0.12699999809E+01 0.  1.
       -4    1    3    3    0  502  0.16653176603E+02 -0.24112875720E+03  0.15220308667E+04  0.15411034936E+04  0.12699999809E+01 0. -1.
</event>
<event>
 5   0  0.2130975E-03  0.9031826E+03  0.7818609E-02  0.9421612E-01
        1   -1    0    0  501    0  0.00000000000E+00  0.00000000000E+00  0.13460458642E+04  0.13460458642E+04  0.50400001928E-02 0. -1.
       -1   -1    0    0    0  501  0.00000000000E+00  0.00000000000E+00 -0.15150651410E+03  0.15150651418E+03  0.50400001928E-02 0.  1.
    10030    2    1    2    0    0  0.00000000000E+00  0.00000000000E+00  0.11945393501E+04  0.14975523784E+04  0.90318263220E+03 0.  0.
        5    1    3    3  502    0 -0.25963895536E+02  0.45078611386E+03  0.60640907960E+03  0.75606633713E+03  0.46999998093E+01 0. -1.
       -5    1    3    3    0  502  0.25963895536E+02 -0.45078611386E+03  0.58813027053E+03  0.74148604129E+03  0.46999998093E+01 0.  1.
</event>
<event>
 5   0  0.3685879E-03  0.9010215E+03  0.7818609E-02  0.9424305E-01
       -2   -1    0    0    0  501  0.00000000000E+00  0.00000000000E+00  0.19587677852E+03  0.19587677854E+03  0.25500000920E-02 0. -1.
        2   -1    0    0  501    0  0.00000000000E+00  0.00000000000E+00 -0.10361613762E+04  0.10361613762E+04  0.25500000920E-02 0.  1.
    10030    2    1    2    0    0  0.00000000000E+00  0.00000000000E+00 -0.84028459770E+03  0.12320381548E+04  0.90102153673E+03 0.  0.
        1    1    3    3  502    0 -0.40497887177E+03 -0.89325858142E+02 -0.66078922557E+03  0.78014703497E+03  0.50400001928E-02 0.  1.
       -1    1    3    3    0  502  0.40497887177E+03  0.89325858142E+02 -0.17949537213E+03  0.45189111980E+03  0.50400001928E-02 0. -1.
</event>
<event>
 5   0  0.3815269E-03  0.9133456E+03  0.7818609E-02  0.9409051E-01
        2   -1    0    0  501    0  0.00000000000E+00  0.00000000000E+00  0.37992334701E+03  0.37992334702E+03  0.25500000920E-02 0. -1.
       -2   -1    0    0    0  501  0.00000000000E+00  0.00000000000E+00 -0.54892662597E+03  0.54892662598E+03  0.25500000920E-02 0.  1.
    10030    2    1    2    0    0  0.00000000000E+00  0.00000000000E+00 -0.16900327896E+03  0.92884997300E+03  0.91334558850E+03 0.  0.
        5    1    3    3  502    0 -0.19648834250E+03  0.11034693430E+03  0.31941024958E+03  0.39093364167E+03  0.46999998093E+01 0. -1.
       -5    1    3    3    0  502  0.19648834250E+03 -0.11034693430E+03 -0.48841352855E+03  0.53791633133E+03  0.46999998093E+01 0.  1.
</event>
<event>
 5   0  0.2295158E-03  0.9057873E+03  0.7818609E-02  0.9418376E-01
        1   -1    0    0  501    0  0.00000000000E+00  0.00000000000E+00  0.72642376946E+03  0.72642376948E+03  0.50400001928E-02 0. -1.
       -1   -1    0    0    0  501  0.00000000000E+00  0.00000000000E+00 -0.28235949090E+03  0.28235949094E+03  0.50400001928E-02 0.  1.
    10030    2    1    2    0    0  0.00000000000E+00  0.00000000000E+00  0.44406427856E+03  0.10087832604E+04  0.90578727250E+03 0.  0.
        4    1    3    3  502    0 -0.28216452445E+03  0.27376809609E+03 -0.28354874052E+02  0.39417179132E+03  0.12699999809E+01 0.  1.
       -4    1    3    3    0  502  0.28216452445E+03 -0.27376809609E+03  0.47241915261E+03  0.61461146910E+03  0.12699999809E+01 0. -1.
</event>
<event>
 5   0  0.2074970E-03  0.8906641E+03  0.7818609E-02  0.9437328E-01
       -1   -1    0    0    0  501  0.00000000000E+00  0.00000000000E+00  0.36656329005E+03  0.36656329009E+03  0.50400001928E-02 0.  1.
        1   -1    0    0  501    0  0.00000000000E+00  0.00000000000E+00 -0.54102698266E+03  0.54102698268E+03  0.50400001928E-02 0. -1.
    10030    2    1    2    0    0  0.00000000000E+00  0.00000000000E+00 -0.17446369261E+03  0.90759027277E+03  0.89066409111E+03 0.  0.
        2    1    3    3  502    0 -0.70303901563E+02 -0.30121196339E+03  0.23924619884E+03  0.39103711989E+03  0.25500000920E-02 0.  1.
       -2    1    3    3    0  502  0.70303901563E+02  0.30121196339E+03 -0.41370989145E+03  0.51655315288E+03  0.25500000920E-02 0. -1.
</event>
<event>
 5   0  0.2074970E-03  0.8976178E+03  0.7818609E-02  0.9428564E-01
       -1   -1    0    0    0  501  0.00000000000E+00  0.00000000000E+00  0.41899280341E+03  0.41899280344E+03  0.50400001928E-02 0. -1.
        1   -1    0    0  501    0  0.00000000000E+00  0.00000000000E+00 -0.48074676762E+03  0.48074676765E+03  0.50400001928E-02 0.  1.
    10030    2    1    2    0    0  0.00000000000E+00  0.00000000000E+00 -0.61753964217E+02  0.89973957109E+03  0.89761781605E+03 0.  0.
        2    1    3    3  502    0 -0.23329059126E+03 -0.38015579231E+03  0.19105799351E+02  0.44643919852E+03  0.25500000920E-02 0. -1.
       -2    1    3    3    0  502  0.23329059126E+03  0.38015579231E+03 -0.80859763567E+02  0.45330037257E+03  0.25500000920E-02 0.  1.
</event>
<event>
 5   0  0.2129280E-03  0.8994517E+03  0.7818609E-02  0.9426267E-01
        1   -1    0    0  501    0  0.00000000000E+00  0.00000000000E+00  0.91249865258E+03  0.91249865259E+03  0.50400001928E-02 0.  1.
       -1   -1    0    0    0  501  0.00000000000E+00  0.00000000000E+00 -0.22164783823E+03  0.22164783829E+03  0.50400001928E-02 0. -1.
    10030    2    1    2    0    0  0.00000000000E+00  0.00000000000E+00  0.69085081434E+03  0.11341464909E+04  0.89945173028E+03 0.  0.
        3    1    3    3  502    0  0.35171755627E+03  0.21649879395E+03  0.56984410561E+03  0.70377502234E+03  0.10100000352E+00 0.  1.
       -3    1    3    3    0  502 -0.35171755627E+03 -0.21649879395E+03  0.12100670873E+03  0.43037146854E+03  0.10100000352E+00 0. -1.
</event>
<event>
 5   0  0.2074970E-03  0.9030559E+03  0.7818609E-02  0.9421769E-01
        1   -1    0    0  501    0  0.00000000000E+00  0.00000000000E+00  0.11751195562E+04  0.11751195562E+04  0.50400001928E-02 0. -1.
       -1   -1    0    0    0  501  0.00000000000E+00  0.00000000000E+00 -0.17349509830E+03  0.17349509838E+03  0.50400001928E-02 0.  1.
    10030    2    1    2    0    0  0.00000000000E+00  0.00000000000E+00  0.10016244579E+04  0.13486146546E+04  0.90305588526E+03 0.  0.
        2    1    3    3  502    0 -0.43504147102E+03 -0.42730190654E+02  0.66970752579E+03  0.79974691047E+03  0.25500000920E-02 0. -1.
       -2    1    3    3    0  502  0.43504147102E+03  0.42730190654E+02  0.33191693210E+03  0.54886774411E+03  0.25500000920E-02 0.  1.
</event>
<event>
 5   0  0.3806019E-03  0.9008466E+03  0.7818609E-02  0.9424524E-01
        2   -1    0    0  501    0  0.00000000000E+00  0.00000000000E+00  0.76623234191E+03  0.76623234191E+03  0.25500000920E-02 0. -1.
       -2   -1    0    0    0  501  0.00000000000E+00  0.00000000000E+00 -0.26477756657E+03  0.26477756658E+03  0.25500000920E-02 0.  1.
    10030    2    1    2    0    0  0.00000000000E+00  0.00000000000E+00  0.50145477534E+03  0.10310099085E+04  0.90084656835E+03 0.  0.
        2    1    3    3  502    0  0.34756887393E+03 -0.28286694592E+03  0.30271424798E+03  0.54078992886E+03  0.25500000920E-02 0. -1.
       -2    1    3    3    0  502 -0.34756887393E+03  0.28286694592E+03  0.19874052736E+03  0.49021997964E+03  0.25500000920E-02 0.  1.
</event>
<event>
 5   0  0.3806019E-03  0.8996203E+03  0.7818609E-02  0.9426056E-01
       -2   -1    0    0    0  501  0.00000000000E+00  0.00000000000E+00  0.22267897163E+03  0.22267897164E+03  0.25500000920E-02 0. -1.
        2   -1    0    0  501    0  0.00000000000E+00  0.00000000000E+00 -0.90861381365E+03  0.90861381365E+03  0.25500000920E-02 0.  1.
    10030    2    1    2    0    0  0.00000000000E+00  0.00000000000E+00 -0.68593484202E+03  0.11312927853E+04  0.89962034135E+03 0.  0.
        2    1    3    3  502    0 -0.28376143641E+03 -0.11324666183E+03 -0.75810952752E+03  0.81735880427E+03  0.25500000920E-02 0.  1.
       -2    1    3    3    0  502  0.28376143641E+03  0.11324666183E+03  0.72174685496E+02  0.31393398102E+03  0.25500000920E-02 0. -1.
</event>
<event>
 5   0  0.3626546E-03  0.9093460E+03  0.7818609E-02  0.9413973E-01
       -2   -1    0    0    0  501  0.00000000000E+00  0.00000000000E+00  0.33296036826E+03  0.33296036827E+03  0.25500000920E-02 0. -1.
        2   -1    0    0  501    0  0.00000000000E+00  0.00000000000E+00 -0.62087728229E+03  0.62087728229E+03  0.25500000920E-02 0.  1.
    10030    2    1    2    0    0  0.00000000000E+00  0.00000000000E+00 -0.28791691403E+03  0.95383765056E+03  0.90934598159E+03 0.  0.
        3    1    3    3  502    0  0.22512451863E+03  0.39345420245E+03 -0.10701804920E+03  0.46576832371E+03  0.10100000352E+00 0. -1.
       -3    1    3    3    0  502 -0.22512451863E+03 -0.39345420245E+03 -0.18089886483E+03  0.48806932685E+03  0.10100000352E+00 0.  1.
</event>
<event>
 5   0  0.1436000E-03  0.9060186E+03  0.7818609E-02  0.9418089E-01
       -3   -1    0    0    0  501  0.00000000000E+00  0.00000000000E+00  0.46771553126E+03  0.46771554216E+03  0.10100000352E+00 0.  1.
        3   -1    0    0  501    0  0.00000000000E+00  0.00000000000E+00 -0.43876547370E+03  0.43876548532E+03  0.10100000352E+00 0. -1.
    10030    2    1    2    0    0  0.00000000000E+00  0.00000000000E+00  0.28950057559E+02  0.90648102749E+03  0.90601862418E+03 0.  0.
        3    1    3    3  502    0  0.16343801953E+03  0.21054321103E+03 -0.35201370373E+03  0.44153605488E+03  0.10100000352E+00 0. -1.
       -3    1    3    3    0  502 -0.16343801953E+03 -0.21054321103E+03  0.38096376129E+03  0.46494497261E+03  0.10100000352E+00 0.  1.
</event>
<event>
 5   0  0.2134145E-03  0.9452195E+03  0.7818609E-02  0.9370756E-01
       -1   -1    0    0    0  501  0.00000000000E+00  0.00000000000E+00  0.66199308400E+03  0.66199308402E+03  0.50400001928E-02 0. -1.
        1   -1    0    0  501    0  0.00000000000E+00  0.00000000000E+00 -0.33740527845E+03  0.33740527849E+03  0.50400001928E-02 0.  1.
    10030    2    1    2    0    0  0.00000000000E+00  0.00000000000E+00  0.32458780554E+03  0.99939836251E+03  0.94521946842E+03 0.  0.
        1    1    3    3  502    0  0.27249335771E+03 -0.22232292207E+03 -0.17152402858E+03  0.39128072286E+03  0.50400001928E-02 0.  1.
       -1    1    3    3    0  502 -0.27249335771E+03  0.22232292207E+03  0.49611183412E+03  0.60811763965E+03  0.50400001928E-02 0. -1.
</event>
<event>
 5   0  0.2074970E-03  0.9068690E+03  0.7818609E-02  0.9417035E-01
       -1   -1    0    0    0  501  0.00000000000E+00  0.00000000000E+00  0.44193218208E+03  0.44193218211E+03  0.50400001928E-02 0. -1.
        1   -1    0    0  501    0  0.00000000000E+00  0.00000000000E+00 -0.46523618002E+03  0.46523618005E+03  0.50400001928E-02 0.  1.
    10030    2    1    2    0    0  0.00000000000E+00  0.00000000000E+00 -0.23303997940E+02  0.90716836215E+03  0.90686898777E+03 0.  0.
        2    1    3    3  502    0  0.38197927807E+03 -0.19774196789E+03 -0.15520123744E+03  0.45727177789E+03  0.25500000920E-02 0.  1.
       -2    1    3    3    0  502 -0.38197927807E+03  0.19774196789E+03  0.13189723950E+03  0.44989658427E+03  0.25500000920E-02 0. -1.
</event>
<event>
 5   0  0.2074970E-03  0.8812666E+03  0.7818609E-02  0.9449307E-01
        1   -1    0    0  501    0  0.00000000000E+00  0.00000000000E+00  0.56116488121E+03  0.56116488123E+03  0.50400001928E-02 0.  1.
       -1   -1    0    0    0  501  0.00000000000E+00  0.00000000000E+00 -0.34599050172E+03  0.34599050176E+03  0.50400001928E-02 0. -1.
    10030    2    1    2    0    0  0.00000000000E+00  0.00000000000E+00  0.21517437948E+03  0.90715538299E+03  0.88126663121E+03 0.  0.
        2    1    3    3  502    0 -0.65350756000E+02  0.31804385274E+03  0.41422244787E+03  0.52631060212E+03  0.25500000920E-02 0.  1.
       -2    1    3    3    0  502  0.65350756000E+02 -0.31804385274E+03 -0.19904806839E+03  0.38084478086E+03  0.25500000920E-02 0. -1.
</event>
<event>
 5   0  0.3626546E-03  0.8995399E+03  0.7818609E-02  0.9426157E-01
        2   -1    0    0  501    0  0.00000000000E+00  0.00000000000E+00  0.31967716978E+03  0.31967716979E+03  0.25500000920E-02 0.  1.
       -2   -1    0    0    0  501  0.00000000000E+00  0.00000000000E+00 -0.63280402500E+03  0.63280402500E+03  0.25500000920E-02 0. -1.
    10030    2    1    2    0    0  0.00000000000E+00  0.00000000000E+00 -0.31312685521E+03  0.95248119479E+03  0.89953988182E+03 0.  0.
        3    1    3    3  502    0  0.33809426381E+03 -0.22792263708E+03  0.44441853905E+02  0.41016039337E+03  0.10100000352E+00 0.  1.
       -3    1    3    3    0  502 -0.33809426381E+03  0.22792263708E+03 -0.35756870912E+03  0.54232080142E+03  0.10100000352E+00 0. -1.
</event>
<event>
 5   0  0.3806019E-03  0.8992532E+03  0.7818609E-02  0.9426515E-01
       -2   -1    0    0    0  501  0.00000000000E+00  0.00000000000E+00  0.96301664636E+03  0.96301664637E+03  0.25500000920E-02 0. -1.
        2   -1    0    0  501    0  0.00000000000E+00  0.00000000000E+00 -0.20992791844E+03  0.20992791845E+03  0.25500000920E-02 0.  1.
    10030    2    1    2    0    0  0.00000000000E+00  0.00000000000E+00  0.75308872793E+03  0.11729445648E+04  0.89925320128E+03 0.  0.
        2    1    3    3  502    0  0.23054806511E+03 -0.16223585514E+03 -0.80335687788E+02  0.29313257369E+03  0.25500000920E-02 0.  1.
       -2    1    3    3    0  502 -0.23054806511E+03  0.16223585514E+03  0.83342441572E+03  0.87981199113E+03  0.25500000920E-02 0. -1.
</event>
<event>
 5   0  0.3806019E-03  0.8956641E+03  0.7818609E-02  0.9431018E-01
        2   -1    0    0  501    0  0.00000000000E+00  0.00000000000E+00  0.15836673220E+04  0.15836673220E+04  0.25500000920E-02 0.  1.
       -2   -1    0    0    0  501  0.00000000000E+00  0.00000000000E+00 -0.12663868190E+03  0.12663868192E+03  0.25500000920E-02 0. -1.
    10030    2    1    2    0    0  0.00000000000E+00  0.00000000000E+00  0.14570286401E+04  0.17103060039E+04  0.89566409384E+03 0.  0.
        2    1    3    3  502    0  0.38203638569E+03  0.63406187538E+02  0.29905298606E+03  0.48929013181E+03  0.25500000920E-02 0. -1.
       -2    1    3    3    0  502 -0.38203638569E+03 -0.63406187538E+02  0.11579756541E+04  0.12210158721E+04  0.25500000920E-02 0.  1.
</event>
<event>
 5   0  0.2295158E-03  0.8965373E+03  0.7818609E-02  0.9429920E-01
        1   -1    0    0  501    0  0.00000000000E+00  0.00000000000E+00  0.62371072404E+03  0.62371072406E+03  0.50400001928E-02 0.  1.
       -1   -1    0    0    0  501  0.00000000000E+00  0.00000000000E+00 -0.32217621624E+03  0.32217621628E+03  0.50400001928E-02 0. -1.
    10030    2    1    2    0    0  0.00000000000E+00  0.00000000000E+00  0.30153450780E+03  0.94588694035E+03  0.89653725217E+03 0.  0.
        4    1    3    3  502    0  0.26813733177E+03  0.85580237238E+02  0.51885775758E+03  0.59028517785E+03  0.12699999809E+01 0.  1.
       -4    1    3    3    0  502 -0.26813733177E+03 -0.85580237238E+02 -0.21732324978E+03  0.35560176249E+03  0.12699999809E+01 0. -1.
</event>
<event>
 5   0  0.2130975E-03  0.8799694E+03  0.7818609E-02  0.9450973E-01
        1   -1    0    0  501    0  0.00000000000E+00  0.00000000000E+00  0.49288604176E+03  0.49288604179E+03  0.50400001928E-02 0.  1.
       -1   -1    0    0    0  501  0.00000000000E+00  0.00000000000E+00 -0.39276126893E+03  0.39276126897E+03  0.50400001928E-02 0. -1.
    10030    2    1    2    0    0  0.00000000000E+00  0.00000000000E+00  0.10012477283E+03  0.88564731075E+03  0.87996942499E+03 0.  0.
        5    1    3    3  502    0  0.44373633831E+02 -0.19223761780E+03 -0.34571806301E+03  0.39807962792E+03  0.46999998093E+01 0. -1.
       -5    1    3    3    0  502 -0.44373633831E+02  0.19223761780E+03  0.44584283584E+03  0.48756768283E+03  0.46999998093E+01 0.  1.
</event>
<event>
 5   0  0.3685879E-03  0.8973749E+03  0.7818609E-02  0.9428869E-01
       -2   -1    0    0    0  501  0.00000000000E+00  0.00000000000E+00  0.94673859233E+03  0.94673859234E+03  0.25500000920E-02 0.  1.
        2   -1    0    0  501    0  0.00000000000E+00  0.00000000000E+00 -0.21264625570E+03  0.21264625571E+03  0.25500000920E-02 0. -1.
    10030    2    1    2    0    0  0.00000000000E+00  0.00000000000E+00  0.73409233664E+03  0.11593848480E+04  0.89737487550E+03 0.  0.
        1    1    3    3  502    0 -0.26429212752E+03 -0.18948545378E+01 -0.10140169326E+03  0.28308341980E+03  0.50400001928E-02 0. -1.
       -1    1    3    3    0  502  0.26429212752E+03  0.18948545378E+01  0.83549402989E+03  0.87630142825E+03  0.50400001928E-02 0.  1.
</event>
<event>
 5   0  0.3626546E-03  0.9071797E+03  0.7818609E-02  0.9416651E-01
       -2   -1    0    0    0  501  0.00000000000E+00  0.00000000000E+00  0.27007881578E+03  0.27007881580E+03  0.25500000920E-02 0. -1.
        2   -1    0    0  501    0  0.00000000000E+00  0.00000000000E+00 -0.76179159439E+03  0.76179159439E+03  0.25500000920E-02 0.  1.
    10030    2    1    2    0    0  0.00000000000E+00  0.00000000000E+00 -0.49171277860E+03  0.10318704102E+04  0.90717974337E+03 0.  0.
        3    1    3    3  502    0  0.32868681617E+03 -0.98232615846E+02  0.91678690200E+02  0.35509106209E+03  0.10100000352E+00 0.  1.
       -3    1    3    3    0  502 -0.32868681617E+03  0.98232615846E+02 -0.58339146881E+03  0.67677934810E+03  0.10100000352E+00 0. -1.
</event>
<event>
 5   0  0.1436000E-03  0.8986112E+03  0.7818609E-02  0.9427319E-01
        4   -1    0    0  501    0  0.00000000000E+00  0.00000000000E+00  0.45086122641E+03  0.45086301509E+03  0.12699999809E+01 0.  1.
       -4   -1    0    0    0  501  0.00000000000E+00  0.00000000000E+00 -0.44775178451E+03  0.44775358561E+03  0.12699999809E+01 0. -1.
    10030    2    1    2    0    0  0.00000000000E+00  0.00000000000E+00  0.31094418994E+01  0.89861660071E+03  0.89861122096E+03 0.  0.
        5    1    3    3  502    0 -0.25650509936E+03 -0.29897232945E+03 -0.21448851706E+03  0.44856073582E+03  0.46999998093E+01 0. -1.
       -5    1    3    3    0  502  0.25650509936E+03  0.29897232945E+03  0.21759795896E+03  0.45005586488E+03  0.46999998093E+01 0.  1.
</event>
<event>
 5   0  0.3626546E-03  0.8962968E+03  0.7818609E-02  0.9430222E-01
       -2   -1    0    0    0  501  0.00000000000E+00  0.00000000000E+00  0.58374776864E+03  0.58374776865E+03  0.25500000920E-02 0.  1.
        2   -1    0    0  501    0  0.00000000000E+00  0.00000000000E+00 -0.34404753394E+03  0.34404753395E+03  0.25500000920E-02 0. -1.
    10030    2    1    2    0    0  0.00000000000E+00  0.00000000000E+00  0.23970023471E+03  0.92779530259E+03  0.89629678176E+03 0.  0.
        3    1    3    3  502    0  0.13935105659E+03  0.22697284983E+03  0.49293490956E+03  0.56028584383E+03  0.10100000352E+00 0.  1.
       -3    1    3    3    0  502 -0.13935105659E+03 -0.22697284983E+03 -0.25323467485E+03  0.36750945876E+03  0.10100000352E+00 0. -1.
</event>
<event>
 5   0  0.3806019E-03  0.8461529E+03  0.7818609E-02  0.9495515E-01
        2   -1    0    0  501    0  0.00000000000E+00  0.00000000000E+00  0.15402285557E+04  0.15402285557E+04  0.25500000920E-02 0. -1.
       -2   -1    0    0    0  501  0.00000000000E+00  0.00000000000E+00 -0.11621240518E+03  0.11621240521E+03  0.25500000920E-02 0.  1.
    10030    2    1    2    0    0  0.00000000000E+00  0.00000000000E+00  0.14240161505E+04  0.16564409609E+04  0.84615285856E+03 0.  0.
        2    1    3    3  502    0  0.44374044551E+02 -0.40158003980E+03  0.46626640994E+03  0.61696024932E+03  0.25500000920E-02 0.  1.
       -2    1    3    3    0  502 -0.44374044551E+02  0.40158003980E+03  0.95774974055E+03  0.10394807116E+04  0.25500000920E-02 0. -1.
</event>
<event>
 5   0  0.3815269E-03  0.8985875E+03  0.7818609E-02  0.9427349E-01
       -2   -1    0    0    0  501  0.00000000000E+00  0.00000000000E+00  0.32294362075E+03  0.32294362076E+03  0.25500000920E-02 0.  1.
        2   -1    0    0  501    0  0.00000000000E+00  0.00000000000E+00 -0.62507768811E+03  0.62507768811E+03  0.25500000920E-02 0. -1.
    10030    2    1    2    0    0  0.00000000000E+00  0.00000000000E+00 -0.30213406736E+03  0.94802130887E+03  0.89858745118E+03 0.  0.
        5    1    3    3  502    0  0.12155318633E+03 -0.31831589825E+03 -0.45999413359E+03  0.57246561567E+03  0.46999998093E+01 0. -1.
       -5    1    3    3    0  502 -0.12155318633E+03  0.31831589825E+03  0.15786006624E+03  0.37555569320E+03  0.46999998093E+01 0.  1.
</event>
<event>
 5   0  0.2129280E-03  0.9077338E+03  0.7818609E-02  0.9415965E-01
       -1   -1    0    0    0  501  0.00000000000E+00  0.00000000000E+00  0.23656549562E+03  0.23656549567E+03  0.50400001928E-02 0.  1.
        1   -1    0    0  501    0  0.00000000000E+00  0.00000000000E+00 -0.87077438574E+03  0.87077438576E+03  0.50400001928E-02 0. -1.
    10030    2    1    2    0    0  0.00000000000E+00  0.00000000000E+00 -0.63420889013E+03  0.11073398814E+04  0.90773382480E+03 0.  0.
        3    1    3    3  502    0 -0.16664125912E+02  0.66542179810E+02  0.23020519925E+03  0.24020824038E+03  0.10100000352E+00 0.  1.
       -3    1    3    3    0  502  0.16664125912E+02 -0.66542179810E+02 -0.86441408937E+03  0.86713164104E+03  0.10100000352E+00 0. -1.
</event>
<event>
 5   0  0.2130975E-03  0.9085635E+03  0.7818609E-02  0.9414939E-01
        1   -1    0    0  501    0  0.00000000000E+00  0.00000000000E+00  0.15388071768E+04  0.15388071768E+04  0.50400001928E-02 0.  1.
       -1   -1    0    0    0  501  0.00000000000E+00  0.00000000000E+00 -0.13411161862E+03  0.13411161872E+03  0.50400001928E-02 0. -1.
    10030    2    1    2    0    0  0.00000000000E+00  0.00000000000E+00  0.14046955582E+04  0.16729187955E+04  0.90856352847E+03 0.  0.
        5    1    3    3  502    0 -0.21339589276E+03 -0.38784307490E+03  0.89002976993E+03  0.99404986754E+03  0.46999998093E+01 0.  1.
       -5    1    3    3    0  502  0.21339589276E+03  0.38784307490E+03  0.51466578827E+03  0.67886892800E+03  0.46999998093E+01 0. -1.
</event>
<event>
 5   0  0.3685879E-03  0.9001643E+03  0.7818609E-02  0.9425376E-01
        2   -1    0    0  501    0  0.00000000000E+00  0.00000000000E+00  0.50969598565E+03  0.50969598565E+03  0.25500000920E-02 0.  1.
       -2   -1    0    0    0  501  0.00000000000E+00  0.00000000000E+00 -0.39744076616E+03  0.39744076616E+03  0.25500000920E-02 0. -1.
    10030    2    1    2    0    0  0.00000000000E+00  0.00000000000E+00  0.11225521949E+03  0.90713675182E+03  0.90016434732E+03 0.  0.
        1    1    3    3  502    0 -0.25910779486E+03  0.35539198332E+03 -0.40182789078E+02  0.44165027763E+03  0.50400001928E-02 0. -1.
       -1    1    3    3    0  502  0.25910779486E+03 -0.35539198332E+03  0.15243800857E+03  0.46548647419E+03  0.50400001928E-02 0.  1.
</event>
<event>
 5   0  0.2074970E-03  0.8997241E+03  0.7818609E-02  0.9425926E-01
       -1   -1    0    0    0  501  0.00000000000E+00  0.00000000000E+00  0.28616935993E+03  0.28616935997E+03  0.50400001928E-02 0. -1.
        1   -1    0    0  501    0  0.00000000000E+00  0.00000000000E+00 -0.70718921126E+03  0.70718921128E+03  0.50400001928E-02 0.  1.
    10030    2    1    2    0    0  0.00000000000E+00  0.00000000000E+00 -0.42101985133E+03  0.99335857125E+03  0.89972414432E+03 0.  0.
        2    1    3    3  502    0  0.69461213601E+02 -0.14710262105E+03  0.25255747395E+03  0.30041524424E+03  0.25500000920E-02 0. -1.
       -2    1    3    3    0  502 -0.69461213601E+02  0.14710262105E+03 -0.67357732528E+03  0.69294332702E+03  0.25500000920E-02 0.  1.
</event>
<event>
 5   0  0.3806019E-03  0.8992826E+03  0.7818609E-02  0.9426479E-01
       -2   -1    0    0    0  501  0.00000000000E+00  0.00000000000E+00  0.79520933259E+03  0.79520933259E+03  0.25500000920E-02 0.  1.
        2   -1    0    0  501    0  0.00000000000E+00  0.00000000000E+00 -0.25424414391E+03  0.25424414392E+03  0.25500000920E-02 0. -1.
    10030    2    1    2    0    0  0.00000000000E+00  0.00000000000E+00  0.54096518868E+03  0.10494534765E+04  0.89928263855E+03 0.  0.
        2    1    3    3  502    0  0.40096928836E+03  0.14589076229E+03  0.10496400813E+03  0.43940633557E+03  0.25500000920E-02 0. -1.
       -2    1    3    3    0  502 -0.40096928836E+03 -0.14589076229E+03  0.43600118055E+03  0.61004714094E+03  0.25500000920E-02 0.  1.
</event>
<event>
 5   0  0.2134145E-03  0.9008564E+03  0.7818609E-02  0.9424511E-01
        1   -1    0    0  501    0  0.00000000000E+00  0.00000000000E+00  0.43299847148E+03  0.43299847151E+03  0.50400001928E-02 0. -1.
       -1   -1    0    0    0  501  0.00000000000E+00  0.00000000000E+00 -0.46855955264E+03  0.46855955266E+03  0.50400001928E-02 0.  1.
    10030    2    1    2    0    0  0.00000000000E+00  0.00000000000E+00 -0.35561081157E+02  0.90155802417E+03  0.90085641500E+03 0.  0.
        1    1    3    3  502    0 -0.14130272391E+03  0.12994132510E+03 -0.42557103378E+03  0.46686391226E+03  0.50400001928E-02 0.  1.
       -1    1    3    3    0  502  0.14130272391E+03 -0.12994132510E+03  0.39000995263E+03  0.43469411191E+03  0.50400001928E-02 0. -1.
</event>
<event>
 5   0  0.3663255E-03  0.8988510E+03  0.7818609E-02  0.9427019E-01
        2   -1    0    0  501    0  0.00000000000E+00  0.00000000000E+00  0.27766441871E+03  0.27766441872E+03  0.25500000920E-02 0.  1.
       -2   -1    0    0    0  501  0.00000000000E+00  0.00000000000E+00 -0.72743669468E+03  0.72743669469E+03  0.25500000920E-02 0. -1.
    10030    2    1    2    0    0  0.00000000000E+00  0.00000000000E+00 -0.44977227597E+03  0.10051011134E+04  0.89885101543E+03 0.  0.
        4    1    3    3  502    0  0.15178336671E+03  0.23557914254E+03 -0.61776663095E+03  0.67836048383E+03  0.12699999809E+01 0. -1.
       -4    1    3    3    0  502 -0.15178336671E+03 -0.23557914254E+03  0.16799435498E+03  0.32674062957E+03  0.12699999809E+01 0.  1.
</event>
<event>
 5   0  0.2295158E-03  0.8979017E+03  0.7818609E-02  0.9428208E-01
       -1   -1    0    0    0  501  0.00000000000E+00  0.00000000000E+00  0.43722797458E+03  0.43722797460E+03  0.50400001928E-02 0. -1.
        1   -1    0    0  501    0  0.00000000000E+00  0.00000000000E+00 -0.46098801600E+03  0.46098801602E+03  0.50400001928E-02 0.  1.
    10030    2    1    2    0    0  0.00000000000E+00  0.00000000000E+00 -0.23760041421E+02  0.89821599063E+03  0.89790167961E+03 0.  0.
        4    1    3    3  502    0 -0.17227631675E+03 -0.29211816386E+03  0.28240503195E+03  0.44132342555E+03  0.12699999809E+01 0. -1.
       -4    1    3    3    0  502  0.17227631675E+03  0.29211816386E+03 -0.30616507337E+03  0.45689256508E+03  0.12699999809E+01 0.  1.
</event>
<event>
 5   0  0.1436000E-03  0.9024113E+03  0.7818609E-02  0.9422572E-01
        4   -1    0    0  501    0  0.00000000000E+00  0.00000000000E+00  0.13919371165E+04  0.13919376959E+04  0.12699999809E+01 0. -1.
       -4   -1    0    0    0  501  0.00000000000E+00  0.00000000000E+00 -0.14625794307E+03  0.14626345686E+03  0.12699999809E+01 0.  1.
    10030    2    1    2    0    0  0.00000000000E+00  0.00000000000E+00  0.12456791734E+04  0.15382011527E+04  0.90241131594E+03 0.  0.
        2    1    3    3  502    0  0.15935723171E+03 -0.42140898596E+03  0.58086880835E+03  0.73511144275E+03  0.25500000920E-02 0. -1.
       -2    1    3    3    0  502 -0.15935723171E+03  0.42140898596E+03  0.66481036506E+03  0.80308970996E+03  0.25500000920E-02 0.  1.
</event>
<event>
 5   0  0.2074970E-03  0.9013158E+03  0.7818609E-02  0.9423938E-01
        1   -1    0    0  501    0  0.00000000000E+00  0.00000000000E+00  0.66534395744E+03  0.66534395746E+03  0.50400001928E-02 0.  1.
       -1   -1    0    0    0  501  0.00000000000E+00  0.00000000000E+00 -0.30524442129E+03  0.30524442133E+03  0.50400001928E-02 0. -1.
    10030    2    1    2    0    0  0.00000000000E+00  0.00000000000E+00  0.36009953615E+03  0.97058837879E+03  0.90131577436E+03 0.  0.
        2    1    3    3  502    0 -0.22443979753E+03  0.16436987312E+03  0.56184364199E+03  0.62694414102E+03  0.25500000920E-02 0.  1.
       -2    1    3    3    0  502  0.22443979753E+03 -0.16436987312E+03 -0.20174410584E+03  0.34364423777E+03  0.25500000920E-02 0. -1.
</event>
<event>
 5   0  0.2129280E-03  0.8992704E+03  0.7818609E-02  0.9426494E-01
        1   -1    0    0  501    0  0.00000000000E+00  0.00000000000E+00  0.20675215696E+03  0.20675215702E+03  0.50400001928E-02 0.  1.
       -1   -1    0    0    0  501  0.00000000000E+00  0.00000000000E+00 -0.97784617556E+03  0.97784617557E+03  0.50400001928E-02 0. -1.
    10030    2    1    2    0    0  0.00000000000E+00  0.00000000000E+00 -0.77109401860E+03  0.11845983326E+04  0.89927038430E+03 0.  0.
        3    1    3    3  502    0  0.11193648045E+03  0.14753874223E+03  0.15417854961E+03  0.24097404731E+03  0.10100000352E+00 0.  1.
       -3    1    3    3    0  502 -0.11193648045E+03 -0.14753874223E+03 -0.92527256820E+03  0.94362428529E+03  0.10100000352E+00 0. -1.
</event>
<event>
 5   0  0.3685879E-03  0.9049992E+03  0.7818609E-02  0.9419354E-01
        2   -1    0    0  501    0  0.00000000000E+00  0.00000000000E+00  0.81993517634E+03  0.81993517634E+03  0.25500000920E-02 0.  1.
       -2   -1    0    0    0  501  0.00000000000E+00  0.00000000000E+00 -0.24972201625E+03  0.24972201626E+03  0.25500000920E-02 0. -1.
    10030    2    1    2    0    0  0.00000000000E+00  0.00000000000E+00  0.57021316009E+03  0.10696571926E+04  0.90499915014E+03 0.  0.
        1    1    3    3  502    0 -0.34133020632E+03  0.10498925787E+03  0.61356507329E+03  0.70992334319E+03  0.50400001928E-02 0.  1.
       -1    1    3    3    0  502  0.34133020632E+03 -0.10498925787E+03 -0.43351913204E+02  0.35973384942E+03  0.50400001928E-02 0. -1.
</event>
<event>
 5   0  0.2129280E-03  0.9015422E+03  0.7818609E-02  0.9423656E-01
       -1   -1    0    0    0  501  0.00000000000E+00  0.00000000000E+00  0.29026783255E+03  0.29026783260E+03  0.50400001928E-02 0. -1.
        1   -1    0    0  501    0  0.00000000000E+00  0.00000000000E+00 -0.70002439573E+03  0.70002439575E+03  0.50400001928E-02 0.  1.
    10030    2    1    2    0    0  0.00000000000E+00  0.00000000000E+00 -0.40975656317E+03  0.99029222834E+03  0.90154215456E+03 0.  0.
        3    1    3    3  502    0  0.36847846291E+03  0.21366749954E+02 -0.48912166738E+03  0.61275846085E+03  0.10100000352E+00 0.  1.
       -3    1    3    3    0  502 -0.36847846291E+03 -0.21366749954E+02  0.79365104209E+02  0.37753376750E+03  0.10100000352E+00 0. -1.
</event>
<event>
 5   0  0.3685879E-03  0.8990234E+03  0.7818609E-02  0.9426803E-01
        2   -1    0    0  501    0  0.00000000000E+00  0.00000000000E+00  0.14071829869E+04  0.14071829869E+04  0.25500000920E-02 0.  1.
       -2   -1    0    0    0  501  0.00000000000E+00  0.00000000000E+00 -0.14359238825E+03  0.14359238827E+03  0.25500000920E-02 0. -1.
    10030    2    1    2    0    0  0.00000000000E+00  0.00000000000E+00  0.12635905987E+04  0.15507753752E+04  0.89902339416E+03 0.  0.
        1    1    3    3  502    0  0.44263316494E+03  0.70472174658E+02  0.57278468209E+03  0.72730512041E+03  0.50400001928E-02 0.  1.
       -1    1    3    3    0  502 -0.44263316494E+03 -0.70472174658E+02  0.69080591656E+03  0.82347025477E+03  0.50400001928E-02 0. -1.
</event>
<event>
 5   0  0.2129280E-03  0.9032282E+03  0.7818609E-02  0.9421555E-01
       -1   -1    0    0    0  501  0.00000000000E+00  0.00000000000E+00  0.36679099859E+03  0.36679099862E+03  0.50400001928E-02 0.  1.
        1   -1    0    0  501    0  0.00000000000E+00  0.00000000000E+00 -0.55605322007E+03  0.55605322009E+03  0.50400001928E-02 0. -1.
    10030    2    1    2    0    0  0.00000000000E+00  0.00000000000E+00 -0.18926222148E+03  0.92284421871E+03  0.90322824554E+03 0.  0.
        3    1    3    3  502    0 -0.20750288353E+03 -0.68275744817E+02  0.30922051250E+03  0.37859788636E+03  0.10100000352E+00 0.  1.
       -3    1    3    3    0  502  0.20750288353E+03  0.68275744817E+02 -0.49848273398E+03  0.54424633235E+03  0.10100000352E+00 0. -1.
</event>
<event>
 5   0  0.2130975E-03  0.8600244E+03  0.7818609E-02  0.9476980E-01
        1   -1    0    0  501    0  0.00000000000E+00  0.00000000000E+00  0.73570214668E+03  0.73570214669E+03  0.50400001928E-02 0.  1.
       -1   -1    0    0    0  501  0.00000000000E+00  0.00000000000E+00 -0.25133879918E+03  0.25133879923E+03  0.50400001928E-02 0. -1.
    10030    2    1    2    0    0  0.00000000000E+00  0.00000000000E+00  0.48436334749E+03  0.98704094593E+03  0.86002440462E+03 0.  0.
        5    1    3    3  502    0 -0.26031788629E+03 -0.21775564796E+03  0.54519229715E+03  0.64221464871E+03  0.46999998093E+01 0.  1.
       -5    1    3    3    0  502  0.26031788629E+03  0.21775564796E+03 -0.60828949655E+02  0.34482629722E+03  0.46999998093E+01 0. -1.
</event>
<event>
 5   0  0.3663255E-03  0.9017134E+03  0.7818609E-02  0.9423442E-01
       -2   -1    0    0    0  501  0.00000000000E+00  0.00000000000E+00  0.35825011177E+03  0.35825011178E+03  0.25500000920E-02 0. -1.
        2   -1    0    0  501    0  0.00000000000E+00  0.00000000000E+00 -0.56740179419E+03  0.56740179420E+03  0.25500000920E-02 0.  1.
    10030    2    1    2    0    0  0.00000000000E+00  0.00000000000E+00 -0.20915168243E+03  0.92565190598E+03  0.90171338283E+03 0.  0.
        4    1    3    3  502    0 -0.14750050539E+03  0.28326202969E+03  0.22211220289E+03  0.38901056557E+03  0.12699999809E+01 0. -1.
       -4    1    3    3    0  502  0.14750050539E+03 -0.28326202969E+03 -0.43126388532E+03  0.53664134041E+03  0.12699999809E+01 0.  1.
</event>
<event>
 5   0  0.3806019E-03  0.9021340E+03  0.7818609E-02  0.9422918E-01
        2   -1    0    0  501    0  0.00000000000E+00  0.00000000000E+00  0.42408073541E+03  0.42408073542E+03  0.25500000920E-02 0.  1.
       -2   -1    0    0    0  501  0.00000000000E+00  0.00000000000E+00 -0.47977049927E+03  0.47977049928E+03  0.25500000920E-02 0. -1.
    10030    2    1    2    0    0  0.00000000000E+00  0.00000000000E+00 -0.55689763860E+02  0.90385123469E+03  0.90213397268E+03 0.  0.
        2    1    3    3  502    0  0.42332737905E+03  0.14738312191E+03 -0.78275293918E+02  0.45503282971E+03  0.25500000920E-02 0. -1.
       -2    1    3    3    0  502 -0.42332737905E+03 -0.14738312191E+03  0.22585530058E+02  0.44881840498E+03  0.25500000920E-02 0.  1.
</event>
<event>
 5   0  0.2295158E-03  0.8950095E+03  0.7818609E-02  0.9431841E-01
       -1   -1    0    0    0  501  0.00000000000E+00  0.00000000000E+00  0.52064218750E+03  0.52064218752E+03  0.50400001928E-02 0. -1.
        1   -1    0    0  501    0  0.00000000000E+00  0.00000000000E+00 -0.38464130167E+03  0.38464130171E+03  0.50400001928E-02 0.  1.
    10030    2    1    2    0    0  0.00000000000E+00  0.00000000000E+00  0.13600088582E+03  0.90528348923E+03  0.89500947198E+03 0.  0.
        4    1    3    3  502    0 -0.21469748031E+03 -0.37331312325E+03 -0.55056220443E+02  0.43415492207E+03  0.12699999809E+01 0.  1.
       -4    1    3    3    0  502  0.21469748031E+03  0.37331312325E+03  0.19105710627E+03  0.47112856716E+03  0.12699999809E+01 0. -1.
</event>
<event>
 5   0  0.1436000E-03  0.8746724E+03  0.7818609E-02  0.9457808E-01
       -3   -1    0    0    0  501  0.00000000000E+00  0.00000000000E+00  0.30548362709E+03  0.30548364379E+03  0.10100000352E+00 0. -1.
        3   -1    0    0  501    0  0.00000000000E+00  0.00000000000E+00 -0.62609886608E+03  0.62609887423E+03  0.10100000352E+00 0.  1.
    10030    2    1    2    0    0  0.00000000000E+00  0.00000000000E+00 -0.32061523899E+03  0.93158251802E+03  0.87467242806E+03 0.  0.
        1    1    3    3  502    0  0.27660676612E+03  0.14459681145E+03 -0.48657812359E+03  0.57808114597E+03  0.50400001928E-02 0.  1.
       -1    1    3    3    0  502 -0.27660676612E+03 -0.14459681145E+03  0.16596288460E+03  0.35350137205E+03  0.50400001928E-02 0. -1.
</event>
<event>
 5   0  0.3815269E-03  0.8982167E+03  0.7818609E-02  0.9427813E-01
        2   -1    0    0  501    0  0.00000000000E+00  0.00000000000E+00  0.17738576616E+04  0.17738576616E+04  0.25500000920E-02 0. -1.
       -2   -1    0    0    0  501  0.00000000000E+00  0.00000000000E+00 -0.11370602784E+03  0.11370602787E+03  0.25500000920E-02 0.  1.
    10030    2    1    2    0    0  0.00000000000E+00  0.00000000000E+00  0.16601516337E+04  0.18875636894E+04  0.89821669696E+03 0.  0.
        5    1    3    3  502    0  0.17840897563E+03 -0.40020634878E+03  0.10368460907E+04  0.11256406132E+04  0.46999998093E+01 0.  1.
       -5    1    3    3    0  502 -0.17840897563E+03  0.40020634878E+03  0.62330554297E+03  0.76192307623E+03  0.46999998093E+01 0. -1.
</event>
<event>
 5   0  0.2134145E-03  0.8844079E+03  0.7818609E-02  0.9445285E-01
       -1   -1    0    0    0  501  0.00000000000E+00  0.00000000000E+00  0.14884157922E+03  0.14884157930E+03  0.50400001928E-02 0. -1.
        1   -1    0    0  501    0  0.00000000000E+00  0.00000000000E+00 -0.13137747834E+04  0.13137747834E+04  0.50400001928E-02 0.  1.
    10030    2    1    2    0    0  0.00000000000E+00  0.00000000000E+00 -0.11649332041E+04  0.14626163627E+04  0.88440785515E+03 0.  0.
        1    1    3    3  502    0 -0.28882916769E+03 -0.32810033767E+03 -0.47187092639E+03  0.64322180536E+03  0.50400001928E-02 0. -1.
       -1    1    3    3    0  502  0.28882916769E+03  0.32810033767E+03 -0.69306227774E+03  0.81939455731E+03  0.50400001928E-02 0.  1.
</event>
<event>
 5   0  0.3663255E-03  0.9011795E+03  0.7818609E-02  0.9424108E-01
        2   -1    0    0  501    0  0.00000000000E+00  0.00000000000E+00  0.14870743976E+04  0.14870743976E+04  0.25500000920E-02 0. -1.
       -2   -1    0    0    0  501  0.00000000000E+00  0.00000000000E+00 -0.13653058280E+03  0.13653058283E+03  0.25500000920E-02 0.  1.
    10030    2    1    2    0    0  0.00000000000E+00  0.00000000000E+00  0.13505438148E+04  0.16236049805E+04  0.90117952529E+03 0.  0.
        4    1    3    3  502    0 -0.45013778748E+03  0.82023044941E+01  0.64213850815E+03  0.78424153299E+03  0.12699999809E+01 0. -1.
       -4    1    3    3    0  502  0.45013778748E+03 -0.82023044941E+01  0.70840530666E+03  0.83936344746E+03  0.12699999809E+01 0.  1.
</event>
<event>
 5   0  0.2074970E-03  0.8949916E+03  0.7818609E-02  0.9431864E-01
        1   -1    0    0  501    0  0.00000000000E+00  0.00000000000E+00  0.50784945213E+03  0.50784945216E+03  0.50400001928E-02 0. -1.
       -1   -1    0    0    0  501  0.00000000000E+00  0.00000000000E+00 -0.39431469860E+03  0.39431469863E+03  0.50400001928E-02 0.  1.
    10030    2    1    2    0    0  0.00000000000E+00  0.00000000000E+00  0.11353475353E+03  0.90216415079E+03  0.89499162829E+03 0.  0.
        2    1    3    3  502    0  0.12074643518E+03 -0.21354218569E+02  0.49058459004E+03  0.50567671911E+03  0.25500000920E-02 0. -1.
       -2    1    3    3    0  502 -0.12074643518E+03  0.21354218569E+02 -0.37704983651E+03  0.39648743168E+03  0.25500000920E-02 0.  1.
</event>
<event>
 5   0  0.2074970E-03  0.8635414E+03  0.7818609E-02  0.9472340E-01
       -1   -1    0    0    0  501  0.00000000000E+00  0.00000000000E+00  0.80535894586E+03  0.80535894588E+03  0.50400001928E-02 0. -1.
        1   -1    0    0  501    0  0.00000000000E+00  0.00000000000E+00 -0.23148178184E+03  0.23148178189E+03  0.50400001928E-02 0.  1.
    10030    2    1    2    0    0  0.00000000000E+00  0.00000000000E+00  0.57387716402E+03  0.10368407278E+04  0.86354136865E+03 0.  0.
        2    1    3    3  502    0  0.12408738547E+03 -0.92053081209E+02 -0.19715393033E+03  0.25048177827E+03  0.25500000920E-02 0.  1.
       -2    1    3    3    0  502 -0.12408738547E+03  0.92053081209E+02  0.77103109435E+03  0.78635894950E+03  0.25500000920E-02 0. -1.
</event>
<event>
 5   0  0.3806019E-03  0.9022315E+03  0.7818609E-02  0.9422796E-01
        2   -1    0    0  501    0  0.00000000000E+00  0.00000000000E+00  0.21903060922E+04  0.21903060922E+04  0.25500000920E-02 0.  1.
       -2   -1    0    0    0  501  0.00000000000E+00  0.00000000000E+00 -0.92911862862E+02  0.92911862897E+02  0.25500000920E-02 0. -1.
    10030    2    1    2    0    0  0.00000000000E+00  0.00000000000E+00  0.20973942293E+04  0.22832179551E+04  0.90223149869E+03 0.  0.
        2    1    3    3  502    0  0.18254449645E+03  0.30634031401E+03  0.17478969308E+04  0.17839031818E+04  0.25500000920E-02 0.  1.
       -2    1    3    3    0  502 -0.18254449645E+03 -0.30634031401E+03  0.34949729850E+03  0.49931477331E+03  0.25500000920E-02 0. -1.
</event>
<event>
 5   0  0.2130975E-03  0.8978556E+03  0.7818609E-02  0.9428266E-01
       -1   -1    0    0    0  501  0.00000000000E+00  0.00000000000E+00  0.25983540668E+03  0.25983540673E+03  0.50400001928E-02 0.  1.
        1   -1    0    0  501    0  0.00000000000E+00  0.00000000000E+00 -0.77563006675E+03  0.77563006677E+03  0.50400001928E-02 0. -1.
    10030    2    1    2    0    0  0.00000000000E+00  0.00000000000E+00 -0.51579466007E+03  0.10354654735E+04  0.89785556491E+03 0.  0.
        5    1    3    3  502    0 -0.72884545765E+02 -0.32958117451E+03  0.83395404125E+02  0.34772516594E+03  0.46999998093E+01 0.  1.
       -5    1    3    3    0  502  0.72884545765E+02  0.32958117451E+03 -0.59919006420E+03  0.68774030755E+03  0.46999998093E+01 0. -1.
</event>
<event>
 5   0  0.2295158E-03  0.8983911E+03  0.7818609E-02  0.9427595E-01
       -1   -1    0    0    0  501  0.00000000000E+00  0.00000000000E+00  0.18146943694E+03  0.18146943701E+03  0.50400001928E-02 0. -1.
        1   -1    0    0  501    0  0.00000000000E+00  0.00000000000E+00 -0.11119042659E+04  0.11119042660E+04  0.50400001928E-02 0.  1.
    10030    2    1    2    0    0  0.00000000000E+00  0.00000000000E+00 -0.93043482901E+03  0.12933737030E+04  0.89839109774E+03 0.  0.
        4    1    3    3  502    0  0.39499288615E+03  0.10130963750E+03 -0.19399607494E+03  0.45157403906E+03  0.12699999809E+01 0. -1.
       -4    1    3    3    0  502 -0.39499288615E+03 -0.10130963750E+03 -0.73643875406E+03  0.84179966390E+03  0.12699999809E+01 0.  1.
</event>
<event>
 5   0  0.2130975E-03  0.8959482E+03  0.7818609E-02  0.9430661E-01
        1   -1    0    0  501    0  0.00000000000E+00  0.00000000000E+00  0.69769089098E+03  0.69769089100E+03  0.50400001928E-02 0.  1.
       -1   -1    0    0    0  501  0.00000000000E+00  0.00000000000E+00 -0.28763569774E+03  0.28763569778E+03  0.50400001928E-02 0. -1.
    10030    2    1    2    0    0  0.00000000000E+00  0.00000000000E+00  0.41005519324E+03  0.98532658879E+03  0.89594822678E+03 0.  0.
        5    1    3    3  502    0  0.12834518060E+03  0.29675625285E+03 -0.13593645321E+03  0.35076711405E+03  0.46999998093E+01 0. -1.
       -5    1    3    3    0  502 -0.12834518060E+03 -0.29675625285E+03  0.54599164645E+03  0.63455947474E+03  0.46999998093E+01 0.  1.
</event>
<event>
 5   0  0.3806019E-03  0.8930033E+03  0.7818609E-02  0.9434370E-01
       -2   -1    0    0    0  501  0.00000000000E+00  0.00000000000E+00  0.24897242014E+03  0.24897242015E+03  0.25500000920E-02 0. -1.
        2   -1    0    0  501    0  0.00000000000E+00  0.00000000000E+00 -0.80074613446E+03  0.80074613447E+03  0.25500000920E-02 0.  1.
    10030    2    1    2    0    0  0.00000000000E+00  0.00000000000E+00 -0.55177371433E+03  0.10497185546E+04  0.89300325424E+03 0.  0.
        2    1    3    3  502    0 -0.22304856450E+03  0.38431280230E+03 -0.22442349732E+03  0.49780809384E+03  0.25500000920E-02 0.  1.
       -2    1    3    3    0  502  0.22304856450E+03 -0.38431280230E+03 -0.32735021701E+03  0.55191046078E+03  0.25500000920E-02 0. -1.
</event>
<event>
 5   0  0.3806019E-03  0.9141855E+03  0.7818609E-02  0.9408021E-01
        2   -1    0    0  501    0  0.00000000000E+00  0.00000000000E+00  0.23984243153E+03  0.23984243154E+03  0.25500000920E-02 0.  1.
       -2   -1    0    0    0  501  0.00000000000E+00  0.00000000000E+00 -0.87112928680E+03  0.87112928680E+03  0.25500000920E-02 0. -1.
    10030    2    1    2    0    0  0.00000000000E+00  0.00000000000E+00 -0.63128685528E+03  0.11109717183E+04  0.91418546549E+03 0.  0.
        2    1    3    3  502    0  0.10963438453E+03  0.24227223712E+03  0.13616190917E+03  0.29875675836E+03  0.25500000920E-02 0.  1.
       -2    1    3    3    0  502 -0.10963438453E+03 -0.24227223712E+03 -0.76744876445E+03  0.81221495998E+03  0.25500000920E-02 0. -1.
</event>
<event>
 5   0  0.2134145E-03  0.9017135E+03  0.7818609E-02  0.9423442E-01
       -1   -1    0    0    0  501  0.00000000000E+00  0.00000000000E+00  0.46283259226E+03  0.46283259229E+03  0.50400001928E-02 0.  1.
        1   -1    0    0  501    0  0.00000000000E+00  0.00000000000E+00 -0.43919083182E+03  0.43919083185E+03  0.50400001928E-02 0. -1.
    10030    2    1    2    0    0  0.00000000000E+00  0.00000000000E+00  0.23641760442E+02  0.90202342414E+03  0.90171354923E+03 0.  0.
        1    1    3    3  502    0  0.40233348333E+03  0.19620356501E+03  0.65725950112E+02  0.45242454761E+03  0.50400001928E-02 0. -1.
       -1    1    3    3    0  502 -0.40233348333E+03 -0.19620356501E+03 -0.42084189670E+02  0.44959887653E+03  0.50400001928E-02 0.  1.
</event>
<event>
 5   0  0.3626546E-03  0.8985046E+03  0.7818609E-02  0.9427453E-01
        2   -1    0    0  501    0  0.00000000000E+00  0.00000000000E+00  0.43312738481E+03  0.43312738481E+03  0.25500000920E-02 0. -1.
       -2   -1    0    0    0  501  0.00000000000E+00  0.00000000000E+00 -0.46597755074E+03  0.46597755075E+03  0.25500000920E-02 0.  1.
    10030    2    1    2    0    0  0.00000000000E+00  0.00000000000E+00 -0.32850165938E+02  0.89910493556E+03  0.89850461977E+03 0.  0.
        3    1    3    3  502    0 -0.36735898288E+02  0.12869947757E+03 -0.44556420363E+03  0.46523171807E+03  0.10100000352E+00 0.  1.
       -3    1    3    3    0  502  0.36735898288E+02 -0.12869947757E+03  0.41271403769E+03  0.43387321749E+03  0.10100000352E+00 0. -1.
</event>
<event>
 5   0  0.3626546E-03  0.8951344E+03  0.7818609E-02  0.9431684E-01
       -2   -1    0    0    0  501  0.00000000000E+00  0.00000000000E+00  0.21825371142E+03  0.21825371143E+03  0.25500000920E-02 0.  1.
        2   -1    0    0  501    0  0.00000000000E+00  0.00000000000E+00 -0.91781445467E+03  0.91781445467E+03  0.25500000920E-02 0. -1.
    10030    2    1    2    0    0  0.00000000000E+00  0.00000000000E+00 -0.69956074325E+03  0.11360681661E+04  0.89513442820E+03 0.  0.
        3    1    3    3  502    0 -0.11542007637E+03 -0.43010113109E+03 -0.40664697804E+03  0.60305103594E+03  0.10100000352E+00 0.  1.
       -3    1    3    3    0  502  0.11542007637E+03  0.43010113109E+03 -0.29291376521E+03  0.53301713016E+03  0.10100000352E+00 0. -1.
</event>
<event>
 5   0  0.3663255E-03  0.9019664E+03  0.7818609E-02  0.9423127E-01
       -2   -1    0    0    0  501  0.00000000000E+00  0.00000000000E+00  0.25617188553E+03  0.25617188554E+03  0.25500000920E-02 0.  1.
        2   -1    0    0  501    0  0.00000000000E+00  0.00000000000E+00 -0.79394296829E+03  0.79394296829E+03  0.25500000920E-02 0. -1.
    10030    2    1    2    0    0  0.00000000000E+00  0.00000000000E+00 -0.53777108276E+03  0.10501148538E+04  0.90196644549E+03 0.  0.
        4    1    3    3  502    0 -0.35183627131E+03 -0.66920352885E+02 -0.58797760072E+03  0.68846667842E+03  0.12699999809E+01 0. -1.
       -4    1    3    3    0  502  0.35183627131E+03  0.66920352885E+02  0.50206517968E+02  0.36164817542E+03  0.12699999809E+01 0.  1.
</event>
<event>
 5   0  0.2295158E-03  0.8944426E+03  0.7818609E-02  0.9432555E-01
       -1   -1    0    0    0  501  0.00000000000E+00  0.00000000000E+00  0.32767703919E+03  0.32767703922E+03  0.50400001928E-02 0.  1.
        1   -1    0    0  501    0  0.00000000000E+00  0.00000000000E+00 -0.61037810693E+03  0.61037810696E+03  0.50400001928E-02 0. -1.
    10030    2    1    2    0    0  0.00000000000E+00  0.00000000000E+00 -0.28270106775E+03  0.93805514618E+03  0.89444259937E+03 0.  0.
        4    1    3    3  502    0 -0.40994204114E+03  0.10416506299E+03  0.10999388764E+02  0.42311397624E+03  0.12699999809E+01 0. -1.
       -4    1    3    3    0  502  0.40994204114E+03 -0.10416506299E+03 -0.29370045651E+03  0.51494116994E+03  0.12699999809E+01 0.  1.
</event>
<event>
 5   0  0.2295158E-03  0.9000181E+03  0.7818609E-02  0.9425559E-01
        1   -1    0    0  501    0  0.00000000000E+00  0.00000000000E+00  0.51994090552E+03  0.51994090555E+03  0.50400001928E-02 0.  1.
       -1   -1    0    0    0  501  0.00000000000E+00  0.00000000000E+00 -0.38948296396E+03  0.38948296399E+03  0.50400001928E-02 0. -1.
    10030    2    1    2    0    0  0.00000000000E+00  0.00000000000E+00  0.13045794157E+03  0.90942386954E+03  0.90001805536E+03 0.  0.
        4    1    3    3  502    0  0.19703468097E+03 -0.34611315647E+03 -0.14645871229E+03  0.42434508350E+03  0.12699999809E+01 0. -1.
       -4    1    3    3    0  502 -0.19703468097E+03  0.34611315647E+03  0.27691665386E+03  0.48507878604E+03  0.12699999809E+01 0.  1.
</event>
<event>
 5   0  0.3815269E-03  0.8623707E+03  0.7818609E-02  0.9473882E-01
       -2   -1    0    0    0  501  0.00000000000E+00  0.00000000000E+00  0.33160432589E+03  0.33160432590E+03  0.25500000920E-02 0. -1.
        2   -1    0    0  501    0  0.00000000000E+00  0.00000000000E+00 -0.56067066534E+03  0.56067066534E+03  0.25500000920E-02 0.  1.
    10030    2    1    2    0    0  0.00000000000E+00  0.00000000000E+00 -0.22906633944E+03  0.89227499124E+03  0.86237072778E+03 0.  0.
        5    1    3    3  502    0  0.16350305068E+03  0.17338801527E+03  0.25723425091E+03  0.35069673688E+03  0.46999998093E+01 0. -1.
       -5    1    3    3    0  502 -0.16350305068E+03 -0.17338801527E+03 -0.48630059036E+03  0.54157825436E+03  0.46999998093E+01 0.  1.
</event>
<event>
 5   0  0.2295158E-03  0.9018716E+03  0.7818609E-02  0.9423245E-01
       -1   -1    0    0    0  501  0.00000000000E+00  0.00000000000E+00  0.69212141328E+03  0.69212141330E+03  0.50400001928E-02 0.  1.
        1   -1    0    0  501    0  0.00000000000E+00  0.00000000000E+00 -0.29379685368E+03  0.29379685373E+03  0.50400001928E-02 0. -1.
    10030    2    1    2    0    0  0.00000000000E+00  0.00000000000E+00  0.39832455959E+03  0.98591826702E+03  0.90187159533E+03 0.  0.
        4    1    3    3  502    0 -0.20552817219E+03 -0.13993116759E+03 -0.21208539585E+03  0.32680940816E+03  0.12699999809E+01 0. -1.
       -4    1    3    3    0  502  0.20552817219E+03  0.13993116759E+03  0.61040995544E+03  0.65910885886E+03  0.12699999809E+01 0.  1.
</event>
<event>
 5   0  0.3626546E-03  0.8992176E+03  0.7818609E-02  0.9426560E-01
       -2   -1    0    0    0  501  0.00000000000E+00  0.00000000000E+00  0.21310109610E+03  0.21310109612E+03  0.25500000920E-02 0.  1.
        2   -1    0    0  501    0  0.00000000000E+00  0.00000000000E+00 -0.94860174934E+03  0.94860174935E+03  0.25500000920E-02 0. -1.
    10030    2    1    2    0    0  0.00000000000E+00  0.00000000000E+00 -0.73550065324E+03  0.11617028455E+04  0.89921759894E+03 0.  0.
        3    1    3    3  502    0 -0.33131302073E+03 -0.13189260704E+02  0.24541578878E+02  0.33248244104E+03  0.10100000352E+00 0.  1.
       -3    1    3    3    0  502  0.33131302073E+03  0.13189260704E+02 -0.76004223212E+03  0.82922040442E+03  0.10100000352E+00 0. -1.
</event>
<event>
 5   0  0.3815269E-03  0.9084546E+03  0.7818609E-02  0.9415074E-01
       -2   -1    0    0    0  501  0.00000000000E+00  0.00000000000E+00  0.50070164321E+03  0.50070164322E+03  0.25500000920E-02 0.  1.
        2   -1    0    0  501    0  0.00000000000E+00  0.00000000000E+00 -0.41206663668E+03  0.41206663669E+03  0.25500000920E-02 0. -1.
    10030    2    1    2    0    0  0.00000000000E+00  0.00000000000E+00  0.88635006533E+02  0.91276827991E+03  0.90845460449E+03 0.  0.
        5    1    3    3  502    0  0.35448055150E+03  0.95175433006E+02 -0.22450766362E+03  0.43027968283E+03  0.46999998093E+01 0. -1.
       -5    1    3    3    0  502 -0.35448055150E+03 -0.95175433006E+02  0.31314267015E+03  0.48248859707E+03  0.46999998093E+01 0.  1.
</event>
<event>
 5   0  0.2295158E-03  0.8940807E+03  0.7818609E-02  0.9433011E-01
        1   -1    0    0  501    0  0.00000000000E+00  0.00000000000E+00  0.74271291435E+03  0.74271291437E+03  0.50400001928E-02 0. -1.
       -1   -1    0    0    0  501  0.00000000000E+00  0.00000000000E+00 -0.26907447297E+03  0.26907447302E+03  0.50400001928E-02 0.  1.
    10030    2    1    2    0    0  0.00000000000E+00  0.00000000000E+00  0.47363844138E+03  0.10117873874E+04  0.89408072573E+03 0.  0.
        4    1    3    3  502    0 -0.24445247946E+02 -0.33395011136E+03 -0.98354396386E+02  0.34899204463E+03  0.12699999809E+01 0.  1.
       -4    1    3    3    0  502  0.24445247946E+02  0.33395011136E+03  0.57199283777E+03  0.66279534276E+03  0.12699999809E+01 0. -1.
</event>
<event>
 5   0  0.2129280E-03  0.9006589E+03  0.7818609E-02  0.9424758E-01
       -1   -1    0    0    0  501  0.00000000000E+00  0.00000000000E+00  0.39548494304E+03  0.39548494307E+03  0.50400001928E-02 0. -1.
        1   -1    0    0  501    0  0.00000000000E+00  0.00000000000E+00 -0.51277956072E+03  0.51277956075E+03  0.50400001928E-02 0.  1.
    10030    2    1    2    0    0  0.00000000000E+00  0.00000000000E+00 -0.11729461769E+03  0.90826450382E+03  0.90065885970E+03 0.  0.
        3    1    3    3  502    0 -0.27963858763E+03 -0.23870553540E+03  0.20358416977E+03  0.42026729198E+03  0.10100000352E+00 0. -1.
       -3    1    3    3    0  502  0.27963858763E+03  0.23870553540E+03 -0.32087878746E+03  0.48799721184E+03  0.10100000352E+00 0.  1.
</event>
<event>
 5   0  0.2295158E-03  0.8811364E+03  0.7818609E-02  0.9449474E-01
        1   -1    0    0  501    0  0.00000000000E+00  0.00000000000E+00  0.42350414552E+03  0.42350414555E+03  0.50400001928E-02 0. -1.
       -1   -1    0    0    0  501  0.00000000000E+00  0.00000000000E+00 -0.45831977655E+03  0.45831977657E+03  0.50400001928E-02 0.  1.
    10030    2    1    2    0    0  0.00000000000E+00  0.00000000000E+00 -0.34815631031E+02  0.88182392212E+03  0.88113636939E+03 0.  0.
        4    1    3    3  502    0  0.26008833506E+03 -0.11696232878E+03  0.31867051784E+03  0.42764312251E+03  0.12699999809E+01 0. -1.
       -4    1    3    3    0  502 -0.26008833506E+03  0.11696232878E+03 -0.35348614887E+03  0.45418079961E+03  0.12699999809E+01 0.  1.
</event>
<event>
 5   0  0.3815269E-03  0.9002135E+03  0.7818609E-02  0.9425315E-01
       -2   -1    0    0    0  501  0.00000000000E+00  0.00000000000E+00  0.27937635681E+03  0.27937635682E+03  0.25500000920E-02 0. -1.
        2   -1    0    0  501    0  0.00000000000E+00  0.00000000000E+00 -0.72517269300E+03  0.72517269300E+03  0.25500000920E-02 0.  1.
    10030    2    1    2    0    0  0.00000000000E+00  0.00000000000E+00 -0.44579633619E+03  0.10045490498E+04  0.90021354142E+03 0.  0.
        5    1    3    3  502    0  0.20661205817E+03 -0.36653461685E+03 -0.44570903863E+02  0.42313688495E+03  0.46999998093E+01 0. -1.
       -5    1    3    3    0  502 -0.20661205817E+03  0.36653461685E+03 -0.40122543232E+03  0.58141216488E+03  0.46999998093E+01 0.  1.
</event>
<event>
 5   0  0.2295158E-03  0.8998316E+03  0.7818609E-02  0.9425792E-01
        1   -1    0    0  501    0  0.00000000000E+00  0.00000000000E+00  0.53212962363E+03  0.53212962365E+03  0.50400001928E-02 0.  1.
       -1   -1    0    0    0  501  0.00000000000E+00  0.00000000000E+00 -0.38040397402E+03  0.38040397405E+03  0.50400001928E-02 0. -1.
    10030    2    1    2    0    0  0.00000000000E+00  0.00000000000E+00  0.15172564961E+03  0.91253359770E+03  0.89983159213E+03 0.  0.
        4    1    3    3  502    0 -0.88835001428E+01 -0.16932252880E+03  0.49848715848E+03  0.52653593933E+03  0.12699999809E+01 0.  1.
       -4    1    3    3    0  502  0.88835001428E+01  0.16932252880E+03 -0.34676150887E+03  0.38599765837E+03  0.12699999809E+01 0. -1.
</event>
<event>
 5   0  0.1436000E-03  0.9067937E+03  0.7818609E-02  0.9417129E-01
       -3   -1    0    0    0  501  0.00000000000E+00  0.00000000000E+00  0.24532565167E+03  0.24532567246E+03  0.10100000352E+00 0. -1.
        3   -1    0    0  501    0  0.00000000000E+00  0.00000000000E+00 -0.83794201316E+03  0.83794201925E+03  0.10100000352E+00 0.  1.
    10030    2    1    2    0    0  0.00000000000E+00  0.00000000000E+00 -0.59261636150E+03  0.10832676917E+04  0.90679365899E+03 0.  0.
        4    1    3    3  502    0 -0.38308710036E+03  0.23174576548E+02 -0.58468861502E+03  0.69939629459E+03  0.12699999809E+01 0.  1.
       -4    1    3    3    0  502  0.38308710036E+03 -0.23174576548E+02 -0.79277464828E+01  0.38387139712E+03  0.12699999809E+01 0. -1.
</event>
<event>
 5   0  0.2074970E-03  0.9004881E+03  0.7818609E-02  0.9424972E-01
        1   -1    0    0  501    0  0.00000000000E+00  0.00000000000E+00  0.72382565266E+03  0.72382565268E+03  0.50400001928E-02 0. -1.
       -1   -1    0    0    0  501  0.00000000000E+00  0.00000000000E+00 -0.28006701022E+03  0.28006701027E+03  0.50400001928E-02 0.  1.
    10030    2    1    2    0    0  0.00000000000E+00  0.00000000000E+00  0.44375864244E+03  0.10038926629E+04  0.90048805987E+03 0.  0.
        2    1    3    3  502    0 -0.37811673563E+03 -0.14456760654E+03  0.21481989177E+01  0.40481683931E+03  0.25500000920E-02 0.  1.
       -2    1    3    3    0  502  0.37811673563E+03  0.14456760654E+03  0.44161044352E+03  0.59907582363E+03  0.25500000920E-02 0. -1.
</event>
<event>
 5   0  0.2130975E-03  0.9020168E+03  0.7818609E-02  0.9423064E-01
        1   -1    0    0  501    0  0.00000000000E+00  0.00000000000E+00  0.14725503742E+04  0.14725503742E+04  0.50400001928E-02 0. -1.
       -1   -1    0    0    0  501  0.00000000000E+00  0.00000000000E+00 -0.13813353096E+03  0.13813353106E+03  0.50400001928E-02 0.  1.
    10030    2    1    2    0    0  0.00000000000E+00  0.00000000000E+00  0.13344168432E+04  0.16106839053E+04  0.90201681313E+03 0.  0.
        5    1    3    3  502    0 -0.44489317011E+03 -0.71578972247E+02  0.69979395176E+03  0.83233836088E+03  0.46999998093E+01 0. -1.
       -5    1    3    3    0  502  0.44489317011E+03  0.71578972247E+02  0.63462289147E+03  0.77834554438E+03  0.46999998093E+01 0.  1.
</event>
<event>
 5   0  0.3806019E-03  0.9032475E+03  0.7818609E-02  0.9421531E-01
        2   -1    0    0  501    0  0.00000000000E+00  0.00000000000E+00  0.10195360435E+04  0.10195360435E+04  0.25500000920E-02 0.  1.
       -2   -1    0    0    0  501  0.00000000000E+00  0.00000000000E+00 -0.20005569774E+03  0.20005569776E+03  0.25500000920E-02 0. -1.
    10030    2    1    2    0    0  0.00000000000E+00  0.00000000000E+00  0.81948034577E+03  0.12195917413E+04  0.90324746236E+03 0.  0.
        2    1    3    3  502    0 -0.52582269152E+02  0.13653325727E+03 -0.16716958505E+03  0.22215286526E+03  0.25500000920E-02 0. -1.
       -2    1    3    3    0  502  0.52582269152E+02 -0.13653325727E+03  0.98664993082E+03  0.99743887600E+03  0.25500000920E-02 0.  1.
</event>
<event>
 5   0  0.3663255E-03  0.8973539E+03  0.7818609E-02  0.9428895E-01
       -2   -1    0    0    0  501  0.00000000000E+00  0.00000000000E+00  0.74007075140E+02  0.74007075184E+02  0.25500000920E-02 0. -1.
        2   -1    0    0  501    0  0.00000000000E+00  0.00000000000E+00 -0.27201588559E+04  0.27201588559E+04  0.25500000920E-02 0.  1.
    10030    2    1    2    0    0  0.00000000000E+00  0.00000000000E+00 -0.26461517808E+04  0.27941659311E+04  0.89735388985E+03 0.  0.
        4    1    3    3  502    0 -0.25725273073E+02 -0.14643148494E+03 -0.49283856303E+01  0.14876112174E+03  0.12699999809E+01 0. -1.
       -4    1    3    3    0  502  0.25725273073E+02  0.14643148494E+03 -0.26412233952E+04  0.26454048094E+04  0.12699999809E+01 0.  1.
</event>
<event>
 5   0  0.3626546E-03  0.8647394E+03  0.7818609E-02  0.9470765E-01
       -2   -1    0    0    0  501  0.00000000000E+00  0.00000000000E+00  0.34571648624E+03  0.34571648625E+03  0.25500000920E-02 0.  1.
        2   -1    0    0  501    0  0.00000000000E+00  0.00000000000E+00 -0.54074244350E+03  0.54074244350E+03  0.25500000920E-02 0. -1.
    10030    2    1    2    0    0  0.00000000000E+00  0.00000000000E+00 -0.19502595726E+03  0.88645892975E+03  0.86473944639E+03 0.  0.
        3    1    3    3  502    0 -0.78867476715E+02 -0.40849576578E+03 -0.21817535585E+03  0.46977586746E+03  0.10100000352E+00 0.  1.
       -3    1    3    3    0  502  0.78867476715E+02  0.40849576578E+03  0.23149398595E+02  0.41668306229E+03  0.10100000352E+00 0. -1.
</event>
<event>
 5   0  0.2295158E-03  0.8990887E+03  0.7818609E-02  0.9426721E-01
        1   -1    0    0  501    0  0.00000000000E+00  0.00000000000E+00  0.29230086177E+03  0.29230086182E+03  0.50400001928E-02 0. -1.
       -1   -1    0    0    0  501  0.00000000000E+00  0.00000000000E+00 -0.69137709868E+03  0.69137709870E+03  0.50400001928E-02 0.  1.
    10030    2    1    2    0    0  0.00000000000E+00  0.00000000000E+00 -0.39907623690E+03  0.98367796051E+03  0.89908869815E+03 0.  0.
        4    1    3    3  502    0  0.94622046946E+02 -0.34271663001E+03  0.10144515853E+03  0.36973064972E+03  0.12699999809E+01 0. -1.
       -4    1    3    3    0  502 -0.94622046946E+02  0.34271663001E+03 -0.50052139543E+03  0.61394731080E+03  0.12699999809E+01 0.  1.
</event>
<event>
 5   0  0.2129280E-03  0.8972978E+03  0.7818609E-02  0.9428966E-01
        1   -1    0    0  501    0  0.00000000000E+00  0.00000000000E+00  0.38084310967E+03  0.38084310970E+03  0.50400001928E-02 0. -1.
       -1   -1    0    0    0  501  0.00000000000E+00  0.00000000000E+00 -0.52852690473E+03  0.52852690475E+03  0.50400001928E-02 0.  1.
    10030    2    1    2    0    0  0.00000000000E+00  0.00000000000E+00 -0.14768379506E+03  0.90937001445E+03  0.89729778773E+03 0.  0.
        3    1    3    3  502    0  0.35482152603E+03  0.15717474937E+03 -0.30200098497E+03  0.49173857109E+03  0.10100000352E+00 0.  1.
       -3    1    3    3    0  502 -0.35482152603E+03 -0.15717474937E+03  0.15431718991E+03  0.41763144336E+03  0.10100000352E+00 0. -1.
</event>
<event>
 5   0  0.2130975E-03  0.8995688E+03  0.7818609E-02  0.9426121E-01
        1   -1    0    0  501    0  0.00000000000E+00  0.00000000000E+00  0.38949885828E+03  0.38949885831E+03  0.50400001928E-02 0. -1.
       -1   -1    0    0    0  501  0.00000000000E+00  0.00000000000E+00 -0.51940080439E+03  0.51940080442E+03  0.50400001928E-02 0.  1.
    10030    2    1    2    0    0  0.00000000000E+00  0.00000000000E+00 -0.12990194611E+03  0.90889966273E+03  0.89956883078E+03 0.  0.
        5    1    3    3  502    0  0.66142629022E+02 -0.17309307341E+02 -0.51409478516E+03  0.51864245643E+03  0.46999998093E+01 0.  1.
       -5    1    3    3    0  502 -0.66142629022E+02  0.17309307341E+02  0.38419283904E+03  0.39025720629E+03  0.46999998093E+01 0. -1.
</event>
<event>
 5   0  0.2130975E-03  0.9089093E+03  0.7818609E-02  0.9414512E-01
        1   -1    0    0  501    0  0.00000000000E+00  0.00000000000E+00  0.17100553203E+04  0.17100553203E+04  0.50400001928E-02 0.  1.
       -1   -1    0    0    0  501  0.00000000000E+00  0.00000000000E+00 -0.12077329411E+03  0.12077329422E+03  0.50400001928E-02 0. -1.
    10030    2    1    2    0    0  0.00000000000E+00  0.00000000000E+00  0.15892820262E+04  0.18308286145E+04  0.90890926776E+03 0.  0.
        5    1    3    3  502    0  0.32789364253E+03 -0.28180993187E+03  0.51281087928E+03  0.67076684952E+03  0.46999998093E+01 0. -1.
       -5    1    3    3    0  502 -0.32789364253E+03  0.28180993187E+03  0.10764711469E+04  0.11600617650E+04  0.46999998093E+01 0.  1.
</event>
<event>
 5   0  0.3806019E-03  0.8983041E+03  0.7818609E-02  0.9427704E-01
        2   -1    0    0  501    0  0.00000000000E+00  0.00000000000E+00  0.12472190030E+04  0.12472190030E+04  0.25500000920E-02 0.  1.
       -2   -1    0    0    0  501  0.00000000000E+00  0.00000000000E+00 -0.16174991010E+03  0.16174991012E+03  0.25500000920E-02 0. -1.
    10030    2    1    2    0    0  0.00000000000E+00  0.00000000000E+00  0.10854690929E+04  0.14089689132E+04  0.89830409470E+03 0.  0.
        2    1    3    3  502    0  0.20451270402E+03 -0.28317970410E+03  0.98559348061E+03  0.10456628041E+04  0.25500000920E-02 0.  1.
       -2    1    3    3    0  502 -0.20451270402E+03  0.28317970410E+03  0.99875612327E+02  0.36330610904E+03  0.25500000920E-02 0. -1.
</event>
<event>
 5   0  0.3806019E-03  0.8879974E+03  0.7818609E-02  0.9440711E-01
        2   -1    0    0  501    0  0.00000000000E+00  0.00000000000E+00  0.12259888175E+04  0.12259888175E+04  0.25500000920E-02 0.  1.
       -2   -1    0    0    0  501  0.00000000000E+00  0.00000000000E+00 -0.16079661740E+03  0.16079661742E+03  0.25500000920E-02 0. -1.
    10030    2    1    2    0    0  0.00000000000E+00  0.00000000000E+00  0.10651922001E+04  0.13867854349E+04  0.88799742080E+03 0.  0.
        2    1    3    3  502    0 -0.31237793112E+03  0.28031649870E+03  0.30640532804E+03  0.51965520911E+03  0.25500000920E-02 0. -1.
       -2    1    3    3    0  502  0.31237793112E+03 -0.28031649870E+03  0.75878687205E+03  0.86713022580E+03  0.25500000920E-02 0.  1.
</event>
<event>
 5   0  0.2129280E-03  0.9012646E+03  0.7818609E-02  0.9424002E-01
        1   -1    0    0  501    0  0.00000000000E+00  0.00000000000E+00  0.17307109799E+03  0.17307109807E+03  0.50400001928E-02 0. -1.
       -1   -1    0    0    0  501  0.00000000000E+00  0.00000000000E+00 -0.11733297292E+04  0.11733297293E+04  0.50400001928E-02 0.  1.
    10030    2    1    2    0    0  0.00000000000E+00  0.00000000000E+00 -0.10002586313E+04  0.13464008273E+04  0.90126458846E+03 0.  0.
        3    1    3    3  502    0 -0.25489476955E+03  0.34844564953E+03 -0.69308997354E+03  0.81655338824E+03  0.10100000352E+00 0.  1.
       -3    1    3    3    0  502  0.25489476955E+03 -0.34844564953E+03 -0.30716865771E+03  0.52984743908E+03  0.10100000352E+00 0. -1.
</event>
<event>
 5   0  0.2134145E-03  0.8989354E+03  0.7818609E-02  0.9426913E-01
       -1   -1    0    0    0  501  0.00000000000E+00  0.00000000000E+00  0.39023242578E+03  0.39023242581E+03  0.50400001928E-02 0.  1.
        1   -1    0    0  501    0  0.00000000000E+00  0.00000000000E+00 -0.51769457941E+03  0.51769457944E+03  0.50400001928E-02 0. -1.
    10030    2    1    2    0    0  0.00000000000E+00  0.00000000000E+00 -0.12746215363E+03  0.90792700525E+03  0.89893539604E+03 0.  0.
        1    1    3    3  502    0 -0.17534359627E+03 -0.32593521361E+03 -0.32131552232E+03  0.49012529534E+03  0.50400001928E-02 0. -1.
       -1    1    3    3    0  502  0.17534359627E+03  0.32593521361E+03  0.19385336869E+03  0.41780170991E+03  0.50400001928E-02 0.  1.
</event>
<event>
 5   0  0.3626546E-03  0.8995948E+03  0.7818609E-02  0.9426088E-01
       -2   -1    0    0    0  501  0.00000000000E+00  0.00000000000E+00  0.87372541812E+02  0.87372541849E+02  0.25500000920E-02 0. -1.
        2   -1    0    0  501    0  0.00000000000E+00  0.00000000000E+00 -0.23155751812E+04  0.23155751812E+04  0.25500000920E-02 0.  1.
    10030    2    1    2    0    0  0.00000000000E+00  0.00000000000E+00 -0.22282026394E+04  0.24029477231E+04  0.89959477408E+03 0.  0.
        3    1    3    3  502    0 -0.12104261806E+03  0.16561756592E+03 -0.21833508130E+04  0.21929663190E+04  0.10100000352E+00 0.  1.
       -3    1    3    3    0  502  0.12104261806E+03 -0.16561756592E+03 -0.44851826448E+02  0.20998140409E+03  0.10100000352E+00 0. -1.
</event>
<event>
 5   0  0.3815269E-03  0.9000527E+03  0.7818609E-02  0.9425516E-01
       -2   -1    0    0    0  501  0.00000000000E+00  0.00000000000E+00  0.13167380615E+03  0.13167380617E+03  0.25500000920E-02 0.  1.
        2   -1    0    0  501    0  0.00000000000E+00  0.00000000000E+00 -0.15380712419E+04  0.15380712419E+04  0.25500000920E-02 0. -1.
    10030    2    1    2    0    0  0.00000000000E+00  0.00000000000E+00 -0.14063974357E+04  0.16697450480E+04  0.90005265305E+03 0.  0.
        5    1    3    3  502    0 -0.24267049542E+03  0.22765006548E+03 -0.12652492941E+04  0.13082780239E+04  0.46999998093E+01 0. -1.
       -5    1    3    3    0  502  0.24267049542E+03 -0.22765006548E+03 -0.14114814165E+03  0.36146702416E+03  0.46999998093E+01 0.  1.
</event>
<event>
 5   0  0.2074970E-03  0.8989860E+03  0.7818609E-02  0.9426850E-01
        1   -1    0    0  501    0  0.00000000000E+00  0.00000000000E+00  0.12114241194E+04  0.12114241194E+04  0.50400001928E-02 0.  1.
       -1   -1    0    0    0  501  0.00000000000E+00  0.00000000000E+00 -0.16678216327E+03  0.16678216334E+03  0.50400001928E-02 0. -1.
    10030    2    1    2    0    0  0.00000000000E+00  0.00000000000E+00  0.10446419561E+04  0.13782062827E+04  0.89898595167E+03 0.  0.
        2    1    3    3  502    0 -0.36676286316E+03 -0.25911856026E+03  0.49218111529E+03  0.66625796529E+03  0.25500000920E-02 0. -1.
       -2    1    3    3    0  502  0.36676286316E+03  0.25911856026E+03  0.55246084084E+03  0.71194831746E+03  0.25500000920E-02 0.  1.
</event>
<event>
 5   0  0.2074970E-03  0.8993687E+03  0.7818609E-02  0.9426371E-01
       -1   -1    0    0    0  501  0.00000000000E+00  0.00000000000E+00  0.20568207937E+03  0.20568207944E+03  0.50400001928E-02 0.  1.
        1   -1    0    0  501    0  0.00000000000E+00  0.00000000000E+00 -0.98314836633E+03  0.98314836634E+03  0.50400001928E-02 0. -1.
    10030    2    1    2    0    0  0.00000000000E+00  0.00000000000E+00 -0.77746628696E+03  0.11888304458E+04  0.89936866827E+03 0.  0.
        2    1    3    3  502    0 -0.22628940418E+03  0.40726759388E+02 -0.89957375231E+03  0.92849259514E+03  0.25500000920E-02 0. -1.
       -2    1    3    3    0  502  0.22628940418E+03 -0.40726759388E+02  0.12210746535E+03  0.26033785064E+03  0.25500000920E-02 0.  1.
</event>
<event>
 5   0  0.2129280E-03  0.9036318E+03  0.7818609E-02  0.9421053E-01
        1   -1    0    0  501    0  0.00000000000E+00  0.00000000000E+00  0.30981980062E+03  0.30981980066E+03  0.50400001928E-02 0. -1.
       -1   -1    0    0    0  501  0.00000000000E+00  0.00000000000E+00 -0.65889138945E+03  0.65889138947E+03  0.50400001928E-02 0.  1.
    10030    2    1    2    0    0  0.00000000000E+00  0.00000000000E+00 -0.34907158883E+03  0.96871119013E+03  0.90363178107E+03 0.  0.
        3    1    3    3  502    0  0.20239297600E+03 -0.25421578518E+03 -0.51106979253E+03  0.60562440936E+03  0.10100000352E+00 0.  1.
       -3    1    3    3    0  502 -0.20239297600E+03  0.25421578518E+03  0.16199820370E+03  0.36308678077E+03  0.10100000352E+00 0. -1.
</event>
<event>
 5   0  0.3626546E-03  0.8979152E+03  0.7818609E-02  0.9428191E-01
        2   -1    0    0  501    0  0.00000000000E+00  0.00000000000E+00  0.45562155650E+03  0.45562155651E+03  0.25500000920E-02 0.  1.
       -2   -1    0    0    0  501  0.00000000000E+00  0.00000000000E+00 -0.44239106823E+03  0.44239106823E+03  0.25500000920E-02 0. -1.
    10030    2    1    2    0    0  0.00000000000E+00  0.00000000000E+00  0.13230488278E+02  0.89801262474E+03  0.89791515656E+03 0.  0.
        3    1    3    3  502    0 -0.28610853167E+03  0.19510987496E+03  0.29236804980E+03  0.45321633018E+03  0.10100000352E+00 0.  1.
       -3    1    3    3    0  502  0.28610853167E+03 -0.19510987496E+03 -0.27913756152E+03  0.44479629456E+03  0.10100000352E+00 0. -1.
</event>
<event>
 5   0  0.2130975E-03  0.9037465E+03  0.7818609E-02  0.9420910E-01
       -1   -1    0    0    0  501  0.00000000000E+00  0.00000000000E+00  0.37459895408E+03  0.37459895411E+03  0.50400001928E-02 0. -1.
        1   -1    0    0  501    0  0.00000000000E+00  0.00000000000E+00 -0.54508806495E+03  0.54508806498E+03  0.50400001928E-02 0.  1.
    10030    2    1    2    0    0  0.00000000000E+00  0.00000000000E+00 -0.17048911087E+03  0.91968701909E+03  0.90374646675E+03 0.  0.
        5    1    3    3  502    0  0.22377630672E+03 -0.76079880906E+02 -0.47713882951E+03  0.53249181811E+03  0.46999998093E+01 0.  1.
       -5    1    3    3    0  502 -0.22377630672E+03  0.76079880906E+02  0.30664971864E+03  0.38719520098E+03  0.46999998093E+01 0. -1.
</event>
<event>
 5   0  0.2074970E-03  0.8959457E+03  0.7818609E-02  0.9430664E-01
        1   -1    0    0  501    0  0.00000000000E+00  0.00000000000E+00  0.13878112036E+04  0.13878112036E+04  0.50400001928E-02 0. -1.
       -1   -1    0    0    0  501  0.00000000000E+00  0.00000000000E+00 -0.14460157572E+03  0.14460157581E+03  0.50400001928E-02 0.  1.
    10030    2    1    2    0    0  0.00000000000E+00  0.00000000000E+00  0.12432096279E+04  0.15324127794E+04  0.89594572807E+03 0.  0.
        2    1    3    3  502    0  0.19537506114E+03 -0.23224170531E+03  0.11851816135E+04  0.12234226911E+04  0.25500000920E-02 0. -1.
       -2    1    3    3    0  502 -0.19537506114E+03  0.23224170531E+03  0.58028014387E+02  0.30899008829E+03  0.25500000920E-02 0.  1.
</event>
<event>
 5   0  0.3626546E-03  0.9030990E+03  0.7818609E-02  0.9421716E-01
       -2   -1    0    0    0  501  0.00000000000E+00  0.00000000000E+00  0.29922445175E+03  0.29922445176E+03  0.25500000920E-02 0. -1.
        2   -1    0    0  501    0  0.00000000000E+00  0.00000000000E+00 -0.68141805771E+03  0.68141805772E+03  0.25500000920E-02 0.  1.
    10030    2    1    2    0    0  0.00000000000E+00  0.00000000000E+00 -0.38219360597E+03  0.98064250948E+03  0.90309898624E+03 0.  0.
        3    1    3    3  502    0  0.29811458479E+03 -0.11324596753E+03  0.15604008469E+03  0.35502883412E+03  0.10100000352E+00 0.  1.
       -3    1    3    3    0  502 -0.29811458479E+03  0.11324596753E+03 -0.53823369066E+03  0.62561367535E+03  0.10100000352E+00 0. -1.
</event>
<event>
 5   0  0.3815269E-03  0.9008893E+03  0.7818609E-02  0.9424470E-01
       -2   -1    0    0    0  501  0.00000000000E+00  0.00000000000E+00  0.59373347931E+03  0.59373347932E+03  0.25500000920E-02 0. -1.
        2   -1    0    0  501    0  0.00000000000E+00  0.00000000000E+00 -0.34173645887E+03  0.34173645888E+03  0.25500000920E-02 0.  1.
    10030    2    1    2    0    0  0.00000000000E+00  0.00000000000E+00  0.25199702044E+03  0.93546993819E+03  0.90088928673E+03 0.  0.
        5    1    3    3  502    0  0.20911860895E+03  0.12993436150E+03  0.51765657603E+03  0.57323987266E+03  0.46999998093E+01 0. -1.
       -5    1    3    3    0  502 -0.20911860895E+03 -0.12993436150E+03 -0.26565955558E+03  0.36223006553E+03  0.46999998093E+01 0.  1.
</event>
<event>
 5   0  0.3815269E-03  0.8940788E+03  0.7818609E-02  0.9433014E-01
       -2   -1    0    0    0  501  0.00000000000E+00  0.00000000000E+00  0.27218668194E+03  0.27218668195E+03  0.25500000920E-02 0.  1.
        2   -1    0    0  501    0  0.00000000000E+00  0.00000000000E+00 -0.73421750884E+03  0.73421750884E+03  0.25500000920E-02 0. -1.
    10030    2    1    2    0    0  0.00000000000E+00  0.00000000000E+00 -0.46203082690E+03  0.10064041908E+04  0.89407880539E+03 0.  0.
        5    1    3    3  502    0  0.16434680589E+03 -0.32948053722E+03  0.54315982979E+02  0.37220909851E+03  0.46999998093E+01 0.  1.
       -5    1    3    3    0  502 -0.16434680589E+03  0.32948053722E+03 -0.51634680988E+03  0.63419509228E+03  0.46999998093E+01 0. -1.
</event>
<event>
 5   0  0.3815269E-03  0.8997225E+03  0.7818609E-02  0.9425928E-01
        2   -1    0    0  501    0  0.00000000000E+00  0.00000000000E+00  0.31113326764E+03  0.31113326765E+03  0.25500000920E-02 0. -1.
       -2   -1    0    0    0  501  0.00000000000E+00  0.00000000000E+00 -0.65044522141E+03  0.65044522142E+03  0.25500000920E-02 0.  1.
    10030    2    1    2    0    0  0.00000000000E+00  0.00000000000E+00 -0.33931195378E+03  0.96157848906E+03  0.89972250647E+03 0.  0.
        5    1    3    3  502    0 -0.11223991793E+03  0.31938092150E+03 -0.48624977453E+03  0.59250561636E+03  0.46999998093E+01 0.  1.
       -5    1    3    3    0  502  0.11223991793E+03 -0.31938092150E+03  0.14693782075E+03  0.36907287270E+03  0.46999998093E+01 0. -1.
</event>
<event>
 5   0  0.3806019E-03  0.9018652E+03  0.7818609E-02  0.9423253E-01
       -2   -1    0    0    0  501  0.00000000000E+00  0.00000000000E+00  0.35479736375E+03  0.35479736376E+03  0.25500000920E-02 0. -1.
        2   -1    0    0  501    0  0.00000000000E+00  0.00000000000E+00 -0.57311646862E+03  0.57311646863E+03  0.25500000920E-02 0.  1.
    10030    2    1    2    0    0  0.00000000000E+00  0.00000000000E+00 -0.21831910487E+03  0.92791383239E+03  0.90186520545E+03 0.  0.
        2    1    3    3  502    0 -0.20611646285E+03 -0.19873243908E+03 -0.46759150966E+03  0.54828860878E+03  0.25500000920E-02 0.  1.
       -2    1    3    3    0  502  0.20611646285E+03  0.19873243908E+03  0.24927240480E+03  0.37962522361E+03  0.25500000920E-02 0. -1.
</event>
<event>
 5   0  0.3663255E-03  0.9077165E+03  0.7818609E-02  0.9415987E-01
        2   -1    0    0  501    0  0.00000000000E+00  0.00000000000E+00  0.13058518695E+04  0.13058518695E+04  0.25500000920E-02 0.  1.
       -2   -1    0    0    0  501  0.00000000000E+00  0.00000000000E+00 -0.15774171283E+03  0.15774171285E+03  0.25500000920E-02 0. -1.
    10030    2    1    2    0    0  0.00000000000E+00  0.00000000000E+00  0.11481101566E+04  0.14635935823E+04  0.90771649891E+03 0.  0.
        4    1    3    3  502    0 -0.71722397632E+02  0.44765830859E+03  0.54009390054E+03  0.70515608050E+03  0.12699999809E+01 0.  1.
       -4    1    3    3    0  502  0.71722397632E+02 -0.44765830859E+03  0.60801625608E+03  0.75843750180E+03  0.12699999809E+01 0. -1.
</event>
<event>
 5   0  0.3815269E-03  0.8988833E+03  0.7818609E-02  0.9426978E-01
       -2   -1    0    0    0  501  0.00000000000E+00  0.00000000000E+00  0.10935768641E+03  0.10935768644E+03  0.25500000920E-02 0. -1.
        2   -1    0    0  501    0  0.00000000000E+00  0.00000000000E+00 -0.18471294640E+04  0.18471294640E+04  0.25500000920E-02 0.  1.
    10030    2    1    2    0    0  0.00000000000E+00  0.00000000000E+00 -0.17377717776E+04  0.19564871504E+04  0.89888331772E+03 0.  0.
        5    1    3    3  502    0  0.63404955107E+01  0.21715363553E+03 -0.12576243099E+02  0.21766064227E+03  0.46999998093E+01 0. -1.
       -5    1    3    3    0  502 -0.63404955107E+01 -0.21715363553E+03 -0.17251955345E+04  0.17388265082E+04  0.46999998093E+01 0.  1.
</event>
<event>
 5   0  0.3815269E-03  0.8999997E+03  0.7818609E-02  0.9425582E-01
       -2   -1    0    0    0  501  0.00000000000E+00  0.00000000000E+00  0.22201100324E+03  0.22201100326E+03  0.25500000920E-02 0. -1.
        2   -1    0    0  501    0  0.00000000000E+00  0.00000000000E+00 -0.91211630388E+03  0.91211630389E+03  0.25500000920E-02 0.  1.
    10030    2    1    2    0    0  0.00000000000E+00  0.00000000000E+00 -0.69010530064E+03  0.11341273071E+04  0.89999967936E+03 0.  0.
        5    1    3    3  502    0 -0.29718513467E+03 -0.29453394658E+03 -0.55367566251E+03  0.69400870255E+03  0.46999998093E+01 0.  1.
       -5    1    3    3    0  502  0.29718513467E+03  0.29453394658E+03 -0.13642963813E+03  0.44011860460E+03  0.46999998093E+01 0. -1.
</event>
<event>
 5   0  0.3685879E-03  0.9034964E+03  0.7818609E-02  0.9421221E-01
        2   -1    0    0  501    0  0.00000000000E+00  0.00000000000E+00  0.26296139631E+03  0.26296139633E+03  0.25500000920E-02 0.  1.
       -2   -1    0    0    0  501  0.00000000000E+00  0.00000000000E+00 -0.77607000041E+03  0.77607000041E+03  0.25500000920E-02 0. -1.
    10030    2    1    2    0    0  0.00000000000E+00  0.00000000000E+00 -0.51310860409E+03  0.10390313967E+04  0.90349643265E+03 0.  0.
        1    1    3    3  502    0 -0.39307461597E+03 -0.18817133842E+03 -0.11970608609E+03  0.45193545268E+03  0.50400001928E-02 0.  1.
       -1    1    3    3    0  502  0.39307461597E+03  0.18817133842E+03 -0.39340251801E+03  0.58709594405E+03  0.50400001928E-02 0. -1.
</event>
<event>
 5   0  0.1436000E-03  0.9067295E+03  0.7818609E-02  0.9417208E-01
       -3   -1    0    0    0  501  0.00000000000E+00  0.00000000000E+00  0.93320540997E+03  0.93320541544E+03  0.10100000352E+00 0.  1.
        3   -1    0    0  501    0  0.00000000000E+00  0.00000000000E+00 -0.22025117647E+03  0.22025119963E+03  0.10100000352E+00 0. -1.
    10030    2    1    2    0    0  0.00000000000E+00  0.00000000000E+00  0.71295423350E+03  0.11534566151E+04  0.90672952073E+03 0.  0.
        2    1    3    3  502    0 -0.23729980449E+01  0.43726124975E+03  0.50879335423E+03  0.67087533042E+03  0.25500000920E-02 0.  1.
       -2    1    3    3    0  502  0.23729980449E+01 -0.43726124975E+03  0.20416087927E+03  0.48258128464E+03  0.25500000920E-02 0. -1.
</event>
<event>
 5   0  0.3685879E-03  0.9004068E+03  0.7818609E-02  0.9425073E-01
       -2   -1    0    0    0  501  0.00000000000E+00  0.00000000000E+00  0.35724710775E+03  0.35724710776E+03  0.25500000920E-02 0.  1.
        2   -1    0    0  501    0  0.00000000000E+00  0.00000000000E+00 -0.56734712472E+03  0.56734712473E+03  0.25500000920E-02 0. -1.
    10030    2    1    2    0    0  0.00000000000E+00  0.00000000000E+00 -0.21010001697E+03  0.92459423249E+03  0.90040684005E+03 0.  0.
        1    1    3    3  502    0 -0.80607076889E+02  0.33569983480E+03  0.19166044592E+03  0.39487416538E+03  0.50400001928E-02 0.  1.
       -1    1    3    3    0  502  0.80607076889E+02 -0.33569983480E+03 -0.40176046289E+03  0.52972006711E+03  0.50400001928E-02 0. -1.
</event>
<event>
 5   0  0.2074970E-03  0.9004387E+03  0.7818609E-02  0.9425033E-01
        1   -1    0    0  501    0  0.00000000000E+00  0.00000000000E+00  0.21425841641E+04  0.21425841641E+04  0.50400001928E-02 0.  1.
       -1   -1    0    0    0  501  0.00000000000E+00  0.00000000000E+00 -0.94604208903E+02  0.94604209037E+02  0.50400001928E-02 0. -1.
    10030    2    1    2    0    0  0.00000000000E+00  0.00000000000E+00  0.20479799552E+04  0.22371883731E+04  0.90043873752E+03 0.  0.
        2    1    3    3  502    0 -0.18978435822E+03  0.37359454123E+03  0.14330481510E+04  0.14930565920E+04  0.25500000920E-02 0.  1.
       -2    1    3    3    0  502  0.18978435822E+03 -0.37359454123E+03  0.61493180416E+03  0.74413178109E+03  0.25500000920E-02 0. -1.
</event>
<event>
 5   0  0.3626546E-03  0.9020752E+03  0.7818609E-02  0.9422991E-01
        2   -1    0    0  501    0  0.00000000000E+00  0.00000000000E+00  0.63296639149E+03  0.63296639149E+03  0.25500000920E-02 0.  1.
       -2   -1    0    0    0  501  0.00000000000E+00  0.00000000000E+00 -0.32139921078E+03  0.32139921079E+03  0.25500000920E-02 0. -1.
    10030    2    1    2    0    0  0.00000000000E+00  0.00000000000E+00  0.31156718071E+03  0.95436560228E+03  0.90207516024E+03 0.  0.
        3    1    3    3  502    0  0.22646973052E+03 -0.18263992945E+03 -0.20885294179E+03  0.35814165377E+03  0.10100000352E+00 0. -1.
       -3    1    3    3    0  502 -0.22646973052E+03  0.18263992945E+03  0.52042012250E+03  0.59622394851E+03  0.10100000352E+00 0.  1.
</event>
<event>
 5   0  0.2295158E-03  0.8985469E+03  0.7818609E-02  0.9427400E-01
        1   -1    0    0  501    0  0.00000000000E+00  0.00000000000E+00  0.85753948417E+03  0.85753948418E+03  0.50400001928E-02 0.  1.
       -1   -1    0    0    0  501  0.00000000000E+00  0.00000000000E+00 -0.23537880764E+03  0.23537880770E+03  0.50400001928E-02 0. -1.
    10030    2    1    2    0    0  0.00000000000E+00  0.00000000000E+00  0.62216067652E+03  0.10929182919E+04  0.89854687430E+03 0.  0.
        4    1    3    3  502    0  0.93802331544E+02 -0.29005462779E+03  0.71249173266E+03  0.77496880358E+03  0.12699999809E+01 0.  1.
       -4    1    3    3    0  502 -0.93802331544E+02  0.29005462779E+03 -0.90331056141E+02  0.31794948830E+03  0.12699999809E+01 0. -1.
</event>
<event>
 5   0  0.2134145E-03  0.9083596E+03  0.7818609E-02  0.9415191E-01
       -1   -1    0    0    0  501  0.00000000000E+00  0.00000000000E+00  0.59919319678E+03  0.59919319680E+03  0.50400001928E-02 0.  1.
        1   -1    0    0  501    0  0.00000000000E+00  0.00000000000E+00 -0.34426175850E+03  0.34426175854E+03  0.50400001928E-02 0. -1.
    10030    2    1    2    0    0  0.00000000000E+00  0.00000000000E+00  0.25493143828E+03  0.94345495535E+03  0.90835962842E+03 0.  0.
        1    1    3    3  502    0  0.20136963815E+03 -0.37545639902E+03  0.29090512484E+03  0.51589052174E+03  0.50400001928E-02 0.  1.
       -1    1    3    3    0  502 -0.20136963815E+03  0.37545639902E+03 -0.35973686562E+02  0.42756443361E+03  0.50400001928E-02 0. -1.
</event>
<event>
 5   0  0.2130975E-03  0.8957793E+03  0.7818609E-02  0.9430873E-01
       -1   -1    0    0    0  501  0.00000000000E+00  0.00000000000E+00  0.10087752203E+04  0.10087752203E+04  0.50400001928E-02 0. -1.
        1   -1    0    0  501    0  0.00000000000E+00  0.00000000000E+00 -0.19886011728E+03  0.19886011735E+03  0.50400001928E-02 0.  1.
    10030    2    1    2    0    0  0.00000000000E+00  0.00000000000E+00  0.80991510303E+03  0.12076353377E+04  0.89577934486E+03 0.  0.
        5    1    3    3  502    0 -0.19561554555E+03 -0.38390284414E+03  0.56971889043E+03  0.71431683412E+03  0.46999998093E+01 0. -1.
       -5    1    3    3    0  502  0.19561554555E+03  0.38390284414E+03  0.24019621259E+03  0.49331850355E+03  0.46999998093E+01 0.  1.
</event>
<event>
 5   0  0.3663255E-03  0.9019856E+03  0.7818609E-02  0.9423103E-01
        2   -1    0    0  501    0  0.00000000000E+00  0.00000000000E+00  0.68729226289E+03  0.68729226290E+03  0.25500000920E-02 0. -1.
       -2   -1    0    0    0  501  0.00000000000E+00  0.00000000000E+00 -0.29593596284E+03  0.29593596286E+03  0.25500000920E-02 0.  1.
    10030    2    1    2    0    0  0.00000000000E+00  0.00000000000E+00  0.39135630005E+03  0.98322822575E+03  0.90198558211E+03 0.  0.
        4    1    3    3  502    0  0.26249344130E+03 -0.25911724558E+03  0.47856851808E+03  0.60421353269E+03  0.12699999809E+01 0. -1.
       -4    1    3    3    0  502 -0.26249344130E+03  0.25911724558E+03 -0.87212218033E+02  0.37901469306E+03  0.12699999809E+01 0.  1.
</event>
<event>
 5   0  0.2074970E-03  0.9004585E+03  0.7818609E-02  0.9425009E-01
       -1   -1    0    0    0  501  0.00000000000E+00  0.00000000000E+00  0.16443511307E+03  0.16443511314E+03  0.50400001928E-02 0. -1.
        1   -1    0    0  501    0  0.00000000000E+00  0.00000000000E+00 -0.12327437466E+04  0.12327437466E+04  0.50400001928E-02 0.  1.
    10030    2    1    2    0    0  0.00000000000E+00  0.00000000000E+00 -0.10683086335E+04  0.13971788597E+04  0.90045845526E+03 0.  0.
        2    1    3    3  502    0 -0.43275338259E+03  0.85851791906E+01 -0.72643860879E+03  0.84561353335E+03  0.25500000920E-02 0.  1.
       -2    1    3    3    0  502  0.43275338259E+03 -0.85851791906E+01 -0.34187002471E+03  0.55156532637E+03  0.25500000920E-02 0. -1.
</event>
<event>
 5   0  0.3806019E-03  0.9039894E+03  0.7818609E-02  0.9420608E-01
       -2   -1    0    0    0  501  0.00000000000E+00  0.00000000000E+00  0.65345654922E+03  0.65345654923E+03  0.25500000920E-02 0.  1.
        2   -1    0    0  501    0  0.00000000000E+00  0.00000000000E+00 -0.31264392006E+03  0.31264392007E+03  0.25500000920E-02 0. -1.
    10030    2    1    2    0    0  0.00000000000E+00  0.00000000000E+00  0.34081262916E+03  0.96610046929E+03  0.90398941840E+03 0.  0.
        2    1    3    3  502    0  0.12607799074E+03 -0.41153782885E+03  0.31787315970E+03  0.53507232220E+03  0.25500000920E-02 0. -1.
       -2    1    3    3    0  502 -0.12607799074E+03  0.41153782885E+03  0.22939469462E+02  0.43102814709E+03  0.25500000920E-02 0.  1.
</event>
<event>
 5   0  0.3685879E-03  0.8989598E+03  0.7818609E-02  0.9426883E-01
       -2   -1    0    0    0  501  0.00000000000E+00  0.00000000000E+00  0.91870009145E+03  0.91870009145E+03  0.25500000920E-02 0. -1.
        2   -1    0    0  501    0  0.00000000000E+00  0.00000000000E+00 -0.21991092233E+03  0.21991092234E+03  0.25500000920E-02 0.  1.
    10030    2    1    2    0    0  0.00000000000E+00  0.00000000000E+00  0.69878916912E+03  0.11386110138E+04  0.89895980880E+03 0.  0.
        1    1    3    3  502    0 -0.43855570516E+03  0.37117541135E+02  0.23384068603E+03  0.49838768530E+03  0.50400001928E-02 0. -1.
       -1    1    3    3    0  502  0.43855570516E+03 -0.37117541135E+02  0.46494848309E+03  0.64022332849E+03  0.50400001928E-02 0.  1.
</event>
<event>
 5   0  0.3815269E-03  0.8998124E+03  0.7818609E-02  0.9425816E-01
        2   -1    0    0  501    0  0.00000000000E+00  0.00000000000E+00  0.49722936633E+03  0.49722936634E+03  0.25500000920E-02 0. -1.
       -2   -1    0    0    0  501  0.00000000000E+00  0.00000000000E+00 -0.40708691013E+03  0.40708691014E+03  0.25500000920E-02 0.  1.
    10030    2    1    2    0    0  0.00000000000E+00  0.00000000000E+00  0.90142456198E+02  0.90431627648E+03  0.89981235016E+03 0.  0.
        5    1    3    3  502    0 -0.13421400672E+03  0.27786345269E+02 -0.38556859951E+03  0.40923186034E+03  0.46999998093E+01 0.  1.
       -5    1    3    3    0  502  0.13421400672E+03 -0.27786345269E+02  0.47571105571E+03  0.49508441614E+03  0.46999998093E+01 0. -1.
</event>
<event>
 5   0  0.2074970E-03  0.8996889E+03  0.7818609E-02  0.9425970E-01
        1   -1    0    0  501    0  0.00000000000E+00  0.00000000000E+00  0.18476327095E+04  0.18476327095E+04  0.50400001928E-02 0. -1.
       -1   -1    0    0    0  501  0.00000000000E+00  0.00000000000E+00 -0.10952394944E+03  0.10952394955E+03  0.50400001928E-02 0.  1.
    10030    2    1    2    0    0  0.00000000000E+00  0.00000000000E+00  0.17381087601E+04  0.19571566591E+04  0.89968890528E+03 0.  0.
        2    1    3    3  502    0  0.40272336194E+03  0.17229918279E+03  0.10918246026E+04  0.11764157757E+04  0.25500000920E-02 0. -1.
       -2    1    3    3    0  502 -0.40272336194E+03 -0.17229918279E+03  0.64628415751E+03  0.78074088332E+03  0.25500000920E-02 0.  1.
</event>
<event>
 5   0  0.2295158E-03  0.9006518E+03  0.7818609E-02  0.9424767E-01
        1   -1    0    0  501    0  0.00000000000E+00  0.00000000000E+00  0.16456528620E+04  0.16456528620E+04  0.50400001928E-02 0.  1.
       -1   -1    0    0    0  501  0.00000000000E+00  0.00000000000E+00 -0.12322976474E+03  0.12322976484E+03  0.50400001928E-02 0. -1.
    10030    2    1    2    0    0  0.00000000000E+00  0.00000000000E+00  0.15224230972E+04  0.17688826268E+04  0.90065179757E+03 0.  0.
        4    1    3    3  502    0  0.14156301195E+03  0.25809863104E+03  0.91901958950E+02  0.30838705008E+03  0.12699999809E+01 0. -1.
       -4    1    3    3    0  502 -0.14156301195E+03 -0.25809863104E+03  0.14305211383E+04  0.14604955767E+04  0.12699999809E+01 0.  1.
</event>
<event>
 5   0  0.3663255E-03  0.9013511E+03  0.7818609E-02  0.9423894E-01
       -2   -1    0    0    0  501  0.00000000000E+00  0.00000000000E+00  0.94929198268E+03  0.94929198268E+03  0.25500000920E-02 0.  1.
        2   -1    0    0  501    0  0.00000000000E+00  0.00000000000E+00 -0.21395781734E+03  0.21395781736E+03  0.25500000920E-02 0. -1.
    10030    2    1    2    0    0  0.00000000000E+00  0.00000000000E+00  0.73533416534E+03  0.11632498000E+04  0.90135107620E+03 0.  0.
        4    1    3    3  502    0 -0.32272516242E+03 -0.29883926423E+03  0.49444729353E+03  0.66176746315E+03  0.12699999809E+01 0.  1.
       -4    1    3    3    0  502  0.32272516242E+03  0.29883926423E+03  0.24088687181E+03  0.50148233689E+03  0.12699999809E+01 0. -1.
</event>
<event>
 5   0  0.3626546E-03  0.8997970E+03  0.7818609E-02  0.9425835E-01
       -2   -1    0    0    0  501  0.00000000000E+00  0.00000000000E+00  0.16307800945E+03  0.16307800947E+03  0.25500000920E-02 0. -1.
        2   -1    0    0  501    0  0.00000000000E+00  0.00000000000E+00 -0.12411769125E+04  0.12411769125E+04  0.25500000920E-02 0.  1.
    10030    2    1    2    0    0  0.00000000000E+00  0.00000000000E+00 -0.10780989030E+04  0.14042549220E+04  0.89979699996E+03 0.  0.
        3    1    3    3  502    0 -0.21387827424E+03 -0.77363047373E+02 -0.11448487652E+04  0.11672221994E+04  0.10100000352E+00 0.  1.
       -3    1    3    3    0  502  0.21387827424E+03  0.77363047373E+02  0.66749862161E+02  0.23703272261E+03  0.10100000352E+00 0. -1.
</event>
<event>
 5   0  0.2134145E-03  0.8999332E+03  0.7818609E-02  0.9425665E-01
        1   -1    0    0  501    0  0.00000000000E+00  0.00000000000E+00  0.22576009238E+03  0.22576009244E+03  0.50400001928E-02 0. -1.
       -1   -1    0    0    0  501  0.00000000000E+00  0.00000000000E+00 -0.89683671095E+03  0.89683671096E+03  0.50400001928E-02 0.  1.
    10030    2    1    2    0    0  0.00000000000E+00  0.00000000000E+00 -0.67107661856E+03  0.11225968034E+04  0.89993319475E+03 0.  0.
        1    1    3    3  502    0 -0.13651418960E+03 -0.10631534269E+03  0.18260145923E+03  0.25155987159E+03  0.50400001928E-02 0. -1.
       -1    1    3    3    0  502  0.13651418960E+03  0.10631534269E+03 -0.85367807779E+03  0.87103693181E+03  0.50400001928E-02 0.  1.
</event>
<event>
 5   0  0.2134145E-03  0.8976843E+03  0.7818609E-02  0.9428481E-01
       -1   -1    0    0    0  501  0.00000000000E+00  0.00000000000E+00  0.85770836493E+03  0.85770836494E+03  0.50400001928E-02 0.  1.
        1   -1    0    0  501    0  0.00000000000E+00  0.00000000000E+00 -0.23488085027E+03  0.23488085032E+03  0.50400001928E-02 0. -1.
    10030    2    1    2    0    0  0.00000000000E+00  0.00000000000E+00  0.62282751466E+03  0.10925892153E+04  0.89768428765E+03 0.  0.
        1    1    3    3  502    0 -0.37860430230E+03  0.10699884037E+03  0.48478435666E+02  0.39640904166E+03  0.50400001928E-02 0. -1.
       -1    1    3    3    0  502  0.37860430230E+03 -0.10699884037E+03  0.57434907899E+03  0.69618017361E+03  0.50400001928E-02 0.  1.
</event>
<event>
 5   0  0.2074970E-03  0.8868848E+03  0.7818609E-02  0.9442126E-01
       -1   -1    0    0    0  501  0.00000000000E+00  0.00000000000E+00  0.32194739971E+03  0.32194739975E+03  0.50400001928E-02 0. -1.
        1   -1    0    0  501    0  0.00000000000E+00  0.00000000000E+00 -0.61078658174E+03  0.61078658176E+03  0.50400001928E-02 0.  1.
    10030    2    1    2    0    0  0.00000000000E+00  0.00000000000E+00 -0.28883918203E+03  0.93273398152E+03  0.88688477674E+03 0.  0.
        2    1    3    3  502    0  0.30963332499E+03 -0.22767466070E+03  0.88223289284E+02  0.39432460721E+03  0.25500000920E-02 0. -1.
       -2    1    3    3    0  502 -0.30963332499E+03  0.22767466070E+03 -0.37706247131E+03  0.53840937431E+03  0.25500000920E-02 0.  1.
</event>
<event>
 5   0  0.2074970E-03  0.9013291E+03  0.7818609E-02  0.9423922E-01
        1   -1    0    0  501    0  0.00000000000E+00  0.00000000000E+00  0.11407387601E+04  0.11407387601E+04  0.50400001928E-02 0. -1.
       -1   -1    0    0    0  501  0.00000000000E+00  0.00000000000E+00 -0.17804123312E+03  0.17804123320E+03  0.50400001928E-02 0.  1.
    10030    2    1    2    0    0  0.00000000000E+00  0.00000000000E+00  0.96269752700E+03  0.13187799933E+04  0.90132909768E+03 0.  0.
        2    1    3    3  502    0 -0.23826335144E+03 -0.25286595349E+03  0.61376383924E+02  0.35281393904E+03  0.25500000920E-02 0.  1.
       -2    1    3    3    0  502  0.23826335144E+03  0.25286595349E+03  0.90132114307E+03  0.96596605428E+03  0.25500000920E-02 0. -1.
</event>
<event>
 5   0  0.3815269E-03  0.8879174E+03  0.7818609E-02  0.9440813E-01
       -2   -1    0    0    0  501  0.00000000000E+00  0.00000000000E+00  0.52678301802E+03  0.52678301802E+03  0.25500000920E-02 0. -1.
        2   -1    0    0  501    0  0.00000000000E+00  0.00000000000E+00 -0.37415658472E+03  0.37415658473E+03  0.25500000920E-02 0.  1.
    10030    2    1    2    0    0  0.00000000000E+00  0.00000000000E+00  0.15262643330E+03  0.90093960276E+03  0.88791741715E+03 0.  0.
        5    1    3    3  502    0 -0.10506249083E+03  0.31425632525E+03 -0.22345504276E+03  0.39968664110E+03  0.46999998093E+01 0.  1.
       -5    1    3    3    0  502  0.10506249083E+03 -0.31425632525E+03  0.37608147605E+03  0.50125296166E+03  0.46999998093E+01 0. -1.
</event>
<event>
 5   0  0.2130975E-03  0.8994832E+03  0.7818609E-02  0.9426228E-01
       -1   -1    0    0    0  501  0.00000000000E+00  0.00000000000E+00  0.31506043549E+03  0.31506043553E+03  0.50400001928E-02 0. -1.
        1   -1    0    0  501    0  0.00000000000E+00  0.00000000000E+00 -0.64199594744E+03  0.64199594746E+03  0.50400001928E-02 0.  1.
    10030    2    1    2    0    0  0.00000000000E+00  0.00000000000E+00 -0.32693551195E+03  0.95705638299E+03  0.89948323567E+03 0.  0.
        5    1    3    3  502    0  0.39139680190E+03 -0.22106413560E+03 -0.14901040241E+03  0.47358948321E+03  0.46999998093E+01 0. -1.
       -5    1    3    3    0  502 -0.39139680190E+03  0.22106413560E+03 -0.17792510953E+03  0.48346689978E+03  0.46999998093E+01 0.  1.
</event>
<event>
 5   0  0.2129280E-03  0.8946449E+03  0.7818609E-02  0.9432300E-01
        1   -1    0    0  501    0  0.00000000000E+00  0.00000000000E+00  0.60064692287E+03  0.60064692289E+03  0.50400001928E-02 0.  1.
       -1   -1    0    0    0  501  0.00000000000E+00  0.00000000000E+00 -0.33313642058E+03  0.33313642061E+03  0.50400001928E-02 0. -1.
    10030    2    1    2    0    0  0.00000000000E+00  0.00000000000E+00  0.26751050229E+03  0.93378334350E+03  0.89464488137E+03 0.  0.
        3    1    3    3  502    0  0.32180208451E+03 -0.98796716485E+02 -0.17371650023E+03  0.37880708208E+03  0.10100000352E+00 0. -1.
       -3    1    3    3    0  502 -0.32180208451E+03  0.98796716485E+02  0.44122700252E+03  0.55497626142E+03  0.10100000352E+00 0.  1.
</event>
<event>
 5   0  0.2130975E-03  0.8991235E+03  0.7818609E-02  0.9426678E-01
       -1   -1    0    0    0  501  0.00000000000E+00  0.00000000000E+00  0.18132520543E+03  0.18132520550E+03  0.50400001928E-02 0. -1.
        1   -1    0    0  501    0  0.00000000000E+00  0.00000000000E+00 -0.11146038938E+04  0.11146038938E+04  0.50400001928E-02 0.  1.
    10030    2    1    2    0    0  0.00000000000E+00  0.00000000000E+00 -0.93327868833E+03  0.12959290993E+04  0.89912352893E+03 0.  0.
        5    1    3    3  502    0 -0.76257297993E+02  0.33365501447E+03 -0.46565846670E+02  0.34544364556E+03  0.46999998093E+01 0. -1.
       -5    1    3    3    0  502  0.76257297993E+02 -0.33365501447E+03 -0.88671284166E+03  0.95048545373E+03  0.46999998093E+01 0.  1.
</event>
<event>
 5   0  0.2295158E-03  0.8999358E+03  0.7818609E-02  0.9425662E-01
       -1   -1    0    0    0  501  0.00000000000E+00  0.00000000000E+00  0.58147046717E+03  0.58147046719E+03  0.50400001928E-02 0. -1.
        1   -1    0    0  501    0  0.00000000000E+00  0.00000000000E+00 -0.34820535972E+03  0.34820535975E+03  0.50400001928E-02 0.  1.
    10030    2    1    2    0    0  0.00000000000E+00  0.00000000000E+00  0.23326510745E+03  0.92967582694E+03  0.89993584930E+03 0.  0.
        4    1    3    3  502    0 -0.34569522556E+03  0.78220348944E+02 -0.16973931963E+03  0.39298430184E+03  0.12699999809E+01 0.  1.
       -4    1    3    3    0  502  0.34569522556E+03 -0.78220348944E+02  0.40300442708E+03  0.53669152510E+03  0.12699999809E+01 0. -1.
</event>
<event>
 5   0  0.3806019E-03  0.8982581E+03  0.7818609E-02  0.9427762E-01
        2   -1    0    0  501    0  0.00000000000E+00  0.00000000000E+00  0.91218927108E+03  0.91218927108E+03  0.25500000920E-02 0. -1.
       -2   -1    0    0    0  501  0.00000000000E+00  0.00000000000E+00 -0.22113492238E+03  0.22113492240E+03  0.25500000920E-02 0.  1.
    10030    2    1    2    0    0  0.00000000000E+00  0.00000000000E+00  0.69105434870E+03  0.11333241935E+04  0.89825810025E+03 0.  0.
        2    1    3    3  502    0 -0.55177640000E+02  0.41804976476E+03  0.15044702983E+03  0.44771027078E+03  0.25500000920E-02 0. -1.
       -2    1    3    3    0  502  0.55177640000E+02 -0.41804976476E+03  0.54060731886E+03  0.68561392269E+03  0.25500000920E-02 0.  1.
</event>
<event>
 5   0  0.3685879E-03  0.9014806E+03  0.7818609E-02  0.9423733E-01
       -2   -1    0    0    0  501  0.00000000000E+00  0.00000000000E+00  0.16070593840E+03  0.16070593842E+03  0.25500000920E-02 0.  1.
        2   -1    0    0  501    0  0.00000000000E+00  0.00000000000E+00 -0.12642147122E+04  0.12642147122E+04  0.25500000920E-02 0. -1.
    10030    2    1    2    0    0  0.00000000000E+00  0.00000000000E+00 -0.11035087738E+04  0.14249206506E+04  0.90148058588E+03 0.  0.
        1    1    3    3  502    0 -0.23420494860E+02  0.36353057098E+03 -0.13217187191E+03  0.38752083733E+03  0.50400001928E-02 0.  1.
       -1    1    3    3    0  502  0.23420494860E+02 -0.36353057098E+03 -0.97133690187E+03  0.10373998133E+04  0.50400001928E-02 0. -1.
</event>
<event>
 5   0  0.2130975E-03  0.9003172E+03  0.7818609E-02  0.9425185E-01
        1   -1    0    0  501    0  0.00000000000E+00  0.00000000000E+00  0.61625708209E+03  0.61625708211E+03  0.50400001928E-02 0.  1.
       -1   -1    0    0    0  501  0.00000000000E+00  0.00000000000E+00 -0.32882830276E+03  0.32882830280E+03  0.50400001928E-02 0. -1.
    10030    2    1    2    0    0  0.00000000000E+00  0.00000000000E+00  0.28742877933E+03  0.94508538491E+03  0.90031721164E+03 0.  0.
        5    1    3    3  502    0  0.25464189798E+03  0.10049712885E+03  0.51880345136E+03  0.58661851340E+03  0.46999998093E+01 0.  1.
       -5    1    3    3    0  502 -0.25464189798E+03 -0.10049712885E+03 -0.23137467203E+03  0.35846687151E+03  0.46999998093E+01 0. -1.
</event>
<event>
 5   0  0.2074970E-03  0.8907409E+03  0.7818609E-02  0.9437230E-01
        1   -1    0    0  501    0  0.00000000000E+00  0.00000000000E+00  0.15029015769E+04  0.15029015769E+04  0.50400001928E-02 0. -1.
       -1   -1    0    0    0  501  0.00000000000E+00  0.00000000000E+00 -0.13198124146E+03  0.13198124155E+03  0.50400001928E-02 0.  1.
    10030    2    1    2    0    0  0.00000000000E+00  0.00000000000E+00  0.13709203355E+04  0.16348828185E+04  0.89074085119E+03 0.  0.
        2    1    3    3  502    0  0.84644743970E+02  0.97545739881E+02  0.14677771151E+04  0.14734481883E+04  0.25500000920E-02 0. -1.
       -2    1    3    3    0  502 -0.84644743970E+02 -0.97545739881E+02 -0.96856779629E+02  0.16143463017E+03  0.25500000920E-02 0.  1.
</event>
<event>
 5   0  0.2129280E-03  0.9002015E+03  0.7818609E-02  0.9425330E-01
       -1   -1    0    0    0  501  0.00000000000E+00  0.00000000000E+00  0.18995287300E+03  0.18995287307E+03  0.50400001928E-02 0.  1.
        1   -1    0    0  501    0  0.00000000000E+00  0.00000000000E+00 -0.10665314166E+04  0.10665314166E+04  0.50400001928E-02 0. -1.
    10030    2    1    2    0    0  0.00000000000E+00  0.00000000000E+00 -0.87657854362E+03  0.12564842897E+04  0.90020154805E+03 0.  0.
        3    1    3    3  502    0  0.26297965151E+03 -0.24799458857E+03 -0.63941193148E+02  0.36708050814E+03  0.10100000352E+00 0.  1.
       -3    1    3    3    0  502 -0.26297965151E+03  0.24799458857E+03 -0.81263735047E+03  0.88940378156E+03  0.10100000352E+00 0. -1.
</event>
<event>
 5   0  0.3806019E-03  0.8948378E+03  0.7818609E-02  0.9432058E-01
        2   -1    0    0  501    0  0.00000000000E+00  0.00000000000E+00  0.57563798608E+03  0.57563798609E+03  0.25500000920E-02 0.  1.
       -2   -1    0    0    0  501  0.00000000000E+00  0.00000000000E+00 -0.34775966618E+03  0.34775966619E+03  0.25500000920E-02 0. -1.
    10030    2    1    2    0    0  0.00000000000E+00  0.00000000000E+00  0.22787831990E+03  0.92339765227E+03  0.89483780404E+03 0.  0.
        2    1    3    3  502    0  0.76983996921E+02 -0.15024710084E+03 -0.31363162407E+03  0.35618186748E+03  0.25500000920E-02 0. -1.
       -2    1    3    3    0  502 -0.76983996921E+02  0.15024710084E+03  0.54150994397E+03  0.56721578480E+03  0.25500000920E-02 0.  1.
</event>
<event>
 5   0  0.3626546E-03  0.9007594E+03  0.7818609E-02  0.9424633E-01
       -2   -1    0    0    0  501  0.00000000000E+00  0.00000000000E+00  0.95933251374E+03  0.95933251374E+03  0.25500000920E-02 0.  1.
        2   -1    0    0  501    0  0.00000000000E+00  0.00000000000E+00 -0.21144062735E+03  0.21144062737E+03  0.25500000920E-02 0. -1.
    10030    2    1    2    0    0  0.00000000000E+00  0.00000000000E+00  0.74789188639E+03  0.11707731411E+04  0.90075938753E+03 0.  0.
        3    1    3    3  502    0  0.24228740740E+03  0.11421701438E+03 -0.96656246568E+02  0.28476508627E+03  0.10100000352E+00 0. -1.
       -3    1    3    3    0  502 -0.24228740740E+03 -0.11421701438E+03  0.84454813296E+03  0.88600805484E+03  0.10100000352E+00 0.  1.
</event>
<event>
 5   0  0.2134145E-03  0.8963238E+03  0.7818609E-02  0.9430189E-01
       -1   -1    0    0    0  501  0.00000000000E+00  0.00000000000E+00  0.16373149272E+03  0.16373149280E+03  0.50400001928E-02 0. -1.
        1   -1    0    0  501    0  0.00000000000E+00  0.00000000000E+00 -0.12266980585E+04  0.12266980585E+04  0.50400001928E-02 0.  1.
    10030    2    1    2    0    0  0.00000000000E+00  0.00000000000E+00 -0.10629665658E+04  0.13904295513E+04  0.89632383499E+03 0.  0.
        1    1    3    3  502    0 -0.14857633295E+03 -0.40498126464E+03 -0.34299200794E+03  0.55111547697E+03  0.50400001928E-02 0. -1.
       -1    1    3    3    0  502  0.14857633295E+03  0.40498126464E+03 -0.71997455782E+03  0.83931407432E+03  0.50400001928E-02 0.  1.
</event>
<event>
 5   0  0.3806019E-03  0.9008766E+03  0.7818609E-02  0.9424486E-01
        2   -1    0    0  501    0  0.00000000000E+00  0.00000000000E+00  0.85994681521E+03  0.85994681522E+03  0.25500000920E-02 0. -1.
       -2   -1    0    0    0  501  0.00000000000E+00  0.00000000000E+00 -0.23593859894E+03  0.23593859895E+03  0.25500000920E-02 0.  1.
    10030    2    1    2    0    0  0.00000000000E+00  0.00000000000E+00  0.62400821628E+03  0.10958854142E+04  0.90087656591E+03 0.  0.
        2    1    3    3  502    0 -0.20151225334E+03  0.24986271450E+03  0.69640741805E+03  0.76682583177E+03  0.25500000920E-02 0. -1.
       -2    1    3    3    0  502  0.20151225334E+03 -0.24986271450E+03 -0.72399201778E+02  0.32905958240E+03  0.25500000920E-02 0.  1.
</event>
<event>
 5   0  0.2295158E-03  0.8988763E+03  0.7818609E-02  0.9426987E-01
       -1   -1    0    0    0  501  0.00000000000E+00  0.00000000000E+00  0.31869654960E+03  0.31869654964E+03  0.50400001928E-02 0. -1.
        1   -1    0    0  501    0  0.00000000000E+00  0.00000000000E+00 -0.63381495900E+03  0.63381495902E+03  0.50400001928E-02 0.  1.
    10030    2    1    2    0    0  0.00000000000E+00  0.00000000000E+00 -0.31511840940E+03  0.95251150865E+03  0.89887627746E+03 0.  0.
        4    1    3    3  502    0  0.13688080007E+03  0.35976694281E+03 -0.40340342148E+03  0.55758814543E+03  0.12699999809E+01 0.  1.
       -4    1    3    3    0  502 -0.13688080007E+03 -0.35976694281E+03  0.88285012079E+02  0.39492336322E+03  0.12699999809E+01 0. -1.
</event>
<event>
 5   0  0.1436000E-03  0.9192655E+03  0.7818609E-02  0.9401814E-01
       -3   -1    0    0    0  501  0.00000000000E+00  0.00000000000E+00  0.61631715928E+03  0.61631716755E+03  0.10100000352E+00 0. -1.
        3   -1    0    0  501    0  0.00000000000E+00  0.00000000000E+00 -0.34278168858E+03  0.34278170346E+03  0.10100000352E+00 0.  1.
    10030    2    1    2    0    0  0.00000000000E+00  0.00000000000E+00  0.27353547070E+03  0.95909887101E+03  0.91926546255E+03 0.  0.
        1    1    3    3  502    0 -0.28559882492E+01  0.22876299867E+03 -0.27915616311E+03  0.36092773468E+03  0.50400001928E-02 0.  1.
       -1    1    3    3    0  502  0.28559882492E+01 -0.22876299867E+03  0.55269163381E+03  0.59817113633E+03  0.50400001928E-02 0. -1.
</event>
<event>
 5   0  0.2129280E-03  0.8970051E+03  0.7818609E-02  0.9429333E-01
        1   -1    0    0  501    0  0.00000000000E+00  0.00000000000E+00  0.54861317668E+03  0.54861317670E+03  0.50400001928E-02 0.  1.
       -1   -1    0    0    0  501  0.00000000000E+00  0.00000000000E+00 -0.36666002379E+03  0.36666002382E+03  0.50400001928E-02 0. -1.
    10030    2    1    2    0    0  0.00000000000E+00  0.00000000000E+00  0.18195315289E+03  0.91527320053E+03  0.89700506228E+03 0.  0.
        3    1    3    3  502    0  0.23138926377E+03 -0.74557871481E+02  0.47555380754E+03  0.53408922631E+03  0.10100000352E+00 0.  1.
       -3    1    3    3    0  502 -0.23138926377E+03  0.74557871481E+02 -0.29360065465E+03  0.38118397422E+03  0.10100000352E+00 0. -1.
</event>
<event>
 5   0  0.3815269E-03  0.9146326E+03  0.7818609E-02  0.9407473E-01
       -2   -1    0    0    0  501  0.00000000000E+00  0.00000000000E+00  0.17483271885E+03  0.17483271887E+03  0.25500000920E-02 0.  1.
        2   -1    0    0  501    0  0.00000000000E+00  0.00000000000E+00 -0.11962188653E+04  0.11962188653E+04  0.25500000920E-02 0. -1.
    10030    2    1    2    0    0  0.00000000000E+00  0.00000000000E+00 -0.10213861464E+04  0.13710515842E+04  0.91463259635E+03 0.  0.
        5    1    3    3  502    0 -0.37576770165E+03 -0.20908400681E+03 -0.74387904029E+03  0.85924129561E+03  0.46999998093E+01 0.  1.
       -5    1    3    3    0  502  0.37576770165E+03  0.20908400681E+03 -0.27750710614E+03  0.51181028855E+03  0.46999998093E+01 0. -1.
</event>
<event>
 5   0  0.3806019E-03  0.8491607E+03  0.7818609E-02  0.9491464E-01
        2   -1    0    0  501    0  0.00000000000E+00  0.00000000000E+00  0.12315848698E+04  0.12315848698E+04  0.25500000920E-02 0. -1.
       -2   -1    0    0    0  501  0.00000000000E+00  0.00000000000E+00 -0.14637113289E+03  0.14637113291E+03  0.25500000920E-02 0.  1.
    10030    2    1    2    0    0  0.00000000000E+00  0.00000000000E+00  0.10852137370E+04  0.13779560028E+04  0.84916069777E+03 0.  0.
        2    1    3    3  502    0  0.32476953482E+03  0.49218041671E+02  0.97915001192E+03  0.10327789755E+04  0.25500000920E-02 0. -1.
       -2    1    3    3    0  502 -0.32476953482E+03 -0.49218041671E+02  0.10606372503E+03  0.34517702725E+03  0.25500000920E-02 0.  1.
</event>
<event>
 5   0  0.2130975E-03  0.8908460E+03  0.7818609E-02  0.9437097E-01
        1   -1    0    0  501    0  0.00000000000E+00  0.00000000000E+00  0.87652953941E+03  0.87652953942E+03  0.50400001928E-02 0.  1.
       -1   -1    0    0    0  501  0.00000000000E+00  0.00000000000E+00 -0.22634909731E+03  0.22634909737E+03  0.50400001928E-02 0. -1.
    10030    2    1    2    0    0  0.00000000000E+00  0.00000000000E+00  0.65018044210E+03  0.11028786368E+04  0.89084604742E+03 0.  0.
        5    1    3    3  502    0  0.27546261878E+03 -0.34935678634E+03  0.29883496681E+03  0.53596104886E+03  0.46999998093E+01 0. -1.
       -5    1    3    3    0  502 -0.27546261878E+03  0.34935678634E+03  0.35134547529E+03  0.56691758793E+03  0.46999998093E+01 0.  1.
</event>
<event>
 5   0  0.2130975E-03  0.8996935E+03  0.7818609E-02  0.9425965E-01
       -1   -1    0    0    0  501  0.00000000000E+00  0.00000000000E+00  0.24275833284E+03  0.24275833289E+03  0.50400001928E-02 0. -1.
        1   -1    0    0  501    0  0.00000000000E+00  0.00000000000E+00 -0.83359477064E+03  0.83359477066E+03  0.50400001928E-02 0.  1.
    10030    2    1    2    0    0  0.00000000000E+00  0.00000000000E+00 -0.59083643780E+03  0.10763531036E+04  0.89969345185E+03 0.  0.
        5    1    3    3  502    0  0.94976532013E+01  0.39950508529E+03 -0.48361510216E+02  0.40256110624E+03  0.46999998093E+01 0. -1.
       -5    1    3    3    0  502 -0.94976532013E+01 -0.39950508529E+03 -0.54247492759E+03  0.67379199732E+03  0.46999998093E+01 0.  1.
</event>
<event>
 5   0  0.2074970E-03  0.9014981E+03  0.7818609E-02  0.9423711E-01
        1   -1    0    0  501    0  0.00000000000E+00  0.00000000000E+00  0.12167110794E+04  0.12167110794E+04  0.50400001928E-02 0.  1.
       -1   -1    0    0    0  501  0.00000000000E+00  0.00000000000E+00 -0.16698681625E+03  0.16698681633E+03  0.50400001928E-02 0. -1.
    10030    2    1    2    0    0  0.00000000000E+00  0.00000000000E+00  0.10497242632E+04  0.13836978958E+04  0.90149810762E+03 0.  0.
        2    1    3    3  502    0 -0.16512972489E+03  0.12606546190E+03  0.11388446012E+04  0.11576386969E+04  0.25500000920E-02 0.  1.
       -2    1    3    3    0  502  0.16512972489E+03 -0.12606546190E+03 -0.89120338085E+02  0.22605919887E+03  0.25500000920E-02 0. -1.
</event>
<event>
 5   0  0.2134145E-03  0.8699003E+03  0.7818609E-02  0.9464010E-01
       -1   -1    0    0    0  501  0.00000000000E+00  0.00000000000E+00  0.26130880858E+03  0.26130880863E+03  0.50400001928E-02 0. -1.
        1   -1    0    0  501    0  0.00000000000E+00  0.00000000000E+00 -0.72397723985E+03  0.72397723986E+03  0.50400001928E-02 0.  1.
    10030    2    1    2    0    0  0.00000000000E+00  0.00000000000E+00 -0.46266843126E+03  0.98528604849E+03  0.86990029318E+03 0.  0.
        1    1    3    3  502    0  0.10478962962E+03 -0.15840357792E+03  0.21185921609E+03  0.28452923829E+03  0.50400001928E-02 0. -1.
       -1    1    3    3    0  502 -0.10478962962E+03  0.15840357792E+03 -0.67452764735E+03  0.70075681020E+03  0.50400001928E-02 0.  1.
</event>
<event>
 5   0  0.3806019E-03  0.8995091E+03  0.7818609E-02  0.9426195E-01
        2   -1    0    0  501    0  0.00000000000E+00  0.00000000000E+00  0.44999056192E+03  0.44999056193E+03  0.25500000920E-02 0.  1.
       -2   -1    0    0    0  501  0.00000000000E+00  0.00000000000E+00 -0.44951863891E+03  0.44951863891E+03  0.25500000920E-02 0. -1.
    10030    2    1    2    0    0  0.00000000000E+00  0.00000000000E+00  0.47192301653E+00  0.89950920085E+03  0.89950907705E+03 0.  0.
        2    1    3    3  502    0  0.35864301439E+03  0.25310837718E+03  0.98166984128E+02  0.44980597945E+03  0.25500000920E-02 0.  1.
       -2    1    3    3    0  502 -0.35864301439E+03 -0.25310837718E+03 -0.97695061111E+02  0.44970322140E+03  0.25500000920E-02 0. -1.
</event>
<event>
 5   0  0.2134145E-03  0.8948585E+03  0.7818609E-02  0.9432031E-01
        1   -1    0    0  501    0  0.00000000000E+00  0.00000000000E+00  0.39056756397E+03  0.39056756400E+03  0.50400001928E-02 0.  1.
       -1   -1    0    0    0  501  0.00000000000E+00  0.00000000000E+00 -0.51256931784E+03  0.51256931786E+03  0.50400001928E-02 0. -1.
    10030    2    1    2    0    0  0.00000000000E+00  0.00000000000E+00 -0.12200175387E+03  0.90313688186E+03  0.89485853599E+03 0.  0.
        1    1    3    3  502    0  0.35805021055E+03  0.26338974884E+03 -0.11264886494E+03  0.45854539564E+03  0.50400001928E-02 0. -1.
       -1    1    3    3    0  502 -0.35805021055E+03 -0.26338974884E+03 -0.93528889281E+01  0.44459148622E+03  0.50400001928E-02 0.  1.
</event>
<event>
 5   0  0.1436000E-03  0.8994106E+03  0.7818609E-02  0.9426318E-01
        3   -1    0    0  501    0  0.00000000000E+00  0.00000000000E+00  0.28146420031E+03  0.28146421843E+03  0.10100000352E+00 0.  1.
       -3   -1    0    0    0  501  0.00000000000E+00  0.00000000000E+00 -0.71851003979E+03  0.71851004689E+03  0.10100000352E+00 0. -1.
    10030    2    1    2    0    0  0.00000000000E+00  0.00000000000E+00 -0.43704583949E+03  0.99997426532E+03  0.89941062118E+03 0.  0.
        5    1    3    3  502    0  0.85319603637E+02 -0.37916424646E+03  0.32972019877E+02  0.39006948695E+03  0.46999998093E+01 0.  1.
       -5    1    3    3    0  502 -0.85319603637E+02  0.37916424646E+03 -0.47001785937E+03  0.60990477837E+03  0.46999998093E+01 0. -1.
</event>
<event>
 5   0  0.1436000E-03  0.8983955E+03  0.7818609E-02  0.9427589E-01
        4   -1    0    0  501    0  0.00000000000E+00  0.00000000000E+00  0.15532069799E+04  0.15532074991E+04  0.12699999809E+01 0.  1.
       -4   -1    0    0    0  501  0.00000000000E+00  0.00000000000E+00 -0.12990731958E+03  0.12991352732E+03  0.12699999809E+01 0. -1.
    10030    2    1    2    0    0  0.00000000000E+00  0.00000000000E+00  0.14232996603E+04  0.16831210264E+04  0.89839549562E+03 0.  0.
        2    1    3    3  502    0  0.24338989621E+03  0.19712435052E+03  0.13149026913E+04  0.13516899566E+04  0.25500000920E-02 0.  1.
       -2    1    3    3    0  502 -0.24338989621E+03 -0.19712435052E+03  0.10839696899E+03  0.33143106981E+03  0.25500000920E-02 0. -1.
</event>
<event>
 5   0  0.2129280E-03  0.8975978E+03  0.7818609E-02  0.9428589E-01
        1   -1    0    0  501    0  0.00000000000E+00  0.00000000000E+00  0.61961531838E+03  0.61961531840E+03  0.50400001928E-02 0.  1.
       -1   -1    0    0    0  501  0.00000000000E+00  0.00000000000E+00 -0.32507341770E+03  0.32507341774E+03  0.50400001928E-02 0. -1.
    10030    2    1    2    0    0  0.00000000000E+00  0.00000000000E+00  0.29454190068E+03  0.94468873614E+03  0.89759783697E+03 0.  0.
        3    1    3    3  502    0 -0.30284156395E+03  0.81602939921E+02  0.48512379481E+03  0.57768257647E+03  0.10100000352E+00 0.  1.
       -3    1    3    3    0  502  0.30284156395E+03 -0.81602939921E+02 -0.19058189413E+03  0.36700615967E+03  0.10100000352E+00 0. -1.
</event>
<event>
 5   0  0.2130975E-03  0.9022966E+03  0.7818609E-02  0.9422715E-01
       -1   -1    0    0    0  501  0.00000000000E+00  0.00000000000E+00  0.12762411197E+03  0.12762411207E+03  0.50400001928E-02 0.  1.
        1   -1    0    0  501    0  0.00000000000E+00  0.00000000000E+00 -0.15947987498E+04  0.15947987498E+04  0.50400001928E-02 0. -1.
    10030    2    1    2    0    0  0.00000000000E+00  0.00000000000E+00 -0.14671746379E+04  0.17224228619E+04  0.90229656835E+03 0.  0.
        5    1    3    3  502    0 -0.52741086844E+02  0.14166581595E+02 -0.15884188898E+04  0.15893643301E+04  0.46999998093E+01 0. -1.
       -5    1    3    3    0  502  0.52741086844E+02 -0.14166581595E+02  0.12124425192E+03  0.13305853185E+03  0.46999998093E+01 0.  1.
</event>
<event>
 5   0  0.2130975E-03  0.9017075E+03  0.7818609E-02  0.9423449E-01
        1   -1    0    0  501    0  0.00000000000E+00  0.00000000000E+00  0.24325431117E+03  0.24325431122E+03  0.50400001928E-02 0. -1.
       -1   -1    0    0    0  501  0.00000000000E+00  0.00000000000E+00 -0.83562384165E+03  0.83562384166E+03  0.50400001928E-02 0.  1.
    10030    2    1    2    0    0  0.00000000000E+00  0.00000000000E+00 -0.59236953048E+03  0.10788781529E+04  0.90170749588E+03 0.  0.
        5    1    3    3  502    0 -0.37717147599E+03 -0.57264830072E+02 -0.58361344981E+03  0.69725485431E+03  0.46999998093E+01 0.  1.
       -5    1    3    3    0  502  0.37717147599E+03  0.57264830072E+02 -0.87560806724E+01  0.38162329857E+03  0.46999998093E+01 0. -1.
</event>
<event>
 5   0  0.3806019E-03  0.9004668E+03  0.7818609E-02  0.9424998E-01
        2   -1    0    0  501    0  0.00000000000E+00  0.00000000000E+00  0.10843182642E+04  0.10843182642E+04  0.25500000920E-02 0. -1.
       -2   -1    0    0    0  501  0.00000000000E+00  0.00000000000E+00 -0.18694705833E+03  0.18694705834E+03  0.25500000920E-02 0.  1.
    10030    2    1    2    0    0  0.00000000000E+00  0.00000000000E+00  0.89737120589E+03  0.12712653226E+04  0.90046678961E+03 0.  0.
        2    1    3    3  502    0  0.25054098509E+03 -0.34125812115E+03  0.23234498269E+03  0.48292036760E+03  0.25500000920E-02 0.  1.
       -2    1    3    3    0  502 -0.25054098509E+03  0.34125812115E+03  0.66502622321E+03  0.78834495497E+03  0.25500000920E-02 0. -1.
</event>
<event>
 5   0  0.2130975E-03  0.9013196E+03  0.7818609E-02  0.9423933E-01
        1   -1    0    0  501    0  0.00000000000E+00  0.00000000000E+00  0.74960754734E+03  0.74960754736E+03  0.50400001928E-02 0.  1.
       -1   -1    0    0    0  501  0.00000000000E+00  0.00000000000E+00 -0.27093411453E+03  0.27093411457E+03  0.50400001928E-02 0. -1.
    10030    2    1    2    0    0  0.00000000000E+00  0.00000000000E+00  0.47867343282E+03  0.10205416619E+04  0.90131960394E+03 0.  0.
        5    1    3    3  502    0 -0.26100271893E+03 -0.12650994851E+03  0.62984026231E+03  0.69343206761E+03  0.46999998093E+01 0.  1.
       -5    1    3    3    0  502  0.26100271893E+03  0.12650994851E+03 -0.15116682950E+03  0.32710959432E+03  0.46999998093E+01 0. -1.
</event>
<event>
 5   0  0.2134145E-03  0.8987357E+03  0.7818609E-02  0.9427163E-01
        1   -1    0    0  501    0  0.00000000000E+00  0.00000000000E+00  0.10780730811E+04  0.10780730811E+04  0.50400001928E-02 0.  1.
       -1   -1    0    0    0  501  0.00000000000E+00  0.00000000000E+00 -0.18730775127E+03  0.18730775134E+03  0.50400001928E-02 0. -1.
    10030    2    1    2    0    0  0.00000000000E+00  0.00000000000E+00  0.89076532979E+03  0.12653808324E+04  0.89873565539E+03 0.  0.
        1    1    3    3  502    0  0.11529136872E+03  0.16417393386E+03 -0.12075994589E+03  0.23415410485E+03  0.50400001928E-02 0. -1.
       -1    1    3    3    0  502 -0.11529136872E+03 -0.16417393386E+03  0.10115252757E+04  0.10312267276E+04  0.50400001928E-02 0.  1.
</event>
<event>
 5   0  0.3806019E-03  0.8986030E+03  0.7818609E-02  0.9427329E-01
        2   -1    0    0  501    0  0.00000000000E+00  0.00000000000E+00  0.16910635280E+04  0.16910635280E+04  0.25500000920E-02 0. -1.
       -2   -1    0    0    0  501  0.00000000000E+00  0.00000000000E+00 -0.11937566530E+03  0.11937566533E+03  0.25500000920E-02 0.  1.
    10030    2    1    2    0    0  0.00000000000E+00  0.00000000000E+00  0.15716878627E+04  0.18104391934E+04  0.89860299076E+03 0.  0.
        2    1    3    3  502    0 -0.18294746059E+03  0.33947676516E+03  0.12503578266E+04  0.13084758087E+04  0.25500000920E-02 0. -1.
       -2    1    3    3    0  502  0.18294746059E+03 -0.33947676516E+03  0.32133003616E+03  0.50196338468E+03  0.25500000920E-02 0.  1.
</event>
<event>
 5   0  0.2074970E-03  0.8998447E+03  0.7818609E-02  0.9425776E-01
        1   -1    0    0  501    0  0.00000000000E+00  0.00000000000E+00  0.35205395768E+03  0.35205395772E+03  0.50400001928E-02 0.  1.
       -1   -1    0    0    0  501  0.00000000000E+00  0.00000000000E+00 -0.57499740951E+03  0.57499740953E+03  0.50400001928E-02 0. -1.
    10030    2    1    2    0    0  0.00000000000E+00  0.00000000000E+00 -0.22294345183E+03  0.92705136725E+03  0.89984468372E+03 0.  0.
        2    1    3    3  502    0  0.16089634786E+03 -0.31576122690E+03 -0.39704816001E+03  0.53220299561E+03  0.25500000920E-02 0. -1.
       -2    1    3    3    0  502 -0.16089634786E+03  0.31576122690E+03  0.17410470819E+03  0.39484837164E+03  0.25500000920E-02 0.  1.
</event>
<event>
 5   0  0.2074970E-03  0.8979388E+03  0.7818609E-02  0.9428162E-01
        1   -1    0    0  501    0  0.00000000000E+00  0.00000000000E+00  0.99397979742E+03  0.99397979744E+03  0.50400001928E-02 0. -1.
       -1   -1    0    0    0  501  0.00000000000E+00  0.00000000000E+00 -0.20279438211E+03  0.20279438217E+03  0.50400001928E-02 0.  1.
    10030    2    1    2    0    0  0.00000000000E+00  0.00000000000E+00  0.79118541531E+03  0.11967741796E+04  0.89793879278E+03 0.  0.
        2    1    3    3  502    0  0.35145629972E+03  0.82479156500E+02  0.39834111662E+02  0.36319567498E+03  0.25500000920E-02 0.  1.
       -2    1    3    3    0  502 -0.35145629972E+03 -0.82479156500E+02  0.75135130365E+03  0.83357850462E+03  0.25500000920E-02 0. -1.
</event>
<event>
 5   0  0.2295158E-03  0.9081042E+03  0.7818609E-02  0.9415507E-01
       -1   -1    0    0    0  501  0.00000000000E+00  0.00000000000E+00  0.29999230844E+03  0.29999230848E+03  0.50400001928E-02 0.  1.
        1   -1    0    0  501    0  0.00000000000E+00  0.00000000000E+00 -0.68722860393E+03  0.68722860395E+03  0.50400001928E-02 0. -1.
    10030    2    1    2    0    0  0.00000000000E+00  0.00000000000E+00 -0.38723629549E+03  0.98722091243E+03  0.90810416879E+03 0.  0.
        4    1    3    3  502    0 -0.24575731036E+03  0.31951078161E+03  0.33582459989E+02  0.40449127269E+03  0.12699999809E+01 0.  1.
       -4    1    3    3    0  502  0.24575731036E+03 -0.31951078161E+03 -0.42081875548E+03  0.58272963974E+03  0.12699999809E+01 0. -1.
</event>
<event>
 5   0  0.2295158E-03  0.8611707E+03  0.7818609E-02  0.9475465E-01
        1   -1    0    0  501    0  0.00000000000E+00  0.00000000000E+00  0.85872469489E+03  0.85872469490E+03  0.50400001928E-02 0.  1.
       -1   -1    0    0    0  501  0.00000000000E+00  0.00000000000E+00 -0.21590591110E+03  0.21590591116E+03  0.50400001928E-02 0. -1.
    10030    2    1    2    0    0  0.00000000000E+00  0.00000000000E+00  0.64281878378E+03  0.10746306061E+04  0.86117068616E+03 0.  0.
        4    1    3    3  502    0 -0.33936454913E+03 -0.26495623910E+03  0.32847050817E+03  0.54153909691E+03  0.12699999809E+01 0.  1.
       -4    1    3    3    0  502  0.33936454913E+03  0.26495623910E+03  0.31434827561E+03  0.53309150915E+03  0.12699999809E+01 0. -1.
</event>
<event>
 5   0  0.2130975E-03  0.8991033E+03  0.7818609E-02  0.9426703E-01
       -1   -1    0    0    0  501  0.00000000000E+00  0.00000000000E+00  0.22107412426E+03  0.22107412431E+03  0.50400001928E-02 0. -1.
        1   -1    0    0  501    0  0.00000000000E+00  0.00000000000E+00 -0.91415794398E+03  0.91415794399E+03  0.50400001928E-02 0.  1.
    10030    2    1    2    0    0  0.00000000000E+00  0.00000000000E+00 -0.69308381972E+03  0.11352320683E+04  0.89910325755E+03 0.  0.
        5    1    3    3  502    0 -0.11291651942E+03  0.42996628483E+03 -0.43080209683E+03  0.61905870730E+03  0.46999998093E+01 0.  1.
       -5    1    3    3    0  502  0.11291651942E+03 -0.42996628483E+03 -0.26228172289E+03  0.51617336100E+03  0.46999998093E+01 0. -1.
</event>
<event>
 5   0  0.2129280E-03  0.8743095E+03  0.7818609E-02  0.9458278E-01
        1   -1    0    0  501    0  0.00000000000E+00  0.00000000000E+00  0.10092513398E+04  0.10092513399E+04  0.50400001928E-02 0. -1.
       -1   -1    0    0    0  501  0.00000000000E+00  0.00000000000E+00 -0.18935249540E+03  0.18935249547E+03  0.50400001928E-02 0.  1.
    10030    2    1    2    0    0  0.00000000000E+00  0.00000000000E+00  0.81989884444E+03  0.11986038353E+04  0.87430946406E+03 0.  0.
        3    1    3    3  502    0  0.34877053084E+03  0.24227768627E+02  0.50162274673E+02  0.35319135317E+03  0.10100000352E+00 0.  1.
       -3    1    3    3    0  502 -0.34877053084E+03 -0.24227768627E+02  0.76973656977E+03  0.84541248216E+03  0.10100000352E+00 0. -1.
</event>
<event>
 5   0  0.3815269E-03  0.9002371E+03  0.7818609E-02  0.9425285E-01
        2   -1    0    0  501    0  0.00000000000E+00  0.00000000000E+00  0.93470053280E+03  0.93470053281E+03  0.25500000920E-02 0. -1.
       -2   -1    0    0    0  501  0.00000000000E+00  0.00000000000E+00 -0.21676109571E+03  0.21676109573E+03  0.25500000920E-02 0.  1.
    10030    2    1    2    0    0  0.00000000000E+00  0.00000000000E+00  0.71793943709E+03  0.11514616285E+04  0.90023710580E+03 0.  0.
        5    1    3    3  502    0  0.20007809221E+03  0.67203397552E+02 -0.14950815768E+03  0.25869348434E+03  0.46999998093E+01 0.  1.
       -5    1    3    3    0  502 -0.20007809221E+03 -0.67203397552E+02  0.86744759477E+03  0.89276814420E+03  0.46999998093E+01 0. -1.
</event>
<event>
 5   0  0.2130975E-03  0.9006946E+03  0.7818609E-02  0.9424714E-01
        1   -1    0    0  501    0  0.00000000000E+00  0.00000000000E+00  0.58912575933E+03  0.58912575935E+03  0.50400001928E-02 0.  1.
       -1   -1    0    0    0  501  0.00000000000E+00  0.00000000000E+00 -0.34426041540E+03  0.34426041544E+03  0.50400001928E-02 0. -1.
    10030    2    1    2    0    0  0.00000000000E+00  0.00000000000E+00  0.24486534393E+03  0.93338617478E+03  0.90069457344E+03 0.  0.
        5    1    3    3  502    0 -0.27974286656E+02  0.29911767197E+03  0.47007352100E+03  0.55789349121E+03  0.46999998093E+01 0.  1.
       -5    1    3    3    0  502  0.27974286656E+02 -0.29911767197E+03 -0.22520817707E+03  0.37549268357E+03  0.46999998093E+01 0. -1.
</event>
<event>
 5   0  0.3685879E-03  0.9029392E+03  0.7818609E-02  0.9421915E-01
       -2   -1    0    0    0  501  0.00000000000E+00  0.00000000000E+00  0.14935769782E+03  0.14935769784E+03  0.25500000920E-02 0.  1.
        2   -1    0    0  501    0  0.00000000000E+00  0.00000000000E+00 -0.13646754670E+04  0.13646754670E+04  0.25500000920E-02 0. -1.
    10030    2    1    2    0    0  0.00000000000E+00  0.00000000000E+00 -0.12153177692E+04  0.15140331648E+04  0.90293916970E+03 0.  0.
        1    1    3    3  502    0  0.37597502342E+03  0.17343061323E+03 -0.90943042576E+03  0.99924926578E+03  0.50400001928E-02 0. -1.
       -1    1    3    3    0  502 -0.37597502342E+03 -0.17343061323E+03 -0.30588734341E+03  0.51478389906E+03  0.50400001928E-02 0.  1.
</event>
<event>
 5   0  0.2129280E-03  0.8980591E+03  0.7818609E-02  0.9428011E-01
       -1   -1    0    0    0  501  0.00000000000E+00  0.00000000000E+00  0.85042031435E+03  0.85042031436E+03  0.50400001928E-02 0.  1.
        1   -1    0    0  501    0  0.00000000000E+00  0.00000000000E+00 -0.23709162836E+03  0.23709162841E+03  0.50400001928E-02 0. -1.
    10030    2    1    2    0    0  0.00000000000E+00  0.00000000000E+00  0.61332868598E+03  0.10875119428E+04  0.89805910085E+03 0.  0.
        3    1    3    3  502    0 -0.44208872626E+03 -0.39665525415E+02  0.38890017827E+03  0.59013486141E+03  0.10100000352E+00 0.  1.
       -3    1    3    3    0  502  0.44208872626E+03  0.39665525415E+02  0.22442850771E+03  0.49737708137E+03  0.10100000352E+00 0. -1.
</event>
<event>
 5   0  0.2074970E-03  0.9024214E+03  0.7818609E-02  0.9422560E-01
       -1   -1    0    0    0  501  0.00000000000E+00  0.00000000000E+00  0.13249907588E+03  0.13249907598E+03  0.50400001928E-02 0. -1.
        1   -1    0    0  501    0  0.00000000000E+00  0.00000000000E+00 -0.15365471463E+04  0.15365471463E+04  0.50400001928E-02 0.  1.
    10030    2    1    2    0    0  0.00000000000E+00  0.00000000000E+00 -0.14040480704E+04  0.16690462223E+04  0.90242135839E+03 0.  0.
        2    1    3    3  502    0 -0.19161820471E+03  0.37717820259E+03 -0.99216969412E+03  0.10786017035E+04  0.25500000920E-02 0.  1.
       -2    1    3    3    0  502  0.19161820471E+03 -0.37717820259E+03 -0.41187837630E+03  0.59044451878E+03  0.25500000920E-02 0. -1.
</event>
<event>
 5   0  0.1436000E-03  0.9008713E+03  0.7818609E-02  0.9424493E-01
       -3   -1    0    0    0  501  0.00000000000E+00  0.00000000000E+00  0.69151285655E+03  0.69151286393E+03  0.10100000352E+00 0.  1.
        3   -1    0    0  501    0  0.00000000000E+00  0.00000000000E+00 -0.29340345892E+03  0.29340347630E+03  0.10100000352E+00 0. -1.
    10030    2    1    2    0    0  0.00000000000E+00  0.00000000000E+00  0.39810939764E+03  0.98491634023E+03  0.90087130311E+03 0.  0.
        1    1    3    3  502    0  0.65993089368E+01 -0.34305649196E+02 -0.29192013121E+03  0.29400304672E+03  0.50400001928E-02 0. -1.
       -1    1    3    3    0  502 -0.65993089368E+01  0.34305649196E+02  0.69002952885E+03  0.69091329352E+03  0.50400001928E-02 0.  1.
</event>
<event>
 5   0  0.3685879E-03  0.8993884E+03  0.7818609E-02  0.9426346E-01
       -2   -1    0    0    0  501  0.00000000000E+00  0.00000000000E+00  0.40143309119E+03  0.40143309120E+03  0.25500000920E-02 0.  1.
        2   -1    0    0  501    0  0.00000000000E+00  0.00000000000E+00 -0.50375733135E+03  0.50375733136E+03  0.25500000920E-02 0. -1.
    10030    2    1    2    0    0  0.00000000000E+00  0.00000000000E+00 -0.10232424016E+03  0.90519042255E+03  0.89938837604E+03 0.  0.
        1    1    3    3  502    0 -0.29620751543E+03  0.31549429252E+03 -0.17421829935E+03  0.46650568771E+03  0.50400001928E-02 0.  1.
       -1    1    3    3    0  502  0.29620751543E+03 -0.31549429252E+03  0.71894059189E+02  0.43868473484E+03  0.50400001928E-02 0. -1.
</event>
<event>
 5   0  0.3626546E-03  0.8966429E+03  0.7818609E-02  0.9429788E-01
       -2   -1    0    0    0  501  0.00000000000E+00  0.00000000000E+00  0.11105198005E+04  0.11105198005E+04  0.25500000920E-02 0.  1.
        2   -1    0    0  501    0  0.00000000000E+00  0.00000000000E+00 -0.18098923911E+03  0.18098923913E+03  0.25500000920E-02 0. -1.
    10030    2    1    2    0    0  0.00000000000E+00  0.00000000000E+00  0.92953056135E+03  0.12915090396E+04  0.89664292494E+03 0.  0.
        3    1    3    3  502    0  0.13397996214E+03  0.16745783795E+03 -0.10231283138E+03  0.23761456903E+03  0.10100000352E+00 0. -1.
       -3    1    3    3    0  502 -0.13397996214E+03 -0.16745783795E+03  0.10318433927E+04  0.10538944706E+04  0.10100000352E+00 0.  1.
</event>
<event>
 5   0  0.3685879E-03  0.9254536E+03  0.7818609E-02  0.9394311E-01
        2   -1    0    0  501    0  0.00000000000E+00  0.00000000000E+00  0.50822329984E+03  0.50822329984E+03  0.25500000920E-02 0. -1.
       -2   -1    0    0    0  501  0.00000000000E+00  0.00000000000E+00 -0.42130320679E+03  0.42130320680E+03  0.25500000920E-02 0.  1.
    10030    2    1    2    0    0  0.00000000000E+00  0.00000000000E+00  0.86920093043E+02  0.92952650664E+03  0.92545363146E+03 0.  0.
        1    1    3    3  502    0  0.10141197097E+02 -0.36504605177E+03 -0.24196420009E+03  0.43807321071E+03  0.50400001928E-02 0.  1.
       -1    1    3    3    0  502 -0.10141197097E+02  0.36504605177E+03  0.32888429313E+03  0.49145329593E+03  0.50400001928E-02 0. -1.
</event>
<event>
 5   0  0.3626546E-03  0.9012855E+03  0.7818609E-02  0.9423976E-01
       -2   -1    0    0    0  501  0.00000000000E+00  0.00000000000E+00  0.59280083813E+03  0.59280083813E+03  0.25500000920E-02 0.  1.
        2   -1    0    0  501    0  0.00000000000E+00  0.00000000000E+00 -0.34257524679E+03  0.34257524680E+03  0.25500000920E-02 0. -1.
    10030    2    1    2    0    0  0.00000000000E+00  0.00000000000E+00  0.25022559134E+03  0.93537608493E+03  0.90128551175E+03 0.  0.
        3    1    3    3  502    0  0.89554387608E+02 -0.14937753925E+03 -0.30623434536E+03  0.35229692313E+03  0.10100000352E+00 0. -1.
       -3    1    3    3    0  502 -0.89554387608E+02  0.14937753925E+03  0.55645993670E+03  0.58307916180E+03  0.10100000352E+00 0.  1.
</event>
<event>
 5   0  0.3806019E-03  0.8973962E+03  0.7818609E-02  0.9428842E-01
       -2   -1    0    0    0  501  0.00000000000E+00  0.00000000000E+00  0.49088186640E+03  0.49088186641E+03  0.25500000920E-02 0.  1.
        2   -1    0    0  501    0  0.00000000000E+00  0.00000000000E+00 -0.41013939322E+03  0.41013939322E+03  0.25500000920E-02 0. -1.
    10030    2    1    2    0    0  0.00000000000E+00  0.00000000000E+00  0.80742473184E+02  0.90102125963E+03  0.89739621312E+03 0.  0.
        2    1    3    3  502    0  0.74214575091E+02  0.34842525811E+03 -0.23353476834E+03  0.42596531746E+03  0.25500000920E-02 0. -1.
       -2    1    3    3    0  502 -0.74214575091E+02 -0.34842525811E+03  0.31427724152E+03  0.47505594217E+03  0.25500000920E-02 0.  1.
</event>
<event>
 5   0  0.3685879E-03  0.9023593E+03  0.7818609E-02  0.9422637E-01
        2   -1    0    0  501    0  0.00000000000E+00  0.00000000000E+00  0.18410808642E+04  0.18410808642E+04  0.25500000920E-02 0. -1.
       -2   -1    0    0    0  501  0.00000000000E+00  0.00000000000E+00 -0.11056714643E+03  0.11056714646E+03  0.25500000920E-02 0.  1.
    10030    2    1    2    0    0  0.00000000000E+00  0.00000000000E+00  0.17305137177E+04  0.19516480106E+04  0.90235925777E+03 0.  0.
        1    1    3    3  502    0  0.84271345086E+02  0.36582880422E+03  0.14065288966E+04  0.14557664341E+04  0.50400001928E-02 0.  1.
       -1    1    3    3    0  502 -0.84271345086E+02 -0.36582880422E+03  0.32398482113E+03  0.49588157653E+03  0.50400001928E-02 0. -1.
</event>
<event>
 5   0  0.2130975E-03  0.9000911E+03  0.7818609E-02  0.9425468E-01
        1   -1    0    0  501    0  0.00000000000E+00  0.00000000000E+00  0.48247439721E+03  0.48247439723E+03  0.50400001928E-02 0.  1.
       -1   -1    0    0    0  501  0.00000000000E+00  0.00000000000E+00 -0.41979639381E+03  0.41979639384E+03  0.50400001928E-02 0. -1.
    10030    2    1    2    0    0  0.00000000000E+00  0.00000000000E+00  0.62678003398E+02  0.90227079107E+03  0.90009113334E+03 0.  0.
        5    1    3    3  502    0  0.26926432672E+03 -0.15787463423E+02  0.39244237358E+03  0.47622014680E+03  0.46999998093E+01 0.  1.
       -5    1    3    3    0  502 -0.26926432672E+03  0.15787463423E+02 -0.32976437018E+03  0.42605064427E+03  0.46999998093E+01 0. -1.
</event>
<event>
 5   0  0.2130975E-03  0.8986729E+03  0.7818609E-02  0.9427242E-01
       -1   -1    0    0    0  501  0.00000000000E+00  0.00000000000E+00  0.12972121677E+03  0.12972121686E+03  0.50400001928E-02 0. -1.
        1   -1    0    0  501    0  0.00000000000E+00  0.00000000000E+00 -0.15564397066E+04  0.15564397066E+04  0.50400001928E-02 0.  1.
    10030    2    1    2    0    0  0.00000000000E+00  0.00000000000E+00 -0.14267184898E+04  0.16861609235E+04  0.89867291637E+03 0.  0.
        5    1    3    3  502    0 -0.20558572851E+02 -0.25338871251E+02  0.12744909151E+03  0.13164373984E+03  0.46999998093E+01 0. -1.
       -5    1    3    3    0  502  0.20558572851E+02  0.25338871251E+02 -0.15541675814E+04  0.15545171836E+04  0.46999998093E+01 0.  1.
</event>
<event>
 5   0  0.3806019E-03  0.9002989E+03  0.7818609E-02  0.9425208E-01
        2   -1    0    0  501    0  0.00000000000E+00  0.00000000000E+00  0.12350945654E+04  0.12350945654E+04  0.25500000920E-02 0.  1.
       -2   -1    0    0    0  501  0.00000000000E+00  0.00000000000E+00 -0.16406397376E+03  0.16406397378E+03  0.25500000920E-02 0. -1.
    10030    2    1    2    0    0  0.00000000000E+00  0.00000000000E+00  0.10710305917E+04  0.13991585392E+04  0.90029888903E+03 0.  0.
        2    1    3    3  502    0  0.35936255166E+03 -0.26815129019E+03  0.47358536464E+03  0.65217302579E+03  0.25500000920E-02 0. -1.
       -2    1    3    3    0  502 -0.35936255166E+03  0.26815129019E+03  0.59744522703E+03  0.74698551343E+03  0.25500000920E-02 0.  1.
</event>
<event>
 5   0  0.2129280E-03  0.8489297E+03  0.7818609E-02  0.9491775E-01
        1   -1    0    0  501    0  0.00000000000E+00  0.00000000000E+00  0.46790941002E+03  0.46790941005E+03  0.50400001928E-02 0. -1.
       -1   -1    0    0    0  501  0.00000000000E+00  0.00000000000E+00 -0.38505405269E+03  0.38505405272E+03  0.50400001928E-02 0.  1.
    10030    2    1    2    0    0  0.00000000000E+00  0.00000000000E+00  0.82855357335E+02  0.85296346277E+03  0.84892971357E+03 0.  0.
        3    1    3    3  502    0  0.18907530514E+03  0.16093043615E+03  0.38733422446E+03  0.46008247949E+03  0.10100000352E+00 0. -1.
       -3    1    3    3    0  502 -0.18907530514E+03 -0.16093043615E+03 -0.30447886713E+03  0.39288098328E+03  0.10100000352E+00 0.  1.
</event>
<event>
 5   0  0.2130975E-03  0.8948676E+03  0.7818609E-02  0.9432020E-01
        1   -1    0    0  501    0  0.00000000000E+00  0.00000000000E+00  0.10397731061E+04  0.10397731061E+04  0.50400001928E-02 0.  1.
       -1   -1    0    0    0  501  0.00000000000E+00  0.00000000000E+00 -0.19253911339E+03  0.19253911346E+03  0.50400001928E-02 0. -1.
    10030    2    1    2    0    0  0.00000000000E+00  0.00000000000E+00  0.84723399267E+03  0.12323122195E+04  0.89486757013E+03 0.  0.
        5    1    3    3  502    0 -0.41708884115E+03 -0.15283318091E+03  0.35005132038E+03  0.56557855290E+03  0.46999998093E+01 0.  1.
       -5    1    3    3    0  502  0.41708884115E+03  0.15283318091E+03  0.49718267229E+03  0.66673366663E+03  0.46999998093E+01 0. -1.
</event>
<event>
 5   0  0.1436000E-03  0.9014654E+03  0.7818609E-02  0.9423751E-01
        4   -1    0    0  501    0  0.00000000000E+00  0.00000000000E+00  0.10430238341E+04  0.10430246073E+04  0.12699999809E+01 0.  1.
       -4   -1    0    0    0  501  0.00000000000E+00  0.00000000000E+00 -0.19477686549E+03  0.19478100583E+03  0.12699999809E+01 0. -1.
    10030    2    1    2    0    0  0.00000000000E+00  0.00000000000E+00  0.84824696860E+03  0.12378056131E+04  0.90146537154E+03 0.  0.
        4    1    3    3  502    0 -0.31368216038E+02  0.44931340768E+03  0.44758057723E+03  0.63497755024E+03  0.12699999809E+01 0.  1.
       -4    1    3    3    0  502  0.31368216038E+02 -0.44931340768E+03  0.40066639137E+03  0.60282806286E+03  0.12699999809E+01 0. -1.
</event>
<event>
 5   0  0.3626546E-03  0.8983102E+03  0.7818609E-02  0.9427696E-01
        2   -1    0    0  501    0  0.00000000000E+00  0.00000000000E+00  0.49515160644E+03  0.49515160645E+03  0.25500000920E-02 0. -1.
       -2   -1    0    0    0  501  0.00000000000E+00  0.00000000000E+00 -0.40743137079E+03  0.40743137079E+03  0.25500000920E-02 0.  1.
    10030    2    1    2    0    0  0.00000000000E+00  0.00000000000E+00  0.87720235652E+02  0.90258297724E+03  0.89831018644E+03 0.  0.
        3    1    3    3  502    0 -0.99755835421E+02  0.24577117170E+02  0.48318697282E+03  0.49398878762E+03  0.10100000352E+00 0. -1.
       -3    1    3    3    0  502  0.99755835421E+02 -0.24577117170E+02 -0.39546673717E+03  0.40859418962E+03  0.10100000352E+00 0.  1.
</event>
<event>
 5   0  0.2130975E-03  0.8962440E+03  0.7818609E-02  0.9430289E-01
        1   -1    0    0  501    0  0.00000000000E+00  0.00000000000E+00  0.11348758217E+04  0.11348758217E+04  0.50400001928E-02 0.  1.
       -1   -1    0    0    0  501  0.00000000000E+00  0.00000000000E+00 -0.17694739577E+03  0.17694739584E+03  0.50400001928E-02 0. -1.
    10030    2    1    2    0    0  0.00000000000E+00  0.00000000000E+00  0.95792842594E+03  0.13118232176E+04  0.89624398739E+03 0.  0.
        5    1    3    3  502    0  0.15248250961E+03  0.32357656958E+01  0.10956795447E+04  0.11062536511E+04  0.46999998093E+01 0.  1.
       -5    1    3    3    0  502 -0.15248250961E+03 -0.32357656958E+01 -0.13775111879E+03  0.20556956643E+03  0.46999998093E+01 0. -1.
</event>
<event>
 5   0  0.3806019E-03  0.9082088E+03  0.7818609E-02  0.9415378E-01
        2   -1    0    0  501    0  0.00000000000E+00  0.00000000000E+00  0.14329786724E+03  0.14329786726E+03  0.25500000920E-02 0. -1.
       -2   -1    0    0    0  501  0.00000000000E+00  0.00000000000E+00 -0.14390361148E+04  0.14390361148E+04  0.25500000920E-02 0.  1.
    10030    2    1    2    0    0  0.00000000000E+00  0.00000000000E+00 -0.12957382475E+04  0.15823339820E+04  0.90820880010E+03 0.  0.
        2    1    3    3  502    0 -0.52495031472E+02 -0.41727989758E+03 -0.94626132578E+03  0.10355137555E+04  0.25500000920E-02 0.  1.
       -2    1    3    3    0  502  0.52495031472E+02  0.41727989758E+03 -0.34947692174E+03  0.54682022648E+03  0.25500000920E-02 0. -1.
</event>
<event>
 5   0  0.2134145E-03  0.8980734E+03  0.7818609E-02  0.9427993E-01
        1   -1    0    0  501    0  0.00000000000E+00  0.00000000000E+00  0.60782338557E+03  0.60782338559E+03  0.50400001928E-02 0. -1.
       -1   -1    0    0    0  501  0.00000000000E+00  0.00000000000E+00 -0.33173119508E+03  0.33173119511E+03  0.50400001928E-02 0.  1.
    10030    2    1    2    0    0  0.00000000000E+00  0.00000000000E+00  0.27609219050E+03  0.93955458071E+03  0.89807344492E+03 0.  0.
        1    1    3    3  502    0  0.25863657040E+01 -0.92701259935E+02  0.59769560393E+03  0.60484729301E+03  0.50400001928E-02 0. -1.
       -1    1    3    3    0  502 -0.25863657040E+01  0.92701259935E+02 -0.32160341343E+03  0.33470728770E+03  0.50400001928E-02 0.  1.
</event>
<event>
 5   0  0.1436000E-03  0.9005735E+03  0.7818609E-02  0.9424865E-01
       -3   -1    0    0    0  501  0.00000000000E+00  0.00000000000E+00  0.46972518693E+03  0.46972519779E+03  0.10100000352E+00 0.  1.
        3   -1    0    0  501    0  0.00000000000E+00  0.00000000000E+00 -0.43165266444E+03  0.43165267626E+03  0.10100000352E+00 0. -1.
    10030    2    1    2    0    0  0.00000000000E+00  0.00000000000E+00  0.38072522487E+02  0.90137787405E+03  0.90057345889E+03 0.  0.
        4    1    3    3  502    0  0.43480872421E+02 -0.75954310020E+01  0.46755286437E+03  0.46963344293E+03  0.12699999809E+01 0.  1.
       -4    1    3    3    0  502 -0.43480872421E+02  0.75954310020E+01 -0.42948034188E+03  0.43174443112E+03  0.12699999809E+01 0. -1.
</event>
<event>
 5   0  0.3626546E-03  0.9280581E+03  0.7818609E-02  0.9391171E-01
        2   -1    0    0  501    0  0.00000000000E+00  0.00000000000E+00  0.17626915358E+04  0.17626915358E+04  0.25500000920E-02 0.  1.
       -2   -1    0    0    0  501  0.00000000000E+00  0.00000000000E+00 -0.12215577484E+03  0.12215577486E+03  0.25500000920E-02 0. -1.
    10030    2    1    2    0    0  0.00000000000E+00  0.00000000000E+00  0.16405357610E+04  0.18848473107E+04  0.92805808091E+03 0.  0.
        3    1    3    3  502    0 -0.10047406853E+03  0.45291186607E+03  0.80008631440E+03  0.92485799860E+03  0.10100000352E+00 0. -1.
       -3    1    3    3    0  502  0.10047406853E+03 -0.45291186607E+03  0.84044944659E+03  0.95998931210E+03  0.10100000352E+00 0.  1.
</event>
<event>
 5   0  0.2074970E-03  0.9021882E+03  0.7818609E-02  0.9422850E-01
       -1   -1    0    0    0  501  0.00000000000E+00  0.00000000000E+00  0.51270464957E+03  0.51270464960E+03  0.50400001928E-02 0. -1.
        1   -1    0    0  501    0  0.00000000000E+00  0.00000000000E+00 -0.39688716887E+03  0.39688716890E+03  0.50400001928E-02 0.  1.
    10030    2    1    2    0    0  0.00000000000E+00  0.00000000000E+00  0.11581748071E+03  0.90959181850E+03  0.90218822174E+03 0.  0.
        2    1    3    3  502    0 -0.39610716059E+03 -0.11530821857E+02  0.27520480198E+03  0.48246401478E+03  0.25500000920E-02 0. -1.
       -2    1    3    3    0  502  0.39610716059E+03  0.11530821857E+02 -0.15938732127E+03  0.42712780372E+03  0.25500000920E-02 0.  1.
</event>
<event>
 5   0  0.2129280E-03  0.9029923E+03  0.7818609E-02  0.9421849E-01
        1   -1    0    0  501    0  0.00000000000E+00  0.00000000000E+00  0.62392387884E+03  0.62392387886E+03  0.50400001928E-02 0. -1.
       -1   -1    0    0    0  501  0.00000000000E+00  0.00000000000E+00 -0.32672061279E+03  0.32672061283E+03  0.50400001928E-02 0.  1.
    10030    2    1    2    0    0  0.00000000000E+00  0.00000000000E+00  0.29720326605E+03  0.95064449169E+03  0.90299234118E+03 0.  0.
        3    1    3    3  502    0 -0.43816668430E+02 -0.29615519966E+03 -0.20719923942E+03  0.36408699199E+03  0.10100000352E+00 0.  1.
       -3    1    3    3    0  502  0.43816668430E+02  0.29615519966E+03  0.50440250547E+03  0.58655749970E+03  0.10100000352E+00 0. -1.
</event>
<event>
 5   0  0.2130975E-03  0.8984764E+03  0.7818609E-02  0.9427488E-01
       -1   -1    0    0    0  501  0.00000000000E+00  0.00000000000E+00  0.64279924785E+03  0.64279924787E+03  0.50400001928E-02 0. -1.
        1   -1    0    0  501    0  0.00000000000E+00  0.00000000000E+00 -0.31396263195E+03  0.31396263199E+03  0.50400001928E-02 0.  1.
    10030    2    1    2    0    0  0.00000000000E+00  0.00000000000E+00  0.32883661590E+03  0.95676187986E+03  0.89847636296E+03 0.  0.
        5    1    3    3  502    0  0.19346173830E+03  0.48961771908E+02 -0.26414207753E+03  0.33108582937E+03  0.46999998093E+01 0.  1.
       -5    1    3    3    0  502 -0.19346173830E+03 -0.48961771908E+02  0.59297869343E+03  0.62567605049E+03  0.46999998093E+01 0. -1.
</event>
<event>
 5   0  0.2074970E-03  0.8971524E+03  0.7818609E-02  0.9429148E-01
        1   -1    0    0  501    0  0.00000000000E+00  0.00000000000E+00  0.69558095536E+03  0.69558095538E+03  0.50400001928E-02 0. -1.
       -1   -1    0    0    0  501  0.00000000000E+00  0.00000000000E+00 -0.28928426804E+03  0.28928426808E+03  0.50400001928E-02 0.  1.
    10030    2    1    2    0    0  0.00000000000E+00  0.00000000000E+00  0.40629668733E+03  0.98486522346E+03  0.89715244538E+03 0.  0.
        2    1    3    3  502    0  0.14501705684E+03 -0.41645571021E+03  0.29337473580E+03  0.52965464309E+03  0.25500000920E-02 0. -1.
       -2    1    3    3    0  502 -0.14501705684E+03  0.41645571021E+03  0.11292195153E+03  0.45521058037E+03  0.25500000920E-02 0.  1.
</event>
<event>
 5   0  0.3663255E-03  0.9031266E+03  0.7818609E-02  0.9421681E-01
        2   -1    0    0  501    0  0.00000000000E+00  0.00000000000E+00  0.92894074320E+03  0.92894074321E+03  0.25500000920E-02 0.  1.
       -2   -1    0    0    0  501  0.00000000000E+00  0.00000000000E+00 -0.21950746153E+03  0.21950746154E+03  0.25500000920E-02 0. -1.
    10030    2    1    2    0    0  0.00000000000E+00  0.00000000000E+00  0.70943328167E+03  0.11484482047E+04  0.90312662337E+03 0.  0.
        4    1    3    3  502    0 -0.13310316835E+03  0.35990155392E+03  0.52018608418E+02  0.38723782158E+03  0.12699999809E+01 0. -1.
       -4    1    3    3    0  502  0.13310316835E+03 -0.35990155392E+03  0.65741467325E+03  0.76121038317E+03  0.12699999809E+01 0.  1.
</event>
<event>
 5   0  0.2295158E-03  0.9016762E+03  0.7818609E-02  0.9423489E-01
        1   -1    0    0  501    0  0.00000000000E+00  0.00000000000E+00  0.47116387829E+03  0.47116387831E+03  0.50400001928E-02 0. -1.
       -1   -1    0    0    0  501  0.00000000000E+00  0.00000000000E+00 -0.43138915474E+03  0.43138915477E+03  0.50400001928E-02 0.  1.
    10030    2    1    2    0    0  0.00000000000E+00  0.00000000000E+00  0.39774723547E+02  0.90255303308E+03  0.90167618849E+03 0.  0.
        4    1    3    3  502    0  0.13507554955E+02  0.16565120847E+03  0.43937794711E+03  0.46976310010E+03  0.12699999809E+01 0. -1.
       -4    1    3    3    0  502 -0.13507554955E+02 -0.16565120847E+03 -0.39960322356E+03  0.43278993298E+03  0.12699999809E+01 0.  1.
</event>
<event>
 5   0  0.2129280E-03  0.8957131E+03  0.7818609E-02  0.9430956E-01
       -1   -1    0    0    0  501  0.00000000000E+00  0.00000000000E+00  0.24260521578E+03  0.24260521584E+03  0.50400001928E-02 0. -1.
        1   -1    0    0  501    0  0.00000000000E+00  0.00000000000E+00 -0.82675664581E+03  0.82675664582E+03  0.50400001928E-02 0.  1.
    10030    2    1    2    0    0  0.00000000000E+00  0.00000000000E+00 -0.58415143002E+03  0.10693618617E+04  0.89571306676E+03 0.  0.
        3    1    3    3  502    0  0.44745705216E+03 -0.18828681586E+02 -0.29418839023E+03  0.53583500439E+03  0.10100000352E+00 0. -1.
       -3    1    3    3    0  502 -0.44745705216E+03  0.18828681586E+02 -0.28996303979E+03  0.53352685727E+03  0.10100000352E+00 0.  1.
</event>
<event>
 5   0  0.1436000E-03  0.8976308E+03  0.7818609E-02  0.9428548E-01
       -4   -1    0    0    0  501  0.00000000000E+00  0.00000000000E+00  0.48058329531E+03  0.48058497337E+03  0.12699999809E+01 0. -1.
        4   -1    0    0  501    0  0.00000000000E+00  0.00000000000E+00 -0.41914411616E+03  0.41914604019E+03  0.12699999809E+01 0.  1.
    10030    2    1    2    0    0  0.00000000000E+00  0.00000000000E+00  0.61439179149E+02  0.89973101356E+03  0.89763083950E+03 0.  0.
        3    1    3    3  502    0 -0.80007293348E+02  0.41692887644E+03 -0.11523847022E+03  0.43989859084E+03  0.10100000352E+00 0.  1.
       -3    1    3    3    0  502  0.80007293348E+02 -0.41692887644E+03  0.17667764937E+03  0.45983242272E+03  0.10100000352E+00 0. -1.
</event>
<event>
 5   0  0.3685879E-03  0.8958280E+03  0.7818609E-02  0.9430812E-01
        2   -1    0    0  501    0  0.00000000000E+00  0.00000000000E+00  0.23272958560E+03  0.23272958562E+03  0.25500000920E-02 0. -1.
       -2   -1    0    0    0  501  0.00000000000E+00  0.00000000000E+00 -0.86206032032E+03  0.86206032032E+03  0.25500000920E-02 0.  1.
    10030    2    1    2    0    0  0.00000000000E+00  0.00000000000E+00 -0.62933073472E+03  0.10947899059E+04  0.89582797706E+03 0.  0.
        1    1    3    3  502    0  0.27824923550E+02 -0.39116227328E+03 -0.57917215088E+03  0.69944444439E+03  0.50400001928E-02 0.  1.
       -1    1    3    3    0  502 -0.27824923550E+02  0.39116227328E+03 -0.50158583839E+02  0.39534546155E+03  0.50400001928E-02 0. -1.
</event>
<event>
 5   0  0.3626546E-03  0.9033268E+03  0.7818609E-02  0.9421432E-01
        2   -1    0    0  501    0  0.00000000000E+00  0.00000000000E+00  0.26422468253E+03  0.26422468254E+03  0.25500000920E-02 0.  1.
       -2   -1    0    0    0  501  0.00000000000E+00  0.00000000000E+00 -0.77206949747E+03  0.77206949747E+03  0.25500000920E-02 0. -1.
    10030    2    1    2    0    0  0.00000000000E+00  0.00000000000E+00 -0.50784481494E+03  0.10362941800E+04  0.90332678000E+03 0.  0.
        3    1    3    3  502    0  0.42735547135E+03 -0.10102832440E+02 -0.86631902757E+02  0.43616494918E+03  0.10100000352E+00 0.  1.
       -3    1    3    3    0  502 -0.42735547135E+03  0.10102832440E+02 -0.42121291218E+03  0.60012923083E+03  0.10100000352E+00 0. -1.
</event>
<event>
 5   0  0.3626546E-03  0.9021413E+03  0.7818609E-02  0.9422909E-01
       -2   -1    0    0    0  501  0.00000000000E+00  0.00000000000E+00  0.16859722360E+03  0.16859722362E+03  0.25500000920E-02 0. -1.
        2   -1    0    0  501    0  0.00000000000E+00  0.00000000000E+00 -0.12068094466E+04  0.12068094466E+04  0.25500000920E-02 0.  1.
    10030    2    1    2    0    0  0.00000000000E+00  0.00000000000E+00 -0.10382122229E+04  0.13754066702E+04  0.90214127966E+03 0.  0.
        3    1    3    3  502    0  0.11223860689E+03  0.40965425716E+03 -0.75057768084E+03  0.86242737692E+03  0.10100000352E+00 0.  1.
       -3    1    3    3    0  502 -0.11223860689E+03 -0.40965425716E+03 -0.28763454211E+03  0.51297929325E+03  0.10100000352E+00 0. -1.
</event>
<event>
 5   0  0.2295158E-03  0.9017643E+03  0.7818609E-02  0.9423379E-01
       -1   -1    0    0    0  501  0.00000000000E+00  0.00000000000E+00  0.30746029415E+03  0.30746029419E+03  0.50400001928E-02 0. -1.
        1   -1    0    0  501    0  0.00000000000E+00  0.00000000000E+00 -0.66120632569E+03  0.66120632571E+03  0.50400001928E-02 0.  1.
    10030    2    1    2    0    0  0.00000000000E+00  0.00000000000E+00 -0.35374603154E+03  0.96866661990E+03  0.90176425172E+03 0.  0.
        4    1    3    3  502    0  0.38117243691E+03  0.59156425602E+02  0.73901978415E+02  0.39275313450E+03  0.12699999809E+01 0. -1.
       -4    1    3    3    0  502 -0.38117243691E+03 -0.59156425602E+02 -0.42764800995E+03  0.57591348540E+03  0.12699999809E+01 0.  1.
</event>
<event>
 5   0  0.3685879E-03  0.9020120E+03  0.7818609E-02  0.9423070E-01
       -2   -1    0    0    0  501  0.00000000000E+00  0.00000000000E+00  0.67663133384E+03  0.67663133385E+03  0.25500000920E-02 0. -1.
        2   -1    0    0  501    0  0.00000000000E+00  0.00000000000E+00 -0.30061631507E+03  0.30061631508E+03  0.25500000920E-02 0.  1.
    10030    2    1    2    0    0  0.00000000000E+00  0.00000000000E+00  0.37601501877E+03  0.97724764893E+03  0.90201201378E+03 0.  0.
        1    1    3    3  502    0  0.98226902321E+02 -0.67136511125E+02 -0.28330712528E+03  0.30727636214E+03  0.50400001928E-02 0.  1.
       -1    1    3    3    0  502 -0.98226902321E+02  0.67136511125E+02  0.65932214405E+03  0.66997128680E+03  0.50400001928E-02 0. -1.
</event>
<event>
 5   0  0.2074970E-03  0.9023498E+03  0.7818609E-02  0.9422649E-01
       -1   -1    0    0    0  501  0.00000000000E+00  0.00000000000E+00  0.29612207646E+03  0.29612207651E+03  0.50400001928E-02 0. -1.
        1   -1    0    0  501    0  0.00000000000E+00  0.00000000000E+00 -0.68741506249E+03  0.68741506251E+03  0.50400001928E-02 0.  1.
    10030    2    1    2    0    0  0.00000000000E+00  0.00000000000E+00 -0.39129298603E+03  0.98353713901E+03  0.90234976750E+03 0.  0.
        2    1    3    3  502    0  0.26954887715E+03  0.24219611794E+03 -0.48861058803E+03  0.60832217078E+03  0.25500000920E-02 0.  1.
       -2    1    3    3    0  502 -0.26954887715E+03 -0.24219611794E+03  0.97317602005E+02  0.37521496823E+03  0.25500000920E-02 0. -1.
</event>
<event>
 5   0  0.2134145E-03  0.9001154E+03  0.7818609E-02  0.9425437E-01
       -1   -1    0    0    0  501  0.00000000000E+00  0.00000000000E+00  0.97036126537E+02  0.97036126668E+02  0.50400001928E-02 0.  1.
        1   -1    0    0  501    0  0.00000000000E+00  0.00000000000E+00 -0.20873866672E+04  0.20873866672E+04  0.50400001928E-02 0. -1.
    10030    2    1    2    0    0  0.00000000000E+00  0.00000000000E+00 -0.19903505406E+04  0.21844227938E+04  0.90011536353E+03 0.  0.
        1    1    3    3  502    0  0.35465100464E+03 -0.81176165087E+02 -0.35224967677E+03  0.50640570660E+03  0.50400001928E-02 0.  1.
       -1    1    3    3    0  502 -0.35465100464E+03  0.81176165087E+02 -0.16381008639E+04  0.16780170872E+04  0.50400001928E-02 0. -1.
</event>
<event>
 5   0  0.2130975E-03  0.9075082E+03  0.7818609E-02  0.9416244E-01
       -1   -1    0    0    0  501  0.00000000000E+00  0.00000000000E+00  0.13574241881E+03  0.13574241890E+03  0.50400001928E-02 0.  1.
        1   -1    0    0  501    0  0.00000000000E+00  0.00000000000E+00 -0.15167901956E+04  0.15167901956E+04  0.50400001928E-02 0. -1.
    10030    2    1    2    0    0  0.00000000000E+00  0.00000000000E+00 -0.13810477768E+04  0.16525326145E+04  0.90750817089E+03 0.  0.
        5    1    3    3  502    0 -0.24768563329E+02  0.49457077783E+02  0.12953578970E+03  0.14092939752E+03  0.46999998093E+01 0.  1.
       -5    1    3    3    0  502  0.24768563329E+02 -0.49457077783E+02 -0.15105835665E+04  0.15116032170E+04  0.46999998093E+01 0. -1.
</event>
<event>
 5   0  0.3806019E-03  0.8620857E+03  0.7818609E-02  0.9474258E-01
        2   -1    0    0  501    0  0.00000000000E+00  0.00000000000E+00  0.12620484495E+04  0.12620484495E+04  0.25500000920E-02 0. -1.
       -2   -1    0    0    0  501  0.00000000000E+00  0.00000000000E+00 -0.14721933578E+03  0.14721933580E+03  0.25500000920E-02 0.  1.
    10030    2    1    2    0    0  0.00000000000E+00  0.00000000000E+00  0.11148291138E+04  0.14092677853E+04  0.86208569060E+03 0.  0.
        2    1    3    3  502    0  0.17439946965E+03  0.18752841822E+03  0.11242068770E+04  0.11530061513E+04  0.25500000920E-02 0. -1.
       -2    1    3    3    0  502 -0.17439946965E+03 -0.18752841822E+03 -0.93777631891E+01  0.25626163409E+03  0.25500000920E-02 0.  1.
</event>
<event>
 5   0  0.3685879E-03  0.9006106E+03  0.7818609E-02  0.9424819E-01
       -2   -1    0    0    0  501  0.00000000000E+00  0.00000000000E+00  0.33390344454E+03  0.33390344455E+03  0.25500000920E-02 0.  1.
        2   -1    0    0  501    0  0.00000000000E+00  0.00000000000E+00 -0.60728587529E+03  0.60728587529E+03  0.25500000920E-02 0. -1.
    10030    2    1    2    0    0  0.00000000000E+00  0.00000000000E+00 -0.27338243075E+03  0.94118931984E+03  0.90061056086E+03 0.  0.
        1    1    3    3  502    0  0.27011666689E+02  0.41994697110E+03 -0.30419319813E+03  0.51924810109E+03  0.50400001928E-02 0. -1.
       -1    1    3    3    0  502 -0.27011666689E+02 -0.41994697110E+03  0.30810767384E+02  0.42194121875E+03  0.50400001928E-02 0.  1.
</event>
<event>
 5   0  0.3815269E-03  0.9324411E+03  0.7818609E-02  0.9385913E-01
        2   -1    0    0  501    0  0.00000000000E+00  0.00000000000E+00  0.49696910875E+03  0.49696910875E+03  0.25500000920E-02 0. -1.
       -2   -1    0    0    0  501  0.00000000000E+00  0.00000000000E+00 -0.43737448430E+03  0.43737448431E+03  0.25500000920E-02 0.  1.
    10030    2    1    2    0    0  0.00000000000E+00  0.00000000000E+00  0.59594624443E+02  0.93434359307E+03  0.93244111377E+03 0.  0.
        5    1    3    3  502    0  0.21815613245E+03 -0.34446476387E+03  0.25629266447E+03  0.48161820100E+03  0.46999998093E+01 0. -1.
       -5    1    3    3    0  502 -0.21815613245E+03  0.34446476387E+03 -0.19669804003E+03  0.45272539207E+03  0.46999998093E+01 0.  1.
</event>
<event>
 5   0  0.1436000E-03  0.8870854E+03  0.7818609E-02  0.9441871E-01
        3   -1    0    0  501    0  0.00000000000E+00  0.00000000000E+00  0.49188775173E+03  0.49188776210E+03  0.10100000352E+00 0. -1.
       -3   -1    0    0    0  501  0.00000000000E+00  0.00000000000E+00 -0.39994923863E+03  0.39994925139E+03  0.10100000352E+00 0.  1.
    10030    2    1    2    0    0  0.00000000000E+00  0.00000000000E+00  0.91938513095E+02  0.89183701348E+03  0.88708543469E+03 0.  0.
        2    1    3    3  502    0 -0.14716241401E+03  0.27511048498E+03 -0.27097735830E+03  0.41324482303E+03  0.25500000920E-02 0.  1.
       -2    1    3    3    0  502  0.14716241401E+03 -0.27511048498E+03  0.36291587139E+03  0.47859219045E+03  0.25500000920E-02 0. -1.
</event>
<event>
 5   0  0.1436000E-03  0.9006096E+03  0.7818609E-02  0.9424820E-01
        4   -1    0    0  501    0  0.00000000000E+00  0.00000000000E+00  0.12804426322E+04  0.12804432620E+04  0.12699999809E+01 0.  1.
       -4   -1    0    0    0  501  0.00000000000E+00  0.00000000000E+00 -0.15835951575E+03  0.15836460819E+03  0.12699999809E+01 0. -1.
    10030    2    1    2    0    0  0.00000000000E+00  0.00000000000E+00  0.11220831165E+04  0.14388078702E+04  0.90060955312E+03 0.  0.
        1    1    3    3  502    0  0.25881667513E+03 -0.14248978860E+03  0.11039530172E+04  0.11428043032E+04  0.50400001928E-02 0.  1.
       -1    1    3    3    0  502 -0.25881667513E+03  0.14248978860E+03  0.18130099290E+02  0.29600356706E+03  0.50400001928E-02 0. -1.
</event>
<event>
 5   0  0.3663255E-03  0.8992811E+03  0.7818609E-02  0.9426481E-01
       -2   -1    0    0    0  501  0.00000000000E+00  0.00000000000E+00  0.23263562106E+04  0.23263562106E+04  0.25500000920E-02 0. -1.
        2   -1    0    0  501    0  0.00000000000E+00  0.00000000000E+00 -0.86906991786E+02  0.86906991823E+02  0.25500000920E-02 0.  1.
    10030    2    1    2    0    0  0.00000000000E+00  0.00000000000E+00  0.22394492188E+04  0.24132632024E+04  0.89928109094E+03 0.  0.
        4    1    3    3  502    0  0.56105127188E+02  0.10135776500E+03 -0.46164136550E+02  0.12471536483E+03  0.12699999809E+01 0.  1.
       -4    1    3    3    0  502 -0.56105127188E+02 -0.10135776500E+03  0.22856133553E+04  0.22885478376E+04  0.12699999809E+01 0. -1.
</event>
<event>
 5   0  0.3685879E-03  0.8983951E+03  0.7818609E-02  0.9427590E-01
       -2   -1    0    0    0  501  0.00000000000E+00  0.00000000000E+00  0.12187525459E+03  0.12187525461E+03  0.25500000920E-02 0.  1.
        2   -1    0    0  501    0  0.00000000000E+00  0.00000000000E+00 -0.16556144931E+04  0.16556144931E+04  0.25500000920E-02 0. -1.
    10030    2    1    2    0    0  0.00000000000E+00  0.00000000000E+00 -0.15337392385E+04  0.17774897477E+04  0.89839509764E+03 0.  0.
        1    1    3    3  502    0 -0.44136589144E+03  0.48289559489E+02 -0.90168061916E+03  0.10050689880E+04  0.50400001928E-02 0. -1.
       -1    1    3    3    0  502  0.44136589144E+03 -0.48289559489E+02 -0.63205861932E+03  0.77242075966E+03  0.50400001928E-02 0.  1.
</event>
<event>
 5   0  0.2134145E-03  0.9008998E+03  0.7818609E-02  0.9424457E-01
        1   -1    0    0  501    0  0.00000000000E+00  0.00000000000E+00  0.55072298810E+03  0.55072298812E+03  0.50400001928E-02 0. -1.
       -1   -1    0    0    0  501  0.00000000000E+00  0.00000000000E+00 -0.36843405047E+03  0.36843405051E+03  0.50400001928E-02 0.  1.
    10030    2    1    2    0    0  0.00000000000E+00  0.00000000000E+00  0.18228893762E+03  0.91915703863E+03  0.90089977516E+03 0.  0.
        1    1    3    3  502    0 -0.77361446936E+02 -0.34543757216E+03 -0.19305616769E+03  0.40321531920E+03  0.50400001928E-02 0.  1.
       -1    1    3    3    0  502  0.77361446936E+02  0.34543757216E+03  0.37534510532E+03  0.51594171942E+03  0.50400001928E-02 0. -1.
</event>
<event>
 5   0  0.2130975E-03  0.9058220E+03  0.7818609E-02  0.9418333E-01
        1   -1    0    0  501    0  0.00000000000E+00  0.00000000000E+00  0.49018258743E+03  0.49018258745E+03  0.50400001928E-02 0. -1.
       -1   -1    0    0    0  501  0.00000000000E+00  0.00000000000E+00 -0.41847338746E+03  0.41847338749E+03  0.50400001928E-02 0.  1.
    10030    2    1    2    0    0  0.00000000000E+00  0.00000000000E+00  0.71709199967E+02  0.90865597494E+03  0.90582198662E+03 0.  0.
        5    1    3    3  502    0  0.14418884180E+03 -0.38226999193E+03 -0.16016789875E+03  0.43885830813E+03  0.46999998093E+01 0. -1.
       -5    1    3    3    0  502 -0.14418884180E+03  0.38226999193E+03  0.23187709872E+03  0.46979766681E+03  0.46999998093E+01 0.  1.
</event>
<event>
 5   0  0.3815269E-03  0.9017596E+03  0.7818609E-02  0.9423384E-01
       -2   -1    0    0    0  501  0.00000000000E+00  0.00000000000E+00  0.53344545980E+03  0.53344545981E+03  0.25500000920E-02 0. -1.
        2   -1    0    0  501    0  0.00000000000E+00  0.00000000000E+00 -0.38109351331E+03  0.38109351331E+03  0.25500000920E-02 0.  1.
    10030    2    1    2    0    0  0.00000000000E+00  0.00000000000E+00  0.15235194650E+03  0.91453897312E+03  0.90175962305E+03 0.  0.
        5    1    3    3  502    0 -0.33890492650E+03  0.52795835703E+02 -0.22059108599E+03  0.40783141945E+03  0.46999998093E+01 0.  1.
       -5    1    3    3    0  502  0.33890492650E+03 -0.52795835703E+02  0.37294303248E+03  0.50670755367E+03  0.46999998093E+01 0. -1.
</event>
<event>
 5   0  0.3815269E-03  0.9028653E+03  0.7818609E-02  0.9422007E-01
       -2   -1    0    0    0  501  0.00000000000E+00  0.00000000000E+00  0.54583219748E+03  0.54583219749E+03  0.25500000920E-02 0.  1.
        2   -1    0    0  501    0  0.00000000000E+00  0.00000000000E+00 -0.37335912178E+03  0.37335912179E+03  0.25500000920E-02 0. -1.
    10030    2    1    2    0    0  0.00000000000E+00  0.00000000000E+00  0.17247307570E+03  0.91919131928E+03  0.90286528319E+03 0.  0.
        5    1    3    3  502    0  0.86301666987E+02  0.18435036802E+03  0.49643193925E+03  0.53656294712E+03  0.46999998093E+01 0.  1.
       -5    1    3    3    0  502 -0.86301666987E+02 -0.18435036802E+03 -0.32395886354E+03  0.38262837216E+03  0.46999998093E+01 0. -1.
</event>
<event>
 5   0  0.3815269E-03  0.9021625E+03  0.7818609E-02  0.9422882E-01
        2   -1    0    0  501    0  0.00000000000E+00  0.00000000000E+00  0.15876613818E+03  0.15876613820E+03  0.25500000920E-02 0.  1.
       -2   -1    0    0    0  501  0.00000000000E+00  0.00000000000E+00 -0.12815976699E+04  0.12815976699E+04  0.25500000920E-02 0. -1.
    10030    2    1    2    0    0  0.00000000000E+00  0.00000000000E+00 -0.11228315317E+04  0.14403638081E+04  0.90216254137E+03 0.  0.
        5    1    3    3  502    0 -0.39520605042E+03 -0.25134038925E+02 -0.90618825136E+03  0.98894831973E+03  0.46999998093E+01 0. -1.
       -5    1    3    3    0  502  0.39520605042E+03  0.25134038925E+02 -0.21664328034E+03  0.45141548835E+03  0.46999998093E+01 0.  1.
</event>
<event>
 5   0  0.3663255E-03  0.9015360E+03  0.7818609E-02  0.9423663E-01
       -2   -1    0    0    0  501  0.00000000000E+00  0.00000000000E+00  0.33812156196E+03  0.33812156197E+03  0.25500000920E-02 0. -1.
        2   -1    0    0  501    0  0.00000000000E+00  0.00000000000E+00 -0.60094299968E+03  0.60094299968E+03  0.25500000920E-02 0.  1.
    10030    2    1    2    0    0  0.00000000000E+00  0.00000000000E+00 -0.26282143772E+03  0.93906456166E+03  0.90153599087E+03 0.  0.
        4    1    3    3  502    0  0.41548805134E+03  0.67052077732E+02 -0.29957425843E+03  0.51659718461E+03  0.12699999809E+01 0.  1.
       -4    1    3    3    0  502 -0.41548805134E+03 -0.67052077732E+02  0.36752820712E+02  0.42246737704E+03  0.12699999809E+01 0. -1.
</event>
<event>
 5   0  0.3663255E-03  0.9178777E+03  0.7818609E-02  0.9403505E-01
        2   -1    0    0  501    0  0.00000000000E+00  0.00000000000E+00  0.96208947837E+03  0.96208947838E+03  0.25500000920E-02 0. -1.
       -2   -1    0    0    0  501  0.00000000000E+00  0.00000000000E+00 -0.21892442933E+03  0.21892442935E+03  0.25500000920E-02 0.  1.
    10030    2    1    2    0    0  0.00000000000E+00  0.00000000000E+00  0.74316504904E+03  0.11810139077E+04  0.91787774792E+03 0.  0.
        4    1    3    3  502    0 -0.29742542242E+03 -0.34723255727E+03  0.42290385955E+03  0.62280142746E+03  0.12699999809E+01 0. -1.
       -4    1    3    3    0  502  0.29742542242E+03  0.34723255727E+03  0.32026118949E+03  0.55821248026E+03  0.12699999809E+01 0.  1.
</event>
<event>
 5   0  0.2130975E-03  0.9026879E+03  0.7818609E-02  0.9422228E-01
        1   -1    0    0  501    0  0.00000000000E+00  0.00000000000E+00  0.70268989061E+03  0.70268989063E+03  0.50400001928E-02 0. -1.
       -1   -1    0    0    0  501  0.00000000000E+00  0.00000000000E+00 -0.28990219302E+03  0.28990219307E+03  0.50400001928E-02 0.  1.
    10030    2    1    2    0    0  0.00000000000E+00  0.00000000000E+00  0.41278769758E+03  0.99259208369E+03  0.90268785376E+03 0.  0.
        5    1    3    3  502    0  0.39954616198E+03  0.20187617917E+03  0.26954287195E+03  0.52255772608E+03  0.46999998093E+01 0.  1.
       -5    1    3    3    0  502 -0.39954616198E+03 -0.20187617917E+03  0.14324482563E+03  0.47003435761E+03  0.46999998093E+01 0. -1.
</event>
<event>
 5   0  0.3626546E-03  0.9004982E+03  0.7818609E-02  0.9424959E-01
        2   -1    0    0  501    0  0.00000000000E+00  0.00000000000E+00  0.42467912207E+03  0.42467912208E+03  0.25500000920E-02 0.  1.
       -2   -1    0    0    0  501  0.00000000000E+00  0.00000000000E+00 -0.47735863905E+03  0.47735863906E+03  0.25500000920E-02 0. -1.
    10030    2    1    2    0    0  0.00000000000E+00  0.00000000000E+00 -0.52679516978E+02  0.90203776113E+03  0.90049819045E+03 0.  0.
        3    1    3    3  502    0  0.18408833459E+03  0.14999974724E+03 -0.40953240354E+03  0.47339754842E+03  0.10100000352E+00 0. -1.
       -3    1    3    3    0  502 -0.18408833459E+03 -0.14999974724E+03  0.35685288656E+03  0.42864021271E+03  0.10100000352E+00 0.  1.
</event>
<event>
 5   0  0.3663255E-03  0.9003304E+03  0.7818609E-02  0.9425169E-01
        2   -1    0    0  501    0  0.00000000000E+00  0.00000000000E+00  0.26366032165E+03  0.26366032166E+03  0.25500000920E-02 0. -1.
       -2   -1    0    0    0  501  0.00000000000E+00  0.00000000000E+00 -0.76859758886E+03  0.76859758887E+03  0.25500000920E-02 0.  1.
    10030    2    1    2    0    0  0.00000000000E+00  0.00000000000E+00 -0.50493726721E+03  0.10322579105E+04  0.90033035605E+03 0.  0.
        4    1    3    3  502    0 -0.53273120295E+02 -0.23483243790E+03 -0.68854718144E+03  0.72944028762E+03  0.12699999809E+01 0.  1.
       -4    1    3    3    0  502  0.53273120295E+02  0.23483243790E+03  0.18360991423E+03  0.30281762290E+03  0.12699999809E+01 0. -1.
</event>
<event>
 5   0  0.2134145E-03  0.9005857E+03  0.7818609E-02  0.9424850E-01
        1   -1    0    0  501    0  0.00000000000E+00  0.00000000000E+00  0.12961933276E+04  0.12961933276E+04  0.50400001928E-02 0. -1.
       -1   -1    0    0    0  501  0.00000000000E+00  0.00000000000E+00 -0.15643010217E+03  0.15643010226E+03  0.50400001928E-02 0.  1.
    10030    2    1    2    0    0  0.00000000000E+00  0.00000000000E+00  0.11397632254E+04  0.14526234298E+04  0.90058570883E+03 0.  0.
        1    1    3    3  502    0  0.22226611308E+03  0.24108676806E+03  0.10676582334E+04  0.11168792048E+04  0.50400001928E-02 0. -1.
       -1    1    3    3    0  502 -0.22226611308E+03 -0.24108676806E+03  0.72104992020E+02  0.33574422505E+03  0.50400001928E-02 0.  1.
</event>
<event>
 5   0  0.3815269E-03  0.8979739E+03  0.7818609E-02  0.9428118E-01
       -2   -1    0    0    0  501  0.00000000000E+00  0.00000000000E+00  0.32584475140E+03  0.32584475141E+03  0.25500000920E-02 0.  1.
        2   -1    0    0  501    0  0.00000000000E+00  0.00000000000E+00 -0.61866665468E+03  0.61866665469E+03  0.25500000920E-02 0. -1.
    10030    2    1    2    0    0  0.00000000000E+00  0.00000000000E+00 -0.29282190328E+03  0.94451140610E+03  0.89797390230E+03 0.  0.
        5    1    3    3  502    0 -0.32760405328E+03 -0.83238061950E+02 -0.45721447651E+03  0.56861248510E+03  0.46999998093E+01 0. -1.
       -5    1    3    3    0  502  0.32760405328E+03  0.83238061950E+02  0.16439257323E+03  0.37589892100E+03  0.46999998093E+01 0.  1.
</event>
<event>
 5   0  0.3806019E-03  0.9083865E+03  0.7818609E-02  0.9415158E-01
       -2   -1    0    0    0  501  0.00000000000E+00  0.00000000000E+00  0.33707578134E+03  0.33707578135E+03  0.25500000920E-02 0. -1.
        2   -1    0    0  501    0  0.00000000000E+00  0.00000000000E+00 -0.61200336043E+03  0.61200336044E+03  0.25500000920E-02 0.  1.
    10030    2    1    2    0    0  0.00000000000E+00  0.00000000000E+00 -0.27492757909E+03  0.94907914179E+03  0.90838650565E+03 0.  0.
        2    1    3    3  502    0  0.32758846811E+03  0.12356443857E+03  0.16482231533E+03  0.38697386289E+03  0.25500000920E-02 0. -1.
       -2    1    3    3    0  502 -0.32758846811E+03 -0.12356443857E+03 -0.43974989443E+03  0.56210527891E+03  0.25500000920E-02 0.  1.
</event>
<event>
 5   0  0.2134145E-03  0.8996069E+03  0.7818609E-02  0.9426073E-01
        1   -1    0    0  501    0  0.00000000000E+00  0.00000000000E+00  0.31513851912E+03  0.31513851916E+03  0.50400001928E-02 0.  1.
       -1   -1    0    0    0  501  0.00000000000E+00  0.00000000000E+00 -0.64201330949E+03  0.64201330951E+03  0.50400001928E-02 0. -1.
    10030    2    1    2    0    0  0.00000000000E+00  0.00000000000E+00 -0.32687479037E+03  0.95715182867E+03  0.89960685555E+03 0.  0.
        1    1    3    3  502    0  0.10019591081E+03 -0.40826784889E+03 -0.33367629478E+03  0.53671382198E+03  0.50400001928E-02 0. -1.
       -1    1    3    3    0  502 -0.10019591081E+03  0.40826784889E+03  0.68015044106E+01  0.42043800669E+03  0.50400001928E-02 0.  1.
</event>
<event>
 5   0  0.3815269E-03  0.9000692E+03  0.7818609E-02  0.9425495E-01
       -2   -1    0    0    0  501  0.00000000000E+00  0.00000000000E+00  0.52021443228E+03  0.52021443229E+03  0.25500000920E-02 0.  1.
        2   -1    0    0  501    0  0.00000000000E+00  0.00000000000E+00 -0.38932246057E+03  0.38932246058E+03  0.25500000920E-02 0. -1.
    10030    2    1    2    0    0  0.00000000000E+00  0.00000000000E+00  0.13089197171E+03  0.90953689287E+03  0.90006924802E+03 0.  0.
        5    1    3    3  502    0 -0.43639770473E+03 -0.59835743138E+02 -0.27641390665E+02  0.44137218912E+03  0.46999998093E+01 0. -1.
       -5    1    3    3    0  502  0.43639770473E+03  0.59835743138E+02  0.15853336238E+03  0.46816470375E+03  0.46999998093E+01 0.  1.
</event>
<event>
 5   0  0.1436000E-03  0.8948986E+03  0.7818609E-02  0.9431981E-01
        4   -1    0    0  501    0  0.00000000000E+00  0.00000000000E+00  0.71213137036E+03  0.71213250281E+03  0.12699999809E+01 0.  1.
       -4   -1    0    0    0  501  0.00000000000E+00  0.00000000000E+00 -0.28114036001E+03  0.28114322849E+03  0.12699999809E+01 0. -1.
    10030    2    1    2    0    0  0.00000000000E+00  0.00000000000E+00  0.43099101036E+03  0.99327573130E+03  0.89489855703E+03 0.  0.
        4    1    3    3  502    0 -0.17467884818E+03  0.40607292509E+03  0.13858662308E+03  0.46326643035E+03  0.12699999809E+01 0. -1.
       -4    1    3    3    0  502  0.17467884818E+03 -0.40607292509E+03  0.29240438728E+03  0.53000930095E+03  0.12699999809E+01 0.  1.
</event>
<event>
 5   0  0.3626546E-03  0.8941844E+03  0.7818609E-02  0.9432881E-01
        2   -1    0    0  501    0  0.00000000000E+00  0.00000000000E+00  0.82875129060E+03  0.82875129061E+03  0.25500000920E-02 0.  1.
       -2   -1    0    0    0  501  0.00000000000E+00  0.00000000000E+00 -0.24119591782E+03  0.24119591783E+03  0.25500000920E-02 0. -1.
    10030    2    1    2    0    0  0.00000000000E+00  0.00000000000E+00  0.58755537278E+03  0.10699472084E+04  0.89418438409E+03 0.  0.
        3    1    3    3  502    0 -0.57019668672E+02 -0.21424664710E+03  0.75834370008E+03  0.79008736610E+03  0.10100000352E+00 0.  1.
       -3    1    3    3    0  502  0.57019668672E+02  0.21424664710E+03 -0.17078832730E+03  0.27985984234E+03  0.10100000352E+00 0. -1.
</event>
<event>
 5   0  0.2074970E-03  0.9080595E+03  0.7818609E-02  0.9415562E-01
       -1   -1    0    0    0  501  0.00000000000E+00  0.00000000000E+00  0.20739859948E+03  0.20739859954E+03  0.50400001928E-02 0.  1.
        1   -1    0    0  501    0  0.00000000000E+00  0.00000000000E+00 -0.99394592516E+03  0.99394592517E+03  0.50400001928E-02 0. -1.
    10030    2    1    2    0    0  0.00000000000E+00  0.00000000000E+00 -0.78654732568E+03  0.12013445247E+04  0.90805945374E+03 0.  0.
        2    1    3    3  502    0 -0.27877513812E+03 -0.18609131774E+03 -0.79845438509E+03  0.86595320962E+03  0.25500000920E-02 0. -1.
       -2    1    3    3    0  502  0.27877513812E+03  0.18609131774E+03  0.11907059408E+02  0.33539131510E+03  0.25500000920E-02 0.  1.
</event>
<event>
 5   0  0.2130975E-03  0.8993725E+03  0.7818609E-02  0.9426366E-01
       -1   -1    0    0    0  501  0.00000000000E+00  0.00000000000E+00  0.24349275605E+03  0.24349275611E+03  0.50400001928E-02 0. -1.
        1   -1    0    0  501    0  0.00000000000E+00  0.00000000000E+00 -0.83048764747E+03  0.83048764748E+03  0.50400001928E-02 0.  1.
    10030    2    1    2    0    0  0.00000000000E+00  0.00000000000E+00 -0.58699489142E+03  0.10739804036E+04  0.89937250611E+03 0.  0.
        5    1    3    3  502    0  0.27914647923E+03 -0.24365159093E+03 -0.59772727063E+03  0.70327010080E+03  0.46999998093E+01 0.  1.
       -5    1    3    3    0  502 -0.27914647923E+03  0.24365159093E+03  0.10732379212E+02  0.37071030279E+03  0.46999998093E+01 0. -1.
</event>
<event>
 5   0  0.3806019E-03  0.8990782E+03  0.7818609E-02  0.9426734E-01
        2   -1    0    0  501    0  0.00000000000E+00  0.00000000000E+00  0.87338298961E+03  0.87338298961E+03  0.25500000920E-02 0. -1.
       -2   -1    0    0    0  501  0.00000000000E+00  0.00000000000E+00 -0.23138234791E+03  0.23138234792E+03  0.25500000920E-02 0.  1.
    10030    2    1    2    0    0  0.00000000000E+00  0.00000000000E+00  0.64200064170E+03  0.11047653375E+04  0.89907820965E+03 0.  0.
        2    1    3    3  502    0  0.18255934311E+03  0.39022999828E+03  0.16326630406E+03  0.46072036135E+03  0.25500000920E-02 0.  1.
       -2    1    3    3    0  502 -0.18255934311E+03 -0.39022999828E+03  0.47873433764E+03  0.64404497618E+03  0.25500000920E-02 0. -1.
</event>
<event>
 5   0  0.3685879E-03  0.8995500E+03  0.7818609E-02  0.9426144E-01
       -2   -1    0    0    0  501  0.00000000000E+00  0.00000000000E+00  0.20659186610E+03  0.20659186611E+03  0.25500000920E-02 0.  1.
        2   -1    0    0  501    0  0.00000000000E+00  0.00000000000E+00 -0.97921346510E+03  0.97921346511E+03  0.25500000920E-02 0. -1.
    10030    2    1    2    0    0  0.00000000000E+00  0.00000000000E+00 -0.77262159901E+03  0.11858053312E+04  0.89954996987E+03 0.  0.
        1    1    3    3  502    0  0.17926509487E+03 -0.40861719152E+03 -0.46080547117E+03  0.64144030566E+03  0.50400001928E-02 0.  1.
       -1    1    3    3    0  502 -0.17926509487E+03  0.40861719152E+03 -0.31181612784E+03  0.54436502556E+03  0.50400001928E-02 0. -1.
</event>
<event>
 5   0  0.2074970E-03  0.8973699E+03  0.7818609E-02  0.9428875E-01
       -1   -1    0    0    0  501  0.00000000000E+00  0.00000000000E+00  0.45979131048E+03  0.45979131051E+03  0.50400001928E-02 0.  1.
        1   -1    0    0  501    0  0.00000000000E+00  0.00000000000E+00 -0.43784684047E+03  0.43784684049E+03  0.50400001928E-02 0. -1.
    10030    2    1    2    0    0  0.00000000000E+00  0.00000000000E+00  0.21944470017E+02  0.89763815100E+03  0.89736987378E+03 0.  0.
        2    1    3    3  502    0 -0.17158046443E+03  0.36765263951E+03 -0.18068320132E+03  0.44413369424E+03  0.25500000920E-02 0. -1.
       -2    1    3    3    0  502  0.17158046443E+03 -0.36765263951E+03  0.20262767134E+03  0.45350445677E+03  0.25500000920E-02 0.  1.
</event>
<event>
 5   0  0.2129280E-03  0.9109473E+03  0.7818609E-02  0.9411999E-01
        1   -1    0    0  501    0  0.00000000000E+00  0.00000000000E+00  0.17645477228E+04  0.17645477228E+04  0.50400001928E-02 0. -1.
       -1   -1    0    0    0  501  0.00000000000E+00  0.00000000000E+00 -0.11756908195E+03  0.11756908205E+03  0.50400001928E-02 0.  1.
    10030    2    1    2    0    0  0.00000000000E+00  0.00000000000E+00  0.16469786408E+04  0.18821168049E+04  0.91094732214E+03 0.  0.
        3    1    3    3  502    0 -0.41593926893E+03  0.11795490436E+03  0.11195809664E+04  0.12001584835E+04  0.10100000352E+00 0. -1.
       -3    1    3    3    0  502  0.41593926893E+03 -0.11795490436E+03  0.52739767441E+03  0.68195832136E+03  0.10100000352E+00 0.  1.
</event>
<event>
 5   0  0.3806019E-03  0.9053708E+03  0.7818609E-02  0.9418892E-01
       -2   -1    0    0    0  501  0.00000000000E+00  0.00000000000E+00  0.23335973891E+03  0.23335973893E+03  0.25500000920E-02 0.  1.
        2   -1    0    0  501    0  0.00000000000E+00  0.00000000000E+00 -0.87814670332E+03  0.87814670333E+03  0.25500000920E-02 0. -1.
    10030    2    1    2    0    0  0.00000000000E+00  0.00000000000E+00 -0.64478696441E+03  0.11115064423E+04  0.90537083104E+03 0.  0.
        2    1    3    3  502    0  0.74323564552E+02  0.43246395048E+03 -0.45896449279E+03  0.63497831960E+03  0.25500000920E-02 0. -1.
       -2    1    3    3    0  502 -0.74323564552E+02 -0.43246395048E+03 -0.18582247161E+03  0.47652812265E+03  0.25500000920E-02 0.  1.
</event>
<event>
 5   0  0.2134145E-03  0.8665739E+03  0.7818609E-02  0.9468358E-01
       -1   -1    0    0    0  501  0.00000000000E+00  0.00000000000E+00  0.54627693684E+03  0.54627693687E+03  0.50400001928E-02 0.  1.
        1   -1    0    0  501    0  0.00000000000E+00  0.00000000000E+00 -0.34366741097E+03  0.34366741101E+03  0.50400001928E-02 0. -1.
    10030    2    1    2    0    0  0.00000000000E+00  0.00000000000E+00  0.20260952587E+03  0.88994434787E+03  0.86657389895E+03 0.  0.
        1    1    3    3  502    0  0.16052038487E+03  0.14098385686E+03  0.48842478400E+03  0.53310600400E+03  0.50400001928E-02 0.  1.
       -1    1    3    3    0  502 -0.16052038487E+03 -0.14098385686E+03 -0.28581525813E+03  0.35683834387E+03  0.50400001928E-02 0. -1.
</event>
<event>
 5   0  0.2134145E-03  0.8987718E+03  0.7818609E-02  0.9427118E-01
        1   -1    0    0  501    0  0.00000000000E+00  0.00000000000E+00  0.13046048098E+04  0.13046048098E+04  0.50400001928E-02 0. -1.
       -1   -1    0    0    0  501  0.00000000000E+00  0.00000000000E+00 -0.15479607395E+03  0.15479607403E+03  0.50400001928E-02 0.  1.
    10030    2    1    2    0    0  0.00000000000E+00  0.00000000000E+00  0.11498087358E+04  0.14594008838E+04  0.89877183461E+03 0.  0.
        1    1    3    3  502    0  0.30144938850E+03 -0.14683455782E+03  0.89085397551E+02  0.34694139170E+03  0.50400001928E-02 0.  1.
       -1    1    3    3    0  502 -0.30144938850E+03  0.14683455782E+03  0.10607233383E+04  0.11124594921E+04  0.50400001928E-02 0. -1.
</event>
<event>
 5   0  0.2074970E-03  0.9032725E+03  0.7818609E-02  0.9421500E-01
       -1   -1    0    0    0  501  0.00000000000E+00  0.00000000000E+00  0.20179992859E+03  0.20179992865E+03  0.50400001928E-02 0.  1.
        1   -1    0    0  501    0  0.00000000000E+00  0.00000000000E+00 -0.10107797913E+04  0.10107797913E+04  0.50400001928E-02 0. -1.
    10030    2    1    2    0    0  0.00000000000E+00  0.00000000000E+00 -0.80897986268E+03  0.12125797199E+04  0.90327247216E+03 0.  0.
        2    1    3    3  502    0 -0.13924874014E+03  0.37995520414E+03 -0.13526962595E+03  0.42667791189E+03  0.25500000920E-02 0.  1.
       -2    1    3    3    0  502  0.13924874014E+03 -0.37995520414E+03 -0.67371023674E+03  0.78590180804E+03  0.25500000920E-02 0. -1.
</event>
<event>
 5   0  0.3663255E-03  0.9026085E+03  0.7818609E-02  0.9422327E-01
       -2   -1    0    0    0  501  0.00000000000E+00  0.00000000000E+00  0.37767972624E+03  0.37767972625E+03  0.25500000920E-02 0. -1.
        2   -1    0    0  501    0  0.00000000000E+00  0.00000000000E+00 -0.53928106603E+03  0.53928106604E+03  0.25500000920E-02 0.  1.
    10030    2    1    2    0    0  0.00000000000E+00  0.00000000000E+00 -0.16160133979E+03  0.91696079229E+03  0.90260849850E+03 0.  0.
        4    1    3    3  502    0  0.35608605663E+02  0.30117527490E+03 -0.42032957700E+03  0.51831755248E+03  0.12699999809E+01 0.  1.
       -4    1    3    3    0  502 -0.35608605663E+02 -0.30117527490E+03  0.25872823721E+03  0.39864323980E+03  0.12699999809E+01 0. -1.
</event>
<event>
 5   0  0.1436000E-03  0.9012629E+03  0.7818609E-02  0.9424004E-01
       -4   -1    0    0    0  501  0.00000000000E+00  0.00000000000E+00  0.17842308000E+03  0.17842759982E+03  0.12699999809E+01 0. -1.
        4   -1    0    0  501    0  0.00000000000E+00  0.00000000000E+00 -0.11381109600E+04  0.11381116686E+04  0.12699999809E+01 0.  1.
    10030    2    1    2    0    0  0.00000000000E+00  0.00000000000E+00 -0.95968788003E+03  0.13165392684E+04  0.90126290186E+03 0.  0.
        4    1    3    3  502    0  0.97174203082E+02  0.75929760692E+02 -0.11129817552E+04  0.11197938000E+04  0.12699999809E+01 0.  1.
       -4    1    3    3    0  502 -0.97174203082E+02 -0.75929760692E+02  0.15329387512E+03  0.19674546845E+03  0.12699999809E+01 0. -1.
</event>
<event>
 5   0  0.3663255E-03  0.9023311E+03  0.7818609E-02  0.9422672E-01
        2   -1    0    0  501    0  0.00000000000E+00  0.00000000000E+00  0.77903151679E+03  0.77903151679E+03  0.25500000920E-02 0. -1.
       -2   -1    0    0    0  501  0.00000000000E+00  0.00000000000E+00 -0.26128643939E+03  0.26128643940E+03  0.25500000920E-02 0.  1.
    10030    2    1    2    0    0  0.00000000000E+00  0.00000000000E+00  0.51774507740E+03  0.10403179562E+04  0.90233113922E+03 0.  0.
        4    1    3    3  502    0 -0.19122304527E+03 -0.20021923690E+03 -0.15182490349E+03  0.31576321839E+03  0.12699999809E+01 0.  1.
       -4    1    3    3    0  502  0.19122304527E+03  0.20021923690E+03  0.66956998089E+03  0.72455473780E+03  0.12699999809E+01 0. -1.
</event>
<event>
 5   0  0.3685879E-03  0.9033327E+03  0.7818609E-02  0.9421425E-01
        2   -1    0    0  501    0  0.00000000000E+00  0.00000000000E+00  0.14958497670E+04  0.14958497670E+04  0.25500000920E-02 0.  1.
       -2   -1    0    0    0  501  0.00000000000E+00  0.00000000000E+00 -0.13637899966E+03  0.13637899969E+03  0.25500000920E-02 0. -1.
    10030    2    1    2    0    0  0.00000000000E+00  0.00000000000E+00  0.13594707673E+04  0.16322287666E+04  0.90333270701E+03 0.  0.
        1    1    3    3  502    0 -0.25331475132E+02  0.41333290803E+03  0.10055620668E+04  0.10874929180E+04  0.50400001928E-02 0.  1.
       -1    1    3    3    0  502  0.25331475132E+02 -0.41333290803E+03  0.35390870050E+03  0.54473584865E+03  0.50400001928E-02 0. -1.
</event>
<event>
 5   0  0.1436000E-03  0.8646024E+03  0.7818609E-02  0.9470945E-01
       -4   -1    0    0    0  501  0.00000000000E+00  0.00000000000E+00  0.29413829485E+03  0.29414103657E+03  0.12699999809E+01 0.  1.
        4   -1    0    0  501    0  0.00000000000E+00  0.00000000000E+00 -0.63535582866E+03  0.63535709795E+03  0.12699999809E+01 0. -1.
    10030    2    1    2    0    0  0.00000000000E+00  0.00000000000E+00 -0.34121753382E+03  0.92949813452E+03  0.86460243852E+03 0.  0.
        2    1    3    3  502    0  0.29309647538E+03  0.30942649020E+03 -0.92831819453E+02  0.43619725289E+03  0.25500000920E-02 0. -1.
       -2    1    3    3    0  502 -0.29309647538E+03 -0.30942649020E+03 -0.24838571436E+03  0.49330088164E+03  0.25500000920E-02 0.  1.
</event>
<event>
 5   0  0.3626546E-03  0.9192559E+03  0.7818609E-02  0.9401826E-01
       -2   -1    0    0    0  501  0.00000000000E+00  0.00000000000E+00  0.30579333916E+03  0.30579333917E+03  0.25500000920E-02 0.  1.
        2   -1    0    0  501    0  0.00000000000E+00  0.00000000000E+00 -0.69085172333E+03  0.69085172333E+03  0.25500000920E-02 0. -1.
    10030    2    1    2    0    0  0.00000000000E+00  0.00000000000E+00 -0.38505838417E+03  0.99664506250E+03  0.91925590637E+03 0.  0.
        3    1    3    3  502    0  0.89683703952E+02  0.32560625736E+03 -0.53053689437E+03  0.62891335498E+03  0.10100000352E+00 0. -1.
       -3    1    3    3    0  502 -0.89683703952E+02 -0.32560625736E+03  0.14547851020E+03  0.36773170752E+03  0.10100000352E+00 0.  1.
</event>
<event>
 5   0  0.3663255E-03  0.9042047E+03  0.7818609E-02  0.9420341E-01
        2   -1    0    0  501    0  0.00000000000E+00  0.00000000000E+00  0.69828691165E+03  0.69828691165E+03  0.25500000920E-02 0. -1.
       -2   -1    0    0    0  501  0.00000000000E+00  0.00000000000E+00 -0.29271137744E+03  0.29271137745E+03  0.25500000920E-02 0.  1.
    10030    2    1    2    0    0  0.00000000000E+00  0.00000000000E+00  0.40557553421E+03  0.99099828910E+03  0.90420467542E+03 0.  0.
        4    1    3    3  502    0  0.13872988282E+03 -0.43017353122E+03  0.19184633307E+03  0.49102125796E+03  0.12699999809E+01 0.  1.
       -4    1    3    3    0  502 -0.13872988282E+03  0.43017353122E+03  0.21372920114E+03  0.49997703115E+03  0.12699999809E+01 0. -1.
</event>
<event>
 5   0  0.2129280E-03  0.9009474E+03  0.7818609E-02  0.9424398E-01
       -1   -1    0    0    0  501  0.00000000000E+00  0.00000000000E+00  0.13357341058E+03  0.13357341067E+03  0.50400001928E-02 0.  1.
        1   -1    0    0  501    0  0.00000000000E+00  0.00000000000E+00 -0.15192137267E+04  0.15192137267E+04  0.50400001928E-02 0. -1.
    10030    2    1    2    0    0  0.00000000000E+00  0.00000000000E+00 -0.13856403161E+04  0.16527871374E+04  0.90094741014E+03 0.  0.
        3    1    3    3  502    0  0.20292130877E+03 -0.39926491477E+03 -0.78150483912E+03  0.90074377793E+03  0.10100000352E+00 0. -1.
       -3    1    3    3    0  502 -0.20292130877E+03  0.39926491477E+03 -0.60413547700E+03  0.75204335945E+03  0.10100000352E+00 0.  1.
</event>
<event>
 5   0  0.2074970E-03  0.9003981E+03  0.7818609E-02  0.9425084E-01
        1   -1    0    0  501    0  0.00000000000E+00  0.00000000000E+00  0.11521029986E+04  0.11521029986E+04  0.50400001928E-02 0.  1.
       -1   -1    0    0    0  501  0.00000000000E+00  0.00000000000E+00 -0.17592105561E+03  0.17592105568E+03  0.50400001928E-02 0. -1.
    10030    2    1    2    0    0  0.00000000000E+00  0.00000000000E+00  0.97618194301E+03  0.13280240543E+04  0.90039808029E+03 0.  0.
        2    1    3    3  502    0  0.98815507115E+02 -0.37415081034E+03  0.82740769970E+03  0.91343135202E+03  0.25500000920E-02 0.  1.
       -2    1    3    3    0  502 -0.98815507115E+02  0.37415081034E+03  0.14877424332E+03  0.41459270230E+03  0.25500000920E-02 0. -1.
</event>
<event>
 5   0  0.2129280E-03  0.9002944E+03  0.7818609E-02  0.9425214E-01
       -1   -1    0    0    0  501  0.00000000000E+00  0.00000000000E+00  0.60515363265E+03  0.60515363267E+03  0.50400001928E-02 0. -1.
        1   -1    0    0  501    0  0.00000000000E+00  0.00000000000E+00 -0.33484471324E+03  0.33484471327E+03  0.50400001928E-02 0.  1.
    10030    2    1    2    0    0  0.00000000000E+00  0.00000000000E+00  0.27030891941E+03  0.93999834594E+03  0.90029438433E+03 0.  0.
        3    1    3    3  502    0 -0.26512958072E+03 -0.12591720867E+03 -0.22119411564E+03  0.36752644123E+03  0.10100000352E+00 0.  1.
       -3    1    3    3    0  502  0.26512958072E+03  0.12591720867E+03  0.49150303506E+03  0.57247190471E+03  0.10100000352E+00 0. -1.
</event>
<event>
 5   0  0.3663255E-03  0.9030939E+03  0.7818609E-02  0.9421722E-01
        2   -1    0    0  501    0  0.00000000000E+00  0.00000000000E+00  0.63884868535E+03  0.63884868535E+03  0.25500000920E-02 0. -1.
       -2   -1    0    0    0  501  0.00000000000E+00  0.00000000000E+00 -0.31915954893E+03  0.31915954894E+03  0.25500000920E-02 0.  1.
    10030    2    1    2    0    0  0.00000000000E+00  0.00000000000E+00  0.31968913642E+03  0.95800823429E+03  0.90309392259E+03 0.  0.
        4    1    3    3  502    0 -0.83979338232E+02  0.44142575133E+03  0.11259610451E+03  0.46323721659E+03  0.12699999809E+01 0. -1.
       -4    1    3    3    0  502  0.83979338232E+02 -0.44142575133E+03  0.20709303190E+03  0.49477101769E+03  0.12699999809E+01 0.  1.
</event>
<event>
 5   0  0.2134145E-03  0.9032062E+03  0.7818609E-02  0.9421582E-01
        1   -1    0    0  501    0  0.00000000000E+00  0.00000000000E+00  0.62880607090E+03  0.62880607092E+03  0.50400001928E-02 0.  1.
       -1   -1    0    0    0  501  0.00000000000E+00  0.00000000000E+00 -0.32433742407E+03  0.32433742411E+03  0.50400001928E-02 0. -1.
    10030    2    1    2    0    0  0.00000000000E+00  0.00000000000E+00  0.30446864683E+03  0.95314349503E+03  0.90320615875E+03 0.  0.
        1    1    3    3  502    0  0.10315968884E+02  0.18014689972E+03 -0.28464258519E+03  0.33701739721E+03  0.50400001928E-02 0. -1.
       -1    1    3    3    0  502 -0.10315968884E+02 -0.18014689972E+03  0.58911123202E+03  0.61612609782E+03  0.50400001928E-02 0.  1.
</event>
<event>
 5   0  0.2130975E-03  0.9059086E+03  0.7818609E-02  0.9418225E-01
        1   -1    0    0  501    0  0.00000000000E+00  0.00000000000E+00  0.88897268611E+03  0.88897268613E+03  0.50400001928E-02 0.  1.
       -1   -1    0    0    0  501  0.00000000000E+00  0.00000000000E+00 -0.23079179865E+03  0.23079179871E+03  0.50400001928E-02 0. -1.
    10030    2    1    2    0    0  0.00000000000E+00  0.00000000000E+00  0.65818088746E+03  0.11197644848E+04  0.90590861619E+03 0.  0.
        5    1    3    3  502    0  0.35107759804E+03 -0.20816862519E+03  0.57180034280E+03  0.70254350639E+03  0.46999998093E+01 0.  1.
       -5    1    3    3    0  502 -0.35107759804E+03  0.20816862519E+03  0.86380544662E+02  0.41722097844E+03  0.46999998093E+01 0. -1.
</event>
<event>
 5   0  0.2134145E-03  0.8965355E+03  0.7818609E-02  0.9429923E-01
        1   -1    0    0  501    0  0.00000000000E+00  0.00000000000E+00  0.24234438234E+03  0.24234438240E+03  0.50400001928E-02 0. -1.
       -1   -1    0    0    0  501  0.00000000000E+00  0.00000000000E+00 -0.82916700092E+03  0.82916700094E+03  0.50400001928E-02 0.  1.
    10030    2    1    2    0    0  0.00000000000E+00  0.00000000000E+00 -0.58682261858E+03  0.10715113833E+04  0.89653547556E+03 0.  0.
        1    1    3    3  502    0 -0.31975695445E+02  0.30565926552E+03 -0.68343567873E+03  0.74935596260E+03  0.50400001928E-02 0.  1.
       -1    1    3    3    0  502  0.31975695445E+02 -0.30565926552E+03  0.96613060147E+02  0.32215542074E+03  0.50400001928E-02 0. -1.
</event>
<event>
 5   0  0.2074970E-03  0.8973999E+03  0.7818609E-02  0.9428838E-01
       -1   -1    0    0    0  501  0.00000000000E+00  0.00000000000E+00  0.28391473147E+03  0.28391473152E+03  0.50400001928E-02 0. -1.
        1   -1    0    0  501    0  0.00000000000E+00  0.00000000000E+00 -0.70912713815E+03  0.70912713817E+03  0.50400001928E-02 0.  1.
    10030    2    1    2    0    0  0.00000000000E+00  0.00000000000E+00 -0.42521240668E+03  0.99304186969E+03  0.89739989089E+03 0.  0.
        2    1    3    3  502    0 -0.39561786327E+03  0.50447364932E+02  0.14910960148E+02  0.39909994626E+03  0.25500000920E-02 0.  1.
       -2    1    3    3    0  502  0.39561786327E+03 -0.50447364932E+02 -0.44012336683E+03  0.59394192343E+03  0.25500000920E-02 0. -1.
</event>
<event>
 5   0  0.3815269E-03  0.9011381E+03  0.7818609E-02  0.9424160E-01
       -2   -1    0    0    0  501  0.00000000000E+00  0.00000000000E+00  0.12233516276E+03  0.12233516279E+03  0.25500000920E-02 0. -1.
        2   -1    0    0  501    0  0.00000000000E+00  0.00000000000E+00 -0.16594778058E+04  0.16594778058E+04  0.25500000920E-02 0.  1.
    10030    2    1    2    0    0  0.00000000000E+00  0.00000000000E+00 -0.15371426431E+04  0.17818129686E+04  0.90113814145E+03 0.  0.
        5    1    3    3  502    0 -0.89823922903E+02  0.13473243460E+03 -0.15999025224E+04  0.16080831251E+04  0.46999998093E+01 0.  1.
       -5    1    3    3    0  502  0.89823922903E+02 -0.13473243460E+03  0.62759879366E+02  0.17372984348E+03  0.46999998093E+01 0. -1.
</event>
<event>
 5   0  0.3663255E-03  0.8984821E+03  0.7818609E-02  0.9427481E-01
       -2   -1    0    0    0  501  0.00000000000E+00  0.00000000000E+00  0.32070006108E+03  0.32070006109E+03  0.25500000920E-02 0.  1.
        2   -1    0    0  501    0  0.00000000000E+00  0.00000000000E+00 -0.62930302498E+03  0.62930302498E+03  0.25500000920E-02 0. -1.
    10030    2    1    2    0    0  0.00000000000E+00  0.00000000000E+00 -0.30860296389E+03  0.95000308607E+03  0.89848209455E+03 0.  0.
        4    1    3    3  502    0 -0.21195472996E+03  0.35515932694E+03 -0.33972250999E+03  0.53523448297E+03  0.12699999809E+01 0. -1.
       -4    1    3    3    0  502  0.21195472996E+03 -0.35515932694E+03  0.31119546101E+02  0.41476860310E+03  0.12699999809E+01 0.  1.
</event>
<event>
 5   0  0.2129280E-03  0.9023203E+03  0.7818609E-02  0.9422686E-01
        1   -1    0    0  501    0  0.00000000000E+00  0.00000000000E+00  0.27127895901E+03  0.27127895906E+03  0.50400001928E-02 0. -1.
       -1   -1    0    0    0  501  0.00000000000E+00  0.00000000000E+00 -0.75031802062E+03  0.75031802064E+03  0.50400001928E-02 0.  1.
    10030    2    1    2    0    0  0.00000000000E+00  0.00000000000E+00 -0.47903906161E+03  0.10215969797E+04  0.90232032360E+03 0.  0.
        3    1    3    3  502    0 -0.12335907451E+03  0.42992264228E+03 -0.30644847591E+03  0.54218227396E+03  0.10100000352E+00 0.  1.
       -3    1    3    3    0  502  0.12335907451E+03 -0.42992264228E+03 -0.17259058570E+03  0.47941470574E+03  0.10100000352E+00 0. -1.
</event>
<event>
 5   0  0.2074970E-03  0.9048701E+03  0.7818609E-02  0.9419514E-01
       -1   -1    0    0    0  501  0.00000000000E+00  0.00000000000E+00  0.65474914479E+03  0.65474914481E+03  0.50400001928E-02 0.  1.
        1   -1    0    0  501    0  0.00000000000E+00  0.00000000000E+00 -0.31263497189E+03  0.31263497193E+03  0.50400001928E-02 0. -1.
    10030    2    1    2    0    0  0.00000000000E+00  0.00000000000E+00  0.34211417290E+03  0.96738411674E+03  0.90487011334E+03 0.  0.
        2    1    3    3  502    0 -0.60169200054E+02  0.44689631996E+03  0.13161915048E+03  0.46974488205E+03  0.25500000920E-02 0. -1.
       -2    1    3    3    0  502  0.60169200054E+02 -0.44689631996E+03  0.21049502242E+03  0.49763923469E+03  0.25500000920E-02 0.  1.
</event>
<event>
 5   0  0.3663255E-03  0.9010145E+03  0.7818609E-02  0.9424314E-01
       -2   -1    0    0    0  501  0.00000000000E+00  0.00000000000E+00  0.33867449435E+03  0.33867449435E+03  0.25500000920E-02 0.  1.
        2   -1    0    0  501    0  0.00000000000E+00  0.00000000000E+00 -0.59926803952E+03  0.59926803953E+03  0.25500000920E-02 0. -1.
    10030    2    1    2    0    0  0.00000000000E+00  0.00000000000E+00 -0.26059354518E+03  0.93794253388E+03  0.90101453988E+03 0.  0.
        4    1    3    3  502    0  0.30054803887E+03  0.30317084786E+03  0.19523707054E+02  0.42734584905E+03  0.12699999809E+01 0.  1.
       -4    1    3    3    0  502 -0.30054803887E+03 -0.30317084786E+03 -0.28011725223E+03  0.51059668483E+03  0.12699999809E+01 0. -1.
</event>
<event>
 5   0  0.2134145E-03  0.8999184E+03  0.7818609E-02  0.9425683E-01
       -1   -1    0    0    0  501  0.00000000000E+00  0.00000000000E+00  0.11995314038E+03  0.11995314048E+03  0.50400001928E-02 0. -1.
        1   -1    0    0  501    0  0.00000000000E+00  0.00000000000E+00 -0.16878531698E+04  0.16878531698E+04  0.50400001928E-02 0.  1.
    10030    2    1    2    0    0  0.00000000000E+00  0.00000000000E+00 -0.15679000294E+04  0.18078063103E+04  0.89991841478E+03 0.  0.
        1    1    3    3  502    0 -0.13662640389E+03  0.37012787233E+03 -0.12185406585E+04  0.12808211244E+04  0.50400001928E-02 0.  1.
       -1    1    3    3    0  502  0.13662640389E+03 -0.37012787233E+03 -0.34935937088E+03  0.52698518591E+03  0.50400001928E-02 0. -1.
</event>
<event>
 5   0  0.3685879E-03  0.9015629E+03  0.7818609E-02  0.9423630E-01
        2   -1    0    0  501    0  0.00000000000E+00  0.00000000000E+00  0.69747419405E+03  0.69747419405E+03  0.25500000920E-02 0.  1.
       -2   -1    0    0    0  501  0.00000000000E+00  0.00000000000E+00 -0.29134257467E+03  0.29134257469E+03  0.25500000920E-02 0. -1.
    10030    2    1    2    0    0  0.00000000000E+00  0.00000000000E+00  0.40613161937E+03  0.98881676874E+03  0.90156292619E+03 0.  0.
        1    1    3    3  502    0  0.24340749096E+03 -0.21797266797E+03  0.54367692724E+03  0.63430583466E+03  0.50400001928E-02 0.  1.
       -1    1    3    3    0  502 -0.24340749096E+03  0.21797266797E+03 -0.13754530787E+03  0.35451093408E+03  0.50400001928E-02 0. -1.
</event>
<event>
 5   0  0.2134145E-03  0.9012795E+03  0.7818609E-02  0.9423983E-01
       -1   -1    0    0    0  501  0.00000000000E+00  0.00000000000E+00  0.54243920995E+03  0.54243920997E+03  0.50400001928E-02 0. -1.
        1   -1    0    0  501    0  0.00000000000E+00  0.00000000000E+00 -0.37437593904E+03  0.37437593907E+03  0.50400001928E-02 0.  1.
    10030    2    1    2    0    0  0.00000000000E+00  0.00000000000E+00  0.16806327091E+03  0.91681514904E+03  0.90127950963E+03 0.  0.
        1    1    3    3  502    0  0.44541020206E+03  0.68325770167E+02  0.79772625483E+02  0.45762684664E+03  0.50400001928E-02 0. -1.
       -1    1    3    3    0  502 -0.44541020206E+03 -0.68325770167E+02  0.88290645429E+02  0.45918830240E+03  0.50400001928E-02 0.  1.
</event>
<event>
 5   0  0.2134145E-03  0.9001111E+03  0.7818609E-02  0.9425443E-01
        1   -1    0    0  501    0  0.00000000000E+00  0.00000000000E+00  0.13460802336E+04  0.13460802337E+04  0.50400001928E-02 0.  1.
       -1   -1    0    0    0  501  0.00000000000E+00  0.00000000000E+00 -0.15047393326E+03  0.15047393334E+03  0.50400001928E-02 0. -1.
    10030    2    1    2    0    0  0.00000000000E+00  0.00000000000E+00  0.11956063004E+04  0.14965541670E+04  0.90011107606E+03 0.  0.
        1    1    3    3  502    0  0.27848709576E+03 -0.35353771786E+03  0.59372823077E+03  0.74502160539E+03  0.50400001928E-02 0.  1.
       -1    1    3    3    0  502 -0.27848709576E+03  0.35353771786E+03  0.60187806962E+03  0.75153256161E+03  0.50400001928E-02 0. -1.
</event>
<event>
 5   0  0.3626546E-03  0.8989111E+03  0.7818609E-02  0.9426944E-01
       -2   -1    0    0    0  501  0.00000000000E+00  0.00000000000E+00  0.10579930876E+03  0.10579930880E+03  0.25500000920E-02 0.  1.
        2   -1    0    0  501    0  0.00000000000E+00  0.00000000000E+00 -0.19093725270E+04  0.19093725270E+04  0.25500000920E-02 0. -1.
    10030    2    1    2    0    0  0.00000000000E+00  0.00000000000E+00 -0.18035732183E+04  0.20151718358E+04  0.89891110476E+03 0.  0.
        3    1    3    3  502    0  0.12101111762E+03 -0.23892634983E+03 -0.92624506021E+02  0.28338807411E+03  0.10100000352E+00 0.  1.
       -3    1    3    3    0  502 -0.12101111762E+03  0.23892634983E+03 -0.17109487123E+04  0.17317837617E+04  0.10100000352E+00 0. -1.
</event>
<event>
 5   0  0.2130975E-03  0.9063956E+03  0.7818609E-02  0.9417622E-01
       -1   -1    0    0    0  501  0.00000000000E+00  0.00000000000E+00  0.33870805720E+03  0.33870805724E+03  0.50400001928E-02 0. -1.
        1   -1    0    0  501    0  0.00000000000E+00  0.00000000000E+00 -0.60638729073E+03  0.60638729075E+03  0.50400001928E-02 0.  1.
    10030    2    1    2    0    0  0.00000000000E+00  0.00000000000E+00 -0.26767923353E+03  0.94509534799E+03  0.90639563366E+03 0.  0.
        5    1    3    3  502    0  0.33621882607E+03  0.25813199512E+03 -0.30096709597E+03  0.51988316838E+03  0.46999998093E+01 0.  1.
       -5    1    3    3    0  502 -0.33621882607E+03 -0.25813199512E+03  0.33287862434E+02  0.42521217961E+03  0.46999998093E+01 0. -1.
</event>
<event>
 5   0  0.3626546E-03  0.8999341E+03  0.7818609E-02  0.9425664E-01
       -2   -1    0    0    0  501  0.00000000000E+00  0.00000000000E+00  0.13157898233E+03  0.13157898236E+03  0.25500000920E-02 0.  1.
        2   -1    0    0  501    0  0.00000000000E+00  0.00000000000E+00 -0.15387742516E+04  0.15387742516E+04  0.25500000920E-02 0. -1.
    10030    2    1    2    0    0  0.00000000000E+00  0.00000000000E+00 -0.14071952692E+04  0.16703532339E+04  0.89993410888E+03 0.  0.
        3    1    3    3  502    0 -0.82677450896E+02  0.22546199422E+03 -0.14098898055E+04  0.14301950726E+04  0.10100000352E+00 0. -1.
       -3    1    3    3    0  502  0.82677450896E+02 -0.22546199422E+03  0.26945362999E+01  0.24015816133E+03  0.10100000352E+00 0.  1.
</event>
<event>
 5   0  0.3663255E-03  0.9009128E+03  0.7818609E-02  0.9424441E-01
       -2   -1    0    0    0  501  0.00000000000E+00  0.00000000000E+00  0.38446843674E+03  0.38446843675E+03  0.25500000920E-02 0.  1.
        2   -1    0    0  501    0  0.00000000000E+00  0.00000000000E+00 -0.52777010559E+03  0.52777010560E+03  0.25500000920E-02 0. -1.
    10030    2    1    2    0    0  0.00000000000E+00  0.00000000000E+00 -0.14330166885E+03  0.91223854235E+03  0.90091275375E+03 0.  0.
        4    1    3    3  502    0 -0.28879511778E+03  0.14695645021E+03  0.24518941942E+03  0.40634748997E+03  0.12699999809E+01 0.  1.
       -4    1    3    3    0  502  0.28879511778E+03 -0.14695645021E+03 -0.38849108827E+03  0.50589105238E+03  0.12699999809E+01 0. -1.
</event>
<event>
 5   0  0.3626546E-03  0.8983941E+03  0.7818609E-02  0.9427591E-01
        2   -1    0    0  501    0  0.00000000000E+00  0.00000000000E+00  0.10310085827E+04  0.10310085827E+04  0.25500000920E-02 0. -1.
       -2   -1    0    0    0  501  0.00000000000E+00  0.00000000000E+00 -0.19570933224E+03  0.19570933226E+03  0.25500000920E-02 0.  1.
    10030    2    1    2    0    0  0.00000000000E+00  0.00000000000E+00  0.83529925049E+03  0.12267179150E+04  0.89839412570E+03 0.  0.
        3    1    3    3  502    0 -0.32666169345E+03  0.25710547502E+03  0.65004572912E+03  0.77160258385E+03  0.10100000352E+00 0. -1.
       -3    1    3    3    0  502  0.32666169345E+03 -0.25710547502E+03  0.18525352136E+03  0.45511533113E+03  0.10100000352E+00 0.  1.
</event>
<event>
 5   0  0.3685879E-03  0.8982790E+03  0.7818609E-02  0.9427735E-01
        2   -1    0    0  501    0  0.00000000000E+00  0.00000000000E+00  0.17531022388E+04  0.17531022388E+04  0.25500000920E-02 0. -1.
       -2   -1    0    0    0  501  0.00000000000E+00  0.00000000000E+00 -0.11506818982E+03  0.11506818985E+03  0.25500000920E-02 0.  1.
    10030    2    1    2    0    0  0.00000000000E+00  0.00000000000E+00  0.16380340490E+04  0.18681704286E+04  0.89827902396E+03 0.  0.
        1    1    3    3  502    0  0.59302804424E+01  0.26817653208E+03  0.69819147494E+02  0.27717960597E+03  0.50400001928E-02 0.  1.
       -1    1    3    3    0  502 -0.59302804424E+01 -0.26817653208E+03  0.15682149015E+04  0.15909908227E+04  0.50400001928E-02 0. -1.
</event>
<event>
 5   0  0.2074970E-03  0.8988213E+03  0.7818609E-02  0.9427056E-01
        1   -1    0    0  501    0  0.00000000000E+00  0.00000000000E+00  0.68303067087E+03  0.68303067089E+03  0.50400001928E-02 0.  1.
       -1   -1    0    0    0  501  0.00000000000E+00  0.00000000000E+00 -0.29569671599E+03  0.29569671603E+03  0.50400001928E-02 0. -1.
    10030    2    1    2    0    0  0.00000000000E+00  0.00000000000E+00  0.38733395488E+03  0.97872738692E+03  0.89882128664E+03 0.  0.
        2    1    3    3  502    0  0.16384974960E+03  0.12384369671E+03 -0.24160193661E+03  0.31710486821E+03  0.25500000920E-02 0. -1.
       -2    1    3    3    0  502 -0.16384974960E+03 -0.12384369671E+03  0.62893589149E+03  0.66162251872E+03  0.25500000920E-02 0.  1.
</event>
<event>
 5   0  0.2295158E-03  0.9008953E+03  0.7818609E-02  0.9424463E-01
       -1   -1    0    0    0  501  0.00000000000E+00  0.00000000000E+00  0.15104649202E+03  0.15104649210E+03  0.50400001928E-02 0. -1.
        1   -1    0    0  501    0  0.00000000000E+00  0.00000000000E+00 -0.13433153610E+04  0.13433153610E+04  0.50400001928E-02 0.  1.
    10030    2    1    2    0    0  0.00000000000E+00  0.00000000000E+00 -0.11922688690E+04  0.14943618531E+04  0.90089527254E+03 0.  0.
        4    1    3    3  502    0  0.39476028705E+03  0.18470772874E+02 -0.23758066654E+03  0.46111065884E+03  0.12699999809E+01 0.  1.
       -4    1    3    3    0  502 -0.39476028705E+03 -0.18470772874E+02 -0.95468820246E+03  0.10332511943E+04  0.12699999809E+01 0. -1.
</event>
<event>
 5   0  0.3815269E-03  0.9002530E+03  0.7818609E-02  0.9425265E-01
       -2   -1    0    0    0  501  0.00000000000E+00  0.00000000000E+00  0.30225127899E+03  0.30225127900E+03  0.25500000920E-02 0. -1.
        2   -1    0    0  501    0  0.00000000000E+00  0.00000000000E+00 -0.67034906646E+03  0.67034906646E+03  0.25500000920E-02 0.  1.
    10030    2    1    2    0    0  0.00000000000E+00  0.00000000000E+00 -0.36809778747E+03  0.97260034546E+03  0.90025299269E+03 0.  0.
        5    1    3    3  502    0 -0.40228390473E+03  0.10563394619E+03 -0.36992446625E+03  0.55664806774E+03  0.46999998093E+01 0.  1.
       -5    1    3    3    0  502  0.40228390473E+03 -0.10563394619E+03  0.18266787846E+01  0.41595227772E+03  0.46999998093E+01 0. -1.
</event>
<event>
 5   0  0.2134145E-03  0.9003082E+03  0.7818609E-02  0.9425196E-01
        1   -1    0    0  501    0  0.00000000000E+00  0.00000000000E+00  0.25309027264E+03  0.25309027269E+03  0.50400001928E-02 0.  1.
       -1   -1    0    0    0  501  0.00000000000E+00  0.00000000000E+00 -0.80065781405E+03  0.80065781407E+03  0.50400001928E-02 0. -1.
    10030    2    1    2    0    0  0.00000000000E+00  0.00000000000E+00 -0.54756754141E+03  0.10537480868E+04  0.90030817943E+03 0.  0.
        1    1    3    3  502    0  0.36266841389E+03 -0.13780548047E+03 -0.54099069315E+03  0.66572491240E+03  0.50400001928E-02 0. -1.
       -1    1    3    3    0  502 -0.36266841389E+03  0.13780548047E+03 -0.65768482607E+01  0.38802317436E+03  0.50400001928E-02 0.  1.
</event>
<event>
 5   0  0.2295158E-03  0.8992661E+03  0.7818609E-02  0.9426499E-01
       -1   -1    0    0    0  501  0.00000000000E+00  0.00000000000E+00  0.50732240980E+03  0.50732240982E+03  0.50400001928E-02 0. -1.
        1   -1    0    0  501    0  0.00000000000E+00  0.00000000000E+00 -0.39850370839E+03  0.39850370842E+03  0.50400001928E-02 0.  1.
    10030    2    1    2    0    0  0.00000000000E+00  0.00000000000E+00  0.10881870140E+03  0.90582611825E+03  0.89926606003E+03 0.  0.
        4    1    3    3  502    0  0.20610733198E+02 -0.42263662570E+03  0.20757690937E+03  0.47131338397E+03  0.12699999809E+01 0. -1.
       -4    1    3    3    0  502 -0.20610733198E+02  0.42263662570E+03 -0.98758207966E+02  0.43451273427E+03  0.12699999809E+01 0.  1.
</event>
<event>
 5   0  0.2130975E-03  0.9019458E+03  0.7818609E-02  0.9423152E-01
        1   -1    0    0  501    0  0.00000000000E+00  0.00000000000E+00  0.13514103157E+04  0.13514103157E+04  0.50400001928E-02 0. -1.
       -1   -1    0    0    0  501  0.00000000000E+00  0.00000000000E+00 -0.15049209192E+03  0.15049209201E+03  0.50400001928E-02 0.  1.
    10030    2    1    2    0    0  0.00000000000E+00  0.00000000000E+00  0.12009182237E+04  0.15019024077E+04  0.90194581992E+03 0.  0.
        5    1    3    3  502    0  0.21228008661E+03 -0.16560288863E+03 -0.19296674951E+01  0.26928231562E+03  0.46999998093E+01 0.  1.
       -5    1    3    3    0  502 -0.21228008661E+03  0.16560288863E+03  0.12028478912E+04  0.12326200920E+04  0.46999998093E+01 0. -1.
</event>
<event>
 5   0  0.3663255E-03  0.9069169E+03  0.7818609E-02  0.9416976E-01
       -2   -1    0    0    0  501  0.00000000000E+00  0.00000000000E+00  0.12645351480E+03  0.12645351482E+03  0.25500000920E-02 0. -1.
        2   -1    0    0  501    0  0.00000000000E+00  0.00000000000E+00 -0.16260882443E+04  0.16260882443E+04  0.25500000920E-02 0.  1.
    10030    2    1    2    0    0  0.00000000000E+00  0.00000000000E+00 -0.14996347295E+04  0.17525417591E+04  0.90691691766E+03 0.  0.
        4    1    3    3  502    0  0.13075851089E+03  0.27546385955E+03 -0.10124787718E+03  0.32129561407E+03  0.12699999809E+01 0. -1.
       -4    1    3    3    0  502 -0.13075851089E+03 -0.27546385955E+03 -0.13983868523E+04  0.14312461451E+04  0.12699999809E+01 0.  1.
</event>
<event>
 5   0  0.2134145E-03  0.8977722E+03  0.7818609E-02  0.9428371E-01
       -1   -1    0    0    0  501  0.00000000000E+00  0.00000000000E+00  0.81299202130E+03  0.81299202132E+03  0.50400001928E-02 0. -1.
        1   -1    0    0  501    0  0.00000000000E+00  0.00000000000E+00 -0.24784834734E+03  0.24784834739E+03  0.50400001928E-02 0.  1.
    10030    2    1    2    0    0  0.00000000000E+00  0.00000000000E+00  0.56514367396E+03  0.10608403687E+04  0.89777219586E+03 0.  0.
        1    1    3    3  502    0 -0.24771550702E+03  0.15748969753E+03 -0.11871989657E+03  0.31663921285E+03  0.50400001928E-02 0.  1.
       -1    1    3    3    0  502  0.24771550702E+03 -0.15748969753E+03  0.68386357053E+03  0.74420115585E+03  0.50400001928E-02 0. -1.
</event>
<event>
 5   0  0.3806019E-03  0.8983873E+03  0.7818609E-02  0.9427600E-01
        2   -1    0    0  501    0  0.00000000000E+00  0.00000000000E+00  0.30422617174E+03  0.30422617175E+03  0.25500000920E-02 0.  1.
       -2   -1    0    0    0  501  0.00000000000E+00  0.00000000000E+00 -0.66323983513E+03  0.66323983514E+03  0.25500000920E-02 0. -1.
    10030    2    1    2    0    0  0.00000000000E+00  0.00000000000E+00 -0.35901366340E+03  0.96746600688E+03  0.89838725724E+03 0.  0.
        2    1    3    3  502    0 -0.38863475064E+03  0.21822740990E+03 -0.11940560714E+03  0.46143024484E+03  0.25500000920E-02 0.  1.
       -2    1    3    3    0  502  0.38863475064E+03 -0.21822740990E+03 -0.23960805626E+03  0.50603576204E+03  0.25500000920E-02 0. -1.
</event>
<event>
 5   0  0.3815269E-03  0.8951921E+03  0.7818609E-02  0.9431612E-01
       -2   -1    0    0    0  501  0.00000000000E+00  0.00000000000E+00  0.11839860742E+03  0.11839860744E+03  0.25500000920E-02 0. -1.
        2   -1    0    0  501    0  0.00000000000E+00  0.00000000000E+00 -0.16920996429E+04  0.16920996429E+04  0.25500000920E-02 0.  1.
    10030    2    1    2    0    0  0.00000000000E+00  0.00000000000E+00 -0.15737010355E+04  0.18104982504E+04  0.89519213883E+03 0.  0.
        5    1    3    3  502    0 -0.40426872597E+03 -0.17904758431E+03 -0.92739262313E+03  0.10274095618E+04  0.46999998093E+01 0. -1.
       -5    1    3    3    0  502  0.40426872597E+03  0.17904758431E+03 -0.64630841237E+03  0.78308868856E+03  0.46999998093E+01 0.  1.
</event>
<event>
 5   0  0.2129280E-03  0.9009685E+03  0.7818609E-02  0.9424372E-01
        1   -1    0    0  501    0  0.00000000000E+00  0.00000000000E+00  0.62695293299E+03  0.62695293301E+03  0.50400001928E-02 0.  1.
       -1   -1    0    0    0  501  0.00000000000E+00  0.00000000000E+00 -0.32368628545E+03  0.32368628549E+03  0.50400001928E-02 0. -1.
    10030    2    1    2    0    0  0.00000000000E+00  0.00000000000E+00  0.30326664754E+03  0.95063921851E+03  0.90096851458E+03 0.  0.
        3    1    3    3  502    0  0.14867985244E+01 -0.38813172195E+02 -0.32191616042E+03  0.32425097910E+03  0.10100000352E+00 0. -1.
       -3    1    3    3    0  502 -0.14867985244E+01  0.38813172195E+02  0.62518280796E+03  0.62638823941E+03  0.10100000352E+00 0.  1.
</event>
<event>
 5   0  0.1436000E-03  0.9017427E+03  0.7818609E-02  0.9423406E-01
       -3   -1    0    0    0  501  0.00000000000E+00  0.00000000000E+00  0.33059347268E+03  0.33059348811E+03  0.10100000352E+00 0.  1.
        3   -1    0    0  501    0  0.00000000000E+00  0.00000000000E+00 -0.61490913956E+03  0.61490914786E+03  0.10100000352E+00 0. -1.
    10030    2    1    2    0    0  0.00000000000E+00  0.00000000000E+00 -0.28431566688E+03  0.94550263597E+03  0.90174266628E+03 0.  0.
        1    1    3    3  502    0  0.10302337742E+03  0.38405171751E+03  0.80701706318E+02  0.40573674155E+03  0.50400001928E-02 0.  1.
       -1    1    3    3    0  502 -0.10302337742E+03 -0.38405171751E+03 -0.36501737320E+03  0.53976589442E+03  0.50400001928E-02 0. -1.
</event>
<event>
 5   0  0.2130975E-03  0.9020552E+03  0.7818609E-02  0.9423016E-01
        1   -1    0    0  501    0  0.00000000000E+00  0.00000000000E+00  0.18451363413E+03  0.18451363419E+03  0.50400001928E-02 0.  1.
       -1   -1    0    0    0  501  0.00000000000E+00  0.00000000000E+00 -0.11024978112E+04  0.11024978112E+04  0.50400001928E-02 0. -1.
    10030    2    1    2    0    0  0.00000000000E+00  0.00000000000E+00 -0.91798417707E+03  0.12870114454E+04  0.90205515976E+03 0.  0.
        5    1    3    3  502    0 -0.18417746824E+02 -0.15685085590E+03  0.14373770346E+03  0.21359780380E+03  0.46999998093E+01 0.  1.
       -5    1    3    3    0  502  0.18417746824E+02  0.15685085590E+03 -0.10617218805E+04  0.10734136416E+04  0.46999998093E+01 0. -1.
</event>
<event>
 5   0  0.3806019E-03  0.9008485E+03  0.7818609E-02  0.9424521E-01
        2   -1    0    0  501    0  0.00000000000E+00  0.00000000000E+00  0.12319553767E+04  0.12319553767E+04  0.25500000920E-02 0. -1.
       -2   -1    0    0    0  501  0.00000000000E+00  0.00000000000E+00 -0.16468291389E+03  0.16468291391E+03  0.25500000920E-02 0.  1.
    10030    2    1    2    0    0  0.00000000000E+00  0.00000000000E+00  0.10672724628E+04  0.13966382906E+04  0.90084849166E+03 0.  0.
        2    1    3    3  502    0  0.19081911730E+03 -0.47238476248E+01 -0.98879242457E+02  0.21496826477E+03  0.25500000920E-02 0.  1.
       -2    1    3    3    0  502 -0.19081911730E+03  0.47238476248E+01  0.11661517053E+04  0.11816700258E+04  0.25500000920E-02 0. -1.
</event>
<event>
 5   0  0.2295158E-03  0.8976934E+03  0.7818609E-02  0.9428469E-01
        1   -1    0    0  501    0  0.00000000000E+00  0.00000000000E+00  0.18676052318E+04  0.18676052318E+04  0.50400001928E-02 0.  1.
       -1   -1    0    0    0  501  0.00000000000E+00  0.00000000000E+00 -0.10787257065E+03  0.10787257077E+03  0.50400001928E-02 0. -1.
    10030    2    1    2    0    0  0.00000000000E+00  0.00000000000E+00  0.17597326611E+04  0.19754778026E+04  0.89769343862E+03 0.  0.
        4    1    3    3  502    0  0.33835004136E+02 -0.61747212110E+01  0.18646971384E+04  0.18650147360E+04  0.12699999809E+01 0.  1.
       -4    1    3    3    0  502 -0.33835004136E+02  0.61747212110E+01 -0.10496447726E+03  0.11046306655E+03  0.12699999809E+01 0. -1.
</event>
<event>
 5   0  0.3626546E-03  0.8939895E+03  0.7818609E-02  0.9433126E-01
        2   -1    0    0  501    0  0.00000000000E+00  0.00000000000E+00  0.30693699280E+03  0.30693699281E+03  0.25500000920E-02 0. -1.
       -2   -1    0    0    0  501  0.00000000000E+00  0.00000000000E+00 -0.65096193293E+03  0.65096193294E+03  0.25500000920E-02 0.  1.
    10030    2    1    2    0    0  0.00000000000E+00  0.00000000000E+00 -0.34402494013E+03  0.95789892575E+03  0.89398948121E+03 0.  0.
        3    1    3    3  502    0  0.30124229900E+03  0.31825766886E+03 -0.77566894623E+02  0.44502977410E+03  0.10100000352E+00 0.  1.
       -3    1    3    3    0  502 -0.30124229900E+03 -0.31825766886E+03 -0.26645804551E+03  0.51286915165E+03  0.10100000352E+00 0. -1.
</event>
<event>
 5   0  0.3815269E-03  0.9076533E+03  0.7818609E-02  0.9416065E-01
       -2   -1    0    0    0  501  0.00000000000E+00  0.00000000000E+00  0.64048363325E+03  0.64048363326E+03  0.25500000920E-02 0. -1.
        2   -1    0    0  501    0  0.00000000000E+00  0.00000000000E+00 -0.32156736892E+03  0.32156736893E+03  0.25500000920E-02 0.  1.
    10030    2    1    2    0    0  0.00000000000E+00  0.00000000000E+00  0.31891626434E+03  0.96205100219E+03  0.90765331881E+03 0.  0.
        5    1    3    3  502    0  0.33365128561E+03 -0.14913032828E+03  0.44460454927E+03  0.57555045863E+03  0.46999998093E+01 0. -1.
       -5    1    3    3    0  502 -0.33365128561E+03  0.14913032828E+03 -0.12568828493E+03  0.38650054355E+03  0.46999998093E+01 0.  1.
</event>
<event>
 5   0  0.3685879E-03  0.8977339E+03  0.7818609E-02  0.9428419E-01
       -2   -1    0    0    0  501  0.00000000000E+00  0.00000000000E+00  0.88972042630E+02  0.88972042667E+02  0.25500000920E-02 0.  1.
        2   -1    0    0  501    0  0.00000000000E+00  0.00000000000E+00 -0.22645490993E+04  0.22645490993E+04  0.25500000920E-02 0. -1.
    10030    2    1    2    0    0  0.00000000000E+00  0.00000000000E+00 -0.21755770567E+04  0.23535211420E+04  0.89773394510E+03 0.  0.
        1    1    3    3  502    0  0.31783655457E+02  0.27146954232E+02  0.83858762998E+02  0.93698719497E+02  0.50400001928E-02 0.  1.
       -1    1    3    3    0  502 -0.31783655457E+02 -0.27146954232E+02 -0.22594358197E+04  0.22598224225E+04  0.50400001928E-02 0. -1.
</event>
<event>
 5   0  0.2295158E-03  0.8990519E+03  0.7818609E-02  0.9426767E-01
       -1   -1    0    0    0  501  0.00000000000E+00  0.00000000000E+00  0.12953471124E+03  0.12953471134E+03  0.50400001928E-02 0.  1.
        1   -1    0    0  501    0  0.00000000000E+00  0.00000000000E+00 -0.15599954716E+04  0.15599954716E+04  0.50400001928E-02 0. -1.
    10030    2    1    2    0    0  0.00000000000E+00  0.00000000000E+00 -0.14304607604E+04  0.16895301830E+04  0.89905186289E+03 0.  0.
        4    1    3    3  502    0  0.13531626650E+03 -0.41284512812E+03 -0.49834056251E+03  0.66113275591E+03  0.12699999809E+01 0. -1.
       -4    1    3    3    0  502 -0.13531626650E+03  0.41284512812E+03 -0.93212019787E+03  0.10283974271E+04  0.12699999809E+01 0.  1.
</event>
<event>
 5   0  0.3685879E-03  0.9047854E+03  0.7818609E-02  0.9419619E-01
       -2   -1    0    0    0  501  0.00000000000E+00  0.00000000000E+00  0.10323988548E+03  0.10323988551E+03  0.25500000920E-02 0.  1.
        2   -1    0    0  501    0  0.00000000000E+00  0.00000000000E+00 -0.19823653366E+04  0.19823653366E+04  0.25500000920E-02 0. -1.
    10030    2    1    2    0    0  0.00000000000E+00  0.00000000000E+00 -0.18791254511E+04  0.20856052221E+04  0.90478543391E+03 0.  0.
        1    1    3    3  502    0 -0.10340820571E+03 -0.42393408766E+03 -0.12146876694E+04  0.12906895451E+04  0.50400001928E-02 0.  1.
       -1    1    3    3    0  502  0.10340820571E+03  0.42393408766E+03 -0.66443778168E+03  0.79491567694E+03  0.50400001928E-02 0. -1.
</event>
<event>
 5   0  0.2295158E-03  0.9018785E+03  0.7818609E-02  0.9423236E-01
       -1   -1    0    0    0  501  0.00000000000E+00  0.00000000000E+00  0.82116381665E+03  0.82116381666E+03  0.50400001928E-02 0. -1.
        1   -1    0    0  501    0  0.00000000000E+00  0.00000000000E+00 -0.24763170192E+03  0.24763170197E+03  0.50400001928E-02 0.  1.
    10030    2    1    2    0    0  0.00000000000E+00  0.00000000000E+00  0.57353211473E+03  0.10687955186E+04  0.90187846965E+03 0.  0.
        4    1    3    3  502    0 -0.40009617602E+03  0.20712057207E+03  0.26401075138E+03  0.52218691212E+03  0.12699999809E+01 0.  1.
       -4    1    3    3    0  502  0.40009617602E+03 -0.20712057207E+03  0.30952136335E+03  0.54660860651E+03  0.12699999809E+01 0. -1.
</event>
<event>
 5   0  0.3663255E-03  0.8937576E+03  0.7818609E-02  0.9433419E-01
        2   -1    0    0  501    0  0.00000000000E+00  0.00000000000E+00  0.81852102547E+03  0.81852102547E+03  0.25500000920E-02 0. -1.
       -2   -1    0    0    0  501  0.00000000000E+00  0.00000000000E+00 -0.24397742398E+03  0.24397742400E+03  0.25500000920E-02 0.  1.
    10030    2    1    2    0    0  0.00000000000E+00  0.00000000000E+00  0.57454360149E+03  0.10624984495E+04  0.89375757626E+03 0.  0.
        4    1    3    3  502    0 -0.25299946237E+03 -0.26172344091E+03 -0.20879928151E+02  0.36461688357E+03  0.12699999809E+01 0.  1.
       -4    1    3    3    0  502  0.25299946237E+03  0.26172344091E+03  0.59542352964E+03  0.69788156590E+03  0.12699999809E+01 0. -1.
</event>
<event>
 5   0  0.2134145E-03  0.8973680E+03  0.7818609E-02  0.9428878E-01
        1   -1    0    0  501    0  0.00000000000E+00  0.00000000000E+00  0.13611457416E+04  0.13611457416E+04  0.50400001928E-02 0. -1.
       -1   -1    0    0    0  501  0.00000000000E+00  0.00000000000E+00 -0.14790283687E+03  0.14790283695E+03  0.50400001928E-02 0.  1.
    10030    2    1    2    0    0  0.00000000000E+00  0.00000000000E+00  0.12132429047E+04  0.15090485785E+04  0.89736796609E+03 0.  0.
        1    1    3    3  502    0  0.54192671870E+02 -0.42571720967E+03  0.82681549319E+03  0.93155560655E+03  0.50400001928E-02 0. -1.
       -1    1    3    3    0  502 -0.54192671870E+02  0.42571720967E+03  0.38642741151E+03  0.57749297198E+03  0.50400001928E-02 0.  1.
</event>
<event>
 5   0  0.3815269E-03  0.9007324E+03  0.7818609E-02  0.9424666E-01
       -2   -1    0    0    0  501  0.00000000000E+00  0.00000000000E+00  0.11105202360E+03  0.11105202363E+03  0.25500000920E-02 0.  1.
        2   -1    0    0  501    0  0.00000000000E+00  0.00000000000E+00 -0.18264386929E+04  0.18264386929E+04  0.25500000920E-02 0. -1.
    10030    2    1    2    0    0  0.00000000000E+00  0.00000000000E+00 -0.17153866693E+04  0.19374907165E+04  0.90073239722E+03 0.  0.
        5    1    3    3  502    0  0.22475347709E+03  0.25308426667E+02 -0.20030354911E+02  0.22710778728E+03  0.46999998093E+01 0.  1.
       -5    1    3    3    0  502 -0.22475347709E+03 -0.25308426667E+02 -0.16953563144E+04  0.17103829292E+04  0.46999998093E+01 0. -1.
</event>
<event>
 5   0  0.3815269E-03  0.9084141E+03  0.7818609E-02  0.9415124E-01
       -2   -1    0    0    0  501  0.00000000000E+00  0.00000000000E+00  0.27636746870E+03  0.27636746871E+03  0.25500000920E-02 0.  1.
        2   -1    0    0  501    0  0.00000000000E+00  0.00000000000E+00 -0.74648462733E+03  0.74648462734E+03  0.25500000920E-02 0. -1.
    10030    2    1    2    0    0  0.00000000000E+00  0.00000000000E+00 -0.47011715863E+03  0.10228520961E+04  0.90841414980E+03 0.  0.
        5    1    3    3  502    0 -0.33899357287E+03  0.88128424048E+02 -0.56061686350E+03  0.66105719814E+03  0.46999998093E+01 0. -1.
       -5    1    3    3    0  502  0.33899357287E+03 -0.88128424048E+02  0.90499704867E+02  0.36179489791E+03  0.46999998093E+01 0.  1.
</event>
<event>
 5   0  0.3806019E-03  0.8942238E+03  0.7818609E-02  0.9432831E-01
        2   -1    0    0  501    0  0.00000000000E+00  0.00000000000E+00  0.79180110762E+03  0.79180110763E+03  0.25500000920E-02 0. -1.
       -2   -1    0    0    0  501  0.00000000000E+00  0.00000000000E+00 -0.25247381277E+03  0.25247381278E+03  0.25500000920E-02 0.  1.
    10030    2    1    2    0    0  0.00000000000E+00  0.00000000000E+00  0.53932729485E+03  0.10442749204E+04  0.89422378543E+03 0.  0.
        2    1    3    3  502    0  0.37616501616E+03  0.11712896299E+03  0.51653602632E+03  0.64963742183E+03  0.25500000920E-02 0. -1.
       -2    1    3    3    0  502 -0.37616501616E+03 -0.11712896299E+03  0.22791268539E+02  0.39463749858E+03  0.25500000920E-02 0.  1.
</event>
<event>
 5   0  0.3806019E-03  0.9002463E+03  0.7818609E-02  0.9425274E-01
        2   -1    0    0  501    0  0.00000000000E+00  0.00000000000E+00  0.15467025724E+04  0.15467025724E+04  0.25500000920E-02 0.  1.
       -2   -1    0    0    0  501  0.00000000000E+00  0.00000000000E+00 -0.13099534781E+03  0.13099534784E+03  0.25500000920E-02 0. -1.
    10030    2    1    2    0    0  0.00000000000E+00  0.00000000000E+00  0.14157072246E+04  0.16776979203E+04  0.90024628065E+03 0.  0.
        2    1    3    3  502    0  0.22202402112E+03 -0.10610996112E+03  0.14102520276E+04  0.14315602576E+04  0.25500000920E-02 0.  1.
       -2    1    3    3    0  502 -0.22202402112E+03  0.10610996112E+03  0.54551970295E+01  0.24613766267E+03  0.25500000920E-02 0. -1.
</event>
<event>
 5   0  0.3685879E-03  0.8957487E+03  0.7818609E-02  0.9430911E-01
        2   -1    0    0  501    0  0.00000000000E+00  0.00000000000E+00  0.11117565388E+04  0.11117565388E+04  0.25500000920E-02 0. -1.
       -2   -1    0    0    0  501  0.00000000000E+00  0.00000000000E+00 -0.18042749780E+03  0.18042749782E+03  0.25500000920E-02 0.  1.
    10030    2    1    2    0    0  0.00000000000E+00  0.00000000000E+00  0.93132904098E+03  0.12921840366E+04  0.89574873815E+03 0.  0.
        1    1    3    3  502    0  0.37460482166E+02  0.26318860522E+03 -0.54302788788E+02  0.27133065168E+03  0.50400001928E-02 0.  1.
       -1    1    3    3    0  502 -0.37460482166E+02 -0.26318860522E+03  0.98563182977E+03  0.10208533849E+04  0.50400001928E-02 0. -1.
</event>
<event>
 5   0  0.2129280E-03  0.9015721E+03  0.7818609E-02  0.9423618E-01
        1   -1    0    0  501    0  0.00000000000E+00  0.00000000000E+00  0.16145649642E+04  0.16145649642E+04  0.50400001928E-02 0. -1.
       -1   -1    0    0    0  501  0.00000000000E+00  0.00000000000E+00 -0.12585933765E+03  0.12585933775E+03  0.50400001928E-02 0.  1.
    10030    2    1    2    0    0  0.00000000000E+00  0.00000000000E+00  0.14887056266E+04  0.17404243020E+04  0.90157213153E+03 0.  0.
        3    1    3    3  502    0 -0.43402857724E+03 -0.83134237919E+02  0.91610664793E+03  0.10171251191E+04  0.10100000352E+00 0.  1.
       -3    1    3    3    0  502  0.43402857724E+03  0.83134237919E+02  0.57259897865E+03  0.72329918286E+03  0.10100000352E+00 0. -1.
</event>
<event>
 5   0  0.2129280E-03  0.9025321E+03  0.7818609E-02  0.9422422E-01
       -1   -1    0    0    0  501  0.00000000000E+00  0.00000000000E+00  0.14801722894E+03  0.14801722903E+03  0.50400001928E-02 0.  1.
        1   -1    0    0  501    0  0.00000000000E+00  0.00000000000E+00 -0.13757928198E+04  0.13757928198E+04  0.50400001928E-02 0. -1.
    10030    2    1    2    0    0  0.00000000000E+00  0.00000000000E+00 -0.12277755909E+04  0.15238100489E+04  0.90253208443E+03 0.  0.
        3    1    3    3  502    0  0.25171764305E+02 -0.18392421648E+03  0.80563495525E+02  0.20236655390E+03  0.10100000352E+00 0.  1.
       -3    1    3    3    0  502 -0.25171764305E+02  0.18392421648E+03 -0.13083390864E+04  0.13214434950E+04  0.10100000352E+00 0. -1.
</event>
<event>
 5   0  0.1436000E-03  0.9055819E+03  0.7818609E-02  0.9418631E-01
       -3   -1    0    0    0  501  0.00000000000E+00  0.00000000000E+00  0.25722868855E+03  0.25722870838E+03  0.10100000352E+00 0.  1.
        3   -1    0    0  501    0  0.00000000000E+00  0.00000000000E+00 -0.79703246558E+03  0.79703247198E+03  0.10100000352E+00 0. -1.
    10030    2    1    2    0    0  0.00000000000E+00  0.00000000000E+00 -0.53980377703E+03  0.10542611804E+04  0.90558186748E+03 0.  0.
        4    1    3    3  502    0  0.34674608036E+03  0.76583672754E+01 -0.60876959770E+03  0.70063794560E+03  0.12699999809E+01 0. -1.
       -4    1    3    3    0  502 -0.34674608036E+03 -0.76583672754E+01  0.68965820666E+02  0.35362323475E+03  0.12699999809E+01 0.  1.
</event>
<event>
 5   0  0.3626546E-03  0.8965879E+03  0.7818609E-02  0.9429857E-01
       -2   -1    0    0    0  501  0.00000000000E+00  0.00000000000E+00  0.15940386060E+03  0.15940386062E+03  0.25500000920E-02 0.  1.
        2   -1    0    0  501    0  0.00000000000E+00  0.00000000000E+00 -0.12607440788E+04  0.12607440788E+04  0.25500000920E-02 0. -1.
    10030    2    1    2    0    0  0.00000000000E+00  0.00000000000E+00 -0.11013402182E+04  0.14201479395E+04  0.89658791740E+03 0.  0.
        3    1    3    3  502    0 -0.13218638885E+03 -0.41383008484E+03 -0.72590137252E+03  0.84596772594E+03  0.10100000352E+00 0. -1.
       -3    1    3    3    0  502  0.13218638885E+03  0.41383008484E+03 -0.37543884572E+03  0.57418021351E+03  0.10100000352E+00 0.  1.
</event>
<event>
 5   0  0.2134145E-03  0.9031204E+03  0.7818609E-02  0.9421689E-01
       -1   -1    0    0    0  501  0.00000000000E+00  0.00000000000E+00  0.15145011015E+03  0.15145011023E+03  0.50400001928E-02 0.  1.
        1   -1    0    0  501    0  0.00000000000E+00  0.00000000000E+00 -0.13463616460E+04  0.13463616460E+04  0.50400001928E-02 0. -1.
    10030    2    1    2    0    0  0.00000000000E+00  0.00000000000E+00 -0.11949115359E+04  0.14978117563E+04  0.90312041203E+03 0.  0.
        1    1    3    3  502    0  0.91772329526E+02  0.70477805035E+02  0.12644465338E+03  0.17139875105E+03  0.50400001928E-02 0.  1.
       -1    1    3    3    0  502 -0.91772329526E+02 -0.70477805035E+02 -0.13213561892E+04  0.13264130052E+04  0.50400001928E-02 0. -1.
</event>
<event>
 5   0  0.3806019E-03  0.9001477E+03  0.7818609E-02  0.9425397E-01
        2   -1    0    0  501    0  0.00000000000E+00  0.00000000000E+00  0.30860524964E+03  0.30860524965E+03  0.25500000920E-02 0. -1.
       -2   -1    0    0    0  501  0.00000000000E+00  0.00000000000E+00 -0.65639341852E+03  0.65639341853E+03  0.25500000920E-02 0.  1.
    10030    2    1    2    0    0  0.00000000000E+00  0.00000000000E+00 -0.34778816888E+03  0.96499866818E+03  0.90014766521E+03 0.  0.
        2    1    3    3  502    0  0.17531557555E+03 -0.40570160440E+03 -0.26509424437E+03  0.51536812207E+03  0.25500000920E-02 0. -1.
       -2    1    3    3    0  502 -0.17531557555E+03  0.40570160440E+03 -0.82693924505E+02  0.44963054611E+03  0.25500000920E-02 0.  1.
</event>
<event>
 5   0  0.2295158E-03  0.8970446E+03  0.7818609E-02  0.9429283E-01
        1   -1    0    0  501    0  0.00000000000E+00  0.00000000000E+00  0.30676640317E+03  0.30676640321E+03  0.50400001928E-02 0.  1.
       -1   -1    0    0    0  501  0.00000000000E+00  0.00000000000E+00 -0.65578324471E+03  0.65578324473E+03  0.50400001928E-02 0. -1.
    10030    2    1    2    0    0  0.00000000000E+00  0.00000000000E+00 -0.34901684155E+03  0.96254964794E+03  0.89704463048E+03 0.  0.
        4    1    3    3  502    0 -0.42221657295E+03 -0.24203741839E+02 -0.33480959857E+03  0.53939942138E+03  0.12699999809E+01 0. -1.
       -4    1    3    3    0  502  0.42221657295E+03  0.24203741839E+02 -0.14207242979E+02  0.42315022657E+03  0.12699999809E+01 0.  1.
</event>
<event>
 5   0  0.2134145E-03  0.9020794E+03  0.7818609E-02  0.9422986E-01
        1   -1    0    0  501    0  0.00000000000E+00  0.00000000000E+00  0.14750372956E+04  0.14750372956E+04  0.50400001928E-02 0.  1.
       -1   -1    0    0    0  501  0.00000000000E+00  0.00000000000E+00 -0.13791978098E+03  0.13791978108E+03  0.50400001928E-02 0. -1.
    10030    2    1    2    0    0  0.00000000000E+00  0.00000000000E+00  0.13371175146E+04  0.16129570767E+04  0.90207942186E+03 0.  0.
        1    1    3    3  502    0  0.26789783819E+03 -0.30759324255E+03  0.10127464882E+04  0.10918050668E+04  0.50400001928E-02 0.  1.
       -1    1    3    3    0  502 -0.26789783819E+03  0.30759324255E+03  0.32437102640E+03  0.52115200984E+03  0.50400001928E-02 0. -1.
</event>
<event>
 5   0  0.2074970E-03  0.9000141E+03  0.7818609E-02  0.9425564E-01
        1   -1    0    0  501    0  0.00000000000E+00  0.00000000000E+00  0.30367940310E+03  0.30367940314E+03  0.50400001928E-02 0.  1.
       -1   -1    0    0    0  501  0.00000000000E+00  0.00000000000E+00 -0.66684257913E+03  0.66684257914E+03  0.50400001928E-02 0. -1.
    10030    2    1    2    0    0  0.00000000000E+00  0.00000000000E+00 -0.36316317603E+03  0.97052198229E+03  0.90001412527E+03 0.  0.
        2    1    3    3  502    0 -0.27631843521E+02  0.20122010377E+03  0.25144081592E+03  0.32322675145E+03  0.25500000920E-02 0.  1.
       -2    1    3    3    0  502  0.27631843521E+02 -0.20122010377E+03 -0.61460399195E+03  0.64729523083E+03  0.25500000920E-02 0. -1.
</event>
<event>
 5   0  0.2129280E-03  0.8963946E+03  0.7818609E-02  0.9430100E-01
       -1   -1    0    0    0  501  0.00000000000E+00  0.00000000000E+00  0.15414163587E+03  0.15414163596E+03  0.50400001928E-02 0.  1.
        1   -1    0    0  501    0  0.00000000000E+00  0.00000000000E+00 -0.13032222723E+04  0.13032222724E+04  0.50400001928E-02 0. -1.
    10030    2    1    2    0    0  0.00000000000E+00  0.00000000000E+00 -0.11490806365E+04  0.14573639083E+04  0.89639458506E+03 0.  0.
        3    1    3    3  502    0  0.85029304003E+01  0.11356897070E+03 -0.12793054608E+04  0.12843647002E+04  0.10100000352E+00 0. -1.
       -3    1    3    3    0  502 -0.85029304003E+01 -0.11356897070E+03  0.13022482432E+03  0.17299920810E+03  0.10100000352E+00 0.  1.
</event>
<event>
 5   0  0.3663255E-03  0.8991262E+03  0.7818609E-02  0.9426674E-01
        2   -1    0    0  501    0  0.00000000000E+00  0.00000000000E+00  0.10721900456E+04  0.10721900456E+04  0.25500000920E-02 0.  1.
       -2   -1    0    0    0  501  0.00000000000E+00  0.00000000000E+00 -0.18849920048E+03  0.18849920050E+03  0.25500000920E-02 0. -1.
    10030    2    1    2    0    0  0.00000000000E+00  0.00000000000E+00  0.88369084511E+03  0.12606892461E+04  0.89912616772E+03 0.  0.
        4    1    3    3  502    0  0.15894360800E+02 -0.52174767880E+02  0.10675312544E+04  0.10689244263E+04  0.12699999809E+01 0.  1.
       -4    1    3    3    0  502 -0.15894360800E+02  0.52174767880E+02 -0.18384040931E+03  0.19176481978E+03  0.12699999809E+01 0. -1.
</event>
<event>
 5   0  0.3663255E-03  0.8867806E+03  0.7818609E-02  0.9442259E-01
       -2   -1    0    0    0  501  0.00000000000E+00  0.00000000000E+00  0.10996575148E+03  0.10996575151E+03  0.25500000920E-02 0.  1.
        2   -1    0    0  501    0  0.00000000000E+00  0.00000000000E+00 -0.17877833733E+04  0.17877833733E+04  0.25500000920E-02 0. -1.
    10030    2    1    2    0    0  0.00000000000E+00  0.00000000000E+00 -0.16778176219E+04  0.18977491248E+04  0.88678056398E+03 0.  0.
        4    1    3    3  502    0 -0.28629298215E+03 -0.21424939274E+03 -0.13999385337E+04  0.14448861495E+04  0.12699999809E+01 0. -1.
       -4    1    3    3    0  502  0.28629298215E+03  0.21424939274E+03 -0.27787908812E+03  0.45286297534E+03  0.12699999809E+01 0.  1.
</event>
<event>
 5   0  0.2074970E-03  0.9005073E+03  0.7818609E-02  0.9424948E-01
        1   -1    0    0  501    0  0.00000000000E+00  0.00000000000E+00  0.57993195846E+03  0.57993195848E+03  0.50400001928E-02 0. -1.
       -1   -1    0    0    0  501  0.00000000000E+00  0.00000000000E+00 -0.34957264373E+03  0.34957264377E+03  0.50400001928E-02 0.  1.
    10030    2    1    2    0    0  0.00000000000E+00  0.00000000000E+00  0.23035931473E+03  0.92950460225E+03  0.90050729688E+03 0.  0.
        2    1    3    3  502    0 -0.25163753985E+03 -0.29177260694E+03 -0.12529360428E+03  0.40515576376E+03  0.25500000920E-02 0.  1.
       -2    1    3    3    0  502  0.25163753985E+03  0.29177260694E+03  0.35565291901E+03  0.52434883850E+03  0.25500000920E-02 0. -1.
</event>
<event>
 5   0  0.3663255E-03  0.8991312E+03  0.7818609E-02  0.9426668E-01
        2   -1    0    0  501    0  0.00000000000E+00  0.00000000000E+00  0.18868980025E+04  0.18868980025E+04  0.25500000920E-02 0.  1.
       -2   -1    0    0    0  501  0.00000000000E+00  0.00000000000E+00 -0.10711190138E+03  0.10711190141E+03  0.25500000920E-02 0. -1.
    10030    2    1    2    0    0  0.00000000000E+00  0.00000000000E+00  0.17797861011E+04  0.19940099039E+04  0.89913120907E+03 0.  0.
        4    1    3    3  502    0 -0.11964494385E+03 -0.25629481277E+03  0.11494575815E+03  0.30531309153E+03  0.12699999809E+01 0. -1.
       -4    1    3    3    0  502  0.11964494385E+03  0.25629481277E+03  0.16648403429E+04  0.16886968123E+04  0.12699999809E+01 0.  1.
</event>
<event>
 5   0  0.3685879E-03  0.8992613E+03  0.7818609E-02  0.9426505E-01
       -2   -1    0    0    0  501  0.00000000000E+00  0.00000000000E+00  0.17088938680E+03  0.17088938682E+03  0.25500000920E-02 0. -1.
        2   -1    0    0  501    0  0.00000000000E+00  0.00000000000E+00 -0.11830327128E+04  0.11830327128E+04  0.25500000920E-02 0.  1.
    10030    2    1    2    0    0  0.00000000000E+00  0.00000000000E+00 -0.10121433260E+04  0.13539220996E+04  0.89926132992E+03 0.  0.
        1    1    3    3  502    0 -0.21906681038E+03 -0.33806347124E+03 -0.20536516818E+03  0.45216372071E+03  0.50400001928E-02 0. -1.
       -1    1    3    3    0  502  0.21906681038E+03  0.33806347124E+03 -0.80677815781E+03  0.90175837892E+03  0.50400001928E-02 0.  1.
</event>
<event>
 5   0  0.3663255E-03  0.9004387E+03  0.7818609E-02  0.9425033E-01
       -2   -1    0    0    0  501  0.00000000000E+00  0.00000000000E+00  0.24301704212E+03  0.24301704214E+03  0.25500000920E-02 0. -1.
        2   -1    0    0  501    0  0.00000000000E+00  0.00000000000E+00 -0.83408746232E+03  0.83408746233E+03  0.25500000920E-02 0.  1.
    10030    2    1    2    0    0  0.00000000000E+00  0.00000000000E+00 -0.59107042020E+03  0.10771045045E+04  0.90043871079E+03 0.  0.
        4    1    3    3  502    0  0.26208392892E+03 -0.34383990827E+03 -0.44580944375E+03  0.62101653872E+03  0.12699999809E+01 0. -1.
       -4    1    3    3    0  502 -0.26208392892E+03  0.34383990827E+03 -0.14526097645E+03  0.45608796575E+03  0.12699999809E+01 0.  1.
</event>
<event>
 5   0  0.2129280E-03  0.9099226E+03  0.7818609E-02  0.9413262E-01
        1   -1    0    0  501    0  0.00000000000E+00  0.00000000000E+00  0.78124892178E+03  0.78124892180E+03  0.50400001928E-02 0. -1.
       -1   -1    0    0    0  501  0.00000000000E+00  0.00000000000E+00 -0.26494728842E+03  0.26494728847E+03  0.50400001928E-02 0.  1.
    10030    2    1    2    0    0  0.00000000000E+00  0.00000000000E+00  0.51630163337E+03  0.10461962103E+04  0.90992259767E+03 0.  0.
        3    1    3    3  502    0 -0.29667099069E+03  0.83574036161E+02 -0.12661916084E+03  0.33321272234E+03  0.10100000352E+00 0.  1.
       -3    1    3    3    0  502  0.29667099069E+03 -0.83574036161E+02  0.64292079420E+03  0.71298348793E+03  0.10100000352E+00 0. -1.
</event>
<event>
 5   0  0.3815269E-03  0.8992691E+03  0.7818609E-02  0.9426496E-01
        2   -1    0    0  501    0  0.00000000000E+00  0.00000000000E+00  0.43649627327E+03  0.43649627327E+03  0.25500000920E-02 0. -1.
       -2   -1    0    0    0  501  0.00000000000E+00  0.00000000000E+00 -0.46316826046E+03  0.46316826047E+03  0.25500000920E-02 0.  1.
    10030    2    1    2    0    0  0.00000000000E+00  0.00000000000E+00 -0.26671987197E+02  0.89966453375E+03  0.89926908007E+03 0.  0.
        5    1    3    3  502    0  0.29139970197E+03  0.30761787793E+03 -0.16375697396E+03  0.45429173628E+03  0.46999998093E+01 0.  1.
       -5    1    3    3    0  502 -0.29139970197E+03 -0.30761787793E+03  0.13708498677E+03  0.44537279747E+03  0.46999998093E+01 0. -1.
</event>
<event>
 5   0  0.2129280E-03  0.9038967E+03  0.7818609E-02  0.9420723E-01
        1   -1    0    0  501    0  0.00000000000E+00  0.00000000000E+00  0.56423612061E+03  0.56423612064E+03  0.50400001928E-02 0. -1.
       -1   -1    0    0    0  501  0.00000000000E+00  0.00000000000E+00 -0.36200680343E+03  0.36200680346E+03  0.50400001928E-02 0.  1.
    10030    2    1    2    0    0  0.00000000000E+00  0.00000000000E+00  0.20222931719E+03  0.92624292410E+03  0.90389670744E+03 0.  0.
        3    1    3    3  502    0 -0.27671784566E+03 -0.10118456380E+03  0.45229130296E+03  0.53979488233E+03  0.10100000352E+00 0. -1.
       -3    1    3    3    0  502  0.27671784566E+03  0.10118456380E+03 -0.25006198577E+03  0.38644804177E+03  0.10100000352E+00 0.  1.
</event>
<event>
 5   0  0.2129280E-03  0.8995092E+03  0.7818609E-02  0.9426195E-01
       -1   -1    0    0    0  501  0.00000000000E+00  0.00000000000E+00  0.49507955796E+03  0.49507955799E+03  0.50400001928E-02 0. -1.
        1   -1    0    0  501    0  0.00000000000E+00  0.00000000000E+00 -0.40857914538E+03  0.40857914541E+03  0.50400001928E-02 0.  1.
    10030    2    1    2    0    0  0.00000000000E+00  0.00000000000E+00  0.86500412584E+02  0.90365870340E+03  0.89950916107E+03 0.  0.
        3    1    3    3  502    0 -0.74701415419E+02 -0.44132437609E+03  0.87403679851E+02  0.45605582975E+03  0.10100000352E+00 0.  1.
       -3    1    3    3    0  502  0.74701415419E+02  0.44132437609E+03 -0.90326726763E+00  0.44760287364E+03  0.10100000352E+00 0. -1.
</event>
<event>
 5   0  0.3815269E-03  0.8689434E+03  0.7818609E-02  0.9465259E-01
       -2   -1    0    0    0  501  0.00000000000E+00  0.00000000000E+00  0.29600756373E+03  0.29600756374E+03  0.25500000920E-02 0. -1.
        2   -1    0    0  501    0  0.00000000000E+00  0.00000000000E+00 -0.63770555702E+03  0.63770555703E+03  0.25500000920E-02 0.  1.
    10030    2    1    2    0    0  0.00000000000E+00  0.00000000000E+00 -0.34169799329E+03  0.93371312077E+03  0.86894342351E+03 0.  0.
        5    1    3    3  502    0  0.43072232638E+03  0.43193584685E+02 -0.21042018081E+03  0.48133787581E+03  0.46999998093E+01 0. -1.
       -5    1    3    3    0  502 -0.43072232638E+03 -0.43193584685E+02 -0.13127781248E+03  0.45237524495E+03  0.46999998093E+01 0.  1.
</event>
<event>
 5   0  0.2134145E-03  0.8939756E+03  0.7818609E-02  0.9433144E-01
       -1   -1    0    0    0  501  0.00000000000E+00  0.00000000000E+00  0.28524984546E+03  0.28524984550E+03  0.50400001928E-02 0.  1.
        1   -1    0    0  501    0  0.00000000000E+00  0.00000000000E+00 -0.70043195840E+03  0.70043195841E+03  0.50400001928E-02 0. -1.
    10030    2    1    2    0    0  0.00000000000E+00  0.00000000000E+00 -0.41518211294E+03  0.98568180392E+03  0.89397563259E+03 0.  0.
        1    1    3    3  502    0 -0.16433620062E+03 -0.25951062224E+03  0.15044439121E+03  0.34203167216E+03  0.50400001928E-02 0.  1.
       -1    1    3    3    0  502  0.16433620062E+03  0.25951062224E+03 -0.56562650415E+03  0.64365013176E+03  0.50400001928E-02 0. -1.
</event>
<event>
 5   0  0.2295158E-03  0.9035057E+03  0.7818609E-02  0.9421210E-01
        1   -1    0    0  501    0  0.00000000000E+00  0.00000000000E+00  0.13116683670E+04  0.13116683670E+04  0.50400001928E-02 0.  1.
       -1   -1    0    0    0  501  0.00000000000E+00  0.00000000000E+00 -0.15558859913E+03  0.15558859922E+03  0.50400001928E-02 0. -1.
    10030    2    1    2    0    0  0.00000000000E+00  0.00000000000E+00  0.11560797679E+04  0.14672569663E+04  0.90350571403E+03 0.  0.
        4    1    3    3  502    0 -0.21190812214E+03 -0.29400456322E+03  0.10160134309E+04  0.10787161999E+04  0.12699999809E+01 0.  1.
       -4    1    3    3    0  502  0.21190812214E+03  0.29400456322E+03  0.14006633705E+03  0.38854076633E+03  0.12699999809E+01 0. -1.
</event>
<event>
 5   0  0.2130975E-03  0.9049205E+03  0.7818609E-02  0.9419451E-01
        1   -1    0    0  501    0  0.00000000000E+00  0.00000000000E+00  0.50665851049E+03  0.50665851051E+03  0.50400001928E-02 0. -1.
       -1   -1    0    0    0  501  0.00000000000E+00  0.00000000000E+00 -0.40405965070E+03  0.40405965073E+03  0.50400001928E-02 0.  1.
    10030    2    1    2    0    0  0.00000000000E+00  0.00000000000E+00  0.10259885979E+03  0.91071816124E+03  0.90492046235E+03 0.  0.
        5    1    3    3  502    0  0.26798155391E+03 -0.59141802177E+02 -0.31070821610E+03  0.41457635190E+03  0.46999998093E+01 0.  1.
       -5    1    3    3    0  502 -0.26798155391E+03  0.59141802177E+02  0.41330707589E+03  0.49614180934E+03  0.46999998093E+01 0. -1.
</event>
<event>
 5   0  0.2295158E-03  0.8969957E+03  0.7818609E-02  0.9429345E-01
       -1   -1    0    0    0  501  0.00000000000E+00  0.00000000000E+00  0.44400867939E+03  0.44400867942E+03  0.50400001928E-02 0. -1.
        1   -1    0    0  501    0  0.00000000000E+00  0.00000000000E+00 -0.45303239211E+03  0.45303239213E+03  0.50400001928E-02 0.  1.
    10030    2    1    2    0    0  0.00000000000E+00  0.00000000000E+00 -0.90237127137E+01  0.89704107155E+03  0.89699568375E+03 0.  0.
        4    1    3    3  502    0 -0.28362225584E+03 -0.26299538549E+03 -0.23154877073E+03  0.45080439541E+03  0.12699999809E+01 0.  1.
       -4    1    3    3    0  502  0.28362225584E+03  0.26299538549E+03  0.22252505801E+03  0.44623667615E+03  0.12699999809E+01 0. -1.
</event>
<event>
 5   0  0.2134145E-03  0.9217081E+03  0.7818609E-02  0.9398845E-01
        1   -1    0    0  501    0  0.00000000000E+00  0.00000000000E+00  0.11134942469E+04  0.11134942469E+04  0.50400001928E-02 0.  1.
       -1   -1    0    0    0  501  0.00000000000E+00  0.00000000000E+00 -0.19073870647E+03  0.19073870653E+03  0.50400001928E-02 0. -1.
    10030    2    1    2    0    0  0.00000000000E+00  0.00000000000E+00  0.92275554044E+03  0.13042329535E+04  0.92170809341E+03 0.  0.
        1    1    3    3  502    0 -0.32595525610E+03  0.25617636431E+03  0.17656428745E+03  0.45060859539E+03  0.50400001928E-02 0. -1.
       -1    1    3    3    0  502  0.32595525610E+03 -0.25617636431E+03  0.74619125299E+03  0.85362435806E+03  0.50400001928E-02 0.  1.
</event>
<event>
 5   0  0.3663255E-03  0.9044737E+03  0.7818609E-02  0.9420006E-01
        2   -1    0    0  501    0  0.00000000000E+00  0.00000000000E+00  0.87504214964E+03  0.87504214964E+03  0.25500000920E-02 0. -1.
       -2   -1    0    0    0  501  0.00000000000E+00  0.00000000000E+00 -0.23372379042E+03  0.23372379043E+03  0.25500000920E-02 0.  1.
    10030    2    1    2    0    0  0.00000000000E+00  0.00000000000E+00  0.64131835921E+03  0.11087659401E+04  0.90447369890E+03 0.  0.
        4    1    3    3  502    0  0.41910080010E+03  0.15397616364E+03  0.23258057788E+03  0.50343766021E+03  0.12699999809E+01 0. -1.
       -4    1    3    3    0  502 -0.41910080010E+03 -0.15397616364E+03  0.40873778133E+03  0.60532827986E+03  0.12699999809E+01 0.  1.
</event>
<event>
 5   0  0.2295158E-03  0.8979539E+03  0.7818609E-02  0.9428143E-01
        1   -1    0    0  501    0  0.00000000000E+00  0.00000000000E+00  0.72305624465E+03  0.72305624467E+03  0.50400001928E-02 0.  1.
       -1   -1    0    0    0  501  0.00000000000E+00  0.00000000000E+00 -0.27878926639E+03  0.27878926644E+03  0.50400001928E-02 0. -1.
    10030    2    1    2    0    0  0.00000000000E+00  0.00000000000E+00  0.44426697826E+03  0.10018455111E+04  0.89795394100E+03 0.  0.
        4    1    3    3  502    0  0.32354749721E+03  0.39713580567E+02 -0.12232383408E+03  0.34817364162E+03  0.12699999809E+01 0. -1.
       -4    1    3    3    0  502 -0.32354749721E+03 -0.39713580567E+02  0.56659081234E+03  0.65367186949E+03  0.12699999809E+01 0.  1.
</event>
<event>
 5   0  0.2134145E-03  0.8930876E+03  0.7818609E-02  0.9434264E-01
        1   -1    0    0  501    0  0.00000000000E+00  0.00000000000E+00  0.73317825656E+03  0.73317825658E+03  0.50400001928E-02 0.  1.
       -1   -1    0    0    0  501  0.00000000000E+00  0.00000000000E+00 -0.27196844129E+03  0.27196844133E+03  0.50400001928E-02 0. -1.
    10030    2    1    2    0    0  0.00000000000E+00  0.00000000000E+00  0.46120981527E+03  0.10051466979E+04  0.89308756044E+03 0.  0.
        1    1    3    3  502    0  0.29902785010E+03  0.19494578285E+02 -0.14199944712E+03  0.33160448840E+03  0.50400001928E-02 0. -1.
       -1    1    3    3    0  502 -0.29902785010E+03 -0.19494578285E+02  0.60320926240E+03  0.67354220951E+03  0.50400001928E-02 0.  1.
</event>
<event>
 5   0  0.2129280E-03  0.8989785E+03  0.7818609E-02  0.9426859E-01
       -1   -1    0    0    0  501  0.00000000000E+00  0.00000000000E+00  0.22016930161E+03  0.22016930166E+03  0.50400001928E-02 0.  1.
        1   -1    0    0  501    0  0.00000000000E+00  0.00000000000E+00 -0.91766005689E+03  0.91766005690E+03  0.50400001928E-02 0. -1.
    10030    2    1    2    0    0  0.00000000000E+00  0.00000000000E+00 -0.69749075528E+03  0.11378293586E+04  0.89897847333E+03 0.  0.
        3    1    3    3  502    0 -0.13836921122E+03  0.42751830253E+03 -0.36276122103E+03  0.57750640801E+03  0.10100000352E+00 0.  1.
       -3    1    3    3    0  502  0.13836921122E+03 -0.42751830253E+03 -0.33472953425E+03  0.56032295055E+03  0.10100000352E+00 0. -1.
</event>
<event>
 5   0  0.2129280E-03  0.8692634E+03  0.7818609E-02  0.9464841E-01
       -1   -1    0    0    0  501  0.00000000000E+00  0.00000000000E+00  0.12931625510E+04  0.12931625510E+04  0.50400001928E-02 0.  1.
        1   -1    0    0  501    0  0.00000000000E+00  0.00000000000E+00 -0.14607963121E+03  0.14607963130E+03  0.50400001928E-02 0. -1.
    10030    2    1    2    0    0  0.00000000000E+00  0.00000000000E+00  0.11470829198E+04  0.14392421823E+04  0.86926338613E+03 0.  0.
        3    1    3    3  502    0  0.27528528296E+03  0.16964456843E+03  0.92693114746E+02  0.33638265463E+03  0.10100000352E+00 0. -1.
       -3    1    3    3    0  502 -0.27528528296E+03 -0.16964456843E+03  0.10543898050E+04  0.11028595277E+04  0.10100000352E+00 0.  1.
</event>
<event>
 5   0  0.3663255E-03  0.9037783E+03  0.7818609E-02  0.9420871E-01
       -2   -1    0    0    0  501  0.00000000000E+00  0.00000000000E+00  0.23276783791E+03  0.23276783793E+03  0.25500000920E-02 0. -1.
        2   -1    0    0  501    0  0.00000000000E+00  0.00000000000E+00 -0.87728538290E+03  0.87728538290E+03  0.25500000920E-02 0.  1.
    10030    2    1    2    0    0  0.00000000000E+00  0.00000000000E+00 -0.64451754498E+03  0.11100532208E+04  0.90377833969E+03 0.  0.
        4    1    3    3  502    0 -0.93370297632E+02 -0.41533055954E+03 -0.50846813248E+03  0.66314322798E+03  0.12699999809E+01 0. -1.
       -4    1    3    3    0  502  0.93370297632E+02  0.41533055954E+03 -0.13604941250E+03  0.44690999285E+03  0.12699999809E+01 0.  1.
</event>
<event>
 5   0  0.2074970E-03  0.9165088E+03  0.7818609E-02  0.9405177E-01
       -1   -1    0    0    0  501  0.00000000000E+00  0.00000000000E+00  0.19825709830E+03  0.19825709837E+03  0.50400001928E-02 0.  1.
        1   -1    0    0  501    0  0.00000000000E+00  0.00000000000E+00 -0.10592159488E+04  0.10592159488E+04  0.50400001928E-02 0. -1.
    10030    2    1    2    0    0  0.00000000000E+00  0.00000000000E+00 -0.86095885050E+03  0.12574730472E+04  0.91650876817E+03 0.  0.
        2    1    3    3  502    0 -0.19391667453E+03 -0.21346591773E+03  0.58134348057E+02  0.29419547435E+03  0.25500000920E-02 0.  1.
       -2    1    3    3    0  502  0.19391667453E+03  0.21346591773E+03 -0.91909319856E+03  0.96327757284E+03  0.25500000920E-02 0. -1.
</event>
<event>
 5   0  0.2295158E-03  0.9049837E+03  0.7818609E-02  0.9419373E-01
       -1   -1    0    0    0  501  0.00000000000E+00  0.00000000000E+00  0.44230391181E+03  0.44230391184E+03  0.50400001928E-02 0. -1.
        1   -1    0    0  501    0  0.00000000000E+00  0.00000000000E+00 -0.46291449403E+03  0.46291449406E+03  0.50400001928E-02 0.  1.
    10030    2    1    2    0    0  0.00000000000E+00  0.00000000000E+00 -0.20610582227E+02  0.90521840590E+03  0.90498373813E+03 0.  0.
        4    1    3    3  502    0  0.43225474526E+03 -0.10592653049E+03  0.71463591604E+02  0.45074743758E+03  0.12699999809E+01 0. -1.
       -4    1    3    3    0  502 -0.43225474526E+03  0.10592653049E+03 -0.92074173831E+02  0.45447096832E+03  0.12699999809E+01 0.  1.
</event>
<event>
 5   0  0.3663255E-03  0.8972211E+03  0.7818609E-02  0.9429062E-01
        2   -1    0    0  501    0  0.00000000000E+00  0.00000000000E+00  0.62359395343E+03  0.62359395344E+03  0.25500000920E-02 0. -1.
       -2   -1    0    0    0  501  0.00000000000E+00  0.00000000000E+00 -0.32272832250E+03  0.32272832251E+03  0.25500000920E-02 0.  1.
    10030    2    1    2    0    0  0.00000000000E+00  0.00000000000E+00  0.30086563094E+03  0.94632227595E+03  0.89722111103E+03 0.  0.
        4    1    3    3  502    0 -0.40447880212E+03 -0.17407080672E+03  0.24083254386E+03  0.50190205638E+03  0.12699999809E+01 0. -1.
       -4    1    3    3    0  502  0.40447880212E+03  0.17407080672E+03  0.60033087076E+02  0.44442021957E+03  0.12699999809E+01 0.  1.
</event>
<event>
 5   0  0.3815269E-03  0.9023372E+03  0.7818609E-02  0.9422665E-01
        2   -1    0    0  501    0  0.00000000000E+00  0.00000000000E+00  0.26018328440E+04  0.26018328440E+04  0.25500000920E-02 0.  1.
       -2   -1    0    0    0  501  0.00000000000E+00  0.00000000000E+00 -0.78234504048E+02  0.78234504090E+02  0.25500000920E-02 0. -1.
    10030    2    1    2    0    0  0.00000000000E+00  0.00000000000E+00  0.25235983400E+04  0.26800673481E+04  0.90233719247E+03 0.  0.
        5    1    3    3  502    0  0.17403712261E+03  0.71835166862E+02  0.24794904489E+04  0.24866331027E+04  0.46999998093E+01 0.  1.
       -5    1    3    3    0  502 -0.17403712261E+03 -0.71835166862E+02  0.44107891068E+02  0.19343424541E+03  0.46999998093E+01 0. -1.
</event>
<event>
 5   0  0.2295158E-03  0.9014507E+03  0.7818609E-02  0.9423770E-01
       -1   -1    0    0    0  501  0.00000000000E+00  0.00000000000E+00  0.18645295543E+03  0.18645295550E+03  0.50400001928E-02 0.  1.
        1   -1    0    0  501    0  0.00000000000E+00  0.00000000000E+00 -0.10895690116E+04  0.10895690116E+04  0.50400001928E-02 0. -1.
    10030    2    1    2    0    0  0.00000000000E+00  0.00000000000E+00 -0.90311605615E+03  0.12760219671E+04  0.90145074721E+03 0.  0.
        4    1    3    3  502    0 -0.22800330729E+03 -0.38552930579E+03 -0.52280520606E+03  0.68843681637E+03  0.12699999809E+01 0. -1.
       -4    1    3    3    0  502  0.22800330729E+03  0.38552930579E+03 -0.38031085010E+03  0.58758515073E+03  0.12699999809E+01 0.  1.
</event>
<event>
 5   0  0.3663255E-03  0.9007575E+03  0.7818609E-02  0.9424635E-01
        2   -1    0    0  501    0  0.00000000000E+00  0.00000000000E+00  0.65758513346E+03  0.65758513346E+03  0.25500000920E-02 0.  1.
       -2   -1    0    0    0  501  0.00000000000E+00  0.00000000000E+00 -0.30846347942E+03  0.30846347943E+03  0.25500000920E-02 0. -1.
    10030    2    1    2    0    0  0.00000000000E+00  0.00000000000E+00  0.34912165404E+03  0.96604861290E+03  0.90075745524E+03 0.  0.
        4    1    3    3  502    0 -0.43164283606E+03 -0.10287262814E+03  0.91895489141E+02  0.45314976483E+03  0.12699999809E+01 0. -1.
       -4    1    3    3    0  502  0.43164283606E+03  0.10287262814E+03  0.25722616489E+03  0.51289884807E+03  0.12699999809E+01 0.  1.
</event>
<event>
 5   0  0.3626546E-03  0.9029496E+03  0.7818609E-02  0.9421902E-01
        2   -1    0    0  501    0  0.00000000000E+00  0.00000000000E+00  0.50302895762E+03  0.50302895763E+03  0.25500000920E-02 0.  1.
       -2   -1    0    0    0  501  0.00000000000E+00  0.00000000000E+00 -0.40520430732E+03  0.40520430733E+03  0.25500000920E-02 0. -1.
    10030    2    1    2    0    0  0.00000000000E+00  0.00000000000E+00  0.97824650296E+02  0.90823326496E+03  0.90294961176E+03 0.  0.
        3    1    3    3  502    0  0.20063536565E+03 -0.25066145381E+03 -0.27034656576E+03  0.41972966323E+03  0.10100000352E+00 0. -1.
       -3    1    3    3    0  502 -0.20063536565E+03  0.25066145381E+03  0.36817121605E+03  0.48850360173E+03  0.10100000352E+00 0.  1.
</event>
<event>
 5   0  0.2130975E-03  0.9082727E+03  0.7818609E-02  0.9415299E-01
       -1   -1    0    0    0  501  0.00000000000E+00  0.00000000000E+00  0.53606233361E+03  0.53606233363E+03  0.50400001928E-02 0. -1.
        1   -1    0    0  501    0  0.00000000000E+00  0.00000000000E+00 -0.38473107779E+03  0.38473107782E+03  0.50400001928E-02 0.  1.
    10030    2    1    2    0    0  0.00000000000E+00  0.00000000000E+00  0.15133125582E+03  0.92079341145E+03  0.90827273304E+03 0.  0.
        5    1    3    3  502    0 -0.69713207396E+02 -0.28299099236E+03 -0.27737901662E+03  0.40237425601E+03  0.46999998093E+01 0.  1.
       -5    1    3    3    0  502  0.69713207396E+02  0.28299099236E+03  0.42871027243E+03  0.51841915544E+03  0.46999998093E+01 0. -1.
</event>
<event>
 5   0  0.3806019E-03  0.8995993E+03  0.7818609E-02  0.9426082E-01
        2   -1    0    0  501    0  0.00000000000E+00  0.00000000000E+00  0.11693714314E+04  0.11693714314E+04  0.25500000920E-02 0.  1.
       -2   -1    0    0    0  501  0.00000000000E+00  0.00000000000E+00 -0.17301580502E+03  0.17301580504E+03  0.25500000920E-02 0. -1.
    10030    2    1    2    0    0  0.00000000000E+00  0.00000000000E+00  0.99635562639E+03  0.13423872365E+04  0.89959933212E+03 0.  0.
        2    1    3    3  502    0  0.47769352225E+02  0.32266993506E+03  0.96033282840E+03  0.10142174024E+04  0.25500000920E-02 0.  1.
       -2    1    3    3    0  502 -0.47769352225E+02 -0.32266993506E+03  0.36022797985E+02  0.32816983406E+03  0.25500000920E-02 0. -1.
</event>
<event>
 5   0  0.2130975E-03  0.9030549E+03  0.7818609E-02  0.9421771E-01
        1   -1    0    0  501    0  0.00000000000E+00  0.00000000000E+00  0.32772631818E+03  0.32772631822E+03  0.50400001928E-02 0.  1.
       -1   -1    0    0    0  501  0.00000000000E+00  0.00000000000E+00 -0.62209541957E+03  0.62209541959E+03  0.50400001928E-02 0. -1.
    10030    2    1    2    0    0  0.00000000000E+00  0.00000000000E+00 -0.29436910139E+03  0.94982173780E+03  0.90305490739E+03 0.  0.
        5    1    3    3  502    0  0.42312359260E+03 -0.20380769552E+02  0.17130089669E+02  0.42398641529E+03  0.46999998093E+01 0.  1.
       -5    1    3    3    0  502 -0.42312359260E+03  0.20380769552E+02 -0.31149919106E+03  0.52583532252E+03  0.46999998093E+01 0. -1.
</event>
<event>
 5   0  0.3806019E-03  0.9005922E+03  0.7818609E-02  0.9424841E-01
       -2   -1    0    0    0  501  0.00000000000E+00  0.00000000000E+00  0.14531964485E+03  0.14531964487E+03  0.25500000920E-02 0.  1.
        2   -1    0    0  501    0  0.00000000000E+00  0.00000000000E+00 -0.13953142001E+04  0.13953142001E+04  0.25500000920E-02 0. -1.
    10030    2    1    2    0    0  0.00000000000E+00  0.00000000000E+00 -0.12499945552E+04  0.15406338450E+04  0.90059216970E+03 0.  0.
        2    1    3    3  502    0  0.38210710735E+03  0.15165485426E+03 -0.31066982506E+03  0.51528708165E+03  0.25500000920E-02 0.  1.
       -2    1    3    3    0  502 -0.38210710735E+03 -0.15165485426E+03 -0.93932473018E+03  0.10253467633E+04  0.25500000920E-02 0. -1.
</event>
<event>
 5   0  0.2129280E-03  0.9035476E+03  0.7818609E-02  0.9421158E-01
       -1   -1    0    0    0  501  0.00000000000E+00  0.00000000000E+00  0.18220709267E+03  0.18220709274E+03  0.50400001928E-02 0.  1.
        1   -1    0    0  501    0  0.00000000000E+00  0.00000000000E+00 -0.11201515094E+04  0.11201515094E+04  0.50400001928E-02 0. -1.
    10030    2    1    2    0    0  0.00000000000E+00  0.00000000000E+00 -0.93794441675E+03  0.13023586022E+04  0.90354756363E+03 0.  0.
        3    1    3    3  502    0  0.19914139530E+03  0.40551411925E+03 -0.46790958046E+03  0.65041400808E+03  0.10100000352E+00 0.  1.
       -3    1    3    3    0  502 -0.19914139530E+03 -0.40551411925E+03 -0.47003483629E+03  0.65194459409E+03  0.10100000352E+00 0. -1.
</event>
<event>
 5   0  0.3626546E-03  0.9051620E+03  0.7818609E-02  0.9419152E-01
       -2   -1    0    0    0  501  0.00000000000E+00  0.00000000000E+00  0.24242830326E+03  0.24242830327E+03  0.25500000920E-02 0. -1.
        2   -1    0    0  501    0  0.00000000000E+00  0.00000000000E+00 -0.84490777051E+03  0.84490777051E+03  0.25500000920E-02 0.  1.
    10030    2    1    2    0    0  0.00000000000E+00  0.00000000000E+00 -0.60247946725E+03  0.10873360738E+04  0.90516199042E+03 0.  0.
        3    1    3    3  502    0  0.23461573152E+02 -0.39270390952E+03 -0.57001840332E+03  0.69259497276E+03  0.10100000352E+00 0.  1.
       -3    1    3    3    0  502 -0.23461573152E+02  0.39270390952E+03 -0.32461063928E+02  0.39474110103E+03  0.10100000352E+00 0. -1.
</event>
<event>
 5   0  0.2074970E-03  0.9002898E+03  0.7818609E-02  0.9425219E-01
        1   -1    0    0  501    0  0.00000000000E+00  0.00000000000E+00  0.92306597534E+03  0.92306597535E+03  0.50400001928E-02 0. -1.
       -1   -1    0    0    0  501  0.00000000000E+00  0.00000000000E+00 -0.21951889496E+03  0.21951889502E+03  0.50400001928E-02 0.  1.
    10030    2    1    2    0    0  0.00000000000E+00  0.00000000000E+00  0.70354708038E+03  0.11425848704E+04  0.90028978206E+03 0.  0.
        2    1    3    3  502    0  0.34046531451E+03  0.24073214596E+03  0.56700927558E+03  0.70382392335E+03  0.25500000920E-02 0. -1.
       -2    1    3    3    0  502 -0.34046531451E+03 -0.24073214596E+03  0.13653780480E+03  0.43876094702E+03  0.25500000920E-02 0.  1.
</event>
<event>
 5   0  0.2134145E-03  0.8987592E+03  0.7818609E-02  0.9427134E-01
       -1   -1    0    0    0  501  0.00000000000E+00  0.00000000000E+00  0.28642873723E+03  0.28642873728E+03  0.50400001928E-02 0.  1.
        1   -1    0    0  501    0  0.00000000000E+00  0.00000000000E+00 -0.70503414572E+03  0.70503414574E+03  0.50400001928E-02 0. -1.
    10030    2    1    2    0    0  0.00000000000E+00  0.00000000000E+00 -0.41860540848E+03  0.99146288301E+03  0.89875923382E+03 0.  0.
        1    1    3    3  502    0  0.99561142785E+02  0.20373516530E+03 -0.63729160853E+03  0.67643257836E+03  0.50400001928E-02 0. -1.
       -1    1    3    3    0  502 -0.99561142785E+02 -0.20373516530E+03  0.21868620005E+03  0.31503030465E+03  0.50400001928E-02 0.  1.
</event>
<event>
 5   0  0.3806019E-03  0.8926513E+03  0.7818609E-02  0.9434815E-01
       -2   -1    0    0    0  501  0.00000000000E+00  0.00000000000E+00  0.78959282156E+03  0.78959282157E+03  0.25500000920E-02 0. -1.
        2   -1    0    0  501    0  0.00000000000E+00  0.00000000000E+00 -0.25229026453E+03  0.25229026455E+03  0.25500000920E-02 0.  1.
    10030    2    1    2    0    0  0.00000000000E+00  0.00000000000E+00  0.53730255703E+03  0.10418830861E+04  0.89265129101E+03 0.  0.
        2    1    3    3  502    0 -0.29866376715E+03  0.20307055441E+03 -0.37427447330E+02  0.36309573076E+03  0.25500000920E-02 0.  1.
       -2    1    3    3    0  502  0.29866376715E+03 -0.20307055441E+03  0.57473000436E+03  0.67878735536E+03  0.25500000920E-02 0. -1.
</event>
<event>
 5   0  0.2129280E-03  0.8996361E+03  0.7818609E-02  0.9426036E-01
       -1   -1    0    0    0  501  0.00000000000E+00  0.00000000000E+00  0.48840062900E+03  0.48840062903E+03  0.50400001928E-02 0.  1.
        1   -1    0    0  501    0  0.00000000000E+00  0.00000000000E+00 -0.41428339893E+03  0.41428339897E+03  0.50400001928E-02 0. -1.
    10030    2    1    2    0    0  0.00000000000E+00  0.00000000000E+00  0.74117230068E+02  0.90268402799E+03  0.89963608787E+03 0.  0.
        3    1    3    3  502    0  0.26593493466E+03 -0.34290461195E+03  0.15591372174E+03  0.46110092300E+03  0.10100000352E+00 0. -1.
       -3    1    3    3    0  502 -0.26593493466E+03  0.34290461195E+03 -0.81796491668E+02  0.44158310499E+03  0.10100000352E+00 0.  1.
</event>
<event>
 5   0  0.3663255E-03  0.9033499E+03  0.7818609E-02  0.9421404E-01
       -2   -1    0    0    0  501  0.00000000000E+00  0.00000000000E+00  0.13903348056E+04  0.13903348056E+04  0.25500000920E-02 0. -1.
        2   -1    0    0  501    0  0.00000000000E+00  0.00000000000E+00 -0.14673464043E+03  0.14673464045E+03  0.25500000920E-02 0.  1.
    10030    2    1    2    0    0  0.00000000000E+00  0.00000000000E+00  0.12436001651E+04  0.15370694460E+04  0.90334993838E+03 0.  0.
        4    1    3    3  502    0  0.33287831277E+03 -0.31879074246E+02  0.11384141531E+04  0.11865128079E+04  0.12699999809E+01 0. -1.
       -4    1    3    3    0  502 -0.33287831277E+03  0.31879074246E+02  0.10518601203E+03  0.35055663809E+03  0.12699999809E+01 0.  1.
</event>
<event>
 5   0  0.3626546E-03  0.9047116E+03  0.7818609E-02  0.9419711E-01
        2   -1    0    0  501    0  0.00000000000E+00  0.00000000000E+00  0.80756201648E+03  0.80756201648E+03  0.25500000920E-02 0. -1.
       -2   -1    0    0    0  501  0.00000000000E+00  0.00000000000E+00 -0.25338708679E+03  0.25338708680E+03  0.25500000920E-02 0.  1.
    10030    2    1    2    0    0  0.00000000000E+00  0.00000000000E+00  0.55417492969E+03  0.10609491033E+04  0.90471163752E+03 0.  0.
        3    1    3    3  502    0 -0.33062033305E+03  0.30837601515E+03  0.29448942542E+03  0.53956427163E+03  0.10100000352E+00 0. -1.
       -3    1    3    3    0  502  0.33062033305E+03 -0.30837601515E+03  0.25968550428E+03  0.52138483165E+03  0.10100000352E+00 0.  1.
</event>
<event>
 5   0  0.1436000E-03  0.8996670E+03  0.7818609E-02  0.9425998E-01
       -4   -1    0    0    0  501  0.00000000000E+00  0.00000000000E+00  0.31799755520E+03  0.31800009122E+03  0.12699999809E+01 0. -1.
        4   -1    0    0  501    0  0.00000000000E+00  0.00000000000E+00 -0.63632046908E+03  0.63632173644E+03  0.12699999809E+01 0.  1.
    10030    2    1    2    0    0  0.00000000000E+00  0.00000000000E+00 -0.31832291388E+03  0.95432182766E+03  0.89966697908E+03 0.  0.
        2    1    3    3  502    0  0.95435310650E+02  0.25401147968E+03  0.22141054173E+03  0.35021758712E+03  0.25500000920E-02 0. -1.
       -2    1    3    3    0  502 -0.95435310650E+02 -0.25401147968E+03 -0.53973345561E+03  0.60410424054E+03  0.25500000920E-02 0.  1.
</event>
<event>
 5   0  0.2295158E-03  0.9080432E+03  0.7818609E-02  0.9415582E-01
       -1   -1    0    0    0  501  0.00000000000E+00  0.00000000000E+00  0.20561557363E+03  0.20561557369E+03  0.50400001928E-02 0. -1.
        1   -1    0    0  501    0  0.00000000000E+00  0.00000000000E+00 -0.10025292222E+04  0.10025292222E+04  0.50400001928E-02 0.  1.
    10030    2    1    2    0    0  0.00000000000E+00  0.00000000000E+00 -0.79691364860E+03  0.12081447959E+04  0.90804321738E+03 0.  0.
        4    1    3    3  502    0 -0.39073566113E+03  0.19730771573E+03 -0.55883123137E+03  0.70985818980E+03  0.12699999809E+01 0.  1.
       -4    1    3    3    0  502  0.39073566113E+03 -0.19730771573E+03 -0.23808241723E+03  0.49828660615E+03  0.12699999809E+01 0. -1.
</event>
<event>
 5   0  0.2129280E-03  0.9000862E+03  0.7818609E-02  0.9425474E-01
        1   -1    0    0  501    0  0.00000000000E+00  0.00000000000E+00  0.59153356481E+03  0.59153356483E+03  0.50400001928E-02 0. -1.
       -1   -1    0    0    0  501  0.00000000000E+00  0.00000000000E+00 -0.34239608682E+03  0.34239608685E+03  0.50400001928E-02 0.  1.
    10030    2    1    2    0    0  0.00000000000E+00  0.00000000000E+00  0.24913747799E+03  0.93392965169E+03  0.90008616885E+03 0.  0.
        3    1    3    3  502    0 -0.19524931652E+03 -0.11108345286E+03  0.52920216541E+03  0.57490588028E+03  0.10100000352E+00 0. -1.
       -3    1    3    3    0  502  0.19524931652E+03  0.11108345286E+03 -0.28006468742E+03  0.35902377141E+03  0.10100000352E+00 0.  1.
</event>
<event>
 5   0  0.2130975E-03  0.9004412E+03  0.7818609E-02  0.9425030E-01
        1   -1    0    0  501    0  0.00000000000E+00  0.00000000000E+00  0.15098338215E+04  0.15098338215E+04  0.50400001928E-02 0.  1.
       -1   -1    0    0    0  501  0.00000000000E+00  0.00000000000E+00 -0.13425223939E+03  0.13425223948E+03  0.50400001928E-02 0. -1.
    10030    2    1    2    0    0  0.00000000000E+00  0.00000000000E+00  0.13755815821E+04  0.16440860610E+04  0.90044116238E+03 0.  0.
        5    1    3    3  502    0  0.21690886249E+03 -0.32070708426E+03  0.26834176940E+03  0.47109646966E+03  0.46999998093E+01 0. -1.
       -5    1    3    3    0  502 -0.21690886249E+03  0.32070708426E+03  0.11072398127E+04  0.11729895913E+04  0.46999998093E+01 0.  1.
</event>
<event>
 5   0  0.3663255E-03  0.9026703E+03  0.7818609E-02  0.9422250E-01
        2   -1    0    0  501    0  0.00000000000E+00  0.00000000000E+00  0.11474993941E+04  0.11474993941E+04  0.25500000920E-02 0. -1.
       -2   -1    0    0    0  501  0.00000000000E+00  0.00000000000E+00 -0.17751941373E+03  0.17751941374E+03  0.25500000920E-02 0.  1.
    10030    2    1    2    0    0  0.00000000000E+00  0.00000000000E+00  0.96997998041E+03  0.13250188079E+04  0.90267030462E+03 0.  0.
        4    1    3    3  502    0 -0.30751002159E+03  0.25809420279E+03  0.18228183826E+03  0.44091190997E+03  0.12699999809E+01 0.  1.
       -4    1    3    3    0  502  0.30751002159E+03 -0.25809420279E+03  0.78769814215E+03  0.88410689791E+03  0.12699999809E+01 0. -1.
</event>
<event>
 5   0  0.3685879E-03  0.8937825E+03  0.7818609E-02  0.9433387E-01
       -2   -1    0    0    0  501  0.00000000000E+00  0.00000000000E+00  0.98404875968E+02  0.98404876001E+02  0.25500000920E-02 0.  1.
        2   -1    0    0  501    0  0.00000000000E+00  0.00000000000E+00 -0.20294906385E+04  0.20294906385E+04  0.25500000920E-02 0. -1.
    10030    2    1    2    0    0  0.00000000000E+00  0.00000000000E+00 -0.19310857625E+04  0.21278955145E+04  0.89378246704E+03 0.  0.
        1    1    3    3  502    0  0.20495942064E+03 -0.14855110571E+03 -0.88732017760E+02  0.26823341723E+03  0.50400001928E-02 0.  1.
       -1    1    3    3    0  502 -0.20495942064E+03  0.14855110571E+03 -0.18423537448E+04  0.18596620973E+04  0.50400001928E-02 0. -1.
</event>
<event>
 5   0  0.3815269E-03  0.8943755E+03  0.7818609E-02  0.9432640E-01
        2   -1    0    0  501    0  0.00000000000E+00  0.00000000000E+00  0.33137184054E+03  0.33137184055E+03  0.25500000920E-02 0. -1.
       -2   -1    0    0    0  501  0.00000000000E+00  0.00000000000E+00 -0.60348179780E+03  0.60348179780E+03  0.25500000920E-02 0.  1.
    10030    2    1    2    0    0  0.00000000000E+00  0.00000000000E+00 -0.27210995725E+03  0.93485363835E+03  0.89437547837E+03 0.  0.
        5    1    3    3  502    0 -0.43688521862E+03  0.16848924963E+02 -0.23412120030E+03  0.49597117552E+03  0.46999998093E+01 0.  1.
       -5    1    3    3    0  502  0.43688521862E+03 -0.16848924963E+02 -0.37988756956E+02  0.43888246283E+03  0.46999998093E+01 0. -1.
</event>
<event>
 5   0  0.3663255E-03  0.9004996E+03  0.7818609E-02  0.9424957E-01
       -2   -1    0    0    0  501  0.00000000000E+00  0.00000000000E+00  0.20540534339E+03  0.20540534341E+03  0.25500000920E-02 0.  1.
        2   -1    0    0  501    0  0.00000000000E+00  0.00000000000E+00 -0.98695032903E+03  0.98695032904E+03  0.25500000920E-02 0. -1.
    10030    2    1    2    0    0  0.00000000000E+00  0.00000000000E+00 -0.78154498564E+03  0.11923556724E+04  0.90049957526E+03 0.  0.
        4    1    3    3  502    0 -0.49134878150E+01  0.21085104071E+03 -0.91749485509E+03  0.94142483808E+03  0.12699999809E+01 0. -1.
       -4    1    3    3    0  502  0.49134878150E+01 -0.21085104071E+03  0.13594986945E+03  0.25093083437E+03  0.12699999809E+01 0.  1.
</event>
<event>
 5   0  0.3806019E-03  0.8897812E+03  0.7818609E-02  0.9438446E-01
       -2   -1    0    0    0  501  0.00000000000E+00  0.00000000000E+00  0.25805197241E+03  0.25805197243E+03  0.25500000920E-02 0. -1.
        2   -1    0    0  501    0  0.00000000000E+00  0.00000000000E+00 -0.76700689032E+03  0.76700689032E+03  0.25500000920E-02 0.  1.
    10030    2    1    2    0    0  0.00000000000E+00  0.00000000000E+00 -0.50895491790E+03  0.10250588627E+04  0.88978118863E+03 0.  0.
        2    1    3    3  502    0  0.14893592046E+02  0.18482972460E+02  0.25732194537E+03  0.25841444025E+03  0.25500000920E-02 0. -1.
       -2    1    3    3    0  502 -0.14893592046E+02 -0.18482972460E+02 -0.76627686327E+03  0.76664442250E+03  0.25500000920E-02 0.  1.
</event>
<event>
 5   0  0.3815269E-03  0.9026951E+03  0.7818609E-02  0.9422219E-01
        2   -1    0    0  501    0  0.00000000000E+00  0.00000000000E+00  0.73295859720E+03  0.73295859721E+03  0.25500000920E-02 0. -1.
       -2   -1    0    0    0  501  0.00000000000E+00  0.00000000000E+00 -0.27793466209E+03  0.27793466211E+03  0.25500000920E-02 0.  1.
    10030    2    1    2    0    0  0.00000000000E+00  0.00000000000E+00  0.45502393511E+03  0.10108932593E+04  0.90269507598E+03 0.  0.
        5    1    3    3  502    0 -0.86685782941E+02  0.30540867941E+03 -0.13172379197E+03  0.34374719460E+03  0.46999998093E+01 0.  1.
       -5    1    3    3    0  502  0.86685782941E+02 -0.30540867941E+03  0.58674772708E+03  0.66714606471E+03  0.46999998093E+01 0. -1.
</event>
<event>
 5   0  0.3815269E-03  0.8988865E+03  0.7818609E-02  0.9426974E-01
       -2   -1    0    0    0  501  0.00000000000E+00  0.00000000000E+00  0.47185672979E+03  0.47185672980E+03  0.25500000920E-02 0.  1.
        2   -1    0    0  501    0  0.00000000000E+00  0.00000000000E+00 -0.42809441041E+03  0.42809441042E+03  0.25500000920E-02 0. -1.
    10030    2    1    2    0    0  0.00000000000E+00  0.00000000000E+00  0.43762319385E+02  0.89995114022E+03  0.89888648570E+03 0.  0.
        5    1    3    3  502    0  0.38963625235E+03 -0.11722045380E+03 -0.16918536983E+03  0.44068449405E+03  0.46999998093E+01 0. -1.
       -5    1    3    3    0  502 -0.38963625235E+03  0.11722045380E+03  0.21294768922E+03  0.45926664616E+03  0.46999998093E+01 0.  1.
</event>
<event>
 5   0  0.2074970E-03  0.9002191E+03  0.7818609E-02  0.9425308E-01
        1   -1    0    0  501    0  0.00000000000E+00  0.00000000000E+00  0.32944061264E+03  0.32944061267E+03  0.50400001928E-02 0. -1.
       -1   -1    0    0    0  501  0.00000000000E+00  0.00000000000E+00 -0.61497767456E+03  0.61497767458E+03  0.50400001928E-02 0.  1.
    10030    2    1    2    0    0  0.00000000000E+00  0.00000000000E+00 -0.28553706192E+03  0.94441828725E+03  0.90021913308E+03 0.  0.
        2    1    3    3  502    0  0.17756589271E+03 -0.20941121548E+02 -0.57612412852E+03  0.60323062613E+03  0.25500000920E-02 0.  1.
       -2    1    3    3    0  502 -0.17756589271E+03  0.20941121548E+02  0.29058706660E+03  0.34118766113E+03  0.25500000920E-02 0. -1.
</event>
<event>
 5   0  0.2074970E-03  0.9002033E+03  0.7818609E-02  0.9425327E-01
       -1   -1    0    0    0  501  0.00000000000E+00  0.00000000000E+00  0.39332628139E+03  0.39332628142E+03  0.50400001928E-02 0. -1.
        1   -1    0    0  501    0  0.00000000000E+00  0.00000000000E+00 -0.51507235042E+03  0.51507235045E+03  0.50400001928E-02 0.  1.
    10030    2    1    2    0    0  0.00000000000E+00  0.00000000000E+00 -0.12174606903E+03  0.90839863187E+03  0.90020329318E+03 0.  0.
        2    1    3    3  502    0  0.23810047655E+02 -0.21164559470E+03  0.33926014984E+03  0.40057237224E+03  0.25500000920E-02 0. -1.
       -2    1    3    3    0  502 -0.23810047655E+02  0.21164559470E+03 -0.46100621887E+03  0.50782625963E+03  0.25500000920E-02 0.  1.
</event>
<event>
 5   0  0.1436000E-03  0.9028465E+03  0.7818609E-02  0.9422030E-01
        4   -1    0    0  501    0  0.00000000000E+00  0.00000000000E+00  0.72583489565E+03  0.72583600671E+03  0.12699999809E+01 0. -1.
       -4   -1    0    0    0  501  0.00000000000E+00  0.00000000000E+00 -0.28075385432E+03  0.28075672675E+03  0.12699999809E+01 0.  1.
    10030    2    1    2    0    0  0.00000000000E+00  0.00000000000E+00  0.44508104133E+03  0.10065927335E+04  0.90284649731E+03 0.  0.
        3    1    3    3  502    0 -0.19434794485E+03 -0.36383282372E+02  0.67499088942E+03  0.70335451794E+03  0.10100000352E+00 0. -1.
       -3    1    3    3    0  502  0.19434794485E+03  0.36383282372E+02 -0.22990984809E+03  0.30323821552E+03  0.10100000352E+00 0.  1.
</event>
<event>
 5   0  0.2130975E-03  0.9033755E+03  0.7818609E-02  0.9421372E-01
       -1   -1    0    0    0  501  0.00000000000E+00  0.00000000000E+00  0.42629203226E+03  0.42629203229E+03  0.50400001928E-02 0. -1.
        1   -1    0    0  501    0  0.00000000000E+00  0.00000000000E+00 -0.47859635519E+03  0.47859635522E+03  0.50400001928E-02 0.  1.
    10030    2    1    2    0    0  0.00000000000E+00  0.00000000000E+00 -0.52304322936E+02  0.90488838751E+03  0.90337547656E+03 0.  0.
        5    1    3    3  502    0 -0.32878265792E+03 -0.29020153947E+03  0.82124907510E+02  0.44618556688E+03  0.46999998093E+01 0. -1.
       -5    1    3    3    0  502  0.32878265792E+03  0.29020153947E+03 -0.13442923045E+03  0.45870282063E+03  0.46999998093E+01 0.  1.
</event>
<event>
 5   0  0.3626546E-03  0.9200322E+03  0.7818609E-02  0.9400881E-01
        2   -1    0    0  501    0  0.00000000000E+00  0.00000000000E+00  0.10440122131E+04  0.10440122131E+04  0.25500000920E-02 0. -1.
       -2   -1    0    0    0  501  0.00000000000E+00  0.00000000000E+00 -0.20269379274E+03  0.20269379275E+03  0.25500000920E-02 0.  1.
    10030    2    1    2    0    0  0.00000000000E+00  0.00000000000E+00  0.84131842038E+03  0.12467060059E+04  0.92003216281E+03 0.  0.
        3    1    3    3  502    0 -0.15888045928E+02  0.45943556403E+03  0.39793130660E+03  0.60801546236E+03  0.10100000352E+00 0. -1.
       -3    1    3    3    0  502  0.15888045928E+02 -0.45943556403E+03  0.44338711378E+03  0.63869054351E+03  0.10100000352E+00 0.  1.
</event>
<event>
 5   0  0.2134145E-03  0.8908457E+03  0.7818609E-02  0.9437098E-01
       -1   -1    0    0    0  501  0.00000000000E+00  0.00000000000E+00  0.74089350255E+03  0.74089350256E+03  0.50400001928E-02 0. -1.
        1   -1    0    0  501    0  0.00000000000E+00  0.00000000000E+00 -0.26778680258E+03  0.26778680263E+03  0.50400001928E-02 0.  1.
    10030    2    1    2    0    0  0.00000000000E+00  0.00000000000E+00  0.47310669997E+03  0.10086803052E+04  0.89084567043E+03 0.  0.
        1    1    3    3  502    0  0.39500931661E+03  0.15082059210E+03  0.77945045551E+02  0.42994725416E+03  0.50400001928E-02 0.  1.
       -1    1    3    3    0  502 -0.39500931661E+03 -0.15082059210E+03  0.39516165442E+03  0.57873305103E+03  0.50400001928E-02 0. -1.
</event>
<event>
 5   0  0.2074970E-03  0.9002770E+03  0.7818609E-02  0.9425235E-01
        1   -1    0    0  501    0  0.00000000000E+00  0.00000000000E+00  0.59717128859E+03  0.59717128861E+03  0.50400001928E-02 0.  1.
       -1   -1    0    0    0  501  0.00000000000E+00  0.00000000000E+00 -0.33930742074E+03  0.33930742077E+03  0.50400001928E-02 0. -1.
    10030    2    1    2    0    0  0.00000000000E+00  0.00000000000E+00  0.25786386785E+03  0.93647870938E+03  0.90027695671E+03 0.  0.
        2    1    3    3  502    0  0.42218414753E+03  0.10379352614E+03  0.75694862941E+01  0.43482162736E+03  0.25500000920E-02 0. -1.
       -2    1    3    3    0  502 -0.42218414753E+03 -0.10379352614E+03  0.25029438156E+03  0.50165708202E+03  0.25500000920E-02 0.  1.
</event>
<event>
 5   0  0.2130975E-03  0.8938350E+03  0.7818609E-02  0.9433321E-01
       -1   -1    0    0    0  501  0.00000000000E+00  0.00000000000E+00  0.88701580176E+02  0.88701580319E+02  0.50400001928E-02 0.  1.
        1   -1    0    0  501    0  0.00000000000E+00  0.00000000000E+00 -0.22517664339E+04  0.22517664339E+04  0.50400001928E-02 0. -1.
    10030    2    1    2    0    0  0.00000000000E+00  0.00000000000E+00 -0.21630648538E+04  0.23404680143E+04  0.89383497594E+03 0.  0.
        5    1    3    3  502    0 -0.13648569150E+02  0.11563974176E+03  0.48216461095E+02  0.12611800201E+03  0.46999998093E+01 0.  1.
       -5    1    3    3    0  502  0.13648569150E+02 -0.11563974176E+03 -0.22112813149E+04  0.22143500123E+04  0.46999998093E+01 0. -1.
</event>
<event>
 5   0  0.3806019E-03  0.9022761E+03  0.7818609E-02  0.9422741E-01
       -2   -1    0    0    0  501  0.00000000000E+00  0.00000000000E+00  0.12797507624E+03  0.12797507626E+03  0.25500000920E-02 0.  1.
        2   -1    0    0  501    0  0.00000000000E+00  0.00000000000E+00 -0.15903530901E+04  0.15903530901E+04  0.25500000920E-02 0. -1.
    10030    2    1    2    0    0  0.00000000000E+00  0.00000000000E+00 -0.14623780139E+04  0.17183281664E+04  0.90227613949E+03 0.  0.
        2    1    3    3  502    0  0.11960588680E+03 -0.43138302166E+03 -0.83771291732E+03  0.94982093649E+03  0.25500000920E-02 0. -1.
       -2    1    3    3    0  502 -0.11960588680E+03  0.43138302166E+03 -0.62466509657E+03  0.76850722990E+03  0.25500000920E-02 0.  1.
</event>
<event>
 5   0  0.3663255E-03  0.9020558E+03  0.7818609E-02  0.9423015E-01
       -2   -1    0    0    0  501  0.00000000000E+00  0.00000000000E+00  0.19728179329E+03  0.19728179330E+03  0.25500000920E-02 0. -1.
        2   -1    0    0  501    0  0.00000000000E+00  0.00000000000E+00 -0.10311451713E+04  0.10311451713E+04  0.25500000920E-02 0.  1.
    10030    2    1    2    0    0  0.00000000000E+00  0.00000000000E+00 -0.83386337804E+03  0.12284269646E+04  0.90205580437E+03 0.  0.
        4    1    3    3  502    0  0.16934176938E+03 -0.77051666497E+02 -0.97645251648E+03  0.99401947869E+03  0.12699999809E+01 0.  1.
       -4    1    3    3    0  502 -0.16934176938E+03  0.77051666497E+02  0.14258913844E+03  0.23440748594E+03  0.12699999809E+01 0. -1.
</event>
<event>
 5   0  0.2129280E-03  0.8789267E+03  0.7818609E-02  0.9452314E-01
       -1   -1    0    0    0  501  0.00000000000E+00  0.00000000000E+00  0.12855423546E+03  0.12855423556E+03  0.50400001928E-02 0. -1.
        1   -1    0    0  501    0  0.00000000000E+00  0.00000000000E+00 -0.15023077808E+04  0.15023077808E+04  0.50400001928E-02 0.  1.
    10030    2    1    2    0    0  0.00000000000E+00  0.00000000000E+00 -0.13737535454E+04  0.16308620164E+04  0.87892668244E+03 0.  0.
        3    1    3    3  502    0  0.36285061318E+03 -0.21410001224E+02 -0.11451893171E+04  0.12014897161E+04  0.10100000352E+00 0.  1.
       -3    1    3    3    0  502 -0.36285061318E+03  0.21410001224E+02 -0.22856422828E+03  0.42937230033E+03  0.10100000352E+00 0. -1.
</event>
<event>
 5   0  0.3806019E-03  0.8974182E+03  0.7818609E-02  0.9428815E-01
       -2   -1    0    0    0  501  0.00000000000E+00  0.00000000000E+00  0.14657337790E+03  0.14657337792E+03  0.25500000920E-02 0. -1.
        2   -1    0    0  501    0  0.00000000000E+00  0.00000000000E+00 -0.13736454050E+04  0.13736454050E+04  0.25500000920E-02 0.  1.
    10030    2    1    2    0    0  0.00000000000E+00  0.00000000000E+00 -0.12270720271E+04  0.15202187829E+04  0.89741817915E+03 0.  0.
        2    1    3    3  502    0  0.13833323498E+02  0.40651238342E+03 -0.93448446005E+03  0.10191687224E+04  0.25500000920E-02 0.  1.
       -2    1    3    3    0  502 -0.13833323498E+02 -0.40651238342E+03 -0.29258756704E+03  0.50105006048E+03  0.25500000920E-02 0. -1.
</event>
<event>
 5   0  0.2130975E-03  0.9066449E+03  0.7818609E-02  0.9417313E-01
       -1   -1    0    0    0  501  0.00000000000E+00  0.00000000000E+00  0.16350591398E+03  0.16350591406E+03  0.50400001928E-02 0. -1.
        1   -1    0    0  501    0  0.00000000000E+00  0.00000000000E+00 -0.12568429212E+04  0.12568429212E+04  0.50400001928E-02 0.  1.
    10030    2    1    2    0    0  0.00000000000E+00  0.00000000000E+00 -0.10933370072E+04  0.14203488352E+04  0.90664491532E+03 0.  0.
        5    1    3    3  502    0 -0.18948040371E+03  0.41179186993E+03 -0.54971959084E+03  0.71252304249E+03  0.46999998093E+01 0.  1.
       -5    1    3    3    0  502  0.18948040371E+03 -0.41179186993E+03 -0.54361741635E+03  0.70782579275E+03  0.46999998093E+01 0. -1.
</event>
<event>
 5   0  0.1436000E-03  0.8999343E+03  0.7818609E-02  0.9425664E-01
        3   -1    0    0  501    0  0.00000000000E+00  0.00000000000E+00  0.22386678958E+03  0.22386681236E+03  0.10100000352E+00 0. -1.
       -3   -1    0    0    0  501  0.00000000000E+00  0.00000000000E+00 -0.90442370186E+03  0.90442370750E+03  0.10100000352E+00 0.  1.
    10030    2    1    2    0    0  0.00000000000E+00  0.00000000000E+00 -0.68055691228E+03  0.11282905199E+04  0.89993432336E+03 0.  0.
        4    1    3    3  502    0  0.18905234519E+03  0.53769728437E+02 -0.84775495162E+03  0.87024252011E+03  0.12699999809E+01 0.  1.
       -4    1    3    3    0  502 -0.18905234519E+03 -0.53769728437E+02  0.16719803934E+03  0.25804799975E+03  0.12699999809E+01 0. -1.
</event>
<event>
 5   0  0.2295158E-03  0.9020949E+03  0.7818609E-02  0.9422966E-01
        1   -1    0    0  501    0  0.00000000000E+00  0.00000000000E+00  0.16105284032E+04  0.16105284032E+04  0.50400001928E-02 0.  1.
       -1   -1    0    0    0  501  0.00000000000E+00  0.00000000000E+00 -0.12632116080E+03  0.12632116090E+03  0.50400001928E-02 0. -1.
    10030    2    1    2    0    0  0.00000000000E+00  0.00000000000E+00  0.14842072424E+04  0.17368495641E+04  0.90209493401E+03 0.  0.
        4    1    3    3  502    0  0.35321711615E+03  0.31577782561E+02  0.20547706146E+03  0.40985597858E+03  0.12699999809E+01 0.  1.
       -4    1    3    3    0  502 -0.35321711615E+03 -0.31577782561E+02  0.12787301810E+04  0.13269935856E+04  0.12699999809E+01 0. -1.
</event>
<event>
 5   0  0.2074970E-03  0.8992549E+03  0.7818609E-02  0.9426513E-01
       -1   -1    0    0    0  501  0.00000000000E+00  0.00000000000E+00  0.52613721511E+03  0.52613721514E+03  0.50400001928E-02 0. -1.
        1   -1    0    0  501    0  0.00000000000E+00  0.00000000000E+00 -0.38424360383E+03  0.38424360386E+03  0.50400001928E-02 0.  1.
    10030    2    1    2    0    0  0.00000000000E+00  0.00000000000E+00  0.14189361128E+03  0.91038081900E+03  0.89925493531E+03 0.  0.
        2    1    3    3  502    0  0.13346571360E+03  0.11887981246E+03  0.48862782183E+03  0.52029093283E+03  0.25500000920E-02 0. -1.
       -2    1    3    3    0  502 -0.13346571360E+03 -0.11887981246E+03 -0.34673421055E+03  0.39008988617E+03  0.25500000920E-02 0.  1.
</event>
<event>
 5   0  0.2130975E-03  0.8960731E+03  0.7818609E-02  0.9430504E-01
       -1   -1    0    0    0  501  0.00000000000E+00  0.00000000000E+00  0.34983028639E+03  0.34983028643E+03  0.50400001928E-02 0.  1.
        1   -1    0    0  501    0  0.00000000000E+00  0.00000000000E+00 -0.57381187200E+03  0.57381187202E+03  0.50400001928E-02 0. -1.
    10030    2    1    2    0    0  0.00000000000E+00  0.00000000000E+00 -0.22398158561E+03  0.92364215845E+03  0.89607314778E+03 0.  0.
        5    1    3    3  502    0 -0.16345404480E+03 -0.21510137107E+03 -0.48037821789E+03  0.55115437658E+03  0.46999998093E+01 0. -1.
       -5    1    3    3    0  502  0.16345404480E+03  0.21510137107E+03  0.25639663228E+03  0.37248778187E+03  0.46999998093E+01 0.  1.
</event>
<event>
 5   0  0.2134145E-03  0.9010606E+03  0.7818609E-02  0.9424257E-01
        1   -1    0    0  501    0  0.00000000000E+00  0.00000000000E+00  0.52380042553E+03  0.52380042555E+03  0.50400001928E-02 0.  1.
       -1   -1    0    0    0  501  0.00000000000E+00  0.00000000000E+00 -0.38750935705E+03  0.38750935708E+03  0.50400001928E-02 0. -1.
    10030    2    1    2    0    0  0.00000000000E+00  0.00000000000E+00  0.13629106848E+03  0.91130978263E+03  0.90106063313E+03 0.  0.
        1    1    3    3  502    0 -0.12777109886E+03  0.33630498748E+03  0.34243334452E+03  0.49667604510E+03  0.50400001928E-02 0. -1.
       -1    1    3    3    0  502  0.12777109886E+03 -0.33630498748E+03 -0.20614227604E+03  0.41463373754E+03  0.50400001928E-02 0.  1.
</event>
<event>
 5   0  0.3626546E-03  0.9016268E+03  0.7818609E-02  0.9423550E-01
        2   -1    0    0  501    0  0.00000000000E+00  0.00000000000E+00  0.13529179943E+04  0.13529179943E+04  0.25500000920E-02 0. -1.
       -2   -1    0    0    0  501  0.00000000000E+00  0.00000000000E+00 -0.15021805671E+03  0.15021805673E+03  0.25500000920E-02 0.  1.
    10030    2    1    2    0    0  0.00000000000E+00  0.00000000000E+00  0.12026999376E+04  0.15031360510E+04  0.90162677869E+03 0.  0.
        3    1    3    3  502    0  0.37514641579E+03  0.24952262718E+03  0.57572117231E+03  0.73106173009E+03  0.10100000352E+00 0.  1.
       -3    1    3    3    0  502 -0.37514641579E+03 -0.24952262718E+03  0.62697876529E+03  0.77207432096E+03  0.10100000352E+00 0. -1.
</event>
<event>
 5   0  0.3626546E-03  0.8963016E+03  0.7818609E-02  0.9430216E-01
       -2   -1    0    0    0  501  0.00000000000E+00  0.00000000000E+00  0.27379862756E+03  0.27379862757E+03  0.25500000920E-02 0.  1.
        2   -1    0    0  501    0  0.00000000000E+00  0.00000000000E+00 -0.73352868381E+03  0.73352868382E+03  0.25500000920E-02 0. -1.
    10030    2    1    2    0    0  0.00000000000E+00  0.00000000000E+00 -0.45973005625E+03  0.10073273114E+04  0.89630161645E+03 0.  0.
        3    1    3    3  502    0  0.12928322299E+02 -0.43125234423E+03 -0.36609659121E+03  0.56583783032E+03  0.10100000352E+00 0. -1.
       -3    1    3    3    0  502 -0.12928322299E+02  0.43125234423E+03 -0.93633465042E+02  0.44148948107E+03  0.10100000352E+00 0.  1.
</event>
<event>
 5   0  0.2130975E-03  0.8728255E+03  0.7818609E-02  0.9460203E-01
       -1   -1    0    0    0  501  0.00000000000E+00  0.00000000000E+00  0.16877898665E+03  0.16877898672E+03  0.50400001928E-02 0.  1.
        1   -1    0    0  501    0  0.00000000000E+00  0.00000000000E+00 -0.11284347548E+04  0.11284347548E+04  0.50400001928E-02 0. -1.
    10030    2    1    2    0    0  0.00000000000E+00  0.00000000000E+00 -0.95965576812E+03  0.12972137415E+04  0.87282546815E+03 0.  0.
        5    1    3    3  502    0  0.23273490136E+03  0.12974246124E+03  0.33802329688E+02  0.26863232875E+03  0.46999998093E+01 0.  1.
       -5    1    3    3    0  502 -0.23273490136E+03 -0.12974246124E+03 -0.99345809781E+03  0.10285814128E+04  0.46999998093E+01 0. -1.
</event>
<event>
 5   0  0.2129280E-03  0.8991044E+03  0.7818609E-02  0.9426702E-01
        1   -1    0    0  501    0  0.00000000000E+00  0.00000000000E+00  0.44424013478E+03  0.44424013481E+03  0.50400001928E-02 0.  1.
       -1   -1    0    0    0  501  0.00000000000E+00  0.00000000000E+00 -0.45492776035E+03  0.45492776037E+03  0.50400001928E-02 0. -1.
    10030    2    1    2    0    0  0.00000000000E+00  0.00000000000E+00 -0.10687625564E+02  0.89916789519E+03  0.89910437569E+03 0.  0.
        3    1    3    3  502    0  0.29962122595E+03 -0.28910136023E+03  0.16421073742E+03  0.44756860034E+03  0.10100000352E+00 0.  1.
       -3    1    3    3    0  502 -0.29962122595E+03  0.28910136023E+03 -0.17489836299E+03  0.45159929484E+03  0.10100000352E+00 0. -1.
</event>
<event>
 5   0  0.2129280E-03  0.9012198E+03  0.7818609E-02  0.9424058E-01
        1   -1    0    0  501    0  0.00000000000E+00  0.00000000000E+00  0.23468555054E+04  0.23468555054E+04  0.50400001928E-02 0.  1.
       -1   -1    0    0    0  501  0.00000000000E+00  0.00000000000E+00 -0.86519728056E+02  0.86519728202E+02  0.50400001928E-02 0. -1.
    10030    2    1    2    0    0  0.00000000000E+00  0.00000000000E+00  0.22603357774E+04  0.24333752336E+04  0.90121984066E+03 0.  0.
        3    1    3    3  502    0 -0.22747596092E+02 -0.36012944260E+03  0.40145038989E+03  0.53978986124E+03  0.10100000352E+00 0. -1.
       -3    1    3    3    0  502  0.22747596092E+02  0.36012944260E+03  0.18588853875E+04  0.18935853724E+04  0.10100000352E+00 0.  1.
</event>
<event>
 5   0  0.3806019E-03  0.8646698E+03  0.7818609E-02  0.9470856E-01
        2   -1    0    0  501    0  0.00000000000E+00  0.00000000000E+00  0.17370651202E+04  0.17370651202E+04  0.25500000920E-02 0. -1.
       -2   -1    0    0    0  501  0.00000000000E+00  0.00000000000E+00 -0.10760303946E+03  0.10760303949E+03  0.25500000920E-02 0.  1.
    10030    2    1    2    0    0  0.00000000000E+00  0.00000000000E+00  0.16294620807E+04  0.18446681597E+04  0.86466984844E+03 0.  0.
        2    1    3    3  502    0  0.19727718040E+03 -0.94935515020E+02  0.16100620507E+04  0.16248787171E+04  0.25500000920E-02 0. -1.
       -2    1    3    3    0  502 -0.19727718040E+03  0.94935515020E+02  0.19400029993E+02  0.21978944262E+03  0.25500000920E-02 0.  1.
</event>
<event>
 5   0  0.3806019E-03  0.9017027E+03  0.7818609E-02  0.9423455E-01
       -2   -1    0    0    0  501  0.00000000000E+00  0.00000000000E+00  0.12597268484E+03  0.12597268486E+03  0.25500000920E-02 0.  1.
        2   -1    0    0  501    0  0.00000000000E+00  0.00000000000E+00 -0.16135795996E+04  0.16135795996E+04  0.25500000920E-02 0. -1.
    10030    2    1    2    0    0  0.00000000000E+00  0.00000000000E+00 -0.14876069148E+04  0.17395522845E+04  0.90170273236E+03 0.  0.
        2    1    3    3  502    0  0.20989496517E+02 -0.44766148310E+03 -0.64879047004E+03  0.78852421424E+03  0.25500000920E-02 0.  1.
       -2    1    3    3    0  502 -0.20989496517E+02  0.44766148310E+03 -0.83881644476E+03  0.95102807026E+03  0.25500000920E-02 0. -1.
</event>
<event>
 5   0  0.2295158E-03  0.9039209E+03  0.7818609E-02  0.9420693E-01
        1   -1    0    0  501    0  0.00000000000E+00  0.00000000000E+00  0.95150326261E+03  0.95150326263E+03  0.50400001928E-02 0. -1.
       -1   -1    0    0    0  501  0.00000000000E+00  0.00000000000E+00 -0.21467949221E+03  0.21467949227E+03  0.50400001928E-02 0.  1.
    10030    2    1    2    0    0  0.00000000000E+00  0.00000000000E+00  0.73682377041E+03  0.11661827549E+04  0.90392087550E+03 0.  0.
        4    1    3    3  502    0  0.84175333806E+02 -0.31951764522E+03 -0.29422884138E+02  0.33172930446E+03  0.12699999809E+01 0.  1.
       -4    1    3    3    0  502 -0.84175333806E+02  0.31951764522E+03  0.76624665455E+03  0.83445345043E+03  0.12699999809E+01 0. -1.
</event>
<event>
 5   0  0.3685879E-03  0.8964801E+03  0.7818609E-02  0.9429992E-01
       -2   -1    0    0    0  501  0.00000000000E+00  0.00000000000E+00  0.15022056588E+03  0.15022056591E+03  0.25500000920E-02 0.  1.
        2   -1    0    0  501    0  0.00000000000E+00  0.00000000000E+00 -0.13374941902E+04  0.13374941902E+04  0.25500000920E-02 0. -1.
    10030    2    1    2    0    0  0.00000000000E+00  0.00000000000E+00 -0.11872736243E+04  0.14877147561E+04  0.89648008150E+03 0.  0.
        1    1    3    3  502    0  0.28958128706E+03  0.14540986839E+03 -0.79677675532E+02  0.33369129992E+03  0.50400001928E-02 0.  1.
       -1    1    3    3    0  502 -0.28958128706E+03 -0.14540986839E+03 -0.11075959487E+04  0.11540234561E+04  0.50400001928E-02 0. -1.
</event>
<event>
 5   0  0.1436000E-03  0.9024393E+03  0.7818609E-02  0.9422537E-01
        3   -1    0    0  501    0  0.00000000000E+00  0.00000000000E+00  0.17562926560E+03  0.17562929464E+03  0.10100000352E+00 0.  1.
       -3   -1    0    0    0  501  0.00000000000E+00  0.00000000000E+00 -0.11592553280E+04  0.11592553324E+04  0.10100000352E+00 0. -1.
    10030    2    1    2    0    0  0.00000000000E+00  0.00000000000E+00 -0.98362606237E+03  0.13348846270E+04  0.90243932586E+03 0.  0.
        4    1    3    3  502    0 -0.19032825307E+03  0.36943370810E+03 -0.75179603399E+03  0.85901396858E+03  0.12699999809E+01 0. -1.
       -4    1    3    3    0  502  0.19032825307E+03 -0.36943370810E+03 -0.23183002838E+03  0.47587065843E+03  0.12699999809E+01 0.  1.
</event>
<event>
 5   0  0.1436000E-03  0.9035173E+03  0.7818609E-02  0.9421195E-01
       -4   -1    0    0    0  501  0.00000000000E+00  0.00000000000E+00  0.45514701394E+03  0.45514878578E+03  0.12699999809E+01 0.  1.
        4   -1    0    0  501    0  0.00000000000E+00  0.00000000000E+00 -0.44839196929E+03  0.44839376782E+03  0.12699999809E+01 0. -1.
    10030    2    1    2    0    0  0.00000000000E+00  0.00000000000E+00  0.67550446491E+01  0.90354255360E+03  0.90351730229E+03 0.  0.
        2    1    3    3  502    0 -0.96873156324E+02 -0.33155801346E+03 -0.28778479073E+03  0.44959449562E+03  0.25500000920E-02 0. -1.
       -2    1    3    3    0  502  0.96873156324E+02  0.33155801346E+03  0.29453983538E+03  0.45394805798E+03  0.25500000920E-02 0.  1.
</event>
<event>
 5   0  0.3815269E-03  0.9009289E+03  0.7818609E-02  0.9424421E-01
        2   -1    0    0  501    0  0.00000000000E+00  0.00000000000E+00  0.78153101145E+03  0.78153101145E+03  0.25500000920E-02 0. -1.
       -2   -1    0    0    0  501  0.00000000000E+00  0.00000000000E+00 -0.25964195525E+03  0.25964195526E+03  0.25500000920E-02 0.  1.
    10030    2    1    2    0    0  0.00000000000E+00  0.00000000000E+00  0.52188905620E+03  0.10411729667E+04  0.90092894261E+03 0.  0.
        5    1    3    3  502    0  0.25575772314E+03  0.36450835778E+03  0.33947706470E+03  0.55995100080E+03  0.46999998093E+01 0. -1.
       -5    1    3    3    0  502 -0.25575772314E+03 -0.36450835778E+03  0.18241199149E+03  0.48122196591E+03  0.46999998093E+01 0.  1.
</event>
<event>
 5   0  0.3806019E-03  0.8988900E+03  0.7818609E-02  0.9426970E-01
       -2   -1    0    0    0  501  0.00000000000E+00  0.00000000000E+00  0.26009297406E+03  0.26009297407E+03  0.25500000920E-02 0. -1.
        2   -1    0    0  501    0  0.00000000000E+00  0.00000000000E+00 -0.77664838570E+03  0.77664838570E+03  0.25500000920E-02 0.  1.
    10030    2    1    2    0    0  0.00000000000E+00  0.00000000000E+00 -0.51655541164E+03  0.10367413598E+04  0.89888995643E+03 0.  0.
        2    1    3    3  502    0 -0.32715248515E+03 -0.29777873608E+03 -0.34982162295E+03  0.56398235087E+03  0.25500000920E-02 0.  1.
       -2    1    3    3    0  502  0.32715248515E+03  0.29777873608E+03 -0.16673378870E+03  0.47275900891E+03  0.25500000920E-02 0. -1.
</event>
<event>
 5   0  0.2130975E-03  0.9079670E+03  0.7818609E-02  0.9415677E-01
       -1   -1    0    0    0  501  0.00000000000E+00  0.00000000000E+00  0.17057017536E+03  0.17057017543E+03  0.50400001928E-02 0. -1.
        1   -1    0    0  501    0  0.00000000000E+00  0.00000000000E+00 -0.12083062713E+04  0.12083062714E+04  0.50400001928E-02 0.  1.
    10030    2    1    2    0    0  0.00000000000E+00  0.00000000000E+00 -0.10377360960E+04  0.13788764468E+04  0.90796698761E+03 0.  0.
        5    1    3    3  502    0 -0.22222891158E+02 -0.39412704684E+02  0.16710037378E+03  0.17318153220E+03  0.46999998093E+01 0. -1.
       -5    1    3    3    0  502  0.22222891158E+02  0.39412704684E+02 -0.12048364698E+04  0.12056949146E+04  0.46999998093E+01 0.  1.
</event>
<event>
 5   0  0.3626546E-03  0.9001942E+03  0.7818609E-02  0.9425339E-01
       -2   -1    0    0    0  501  0.00000000000E+00  0.00000000000E+00  0.11798885237E+03  0.11798885240E+03  0.25500000920E-02 0.  1.
        2   -1    0    0  501    0  0.00000000000E+00  0.00000000000E+00 -0.17170046428E+04  0.17170046429E+04  0.25500000920E-02 0. -1.
    10030    2    1    2    0    0  0.00000000000E+00  0.00000000000E+00 -0.15990157905E+04  0.18349934953E+04  0.90019421761E+03 0.  0.
        3    1    3    3  502    0 -0.36240478411E+03 -0.49562324813E+02 -0.13341618555E+04  0.13833949250E+04  0.10100000352E+00 0. -1.
       -3    1    3    3    0  502  0.36240478411E+03  0.49562324813E+02 -0.26485393493E+03  0.45159857023E+03  0.10100000352E+00 0.  1.
</event>
<event>
 5   0  0.2129280E-03  0.9087961E+03  0.7818609E-02  0.9414652E-01
        1   -1    0    0  501    0  0.00000000000E+00  0.00000000000E+00  0.95942601882E+03  0.95942601883E+03  0.50400001928E-02 0. -1.
       -1   -1    0    0    0  501  0.00000000000E+00  0.00000000000E+00 -0.21520948665E+03  0.21520948671E+03  0.50400001928E-02 0.  1.
    10030    2    1    2    0    0  0.00000000000E+00  0.00000000000E+00  0.74421653217E+03  0.11746355055E+04  0.90879608502E+03 0.  0.
        3    1    3    3  502    0  0.23960739812E+03  0.30230426889E+03  0.61693942682E+02  0.39064783244E+03  0.10100000352E+00 0.  1.
       -3    1    3    3    0  502 -0.23960739812E+03 -0.30230426889E+03  0.68252258949E+03  0.78398767311E+03  0.10100000352E+00 0. -1.
</event>
<event>
 5   0  0.3663255E-03  0.8984361E+03  0.7818609E-02  0.9427538E-01
        2   -1    0    0  501    0  0.00000000000E+00  0.00000000000E+00  0.39244486137E+03  0.39244486138E+03  0.25500000920E-02 0. -1.
       -2   -1    0    0    0  501  0.00000000000E+00  0.00000000000E+00 -0.51420440231E+03  0.51420440232E+03  0.25500000920E-02 0.  1.
    10030    2    1    2    0    0  0.00000000000E+00  0.00000000000E+00 -0.12175954094E+03  0.90664926370E+03  0.89843614217E+03 0.  0.
        4    1    3    3  502    0 -0.58460526699E+02 -0.16393593715E+02 -0.51004286942E+03  0.51364552431E+03  0.12699999809E+01 0.  1.
       -4    1    3    3    0  502  0.58460526699E+02  0.16393593715E+02  0.38828332848E+03  0.39300373939E+03  0.12699999809E+01 0. -1.
</event>
<event>
 5   0  0.2074970E-03  0.8943757E+03  0.7818609E-02  0.9432640E-01
       -1   -1    0    0    0  501  0.00000000000E+00  0.00000000000E+00  0.44128699469E+03  0.44128699472E+03  0.50400001928E-02 0.  1.
        1   -1    0    0  501    0  0.00000000000E+00  0.00000000000E+00 -0.45316757549E+03  0.45316757552E+03  0.50400001928E-02 0. -1.
    10030    2    1    2    0    0  0.00000000000E+00  0.00000000000E+00 -0.11880580803E+02  0.89445457023E+03  0.89437566493E+03 0.  0.
        2    1    3    3  502    0  0.33070338841E+03 -0.29657656463E+03 -0.57467332976E+02  0.44791169237E+03  0.25500000920E-02 0. -1.
       -2    1    3    3    0  502 -0.33070338841E+03  0.29657656463E+03  0.45586752173E+02  0.44654287787E+03  0.25500000920E-02 0.  1.
</event>
<event>
 5   0  0.2134145E-03  0.9079542E+03  0.7818609E-02  0.9415693E-01
        1   -1    0    0  501    0  0.00000000000E+00  0.00000000000E+00  0.34327120525E+03  0.34327120529E+03  0.50400001928E-02 0.  1.
       -1   -1    0    0    0  501  0.00000000000E+00  0.00000000000E+00 -0.60038593813E+03  0.60038593816E+03  0.50400001928E-02 0. -1.
    10030    2    1    2    0    0  0.00000000000E+00  0.00000000000E+00 -0.25711473288E+03  0.94365714345E+03  0.90795419406E+03 0.  0.
        1    1    3    3  502    0 -0.12865091502E+03 -0.14730477445E+03 -0.55435679991E+03  0.58784455100E+03  0.50400001928E-02 0. -1.
       -1    1    3    3    0  502  0.12865091502E+03  0.14730477445E+03  0.29724206703E+03  0.35581259245E+03  0.50400001928E-02 0.  1.
</event>
<event>
 5   0  0.3815269E-03  0.8990511E+03  0.7818609E-02  0.9426768E-01
        2   -1    0    0  501    0  0.00000000000E+00  0.00000000000E+00  0.83071169100E+03  0.83071169100E+03  0.25500000920E-02 0.  1.
       -2   -1    0    0    0  501  0.00000000000E+00  0.00000000000E+00 -0.24325314258E+03  0.24325314260E+03  0.25500000920E-02 0. -1.
    10030    2    1    2    0    0  0.00000000000E+00  0.00000000000E+00  0.58745854841E+03  0.10739648336E+04  0.89905112074E+03 0.  0.
        5    1    3    3  502    0  0.80273676695E+02  0.15163112403E+03 -0.20257188632E+03  0.26550578161E+03  0.46999998093E+01 0. -1.
       -5    1    3    3    0  502 -0.80273676695E+02 -0.15163112403E+03  0.79003043473E+03  0.80845905199E+03  0.46999998093E+01 0.  1.
</event>
<event>
 5   0  0.2130975E-03  0.9005508E+03  0.7818609E-02  0.9424893E-01
       -1   -1    0    0    0  501  0.00000000000E+00  0.00000000000E+00  0.67671388532E+03  0.67671388534E+03  0.50400001928E-02 0. -1.
        1   -1    0    0  501    0  0.00000000000E+00  0.00000000000E+00 -0.29960660162E+03  0.29960660166E+03  0.50400001928E-02 0.  1.
    10030    2    1    2    0    0  0.00000000000E+00  0.00000000000E+00  0.37710728370E+03  0.97632048700E+03  0.90055082584E+03 0.  0.
        5    1    3    3  502    0  0.74859834818E+02 -0.36822864962E+03  0.45747540637E+03  0.59203223789E+03  0.46999998093E+01 0. -1.
       -5    1    3    3    0  502 -0.74859834818E+02  0.36822864962E+03 -0.80368122670E+02  0.38428824911E+03  0.46999998093E+01 0.  1.
</event>
<event>
 5   0  0.3626546E-03  0.9021337E+03  0.7818609E-02  0.9422918E-01
        2   -1    0    0  501    0  0.00000000000E+00  0.00000000000E+00  0.11159760525E+04  0.11159760525E+04  0.25500000920E-02 0.  1.
       -2   -1    0    0    0  501  0.00000000000E+00  0.00000000000E+00 -0.18231689325E+03  0.18231689327E+03  0.25500000920E-02 0. -1.
    10030    2    1    2    0    0  0.00000000000E+00  0.00000000000E+00  0.93365915927E+03  0.12982929458E+04  0.90213366383E+03 0.  0.
        3    1    3    3  502    0 -0.17402344769E+03  0.36462925530E+03  0.17820255018E+03  0.44158217045E+03  0.10100000352E+00 0. -1.
       -3    1    3    3    0  502  0.17402344769E+03 -0.36462925530E+03  0.75545660910E+03  0.85671077535E+03  0.10100000352E+00 0.  1.
</event>
<event>
 5   0  0.3685879E-03  0.8993469E+03  0.7818609E-02  0.9426398E-01
       -2   -1    0    0    0  501  0.00000000000E+00  0.00000000000E+00  0.26178699712E+03  0.26178699714E+03  0.25500000920E-02 0. -1.
        2   -1    0    0  501    0  0.00000000000E+00  0.00000000000E+00 -0.77240739661E+03  0.77240739661E+03  0.25500000920E-02 0.  1.
    10030    2    1    2    0    0  0.00000000000E+00  0.00000000000E+00 -0.51062039949E+03  0.10341943937E+04  0.89934690286E+03 0.  0.
        1    1    3    3  502    0  0.13939424484E+03  0.23877986908E+03 -0.66310864332E+03  0.71844251979E+03  0.50400001928E-02 0.  1.
       -1    1    3    3    0  502 -0.13939424484E+03 -0.23877986908E+03  0.15248824384E+03  0.31575187395E+03  0.50400001928E-02 0. -1.
</event>
<event>
 5   0  0.2074970E-03  0.8933129E+03  0.7818609E-02  0.9433979E-01
       -1   -1    0    0    0  501  0.00000000000E+00  0.00000000000E+00  0.77335947981E+03  0.77335947982E+03  0.50400001928E-02 0. -1.
        1   -1    0    0  501    0  0.00000000000E+00  0.00000000000E+00 -0.25796795710E+03  0.25796795715E+03  0.50400001928E-02 0.  1.
    10030    2    1    2    0    0  0.00000000000E+00  0.00000000000E+00  0.51539152271E+03  0.10313274370E+04  0.89331285705E+03 0.  0.
        2    1    3    3  502    0  0.23314288630E+03 -0.38010482310E+03  0.28750512664E+03  0.53056053361E+03  0.25500000920E-02 0. -1.
       -2    1    3    3    0  502 -0.23314288630E+03  0.38010482310E+03  0.22788639607E+03  0.50076690336E+03  0.25500000920E-02 0.  1.
</event>
<event>
 5   0  0.2074970E-03  0.8935225E+03  0.7818609E-02  0.9433715E-01
        1   -1    0    0  501    0  0.00000000000E+00  0.00000000000E+00  0.19670601452E+03  0.19670601458E+03  0.50400001928E-02 0. -1.
       -1   -1    0    0    0  501  0.00000000000E+00  0.00000000000E+00 -0.10146899177E+04  0.10146899177E+04  0.50400001928E-02 0.  1.
    10030    2    1    2    0    0  0.00000000000E+00  0.00000000000E+00 -0.81798390316E+03  0.12113959323E+04  0.89352248931E+03 0.  0.
        2    1    3    3  502    0  0.44331271119E+03 -0.39077752829E+02 -0.35574727647E+03  0.56974499155E+03  0.25500000920E-02 0.  1.
       -2    1    3    3    0  502 -0.44331271119E+03  0.39077752829E+02 -0.46223662669E+03  0.64165094072E+03  0.25500000920E-02 0. -1.
</event>
<event>
 5   0  0.3626546E-03  0.8916698E+03  0.7818609E-02  0.9436055E-01
        2   -1    0    0  501    0  0.00000000000E+00  0.00000000000E+00  0.98808618897E+03  0.98808618897E+03  0.25500000920E-02 0. -1.
       -2   -1    0    0    0  501  0.00000000000E+00  0.00000000000E+00 -0.20116542713E+03  0.20116542715E+03  0.25500000920E-02 0.  1.
    10030    2    1    2    0    0  0.00000000000E+00  0.00000000000E+00  0.78692076184E+03  0.11892516161E+04  0.89166984980E+03 0.  0.
        3    1    3    3  502    0  0.30693480614E+02  0.44391631891E+03  0.35657151470E+03  0.57021666343E+03  0.10100000352E+00 0. -1.
       -3    1    3    3    0  502 -0.30693480614E+02 -0.44391631891E+03  0.43034924713E+03  0.61903495269E+03  0.10100000352E+00 0.  1.
</event>
<event>
 5   0  0.3815269E-03  0.8994569E+03  0.7818609E-02  0.9426261E-01
        2   -1    0    0  501    0  0.00000000000E+00  0.00000000000E+00  0.17749997252E+04  0.17749997252E+04  0.25500000920E-02 0.  1.
       -2   -1    0    0    0  501  0.00000000000E+00  0.00000000000E+00 -0.11394688226E+03  0.11394688229E+03  0.25500000920E-02 0. -1.
    10030    2    1    2    0    0  0.00000000000E+00  0.00000000000E+00  0.16610528430E+04  0.18889466075E+04  0.89945691331E+03 0.  0.
        5    1    3    3  502    0 -0.35986859856E+03  0.26959346964E+03  0.81604524829E+03  0.93173922551E+03  0.46999998093E+01 0. -1.
       -5    1    3    3    0  502  0.35986859856E+03 -0.26959346964E+03  0.84500759468E+03  0.95720738201E+03  0.46999998093E+01 0.  1.
</event>
<event>
 5   0  0.2295158E-03  0.8900301E+03  0.7818609E-02  0.9438131E-01
       -1   -1    0    0    0  501  0.00000000000E+00  0.00000000000E+00  0.15212453696E+03  0.15212453705E+03  0.50400001928E-02 0.  1.
        1   -1    0    0  501    0  0.00000000000E+00  0.00000000000E+00 -0.13018175090E+04  0.13018175090E+04  0.50400001928E-02 0. -1.
    10030    2    1    2    0    0  0.00000000000E+00  0.00000000000E+00 -0.11496929720E+04  0.14539420460E+04  0.89003008001E+03 0.  0.
        4    1    3    3  502    0  0.10378282223E+03 -0.21692060793E+03  0.36847195693E+02  0.24327916694E+03  0.12699999809E+01 0.  1.
       -4    1    3    3    0  502 -0.10378282223E+03  0.21692060793E+03 -0.11865401677E+04  0.12106628791E+04  0.12699999809E+01 0. -1.
</event>
<event>
 5   0  0.2295158E-03  0.8996754E+03  0.7818609E-02  0.9425987E-01
       -1   -1    0    0    0  501  0.00000000000E+00  0.00000000000E+00  0.14406880287E+03  0.14406880296E+03  0.50400001928E-02 0. -1.
        1   -1    0    0  501    0  0.00000000000E+00  0.00000000000E+00 -0.14045645582E+04  0.14045645582E+04  0.50400001928E-02 0.  1.
    10030    2    1    2    0    0  0.00000000000E+00  0.00000000000E+00 -0.12604957553E+04  0.15486333612E+04  0.89967535150E+03 0.  0.
        4    1    3    3  502    0  0.20835120262E+03  0.59272680691E+00  0.56001208552E+02  0.21575060421E+03  0.12699999809E+01 0. -1.
       -4    1    3    3    0  502 -0.20835120262E+03 -0.59272680691E+00 -0.13164969639E+04  0.13328827570E+04  0.12699999809E+01 0.  1.
</event>
<event>
 5   0  0.2134145E-03  0.9000943E+03  0.7818609E-02  0.9425464E-01
        1   -1    0    0  501    0  0.00000000000E+00  0.00000000000E+00  0.19356931438E+04  0.19356931438E+04  0.50400001928E-02 0. -1.
       -1   -1    0    0    0  501  0.00000000000E+00  0.00000000000E+00 -0.10463561303E+03  0.10463561315E+03  0.50400001928E-02 0.  1.
    10030    2    1    2    0    0  0.00000000000E+00  0.00000000000E+00  0.18310575307E+04  0.20403287569E+04  0.90009430366E+03 0.  0.
        1    1    3    3  502    0  0.81432554864E+02 -0.38391239213E+03  0.41620353442E+03  0.57205364076E+03  0.50400001928E-02 0.  1.
       -1    1    3    3    0  502 -0.81432554864E+02  0.38391239213E+03  0.14148539963E+04  0.14682751162E+04  0.50400001928E-02 0. -1.
</event>
<event>
 5   0  0.2134145E-03  0.8992725E+03  0.7818609E-02  0.9426491E-01
       -1   -1    0    0    0  501  0.00000000000E+00  0.00000000000E+00  0.24498436305E+03  0.24498436310E+03  0.50400001928E-02 0.  1.
        1   -1    0    0  501    0  0.00000000000E+00  0.00000000000E+00 -0.82524764877E+03  0.82524764879E+03  0.50400001928E-02 0. -1.
    10030    2    1    2    0    0  0.00000000000E+00  0.00000000000E+00 -0.58026328572E+03  0.10702320119E+04  0.89927252739E+03 0.  0.
        1    1    3    3  502    0  0.30525975754E+03 -0.87948234166E+02 -0.66883004577E+03  0.74044043759E+03  0.50400001928E-02 0. -1.
       -1    1    3    3    0  502 -0.30525975754E+03  0.87948234166E+02  0.88566760051E+02  0.32979157430E+03  0.50400001928E-02 0.  1.
</event>
<event>
 5   0  0.2074970E-03  0.8997316E+03  0.7818609E-02  0.9425917E-01
        1   -1    0    0  501    0  0.00000000000E+00  0.00000000000E+00  0.72417994767E+03  0.72417994769E+03  0.50400001928E-02 0. -1.
       -1   -1    0    0    0  501  0.00000000000E+00  0.00000000000E+00 -0.27945987122E+03  0.27945987126E+03  0.50400001928E-02 0.  1.
    10030    2    1    2    0    0  0.00000000000E+00  0.00000000000E+00  0.44472007645E+03  0.10036398190E+04  0.89973159319E+03 0.  0.
        2    1    3    3  502    0  0.28935486658E+03 -0.20381402799E+03  0.53212212162E+03  0.63907773326E+03  0.25500000920E-02 0. -1.
       -2    1    3    3    0  502 -0.28935486658E+03  0.20381402799E+03 -0.87402045172E+02  0.36456208569E+03  0.25500000920E-02 0.  1.
</event>
<event>
 5   0  0.2130975E-03  0.9015242E+03  0.7818609E-02  0.9423678E-01
       -1   -1    0    0    0  501  0.00000000000E+00  0.00000000000E+00  0.24949674472E+03  0.24949674477E+03  0.50400001928E-02 0.  1.
        1   -1    0    0  501    0  0.00000000000E+00  0.00000000000E+00 -0.81438530773E+03  0.81438530774E+03  0.50400001928E-02 0. -1.
    10030    2    1    2    0    0  0.00000000000E+00  0.00000000000E+00 -0.56488856300E+03  0.10638820525E+04  0.90152422766E+03 0.  0.
        5    1    3    3  502    0  0.17078857945E+03  0.38937106695E+03 -0.45900848022E+03  0.62569117108E+03  0.46999998093E+01 0. -1.
       -5    1    3    3    0  502 -0.17078857945E+03 -0.38937106695E+03 -0.10588008278E+03  0.43819088144E+03  0.46999998093E+01 0.  1.
</event>
<event>
 5   0  0.1436000E-03  0.8991146E+03  0.7818609E-02  0.9426689E-01
        3   -1    0    0  501    0  0.00000000000E+00  0.00000000000E+00  0.15098193617E+03  0.15098196995E+03  0.10100000352E+00 0. -1.
       -3   -1    0    0    0  501  0.00000000000E+00  0.00000000000E+00 -0.13385822121E+04  0.13385822159E+04  0.10100000352E+00 0.  1.
    10030    2    1    2    0    0  0.00000000000E+00  0.00000000000E+00 -0.11876002759E+04  0.14895641858E+04  0.89911459134E+03 0.  0.
        5    1    3    3  502    0 -0.86866344865E+02 -0.43668929946E+03 -0.69641356457E+03  0.82659376302E+03  0.46999998093E+01 0.  1.
       -5    1    3    3    0  502  0.86866344865E+02  0.43668929946E+03 -0.49118671131E+03  0.66297042279E+03  0.46999998093E+01 0. -1.
</event>
<event>
 5   0  0.2074970E-03  0.9066108E+03  0.7818609E-02  0.9417355E-01
        1   -1    0    0  501    0  0.00000000000E+00  0.00000000000E+00  0.91339381799E+03  0.91339381800E+03  0.50400001928E-02 0. -1.
       -1   -1    0    0    0  501  0.00000000000E+00  0.00000000000E+00 -0.22496954858E+03  0.22496954863E+03  0.50400001928E-02 0.  1.
    10030    2    1    2    0    0  0.00000000000E+00  0.00000000000E+00  0.68842426942E+03  0.11383633666E+04  0.90661082046E+03 0.  0.
        2    1    3    3  502    0  0.19181503787E+03  0.19753216073E+03 -0.10794166538E+03  0.29574206060E+03  0.25500000920E-02 0.  1.
       -2    1    3    3    0  502 -0.19181503787E+03 -0.19753216073E+03  0.79636593480E+03  0.84262130604E+03  0.25500000920E-02 0. -1.
</event>
<event>
 5   0  0.3685879E-03  0.8965586E+03  0.7818609E-02  0.9429894E-01
       -2   -1    0    0    0  501  0.00000000000E+00  0.00000000000E+00  0.20872268100E+03  0.20872268101E+03  0.25500000920E-02 0. -1.
        2   -1    0    0  501    0  0.00000000000E+00  0.00000000000E+00 -0.96278147086E+03  0.96278147086E+03  0.25500000920E-02 0.  1.
    10030    2    1    2    0    0  0.00000000000E+00  0.00000000000E+00 -0.75405878986E+03  0.11715041519E+04  0.89655859780E+03 0.  0.
        1    1    3    3  502    0 -0.25945798240E+03  0.11622716006E+03  0.75853280445E+02  0.29424635520E+03  0.50400001928E-02 0. -1.
       -1    1    3    3    0  502  0.25945798240E+03 -0.11622716006E+03 -0.82991207031E+03  0.87725779668E+03  0.50400001928E-02 0.  1.
</event>
<event>
 5   0  0.3685879E-03  0.9007596E+03  0.7818609E-02  0.9424632E-01
        2   -1    0    0  501    0  0.00000000000E+00  0.00000000000E+00  0.13669062654E+03  0.13669062657E+03  0.25500000920E-02 0. -1.
       -2   -1    0    0    0  501  0.00000000000E+00  0.00000000000E+00 -0.14839491872E+04  0.14839491872E+04  0.25500000920E-02 0.  1.
    10030    2    1    2    0    0  0.00000000000E+00  0.00000000000E+00 -0.13472585607E+04  0.16206398138E+04  0.90075955544E+03 0.  0.
        1    1    3    3  502    0  0.26720904787E+03 -0.32609971129E+03 -0.38858218150E+03  0.57335661571E+03  0.50400001928E-02 0. -1.
       -1    1    3    3    0  502 -0.26720904787E+03  0.32609971129E+03 -0.95867637918E+03  0.10472831981E+04  0.50400001928E-02 0.  1.
</event>
<event>
 5   0  0.3806019E-03  0.9006089E+03  0.7818609E-02  0.9424821E-01
        2   -1    0    0  501    0  0.00000000000E+00  0.00000000000E+00  0.17318947650E+04  0.17318947650E+04  0.25500000920E-02 0.  1.
       -2   -1    0    0    0  501  0.00000000000E+00  0.00000000000E+00 -0.11708222378E+03  0.11708222381E+03  0.25500000920E-02 0. -1.
    10030    2    1    2    0    0  0.00000000000E+00  0.00000000000E+00  0.16148125413E+04  0.18489769889E+04  0.90060888397E+03 0.  0.
        2    1    3    3  502    0  0.26976930303E+03  0.29374282111E+03  0.12366504397E+04  0.12993708600E+04  0.25500000920E-02 0.  1.
       -2    1    3    3    0  502 -0.26976930303E+03 -0.29374282111E+03  0.37816210158E+03  0.54960612887E+03  0.25500000920E-02 0. -1.
</event>
<event>
 5   0  0.2295158E-03  0.9006795E+03  0.7818609E-02  0.9424732E-01
       -1   -1    0    0    0  501  0.00000000000E+00  0.00000000000E+00  0.60175827161E+03  0.60175827163E+03  0.50400001928E-02 0.  1.
        1   -1    0    0  501    0  0.00000000000E+00  0.00000000000E+00 -0.33702219590E+03  0.33702219594E+03  0.50400001928E-02 0. -1.
    10030    2    1    2    0    0  0.00000000000E+00  0.00000000000E+00  0.26473607571E+03  0.93878046757E+03  0.90067950821E+03 0.  0.
        4    1    3    3  502    0  0.19189605869E+03 -0.40573473174E+03  0.17079934728E+03  0.48022786238E+03  0.12699999809E+01 0. -1.
       -4    1    3    3    0  502 -0.19189605869E+03  0.40573473174E+03  0.93936728431E+02  0.45855260519E+03  0.12699999809E+01 0.  1.
</event>
<event>
 5   0  0.2295158E-03  0.9012721E+03  0.7818609E-02  0.9423993E-01
        1   -1    0    0  501    0  0.00000000000E+00  0.00000000000E+00  0.28411508415E+03  0.28411508420E+03  0.50400001928E-02 0. -1.
       -1   -1    0    0    0  501  0.00000000000E+00  0.00000000000E+00 -0.71475558077E+03  0.71475558079E+03  0.50400001928E-02 0.  1.
    10030    2    1    2    0    0  0.00000000000E+00  0.00000000000E+00 -0.43064049662E+03  0.99887066499E+03  0.90127208325E+03 0.  0.
        4    1    3    3  502    0  0.30328407280E+03  0.15726867534E+03  0.11036719654E+03  0.35902255643E+03  0.12699999809E+01 0. -1.
       -4    1    3    3    0  502 -0.30328407280E+03 -0.15726867534E+03 -0.54100769317E+03  0.63984810855E+03  0.12699999809E+01 0.  1.
</event>
<event>
 5   0  0.2134145E-03  0.9010589E+03  0.7818609E-02  0.9424259E-01
        1   -1    0    0  501    0  0.00000000000E+00  0.00000000000E+00  0.34588489558E+03  0.34588489561E+03  0.50400001928E-02 0. -1.
       -1   -1    0    0    0  501  0.00000000000E+00  0.00000000000E+00 -0.58683329242E+03  0.58683329244E+03  0.50400001928E-02 0.  1.
    10030    2    1    2    0    0  0.00000000000E+00  0.00000000000E+00 -0.24094839684E+03  0.93271818805E+03  0.90105887066E+03 0.  0.
        1    1    3    3  502    0 -0.32934009768E+03 -0.20476316789E+03  0.11689466311E+03  0.40503977231E+03  0.50400001928E-02 0.  1.
       -1    1    3    3    0  502  0.32934009768E+03  0.20476316789E+03 -0.35784305995E+03  0.52767841574E+03  0.50400001928E-02 0. -1.
</event>
<event>
 5   0  0.2074970E-03  0.8892975E+03  0.7818609E-02  0.9439060E-01
        1   -1    0    0  501    0  0.00000000000E+00  0.00000000000E+00  0.16525820986E+04  0.16525820986E+04  0.50400001928E-02 0.  1.
       -1   -1    0    0    0  501  0.00000000000E+00  0.00000000000E+00 -0.11963854797E+03  0.11963854807E+03  0.50400001928E-02 0. -1.
    10030    2    1    2    0    0  0.00000000000E+00  0.00000000000E+00  0.15329435507E+04  0.17722206467E+04  0.88929752676E+03 0.  0.
        2    1    3    3  502    0 -0.24033006438E+03  0.28334297583E+03  0.12532727317E+04  0.13071856493E+04  0.25500000920E-02 0.  1.
       -2    1    3    3    0  502  0.24033006438E+03 -0.28334297583E+03  0.27967081897E+03  0.46503499738E+03  0.25500000920E-02 0. -1.
</event>
<event>
 5   0  0.2074970E-03  0.8933999E+03  0.7818609E-02  0.9433870E-01
        1   -1    0    0  501    0  0.00000000000E+00  0.00000000000E+00  0.75424788815E+03  0.75424788817E+03  0.50400001928E-02 0.  1.
       -1   -1    0    0    0  501  0.00000000000E+00  0.00000000000E+00 -0.26455602994E+03  0.26455602999E+03  0.50400001928E-02 0. -1.
    10030    2    1    2    0    0  0.00000000000E+00  0.00000000000E+00  0.48969185821E+03  0.10188039182E+04  0.89339985877E+03 0.  0.
        2    1    3    3  502    0 -0.40329263090E+03 -0.14541184953E+03  0.10172518651E+03  0.44061044665E+03  0.25500000920E-02 0. -1.
       -2    1    3    3    0  502  0.40329263090E+03  0.14541184953E+03  0.38796667171E+03  0.57819347150E+03  0.25500000920E-02 0.  1.
</event>
<event>
 5   0  0.3626546E-03  0.9010864E+03  0.7818609E-02  0.9424224E-01
       -2   -1    0    0    0  501  0.00000000000E+00  0.00000000000E+00  0.57313390908E+03  0.57313390908E+03  0.25500000920E-02 0.  1.
        2   -1    0    0  501    0  0.00000000000E+00  0.00000000000E+00 -0.35417408621E+03  0.35417408622E+03  0.25500000920E-02 0. -1.
    10030    2    1    2    0    0  0.00000000000E+00  0.00000000000E+00  0.21895982287E+03  0.92730799530E+03  0.90108640769E+03 0.  0.
        3    1    3    3  502    0 -0.15769964912E+03 -0.24425086992E+03  0.46367797474E+03  0.54728871836E+03  0.10100000352E+00 0.  1.
       -3    1    3    3    0  502  0.15769964912E+03  0.24425086992E+03 -0.24471815187E+03  0.38001927694E+03  0.10100000352E+00 0. -1.
</event>
<event>
 5   0  0.3685879E-03  0.9059616E+03  0.7818609E-02  0.9418160E-01
       -2   -1    0    0    0  501  0.00000000000E+00  0.00000000000E+00  0.24066893515E+03  0.24066893516E+03  0.25500000920E-02 0.  1.
        2   -1    0    0  501    0  0.00000000000E+00  0.00000000000E+00 -0.85258860193E+03  0.85258860193E+03  0.25500000920E-02 0. -1.
    10030    2    1    2    0    0  0.00000000000E+00  0.00000000000E+00 -0.61191966678E+03  0.10932575371E+04  0.90596156863E+03 0.  0.
        1    1    3    3  502    0  0.40804076615E+03 -0.14806386302E+03 -0.46223773744E+03  0.63410085973E+03  0.50400001928E-02 0. -1.
       -1    1    3    3    0  502 -0.40804076615E+03  0.14806386302E+03 -0.14968192934E+03  0.45915667737E+03  0.50400001928E-02 0.  1.
</event>
<event>
 5   0  0.3626546E-03  0.9023851E+03  0.7818609E-02  0.9422605E-01
       -2   -1    0    0    0  501  0.00000000000E+00  0.00000000000E+00  0.20209582835E+03  0.20209582837E+03  0.25500000920E-02 0.  1.
        2   -1    0    0  501    0  0.00000000000E+00  0.00000000000E+00 -0.10073176569E+04  0.10073176569E+04  0.25500000920E-02 0. -1.
    10030    2    1    2    0    0  0.00000000000E+00  0.00000000000E+00 -0.80522182852E+03  0.12094134852E+04  0.90238505372E+03 0.  0.
        3    1    3    3  502    0 -0.14201951327E+03  0.11120958821E+03 -0.95689023237E+03  0.97374331405E+03  0.10100000352E+00 0. -1.
       -3    1    3    3    0  502  0.14201951327E+03 -0.11120958821E+03  0.15166840385E+03  0.23567017119E+03  0.10100000352E+00 0.  1.
</event>
<event>
 5   0  0.2134145E-03  0.8937154E+03  0.7818609E-02  0.9433472E-01
        1   -1    0    0  501    0  0.00000000000E+00  0.00000000000E+00  0.66715805172E+03  0.66715805174E+03  0.50400001928E-02 0. -1.
       -1   -1    0    0    0  501  0.00000000000E+00  0.00000000000E+00 -0.29930207307E+03  0.29930207312E+03  0.50400001928E-02 0.  1.
    10030    2    1    2    0    0  0.00000000000E+00  0.00000000000E+00  0.36785597864E+03  0.96646012485E+03  0.89371536403E+03 0.  0.
        1    1    3    3  502    0  0.14550317967E+03 -0.42015774780E+03  0.13583225057E+03  0.46492376650E+03  0.50400001928E-02 0.  1.
       -1    1    3    3    0  502 -0.14550317967E+03  0.42015774780E+03  0.23202372807E+03  0.50153635835E+03  0.50400001928E-02 0. -1.
</event>
<event>
 5   0  0.3806019E-03  0.8972839E+03  0.7818609E-02  0.9428983E-01
        2   -1    0    0  501    0  0.00000000000E+00  0.00000000000E+00  0.14570461561E+04  0.14570461561E+04  0.25500000920E-02 0. -1.
       -2   -1    0    0    0  501  0.00000000000E+00  0.00000000000E+00 -0.13814221806E+03  0.13814221809E+03  0.25500000920E-02 0.  1.
    10030    2    1    2    0    0  0.00000000000E+00  0.00000000000E+00  0.13189039381E+04  0.15951883742E+04  0.89728387447E+03 0.  0.
        2    1    3    3  502    0 -0.35890648511E+03 -0.16911987211E+03  0.10317898117E+04  0.11054436266E+04  0.25500000920E-02 0. -1.
       -2    1    3    3    0  502  0.35890648511E+03  0.16911987211E+03  0.28711412638E+03  0.48974474757E+03  0.25500000920E-02 0.  1.
</event>
<event>
 5   0  0.3806019E-03  0.8994840E+03  0.7818609E-02  0.9426227E-01
       -2   -1    0    0    0  501  0.00000000000E+00  0.00000000000E+00  0.66705459103E+03  0.66705459104E+03  0.25500000920E-02 0.  1.
        2   -1    0    0  501    0  0.00000000000E+00  0.00000000000E+00 -0.30322535341E+03  0.30322535342E+03  0.25500000920E-02 0. -1.
    10030    2    1    2    0    0  0.00000000000E+00  0.00000000000E+00  0.36382923762E+03  0.97027994446E+03  0.89948399457E+03 0.  0.
        2    1    3    3  502    0 -0.40854252592E+03 -0.10125412796E+03  0.10986410132E+02  0.42104642871E+03  0.25500000920E-02 0. -1.
       -2    1    3    3    0  502  0.40854252592E+03  0.10125412796E+03  0.35284282749E+03  0.54923351576E+03  0.25500000920E-02 0.  1.
</event>
<event>
 5   0  0.2295158E-03  0.8938019E+03  0.7818609E-02  0.9433363E-01
        1   -1    0    0  501    0  0.00000000000E+00  0.00000000000E+00  0.41547158114E+03  0.41547158117E+03  0.50400001928E-02 0. -1.
       -1   -1    0    0    0  501  0.00000000000E+00  0.00000000000E+00 -0.48070783781E+03  0.48070783783E+03  0.50400001928E-02 0.  1.
    10030    2    1    2    0    0  0.00000000000E+00  0.00000000000E+00 -0.65236256665E+02  0.89617941901E+03  0.89380186947E+03 0.  0.
        4    1    3    3  502    0 -0.30599546796E+02  0.26254329922E+03  0.32869235655E+03  0.42178856597E+03  0.12699999809E+01 0. -1.
       -4    1    3    3    0  502  0.30599546796E+02 -0.26254329922E+03 -0.39392861322E+03  0.47439085303E+03  0.12699999809E+01 0.  1.
</event>
<event>
 5   0  0.2074970E-03  0.9620491E+03  0.7818609E-02  0.9351177E-01
        1   -1    0    0  501    0  0.00000000000E+00  0.00000000000E+00  0.56315624044E+03  0.56315624046E+03  0.50400001928E-02 0. -1.
       -1   -1    0    0    0  501  0.00000000000E+00  0.00000000000E+00 -0.41087108431E+03  0.41087108434E+03  0.50400001928E-02 0.  1.
    10030    2    1    2    0    0  0.00000000000E+00  0.00000000000E+00  0.15228515612E+03  0.97402732480E+03  0.96204909474E+03 0.  0.
        2    1    3    3  502    0  0.10625150427E+03  0.41955908572E+03 -0.13638867172E+03  0.45378527781E+03  0.25500000920E-02 0.  1.
       -2    1    3    3    0  502 -0.10625150427E+03 -0.41955908572E+03  0.28867382785E+03  0.52024204700E+03  0.25500000920E-02 0. -1.
</event>
<event>
 5   0  0.2130975E-03  0.9025552E+03  0.7818609E-02  0.9422393E-01
        1   -1    0    0  501    0  0.00000000000E+00  0.00000000000E+00  0.10909846364E+04  0.10909846364E+04  0.50400001928E-02 0. -1.
       -1   -1    0    0    0  501  0.00000000000E+00  0.00000000000E+00 -0.18666758363E+03  0.18666758370E+03  0.50400001928E-02 0.  1.
    10030    2    1    2    0    0  0.00000000000E+00  0.00000000000E+00  0.90431705274E+03  0.12776522201E+04  0.90255518591E+03 0.  0.
        5    1    3    3  502    0  0.86747466643E+02  0.72751272141E+02  0.10705182108E+04  0.10764985835E+04  0.46999998093E+01 0. -1.
       -5    1    3    3    0  502 -0.86747466643E+02 -0.72751272141E+02 -0.16620115808E+03  0.20115363659E+03  0.46999998093E+01 0.  1.
</event>
<event>
 5   0  0.3663255E-03  0.9015144E+03  0.7818609E-02  0.9423690E-01
        2   -1    0    0  501    0  0.00000000000E+00  0.00000000000E+00  0.79434204007E+03  0.79434204008E+03  0.25500000920E-02 0.  1.
       -2   -1    0    0    0  501  0.00000000000E+00  0.00000000000E+00 -0.25578662909E+03  0.25578662910E+03  0.25500000920E-02 0. -1.
    10030    2    1    2    0    0  0.00000000000E+00  0.00000000000E+00  0.53855541099E+03  0.10501286692E+04  0.90151444311E+03 0.  0.
        4    1    3    3  502    0 -0.97483800074E+02 -0.20708403824E+03 -0.18305838215E+03  0.29308509744E+03  0.12699999809E+01 0. -1.
       -4    1    3    3    0  502  0.97483800074E+02  0.20708403824E+03  0.72161379313E+03  0.75704357174E+03  0.12699999809E+01 0.  1.
</event>
<event>
 5   0  0.2130975E-03  0.8989750E+03  0.7818609E-02  0.9426864E-01
        1   -1    0    0  501    0  0.00000000000E+00  0.00000000000E+00  0.55672690384E+03  0.55672690386E+03  0.50400001928E-02 0. -1.
       -1   -1    0    0    0  501  0.00000000000E+00  0.00000000000E+00 -0.36290509486E+03  0.36290509490E+03  0.50400001928E-02 0.  1.
    10030    2    1    2    0    0  0.00000000000E+00  0.00000000000E+00  0.19382180898E+03  0.91963199876E+03  0.89897503831E+03 0.  0.
        5    1    3    3  502    0 -0.98800566445E+02  0.24885493957E+03  0.46621403207E+03  0.53765039438E+03  0.46999998093E+01 0. -1.
       -5    1    3    3    0  502  0.98800566445E+02 -0.24885493957E+03 -0.27239222310E+03  0.38198160438E+03  0.46999998093E+01 0.  1.
</event>
<event>
 5   0  0.3626546E-03  0.9001026E+03  0.7818609E-02  0.9425453E-01
        2   -1    0    0  501    0  0.00000000000E+00  0.00000000000E+00  0.56959660946E+03  0.56959660947E+03  0.25500000920E-02 0.  1.
       -2   -1    0    0    0  501  0.00000000000E+00  0.00000000000E+00 -0.35559580316E+03  0.35559580317E+03  0.25500000920E-02 0. -1.
    10030    2    1    2    0    0  0.00000000000E+00  0.00000000000E+00  0.21400080630E+03  0.92519241263E+03  0.90010258043E+03 0.  0.
        3    1    3    3  502    0 -0.18956951752E+03  0.32102626858E+03  0.36612199080E+03  0.52253209417E+03  0.10100000352E+00 0.  1.
       -3    1    3    3    0  502  0.18956951752E+03 -0.32102626858E+03 -0.15212118450E+03  0.40266031846E+03  0.10100000352E+00 0. -1.
</event>
<event>
 5   0  0.2130975E-03  0.8957667E+03  0.7818609E-02  0.9430889E-01
        1   -1    0    0  501    0  0.00000000000E+00  0.00000000000E+00  0.60263718145E+03  0.60263718148E+03  0.50400001928E-02 0.  1.
       -1   -1    0    0    0  501  0.00000000000E+00  0.00000000000E+00 -0.33286941362E+03  0.33286941365E+03  0.50400001928E-02 0. -1.
    10030    2    1    2    0    0  0.00000000000E+00  0.00000000000E+00  0.26976776784E+03  0.93550659513E+03  0.89576667775E+03 0.  0.
        5    1    3    3  502    0 -0.40092016911E+03  0.15930295947E+03  0.92864261763E+01  0.43153533181E+03  0.46999998093E+01 0. -1.
       -5    1    3    3    0  502  0.40092016911E+03 -0.15930295947E+03  0.26048134166E+03  0.50397126331E+03  0.46999998093E+01 0.  1.
</event>
<event>
 5   0  0.2129280E-03  0.9297074E+03  0.7818609E-02  0.9389189E-01
       -1   -1    0    0    0  501  0.00000000000E+00  0.00000000000E+00  0.57702746211E+03  0.57702746214E+03  0.50400001928E-02 0. -1.
        1   -1    0    0  501    0  0.00000000000E+00  0.00000000000E+00 -0.37448643015E+03  0.37448643018E+03  0.50400001928E-02 0.  1.
    10030    2    1    2    0    0  0.00000000000E+00  0.00000000000E+00  0.20254103196E+03  0.95151389232E+03  0.92970738281E+03 0.  0.
        3    1    3    3  502    0 -0.13014905261E+03 -0.43740410304E+03  0.10720352217E+02  0.45648226845E+03  0.10100000352E+00 0.  1.
       -3    1    3    3    0  502  0.13014905261E+03  0.43740410304E+03  0.19182067975E+03  0.49503162387E+03  0.10100000352E+00 0. -1.
</event>
<event>
 5   0  0.2129280E-03  0.8909426E+03  0.7818609E-02  0.9436975E-01
       -1   -1    0    0    0  501  0.00000000000E+00  0.00000000000E+00  0.24478566501E+03  0.24478566506E+03  0.50400001928E-02 0. -1.
        1   -1    0    0  501    0  0.00000000000E+00  0.00000000000E+00 -0.81068752438E+03  0.81068752440E+03  0.50400001928E-02 0.  1.
    10030    2    1    2    0    0  0.00000000000E+00  0.00000000000E+00 -0.56590185937E+03  0.10554731895E+04  0.89094261276E+03 0.  0.
        3    1    3    3  502    0  0.16542456593E+02  0.16604828752E+03 -0.77226274203E+03  0.79008571660E+03  0.10100000352E+00 0.  1.
       -3    1    3    3    0  502 -0.16542456593E+02 -0.16604828752E+03  0.20636088265E+03  0.26538747286E+03  0.10100000352E+00 0. -1.
</event>
<event>
 5   0  0.2130975E-03  0.8999209E+03  0.7818609E-02  0.9425680E-01
        1   -1    0    0  501    0  0.00000000000E+00  0.00000000000E+00  0.10921289978E+04  0.10921289978E+04  0.50400001928E-02 0.  1.
       -1   -1    0    0    0  501  0.00000000000E+00  0.00000000000E+00 -0.18538506401E+03  0.18538506408E+03  0.50400001928E-02 0. -1.
    10030    2    1    2    0    0  0.00000000000E+00  0.00000000000E+00  0.90674393374E+03  0.12775140618E+04  0.89992089477E+03 0.  0.
        5    1    3    3  502    0 -0.32772584204E+03 -0.47079924175E+02  0.20872274883E+02  0.33178078404E+03  0.46999998093E+01 0. -1.
       -5    1    3    3    0  502  0.32772584204E+03  0.47079924175E+02  0.88587165886E+03  0.94573327781E+03  0.46999998093E+01 0.  1.
</event>
<event>
 5   0  0.3663255E-03  0.9109639E+03  0.7818609E-02  0.9411979E-01
       -2   -1    0    0    0  501  0.00000000000E+00  0.00000000000E+00  0.43930831615E+03  0.43930831616E+03  0.25500000920E-02 0. -1.
        2   -1    0    0  501    0  0.00000000000E+00  0.00000000000E+00 -0.47225102351E+03  0.47225102352E+03  0.25500000920E-02 0.  1.
    10030    2    1    2    0    0  0.00000000000E+00  0.00000000000E+00 -0.32942707365E+02  0.91155933968E+03  0.91096388939E+03 0.  0.
        4    1    3    3  502    0 -0.36797658604E+03 -0.16236818419E+03 -0.23036793260E+03  0.46350964648E+03  0.12699999809E+01 0.  1.
       -4    1    3    3    0  502  0.36797658604E+03  0.16236818419E+03  0.19742522524E+03  0.44804969319E+03  0.12699999809E+01 0. -1.
</event>
<event>
 5   0  0.3626546E-03  0.9024050E+03  0.7818609E-02  0.9422580E-01
        2   -1    0    0  501    0  0.00000000000E+00  0.00000000000E+00  0.10042876735E+04  0.10042876735E+04  0.25500000920E-02 0. -1.
       -2   -1    0    0    0  501  0.00000000000E+00  0.00000000000E+00 -0.20271452166E+03  0.20271452168E+03  0.25500000920E-02 0.  1.
    10030    2    1    2    0    0  0.00000000000E+00  0.00000000000E+00  0.80157315187E+03  0.12070021952E+04  0.90240499857E+03 0.  0.
        3    1    3    3  502    0 -0.28148286279E+03 -0.28610300317E+03  0.67651490237E+03  0.78661296315E+03  0.10100000352E+00 0. -1.
       -3    1    3    3    0  502  0.28148286279E+03  0.28610300317E+03  0.12505824950E+03  0.42038923206E+03  0.10100000352E+00 0.  1.
</event>
<event>
 5   0  0.3806019E-03  0.8997517E+03  0.7818609E-02  0.9425892E-01
       -2   -1    0    0    0  501  0.00000000000E+00  0.00000000000E+00  0.66228144167E+03  0.66228144168E+03  0.25500000920E-02 0.  1.
        2   -1    0    0  501    0  0.00000000000E+00  0.00000000000E+00 -0.30559257778E+03  0.30559257779E+03  0.25500000920E-02 0. -1.
    10030    2    1    2    0    0  0.00000000000E+00  0.00000000000E+00  0.35668886389E+03  0.96787401947E+03  0.89975172795E+03 0.  0.
        2    1    3    3  502    0 -0.50304698717E+02 -0.16491971666E+03  0.62532745340E+03  0.64866285514E+03  0.25500000920E-02 0.  1.
       -2    1    3    3    0  502  0.50304698717E+02  0.16491971666E+03 -0.26863858951E+03  0.31921116433E+03  0.25500000920E-02 0. -1.
</event>
<event>
 5   0  0.3685879E-03  0.8997718E+03  0.7818609E-02  0.9425867E-01
        2   -1    0    0  501    0  0.00000000000E+00  0.00000000000E+00  0.13556992869E+04  0.13556992869E+04  0.25500000920E-02 0.  1.
       -2   -1    0    0    0  501  0.00000000000E+00  0.00000000000E+00 -0.14929366249E+03  0.14929366251E+03  0.25500000920E-02 0. -1.
    10030    2    1    2    0    0  0.00000000000E+00  0.00000000000E+00  0.12064056245E+04  0.15049929494E+04  0.89977177505E+03 0.  0.
        1    1    3    3  502    0  0.37361655930E+03 -0.16786866878E+03  0.91445782797E+03  0.10019991729E+04  0.50400001928E-02 0.  1.
       -1    1    3    3    0  502 -0.37361655930E+03  0.16786866878E+03  0.29194779648E+03  0.50299377654E+03  0.50400001928E-02 0. -1.
</event>
<event>
 5   0  0.3815269E-03  0.9053115E+03  0.7818609E-02  0.9418966E-01
       -2   -1    0    0    0  501  0.00000000000E+00  0.00000000000E+00  0.14531465731E+03  0.14531465733E+03  0.25500000920E-02 0.  1.
        2   -1    0    0  501    0  0.00000000000E+00  0.00000000000E+00 -0.14100246099E+04  0.14100246099E+04  0.25500000920E-02 0. -1.
    10030    2    1    2    0    0  0.00000000000E+00  0.00000000000E+00 -0.12647099526E+04  0.15553392672E+04  0.90531153312E+03 0.  0.
        5    1    3    3  502    0 -0.33101166085E+03 -0.18052899164E+03 -0.10625994274E+04  0.11275189886E+04  0.46999998093E+01 0.  1.
       -5    1    3    3    0  502  0.33101166085E+03  0.18052899164E+03 -0.20211052516E+03  0.42782027864E+03  0.46999998093E+01 0. -1.
</event>
<event>
 5   0  0.3626546E-03  0.9009284E+03  0.7818609E-02  0.9424422E-01
       -2   -1    0    0    0  501  0.00000000000E+00  0.00000000000E+00  0.36740461425E+03  0.36740461426E+03  0.25500000920E-02 0. -1.
        2   -1    0    0  501    0  0.00000000000E+00  0.00000000000E+00 -0.55230116021E+03  0.55230116022E+03  0.25500000920E-02 0.  1.
    10030    2    1    2    0    0  0.00000000000E+00  0.00000000000E+00 -0.18489654596E+03  0.91970577447E+03  0.90092839831E+03 0.  0.
        3    1    3    3  502    0  0.13954117323E+03 -0.10191378201E+03 -0.51712334459E+03  0.54522905435E+03  0.10100000352E+00 0.  1.
       -3    1    3    3    0  502 -0.13954117323E+03  0.10191378201E+03  0.33222679862E+03  0.37447672012E+03  0.10100000352E+00 0. -1.
</event>
<event>
 5   0  0.2134145E-03  0.9008042E+03  0.7818609E-02  0.9424577E-01
       -1   -1    0    0    0  501  0.00000000000E+00  0.00000000000E+00  0.18998498863E+03  0.18998498870E+03  0.50400001928E-02 0.  1.
        1   -1    0    0  501    0  0.00000000000E+00  0.00000000000E+00 -0.10677793242E+04  0.10677793242E+04  0.50400001928E-02 0. -1.
    10030    2    1    2    0    0  0.00000000000E+00  0.00000000000E+00 -0.87779433555E+03  0.12577643129E+04  0.90080418031E+03 0.  0.
        1    1    3    3  502    0 -0.86556704313E+01 -0.44008178648E+03 -0.30559088232E+03  0.53584763394E+03  0.50400001928E-02 0.  1.
       -1    1    3    3    0  502  0.86556704313E+01  0.44008178648E+03 -0.57220345324E+03  0.72191667895E+03  0.50400001928E-02 0. -1.
</event>
<event>
 5   0  0.2129280E-03  0.9028753E+03  0.7818609E-02  0.9421994E-01
        1   -1    0    0  501    0  0.00000000000E+00  0.00000000000E+00  0.10205384489E+04  0.10205384490E+04  0.50400001928E-02 0.  1.
       -1   -1    0    0    0  501  0.00000000000E+00  0.00000000000E+00 -0.19969455713E+03  0.19969455720E+03  0.50400001928E-02 0. -1.
    10030    2    1    2    0    0  0.00000000000E+00  0.00000000000E+00  0.82084389182E+03  0.12202330062E+04  0.90287534831E+03 0.  0.
        3    1    3    3  502    0 -0.41103053616E+03 -0.45620879461E+02  0.65507120073E+03  0.77469068313E+03  0.10100000352E+00 0.  1.
       -3    1    3    3    0  502  0.41103053616E+03  0.45620879461E+02  0.16577269109E+03  0.44554232303E+03  0.10100000352E+00 0. -1.
</event>
<event>
 5   0  0.2130975E-03  0.8997962E+03  0.7818609E-02  0.9425836E-01
       -1   -1    0    0    0  501  0.00000000000E+00  0.00000000000E+00  0.96454555645E+03  0.96454555647E+03  0.50400001928E-02 0. -1.
        1   -1    0    0  501    0  0.00000000000E+00  0.00000000000E+00 -0.20984837719E+03  0.20984837725E+03  0.50400001928E-02 0.  1.
    10030    2    1    2    0    0  0.00000000000E+00  0.00000000000E+00  0.75469717926E+03  0.11743939337E+04  0.89979624314E+03 0.  0.
        5    1    3    3  502    0  0.28587305570E+03 -0.14579982449E+02 -0.75625620575E+02  0.29610353653E+03  0.46999998093E+01 0.  1.
       -5    1    3    3    0  502 -0.28587305570E+03  0.14579982449E+02  0.83032279984E+03  0.87829039719E+03  0.46999998093E+01 0. -1.
</event>
<event>
 5   0  0.2129280E-03  0.9041407E+03  0.7818609E-02  0.9420420E-01
       -1   -1    0    0    0  501  0.00000000000E+00  0.00000000000E+00  0.80166342452E+02  0.80166342611E+02  0.50400001928E-02 0. -1.
        1   -1    0    0  501    0  0.00000000000E+00  0.00000000000E+00 -0.25492941919E+04  0.25492941919E+04  0.50400001928E-02 0.  1.
    10030    2    1    2    0    0  0.00000000000E+00  0.00000000000E+00 -0.24691278495E+04  0.26294605345E+04  0.90414067803E+03 0.  0.
        3    1    3    3  502    0  0.36393476517E+03  0.23908782607E+03 -0.88128629429E+03  0.98299391889E+03  0.10100000352E+00 0. -1.
       -3    1    3    3    0  502 -0.36393476517E+03 -0.23908782607E+03 -0.15878415552E+04  0.16464666156E+04  0.10100000352E+00 0.  1.
</event>
<event>
 5   0  0.3806019E-03  0.9039572E+03  0.7818609E-02  0.9420648E-01
       -2   -1    0    0    0  501  0.00000000000E+00  0.00000000000E+00  0.40165478943E+03  0.40165478944E+03  0.25500000920E-02 0. -1.
        2   -1    0    0  501    0  0.00000000000E+00  0.00000000000E+00 -0.50860753386E+03  0.50860753386E+03  0.25500000920E-02 0.  1.
    10030    2    1    2    0    0  0.00000000000E+00  0.00000000000E+00 -0.10695274443E+03  0.91026232330E+03  0.90395719350E+03 0.  0.
        2    1    3    3  502    0 -0.25223747303E+02 -0.41096797969E+03 -0.24120021656E+03  0.47718807847E+03  0.25500000920E-02 0.  1.
       -2    1    3    3    0  502  0.25223747303E+02  0.41096797969E+03  0.13424747214E+03  0.43307424483E+03  0.25500000920E-02 0. -1.
</event>
<event>
 5   0  0.3626546E-03  0.8999702E+03  0.7818609E-02  0.9425619E-01
        2   -1    0    0  501    0  0.00000000000E+00  0.00000000000E+00  0.28524025567E+03  0.28524025568E+03  0.25500000920E-02 0. -1.
       -2   -1    0    0    0  501  0.00000000000E+00  0.00000000000E+00 -0.70988088789E+03  0.70988088790E+03  0.25500000920E-02 0.  1.
    10030    2    1    2    0    0  0.00000000000E+00  0.00000000000E+00 -0.42464063222E+03  0.99512114358E+03  0.89997023499E+03 0.  0.
        3    1    3    3  502    0 -0.20599786357E+03 -0.39593586938E+03 -0.14893349288E+03  0.47051198493E+03  0.10100000352E+00 0.  1.
       -3    1    3    3    0  502  0.20599786357E+03  0.39593586938E+03 -0.27570713934E+03  0.52460915865E+03  0.10100000352E+00 0. -1.
</event>
<event>
 5   0  0.2129280E-03  0.9022185E+03  0.7818609E-02  0.9422812E-01
       -1   -1    0    0    0  501  0.00000000000E+00  0.00000000000E+00  0.22233481002E+03  0.22233481008E+03  0.50400001928E-02 0. -1.
        1   -1    0    0  501    0  0.00000000000E+00  0.00000000000E+00 -0.91528425366E+03  0.91528425368E+03  0.50400001928E-02 0.  1.
    10030    2    1    2    0    0  0.00000000000E+00  0.00000000000E+00 -0.69294944364E+03  0.11376190638E+04  0.90221848948E+03 0.  0.
        3    1    3    3  502    0 -0.94498528162E+02  0.27755434589E+03  0.85805467497E+02  0.30549791357E+03  0.10100000352E+00 0. -1.
       -3    1    3    3    0  502  0.94498528162E+02 -0.27755434589E+03 -0.77875491114E+03  0.83212115018E+03  0.10100000352E+00 0.  1.
</event>
<event>
 5   0  0.2074970E-03  0.8832985E+03  0.7818609E-02  0.9446703E-01
       -1   -1    0    0    0  501  0.00000000000E+00  0.00000000000E+00  0.70095279832E+03  0.70095279834E+03  0.50400001928E-02 0. -1.
        1   -1    0    0  501    0  0.00000000000E+00  0.00000000000E+00 -0.27826989294E+03  0.27826989299E+03  0.50400001928E-02 0.  1.
    10030    2    1    2    0    0  0.00000000000E+00  0.00000000000E+00  0.42268290538E+03  0.97922269133E+03  0.88329850035E+03 0.  0.
        2    1    3    3  502    0  0.20710707545E+03 -0.12840465364E+03 -0.19699733283E+03  0.31335131231E+03  0.25500000920E-02 0.  1.
       -2    1    3    3    0  502 -0.20710707545E+03  0.12840465364E+03  0.61968023820E+03  0.66587137902E+03  0.25500000920E-02 0. -1.
</event>
<event>
 5   0  0.3806019E-03  0.8996796E+03  0.7818609E-02  0.9425982E-01
        2   -1    0    0  501    0  0.00000000000E+00  0.00000000000E+00  0.10548395527E+04  0.10548395527E+04  0.25500000920E-02 0.  1.
       -2   -1    0    0    0  501  0.00000000000E+00  0.00000000000E+00 -0.19183567296E+03  0.19183567298E+03  0.25500000920E-02 0. -1.
    10030    2    1    2    0    0  0.00000000000E+00  0.00000000000E+00  0.86300387970E+03  0.12466752256E+04  0.89967962179E+03 0.  0.
        2    1    3    3  502    0  0.29572419094E+03  0.11089869167E+03 -0.12360842565E+02  0.31607611007E+03  0.25500000920E-02 0. -1.
       -2    1    3    3    0  502 -0.29572419094E+03 -0.11089869167E+03  0.87536472227E+03  0.93059911558E+03  0.25500000920E-02 0.  1.
</event>
<event>
 5   0  0.2295158E-03  0.9029905E+03  0.7818609E-02  0.9421851E-01
        1   -1    0    0  501    0  0.00000000000E+00  0.00000000000E+00  0.88368886573E+03  0.88368886574E+03  0.50400001928E-02 0.  1.
       -1   -1    0    0    0  501  0.00000000000E+00  0.00000000000E+00 -0.23067844292E+03  0.23067844297E+03  0.50400001928E-02 0. -1.
    10030    2    1    2    0    0  0.00000000000E+00  0.00000000000E+00  0.65301042281E+03  0.11143673087E+04  0.90299052400E+03 0.  0.
        4    1    3    3  502    0 -0.19471614188E+03 -0.39508815023E+03  0.20410450324E+03  0.48545780816E+03  0.12699999809E+01 0. -1.
       -4    1    3    3    0  502  0.19471614188E+03  0.39508815023E+03  0.44890591957E+03  0.62890950055E+03  0.12699999809E+01 0.  1.
</event>
<event>
 5   0  0.1436000E-03  0.8977861E+03  0.7818609E-02  0.9428353E-01
        3   -1    0    0  501    0  0.00000000000E+00  0.00000000000E+00  0.57487409891E+03  0.57487410778E+03  0.10100000352E+00 0. -1.
       -3   -1    0    0    0  501  0.00000000000E+00  0.00000000000E+00 -0.35052012988E+03  0.35052014443E+03  0.10100000352E+00 0.  1.
    10030    2    1    2    0    0  0.00000000000E+00  0.00000000000E+00  0.22435396903E+03  0.92539425221E+03  0.89778606505E+03 0.  0.
        1    1    3    3  502    0  0.15079415248E+03 -0.96841838556E+02  0.53640067701E+03  0.56554655373E+03  0.50400001928E-02 0. -1.
       -1    1    3    3    0  502 -0.15079415248E+03  0.96841838556E+02 -0.31204670798E+03  0.35984769848E+03  0.50400001928E-02 0.  1.
</event>
<event>
 5   0  0.3685879E-03  0.9012818E+03  0.7818609E-02  0.9423981E-01
        2   -1    0    0  501    0  0.00000000000E+00  0.00000000000E+00  0.27388146038E+03  0.27388146039E+03  0.25500000920E-02 0.  1.
       -2   -1    0    0    0  501  0.00000000000E+00  0.00000000000E+00 -0.74147845948E+03  0.74147845949E+03  0.25500000920E-02 0. -1.
    10030    2    1    2    0    0  0.00000000000E+00  0.00000000000E+00 -0.46759699910E+03  0.10153599199E+04  0.90128176134E+03 0.  0.
        1    1    3    3  502    0 -0.14471258884E+03 -0.40781147522E+03 -0.92077239131E+02  0.44241400372E+03  0.50400001928E-02 0. -1.
       -1    1    3    3    0  502  0.14471258884E+03  0.40781147522E+03 -0.37551975997E+03  0.57294591616E+03  0.50400001928E-02 0.  1.
</event>
<event>
 5   0  0.2295158E-03  0.9021822E+03  0.7818609E-02  0.9422858E-01
        1   -1    0    0  501    0  0.00000000000E+00  0.00000000000E+00  0.18925389325E+04  0.18925389325E+04  0.50400001928E-02 0.  1.
       -1   -1    0    0    0  501  0.00000000000E+00  0.00000000000E+00 -0.10751861379E+03  0.10751861391E+03  0.50400001928E-02 0. -1.
    10030    2    1    2    0    0  0.00000000000E+00  0.00000000000E+00  0.17850203187E+04  0.20000575464E+04  0.90218216052E+03 0.  0.
        4    1    3    3  502    0 -0.40244118991E+03  0.20200391643E+03  0.83314592735E+03  0.94704711749E+03  0.12699999809E+01 0. -1.
       -4    1    3    3    0  502  0.40244118991E+03 -0.20200391643E+03  0.95187439135E+03  0.10530104289E+04  0.12699999809E+01 0.  1.
</event>
<event>
 5   0  0.2134145E-03  0.8998045E+03  0.7818609E-02  0.9425826E-01
        1   -1    0    0  501    0  0.00000000000E+00  0.00000000000E+00  0.57777197537E+03  0.57777197539E+03  0.50400001928E-02 0.  1.
       -1   -1    0    0    0  501  0.00000000000E+00  0.00000000000E+00 -0.35033204236E+03  0.35033204240E+03  0.50400001928E-02 0. -1.
    10030    2    1    2    0    0  0.00000000000E+00  0.00000000000E+00  0.22743993301E+03  0.92810401779E+03  0.89980450361E+03 0.  0.
        1    1    3    3  502    0  0.90291148549E+02  0.20996506501E+03 -0.28599110429E+03  0.36609934688E+03  0.50400001928E-02 0. -1.
       -1    1    3    3    0  502 -0.90291148549E+02 -0.20996506501E+03  0.51343103730E+03  0.56200467091E+03  0.50400001928E-02 0.  1.
</event>
<event>
 5   0  0.2074970E-03  0.8993295E+03  0.7818609E-02  0.9426420E-01
        1   -1    0    0  501    0  0.00000000000E+00  0.00000000000E+00  0.72972733975E+03  0.72972733977E+03  0.50400001928E-02 0. -1.
       -1   -1    0    0    0  501  0.00000000000E+00  0.00000000000E+00 -0.27708756481E+03  0.27708756486E+03  0.50400001928E-02 0.  1.
    10030    2    1    2    0    0  0.00000000000E+00  0.00000000000E+00  0.45263977494E+03  0.10068149046E+04  0.89932946484E+03 0.  0.
        2    1    3    3  502    0 -0.39671124009E+03  0.16629081693E+03  0.79642064990E+02  0.43746462980E+03  0.25500000920E-02 0. -1.
       -2    1    3    3    0  502  0.39671124009E+03 -0.16629081693E+03  0.37299770995E+03  0.56935027482E+03  0.25500000920E-02 0.  1.
</event>
<event>
 5   0  0.3685879E-03  0.8933345E+03  0.7818609E-02  0.9433952E-01
       -2   -1    0    0    0  501  0.00000000000E+00  0.00000000000E+00  0.65810913551E+03  0.65810913552E+03  0.25500000920E-02 0. -1.
        2   -1    0    0  501    0  0.00000000000E+00  0.00000000000E+00 -0.30315889478E+03  0.30315889479E+03  0.25500000920E-02 0.  1.
    10030    2    1    2    0    0  0.00000000000E+00  0.00000000000E+00  0.35495024073E+03  0.96126803031E+03  0.89333451332E+03 0.  0.
        1    1    3    3  502    0 -0.39829322151E+03 -0.20073394977E+03  0.20339036630E+03  0.49020327419E+03  0.50400001928E-02 0.  1.
       -1    1    3    3    0  502  0.39829322151E+03  0.20073394977E+03  0.15155987444E+03  0.47106475612E+03  0.50400001928E-02 0. -1.
</event>
<event>
 5   0  0.3815269E-03  0.9004793E+03  0.7818609E-02  0.9424982E-01
       -2   -1    0    0    0  501  0.00000000000E+00  0.00000000000E+00  0.27222512620E+03  0.27222512621E+03  0.25500000920E-02 0.  1.
        2   -1    0    0  501    0  0.00000000000E+00  0.00000000000E+00 -0.74466212073E+03  0.74466212073E+03  0.25500000920E-02 0. -1.
    10030    2    1    2    0    0  0.00000000000E+00  0.00000000000E+00 -0.47243699453E+03  0.10168872469E+04  0.90047929415E+03 0.  0.
        5    1    3    3  502    0  0.73525113891E+02  0.25803877763E+03 -0.64448430114E+03  0.69812037469E+03  0.46999998093E+01 0. -1.
       -5    1    3    3    0  502 -0.73525113891E+02 -0.25803877763E+03  0.17204730661E+03  0.31876687225E+03  0.46999998093E+01 0.  1.
</event>
<event>
 5   0  0.2130975E-03  0.9008236E+03  0.7818609E-02  0.9424552E-01
       -1   -1    0    0    0  501  0.00000000000E+00  0.00000000000E+00  0.87531117408E+03  0.87531117410E+03  0.50400001928E-02 0. -1.
        1   -1    0    0  501    0  0.00000000000E+00  0.00000000000E+00 -0.23176992777E+03  0.23176992783E+03  0.50400001928E-02 0.  1.
    10030    2    1    2    0    0  0.00000000000E+00  0.00000000000E+00  0.64354124631E+03  0.11070811019E+04  0.90082364009E+03 0.  0.
        5    1    3    3  502    0  0.10463201506E+03  0.21913058241E+02  0.85946325651E+03  0.86609885116E+03  0.46999998093E+01 0. -1.
       -5    1    3    3    0  502 -0.10463201506E+03 -0.21913058241E+02 -0.21592201020E+03  0.24098225076E+03  0.46999998093E+01 0.  1.
</event>
<event>
 5   0  0.3663255E-03  0.8982187E+03  0.7818609E-02  0.9427811E-01
       -2   -1    0    0    0  501  0.00000000000E+00  0.00000000000E+00  0.68829461887E+03  0.68829461887E+03  0.25500000920E-02 0.  1.
        2   -1    0    0  501    0  0.00000000000E+00  0.00000000000E+00 -0.29304196529E+03  0.29304196530E+03  0.25500000920E-02 0. -1.
    10030    2    1    2    0    0  0.00000000000E+00  0.00000000000E+00  0.39525265357E+03  0.98133658418E+03  0.89821869903E+03 0.  0.
        4    1    3    3  502    0  0.25081233779E+03 -0.29046280689E+03 -0.57246561934E+02  0.38801321205E+03  0.12699999809E+01 0.  1.
       -4    1    3    3    0  502 -0.25081233779E+03  0.29046280689E+03  0.45249921551E+03  0.59332337212E+03  0.12699999809E+01 0. -1.
</event>
<event>
 5   0  0.2134145E-03  0.8927636E+03  0.7818609E-02  0.9434673E-01
       -1   -1    0    0    0  501  0.00000000000E+00  0.00000000000E+00  0.16614516486E+03  0.16614516494E+03  0.50400001928E-02 0.  1.
        1   -1    0    0  501    0  0.00000000000E+00  0.00000000000E+00 -0.11992927398E+04  0.11992927398E+04  0.50400001928E-02 0. -1.
    10030    2    1    2    0    0  0.00000000000E+00  0.00000000000E+00 -0.10331475749E+04  0.13654379047E+04  0.89276355219E+03 0.  0.
        1    1    3    3  502    0  0.20408061090E+03 -0.39649003567E+03 -0.54729427769E+03  0.70596336346E+03  0.50400001928E-02 0.  1.
       -1    1    3    3    0  502 -0.20408061090E+03  0.39649003567E+03 -0.48585329721E+03  0.65947454126E+03  0.50400001928E-02 0. -1.
</event>
<event>
 5   0  0.2130975E-03  0.8995487E+03  0.7818609E-02  0.9426146E-01
        1   -1    0    0  501    0  0.00000000000E+00  0.00000000000E+00  0.23403037147E+04  0.23403037147E+04  0.50400001928E-02 0. -1.
       -1   -1    0    0    0  501  0.00000000000E+00  0.00000000000E+00 -0.86440471790E+02  0.86440471937E+02  0.50400001928E-02 0.  1.
    10030    2    1    2    0    0  0.00000000000E+00  0.00000000000E+00  0.22538632429E+04  0.24267441867E+04  0.89954868110E+03 0.  0.
        5    1    3    3  502    0  0.31855921205E+03  0.25531093835E+03  0.16360195001E+04  0.16861926170E+04  0.46999998093E+01 0. -1.
       -5    1    3    3    0  502 -0.31855921205E+03 -0.25531093835E+03  0.61784374283E+03  0.74055156969E+03  0.46999998093E+01 0.  1.
</event>
<event>
 5   0  0.2074970E-03  0.8928089E+03  0.7818609E-02  0.9434616E-01
        1   -1    0    0  501    0  0.00000000000E+00  0.00000000000E+00  0.81865399206E+03  0.81865399208E+03  0.50400001928E-02 0.  1.
       -1   -1    0    0    0  501  0.00000000000E+00  0.00000000000E+00 -0.24342020694E+03  0.24342020700E+03  0.50400001928E-02 0. -1.
    10030    2    1    2    0    0  0.00000000000E+00  0.00000000000E+00  0.57523378512E+03  0.10620741991E+04  0.89280888033E+03 0.  0.
        2    1    3    3  502    0  0.13707688953E+03 -0.33726488445E+02 -0.21616933490E+03  0.25817964874E+03  0.25500000920E-02 0. -1.
       -2    1    3    3    0  502 -0.13707688953E+03  0.33726488445E+02  0.79140312002E+03  0.80389455033E+03  0.25500000920E-02 0.  1.
</event>
<event>
 5   0  0.2074970E-03  0.9017617E+03  0.7818609E-02  0.9423382E-01
       -1   -1    0    0    0  501  0.00000000000E+00  0.00000000000E+00  0.30266163601E+03  0.30266163605E+03  0.50400001928E-02 0. -1.
        1   -1    0    0  501    0  0.00000000000E+00  0.00000000000E+00 -0.67168582545E+03  0.67168582547E+03  0.50400001928E-02 0.  1.
    10030    2    1    2    0    0  0.00000000000E+00  0.00000000000E+00 -0.36902418944E+03  0.97434746152E+03  0.90176167770E+03 0.  0.
        2    1    3    3  502    0  0.15710486373E+03  0.16138699430E+03  0.23752509450E+03  0.32733143854E+03  0.25500000920E-02 0. -1.
       -2    1    3    3    0  502 -0.15710486373E+03 -0.16138699430E+03 -0.60654928394E+03  0.64701602298E+03  0.25500000920E-02 0.  1.
</event>
<event>
 5   0  0.2130975E-03  0.8991752E+03  0.7818609E-02  0.9426613E-01
        1   -1    0    0  501    0  0.00000000000E+00  0.00000000000E+00  0.73054353132E+03  0.73054353133E+03  0.50400001928E-02 0. -1.
       -1   -1    0    0    0  501  0.00000000000E+00  0.00000000000E+00 -0.27668305391E+03  0.27668305395E+03  0.50400001928E-02 0.  1.
    10030    2    1    2    0    0  0.00000000000E+00  0.00000000000E+00  0.45386047741E+03  0.10072265853E+04  0.89917521160E+03 0.  0.
        5    1    3    3  502    0 -0.39679638944E+03  0.71302036397E+02  0.40885478924E+01  0.40319990239E+03  0.46999998093E+01 0.  1.
       -5    1    3    3    0  502  0.39679638944E+03 -0.71302036397E+02  0.44977192952E+03  0.60402668289E+03  0.46999998093E+01 0. -1.
</event>
<event>
 5   0  0.2130975E-03  0.8971211E+03  0.7818609E-02  0.9429187E-01
       -1   -1    0    0    0  501  0.00000000000E+00  0.00000000000E+00  0.42665091478E+03  0.42665091481E+03  0.50400001928E-02 0.  1.
        1   -1    0    0  501    0  0.00000000000E+00  0.00000000000E+00 -0.47159532051E+03  0.47159532054E+03  0.50400001928E-02 0. -1.
    10030    2    1    2    0    0  0.00000000000E+00  0.00000000000E+00 -0.44944405734E+02  0.89824623535E+03  0.89712111764E+03 0.  0.
        5    1    3    3  502    0  0.23580083157E+03  0.33628125770E+03  0.15802414684E+03  0.44009185113E+03  0.46999998093E+01 0.  1.
       -5    1    3    3    0  502 -0.23580083157E+03 -0.33628125770E+03 -0.20296855257E+03  0.45815438422E+03  0.46999998093E+01 0. -1.
</event>
<event>
 5   0  0.2074970E-03  0.9012803E+03  0.7818609E-02  0.9423982E-01
       -1   -1    0    0    0  501  0.00000000000E+00  0.00000000000E+00  0.50403311800E+03  0.50403311802E+03  0.50400001928E-02 0. -1.
        1   -1    0    0  501    0  0.00000000000E+00  0.00000000000E+00 -0.40290314478E+03  0.40290314481E+03  0.50400001928E-02 0.  1.
    10030    2    1    2    0    0  0.00000000000E+00  0.00000000000E+00  0.10112997321E+03  0.90693626284E+03  0.90128026349E+03 0.  0.
        2    1    3    3  502    0  0.43988422266E+03 -0.75788549720E+02 -0.11746911121E+02  0.44651990274E+03  0.25500000920E-02 0. -1.
       -2    1    3    3    0  502 -0.43988422266E+03  0.75788549720E+02  0.11287688433E+03  0.46041636009E+03  0.25500000920E-02 0.  1.
</event>
<event>
 5   0  0.2074970E-03  0.8852755E+03  0.7818609E-02  0.9444177E-01
        1   -1    0    0  501    0  0.00000000000E+00  0.00000000000E+00  0.58862690445E+03  0.58862690447E+03  0.50400001928E-02 0. -1.
       -1   -1    0    0    0  501  0.00000000000E+00  0.00000000000E+00 -0.33285631500E+03  0.33285631503E+03  0.50400001928E-02 0.  1.
    10030    2    1    2    0    0  0.00000000000E+00  0.00000000000E+00  0.25577058946E+03  0.92148321951E+03  0.88527551045E+03 0.  0.
        2    1    3    3  502    0 -0.73496368576E+02 -0.75947568271E+02 -0.31953029823E+03  0.33655513786E+03  0.25500000920E-02 0.  1.
       -2    1    3    3    0  502  0.73496368576E+02  0.75947568271E+02  0.57530088769E+03  0.58492808165E+03  0.25500000920E-02 0. -1.
</event>
<event>
 5   0  0.1436000E-03  0.8989382E+03  0.7818609E-02  0.9426910E-01
       -4   -1    0    0    0  501  0.00000000000E+00  0.00000000000E+00  0.23271845931E+03  0.23272192463E+03  0.12699999809E+01 0. -1.
        4   -1    0    0  501    0  0.00000000000E+00  0.00000000000E+00 -0.86808774605E+03  0.86808867505E+03  0.12699999809E+01 0.  1.
    10030    2    1    2    0    0  0.00000000000E+00  0.00000000000E+00 -0.63536928674E+03  0.11008105997E+04  0.89893817687E+03 0.  0.
        3    1    3    3  502    0  0.15285590714E+02  0.36763244039E+03 -0.15772886095E+01  0.36795347335E+03  0.10100000352E+00 0. -1.
       -3    1    3    3    0  502 -0.15285590714E+02 -0.36763244039E+03 -0.63379199814E+03  0.73285712633E+03  0.10100000352E+00 0.  1.
</event>
<event>
 5   0  0.3685879E-03  0.8786529E+03  0.7818609E-02  0.9452667E-01
        2   -1    0    0  501    0  0.00000000000E+00  0.00000000000E+00  0.12304592604E+04  0.12304592604E+04  0.25500000920E-02 0. -1.
       -2   -1    0    0    0  501  0.00000000000E+00  0.00000000000E+00 -0.15685829836E+03  0.15685829838E+03  0.25500000920E-02 0.  1.
    10030    2    1    2    0    0  0.00000000000E+00  0.00000000000E+00  0.10736009620E+04  0.13873175588E+04  0.87865293672E+03 0.  0.
        1    1    3    3  502    0 -0.17905364845E+03  0.12686999824E+03  0.11377252109E+04  0.11586953271E+04  0.50400001928E-02 0. -1.
       -1    1    3    3    0  502  0.17905364845E+03 -0.12686999824E+03 -0.64124248911E+02  0.22862223165E+03  0.50400001928E-02 0.  1.
</event>
<event>
 5   0  0.2130975E-03  0.8996371E+03  0.7818609E-02  0.9426035E-01
       -1   -1    0    0    0  501  0.00000000000E+00  0.00000000000E+00  0.21114445234E+03  0.21114445240E+03  0.50400001928E-02 0. -1.
        1   -1    0    0  501    0  0.00000000000E+00  0.00000000000E+00 -0.95828586080E+03  0.95828586081E+03  0.50400001928E-02 0.  1.
    10030    2    1    2    0    0  0.00000000000E+00  0.00000000000E+00 -0.74714140845E+03  0.11694303132E+04  0.89963713420E+03 0.  0.
        5    1    3    3  502    0 -0.42589311500E+03  0.92009876837E+02 -0.22844852690E+03  0.49199754297E+03  0.46999998093E+01 0.  1.
       -5    1    3    3    0  502  0.42589311500E+03 -0.92009876837E+02 -0.51869288155E+03  0.67743277025E+03  0.46999998093E+01 0. -1.
</event>
<event>
 5   0  0.2074970E-03  0.9044721E+03  0.7818609E-02  0.9420008E-01
       -1   -1    0    0    0  501  0.00000000000E+00  0.00000000000E+00  0.31966672372E+03  0.31966672376E+03  0.50400001928E-02 0.  1.
        1   -1    0    0  501    0  0.00000000000E+00  0.00000000000E+00 -0.63978331073E+03  0.63978331075E+03  0.50400001928E-02 0. -1.
    10030    2    1    2    0    0  0.00000000000E+00  0.00000000000E+00 -0.32011658701E+03  0.95945003450E+03  0.90447207775E+03 0.  0.
        2    1    3    3  502    0  0.19947183365E+03  0.20028395268E+03 -0.53452390634E+03  0.60466394020E+03  0.25500000920E-02 0. -1.
       -2    1    3    3    0  502 -0.19947183365E+03 -0.20028395268E+03  0.21440731934E+03  0.35478609430E+03  0.25500000920E-02 0.  1.
</event>
<event>
 5   0  0.2134145E-03  0.9020211E+03  0.7818609E-02  0.9423059E-01
       -1   -1    0    0    0  501  0.00000000000E+00  0.00000000000E+00  0.17899289082E+03  0.17899289089E+03  0.50400001928E-02 0. -1.
        1   -1    0    0  501    0  0.00000000000E+00  0.00000000000E+00 -0.11364166379E+04  0.11364166379E+04  0.50400001928E-02 0.  1.
    10030    2    1    2    0    0  0.00000000000E+00  0.00000000000E+00 -0.95742374704E+03  0.13154095288E+04  0.90202106236E+03 0.  0.
        1    1    3    3  502    0 -0.75884362318E+02  0.66209387795E+01  0.16954452877E+03  0.18586990218E+03  0.50400001928E-02 0. -1.
       -1    1    3    3    0  502  0.75884362318E+02 -0.66209387795E+01 -0.11269682758E+04  0.11295396266E+04  0.50400001928E-02 0.  1.
</event>
<event>
 5   0  0.3815269E-03  0.8956043E+03  0.7818609E-02  0.9431093E-01
       -2   -1    0    0    0  501  0.00000000000E+00  0.00000000000E+00  0.32217908705E+03  0.32217908706E+03  0.25500000920E-02 0.  1.
        2   -1    0    0  501    0  0.00000000000E+00  0.00000000000E+00 -0.62240774209E+03  0.62240774210E+03  0.25500000920E-02 0. -1.
    10030    2    1    2    0    0  0.00000000000E+00  0.00000000000E+00 -0.30022865504E+03  0.94458682916E+03  0.89560428344E+03 0.  0.
        5    1    3    3  502    0 -0.13221122849E+03  0.33430866392E+03 -0.43166494460E+03  0.56178181362E+03  0.46999998093E+01 0. -1.
       -5    1    3    3    0  502  0.13221122849E+03 -0.33430866392E+03  0.13143628956E+03  0.38280501554E+03  0.46999998093E+01 0.  1.
</event>
<event>
 5   0  0.3815269E-03  0.8978043E+03  0.7818609E-02  0.9428330E-01
       -2   -1    0    0    0  501  0.00000000000E+00  0.00000000000E+00  0.15740531457E+03  0.15740531459E+03  0.25500000920E-02 0.  1.
        2   -1    0    0  501    0  0.00000000000E+00  0.00000000000E+00 -0.12802181011E+04  0.12802181011E+04  0.25500000920E-02 0. -1.
    10030    2    1    2    0    0  0.00000000000E+00  0.00000000000E+00 -0.11228127865E+04  0.14376234157E+04  0.89780428364E+03 0.  0.
        5    1    3    3  502    0 -0.90215425748E+02 -0.71642171871E+02 -0.12561041712E+04  0.12613846371E+04  0.46999998093E+01 0. -1.
       -5    1    3    3    0  502  0.90215425748E+02  0.71642171871E+02  0.13329138469E+03  0.17623877855E+03  0.46999998093E+01 0.  1.
</event>
<event>
 5   0  0.3663255E-03  0.9004869E+03  0.7818609E-02  0.9424973E-01
        2   -1    0    0  501    0  0.00000000000E+00  0.00000000000E+00  0.81094959446E+03  0.81094959446E+03  0.25500000920E-02 0. -1.
       -2   -1    0    0    0  501  0.00000000000E+00  0.00000000000E+00 -0.24997751517E+03  0.24997751518E+03  0.25500000920E-02 0.  1.
    10030    2    1    2    0    0  0.00000000000E+00  0.00000000000E+00  0.56097207929E+03  0.10609271096E+04  0.90048690064E+03 0.  0.
        4    1    3    3  502    0  0.42362265149E+02  0.44745704056E+03  0.24919930076E+03  0.51392048904E+03  0.12699999809E+01 0. -1.
       -4    1    3    3    0  502 -0.42362265149E+02 -0.44745704056E+03  0.31177277853E+03  0.54700662061E+03  0.12699999809E+01 0.  1.
</event>
<event>
 5   0  0.2130975E-03  0.8957598E+03  0.7818609E-02  0.9430897E-01
        1   -1    0    0  501    0  0.00000000000E+00  0.00000000000E+00  0.11119651467E+04  0.11119651467E+04  0.50400001928E-02 0.  1.
       -1   -1    0    0    0  501  0.00000000000E+00  0.00000000000E+00 -0.18039811931E+03  0.18039811938E+03  0.50400001928E-02 0. -1.
    10030    2    1    2    0    0  0.00000000000E+00  0.00000000000E+00  0.93156702739E+03  0.12923632661E+04  0.89575983670E+03 0.  0.
        5    1    3    3  502    0 -0.16259883273E+03  0.13878316882E+03 -0.10200151295E+03  0.23690830926E+03  0.46999998093E+01 0. -1.
       -5    1    3    3    0  502  0.16259883273E+03 -0.13878316882E+03  0.10335685403E+04  0.10554549568E+04  0.46999998093E+01 0.  1.
</event>
<event>
 5   0  0.3806019E-03  0.8978297E+03  0.7818609E-02  0.9428299E-01
        2   -1    0    0  501    0  0.00000000000E+00  0.00000000000E+00  0.63829527011E+03  0.63829527011E+03  0.25500000920E-02 0. -1.
       -2   -1    0    0    0  501  0.00000000000E+00  0.00000000000E+00 -0.31572303982E+03  0.31572303983E+03  0.25500000920E-02 0.  1.
    10030    2    1    2    0    0  0.00000000000E+00  0.00000000000E+00  0.32257223028E+03  0.95401830994E+03  0.89782965643E+03 0.  0.
        2    1    3    3  502    0  0.98283295596E+02  0.34455005874E+03  0.44867531589E+03  0.57418105878E+03  0.25500000920E-02 0. -1.
       -2    1    3    3    0  502 -0.98283295596E+02 -0.34455005874E+03 -0.12610308560E+03  0.37983725117E+03  0.25500000920E-02 0.  1.
</event>
<event>
 5   0  0.2074970E-03  0.8974208E+03  0.7818609E-02  0.9428811E-01
        1   -1    0    0  501    0  0.00000000000E+00  0.00000000000E+00  0.35152103922E+03  0.35152103926E+03  0.50400001928E-02 0.  1.
       -1   -1    0    0    0  501  0.00000000000E+00  0.00000000000E+00 -0.57277087767E+03  0.57277087769E+03  0.50400001928E-02 0. -1.
    10030    2    1    2    0    0  0.00000000000E+00  0.00000000000E+00 -0.22124983844E+03  0.92429191695E+03  0.89742078019E+03 0.  0.
        2    1    3    3  502    0 -0.23530149888E+03  0.23179860963E+03 -0.42343533856E+03  0.53702409326E+03  0.25500000920E-02 0. -1.
       -2    1    3    3    0  502  0.23530149888E+03 -0.23179860963E+03  0.20218550011E+03  0.38726782369E+03  0.25500000920E-02 0.  1.
</event>
<event>
 5   0  0.3806019E-03  0.9023788E+03  0.7818609E-02  0.9422613E-01
       -2   -1    0    0    0  501  0.00000000000E+00  0.00000000000E+00  0.22664892482E+03  0.22664892483E+03  0.25500000920E-02 0. -1.
        2   -1    0    0  501    0  0.00000000000E+00  0.00000000000E+00 -0.89818160305E+03  0.89818160306E+03  0.25500000920E-02 0.  1.
    10030    2    1    2    0    0  0.00000000000E+00  0.00000000000E+00 -0.67153267824E+03  0.11248305279E+04  0.90237884424E+03 0.  0.
        2    1    3    3  502    0 -0.19132572290E+03  0.39525076156E+03 -0.20656560629E+03  0.48528140956E+03  0.25500000920E-02 0.  1.
       -2    1    3    3    0  502  0.19132572290E+03 -0.39525076156E+03 -0.46496707194E+03  0.63954911833E+03  0.25500000920E-02 0. -1.
</event>
<event>
 5   0  0.2130975E-03  0.9023007E+03  0.7818609E-02  0.9422710E-01
       -1   -1    0    0    0  501  0.00000000000E+00  0.00000000000E+00  0.21432452763E+03  0.21432452768E+03  0.50400001928E-02 0. -1.
        1   -1    0    0  501    0  0.00000000000E+00  0.00000000000E+00 -0.94966573385E+03  0.94966573386E+03  0.50400001928E-02 0.  1.
    10030    2    1    2    0    0  0.00000000000E+00  0.00000000000E+00 -0.73534120622E+03  0.11639902615E+04  0.90230074776E+03 0.  0.
        5    1    3    3  502    0  0.23246072576E+03 -0.29867296537E+03 -0.50967459366E+02  0.38192054301E+03  0.46999998093E+01 0. -1.
       -5    1    3    3    0  502 -0.23246072576E+03  0.29867296537E+03 -0.68437374685E+03  0.78206971853E+03  0.46999998093E+01 0.  1.
</event>
<event>
 5   0  0.3663255E-03  0.8985170E+03  0.7818609E-02  0.9427437E-01
        2   -1    0    0  501    0  0.00000000000E+00  0.00000000000E+00  0.13561198912E+04  0.13561198912E+04  0.25500000920E-02 0.  1.
       -2   -1    0    0    0  501  0.00000000000E+00  0.00000000000E+00 -0.14883138838E+03  0.14883138841E+03  0.25500000920E-02 0. -1.
    10030    2    1    2    0    0  0.00000000000E+00  0.00000000000E+00  0.12072885028E+04  0.15049512796E+04  0.89851701429E+03 0.  0.
        4    1    3    3  502    0  0.86821964761E+02 -0.20778718212E+02 -0.13382214934E+03  0.16087196539E+03  0.12699999809E+01 0. -1.
       -4    1    3    3    0  502 -0.86821964761E+02  0.20778718212E+02  0.13411106522E+04  0.13440793142E+04  0.12699999809E+01 0.  1.
</event>
<event>
 5   0  0.2134145E-03  0.9000230E+03  0.7818609E-02  0.9425553E-01
       -1   -1    0    0    0  501  0.00000000000E+00  0.00000000000E+00  0.25694658092E+03  0.25694658097E+03  0.50400001928E-02 0. -1.
        1   -1    0    0  501    0  0.00000000000E+00  0.00000000000E+00 -0.78814174901E+03  0.78814174903E+03  0.50400001928E-02 0.  1.
    10030    2    1    2    0    0  0.00000000000E+00  0.00000000000E+00 -0.53119516809E+03  0.10450883300E+04  0.90002295020E+03 0.  0.
        1    1    3    3  502    0 -0.30176332807E+03 -0.32624293998E+03 -0.34782653220E+03  0.56433931157E+03  0.50400001928E-02 0. -1.
       -1    1    3    3    0  502  0.30176332807E+03  0.32624293998E+03 -0.18336863589E+03  0.48074901842E+03  0.50400001928E-02 0.  1.
</event>
<event>
 5   0  0.2130975E-03  0.9036936E+03  0.7818609E-02  0.9420976E-01
       -1   -1    0    0    0  501  0.00000000000E+00  0.00000000000E+00  0.31655399232E+03  0.31655399236E+03  0.50400001928E-02 0. -1.
        1   -1    0    0  501    0  0.00000000000E+00  0.00000000000E+00 -0.64496270717E+03  0.64496270719E+03  0.50400001928E-02 0.  1.
    10030    2    1    2    0    0  0.00000000000E+00  0.00000000000E+00 -0.32840871485E+03  0.96151669956E+03  0.90369357613E+03 0.  0.
        5    1    3    3  502    0  0.18216530680E+03 -0.11341210041E+03  0.25885114659E+03  0.33626256052E+03  0.46999998093E+01 0. -1.
       -5    1    3    3    0  502 -0.18216530680E+03  0.11341210041E+03 -0.58725986144E+03  0.62525413903E+03  0.46999998093E+01 0.  1.
</event>
<event>
 5   0  0.2295158E-03  0.8991648E+03  0.7818609E-02  0.9426626E-01
        1   -1    0    0  501    0  0.00000000000E+00  0.00000000000E+00  0.61901034983E+03  0.61901034985E+03  0.50400001928E-02 0.  1.
       -1   -1    0    0    0  501  0.00000000000E+00  0.00000000000E+00 -0.32652822846E+03  0.32652822850E+03  0.50400001928E-02 0. -1.
    10030    2    1    2    0    0  0.00000000000E+00  0.00000000000E+00  0.29248212137E+03  0.94553857835E+03  0.89916484130E+03 0.  0.
        4    1    3    3  502    0 -0.14783391225E+03  0.53946532128E+01 -0.30019991236E+03  0.33467232956E+03  0.12699999809E+01 0. -1.
       -4    1    3    3    0  502  0.14783391225E+03 -0.53946532128E+01  0.59268203373E+03  0.61086624878E+03  0.12699999809E+01 0.  1.
</event>
<event>
 5   0  0.3806019E-03  0.9011375E+03  0.7818609E-02  0.9424161E-01
        2   -1    0    0  501    0  0.00000000000E+00  0.00000000000E+00  0.10715360182E+04  0.10715360182E+04  0.25500000920E-02 0. -1.
       -2   -1    0    0    0  501  0.00000000000E+00  0.00000000000E+00 -0.18945906929E+03  0.18945906931E+03  0.25500000920E-02 0.  1.
    10030    2    1    2    0    0  0.00000000000E+00  0.00000000000E+00  0.88207694890E+03  0.12609950875E+04  0.90113754052E+03 0.  0.
        2    1    3    3  502    0  0.30754188697E+02 -0.17111510431E+03 -0.14063145135E+03  0.22361440955E+03  0.25500000920E-02 0.  1.
       -2    1    3    3    0  502 -0.30754188697E+02  0.17111510431E+03  0.10227084003E+04  0.10373806780E+04  0.25500000920E-02 0. -1.
</event>
<event>
 5   0  0.3626546E-03  0.8950807E+03  0.7818609E-02  0.9431752E-01
        2   -1    0    0  501    0  0.00000000000E+00  0.00000000000E+00  0.91044873349E+03  0.91044873349E+03  0.25500000920E-02 0. -1.
       -2   -1    0    0    0  501  0.00000000000E+00  0.00000000000E+00 -0.21999304200E+03  0.21999304201E+03  0.25500000920E-02 0.  1.
    10030    2    1    2    0    0  0.00000000000E+00  0.00000000000E+00  0.69045569149E+03  0.11304417755E+04  0.89508074826E+03 0.  0.
        3    1    3    3  502    0 -0.33931953155E+03 -0.56396521495E+02 -0.16368652357E+02  0.34436355078E+03  0.10100000352E+00 0.  1.
       -3    1    3    3    0  502  0.33931953155E+03  0.56396521495E+02  0.70682434385E+03  0.78607822472E+03  0.10100000352E+00 0. -1.
</event>
<event>
 5   0  0.2130975E-03  0.9044110E+03  0.7818609E-02  0.9420084E-01
        1   -1    0    0  501    0  0.00000000000E+00  0.00000000000E+00  0.47626060948E+03  0.47626060951E+03  0.50400001928E-02 0. -1.
       -1   -1    0    0    0  501  0.00000000000E+00  0.00000000000E+00 -0.42936534301E+03  0.42936534304E+03  0.50400001928E-02 0.  1.
    10030    2    1    2    0    0  0.00000000000E+00  0.00000000000E+00  0.46895266469E+02  0.90562595255E+03  0.90441096849E+03 0.  0.
        5    1    3    3  502    0  0.92535544845E+02  0.32611776650E+03 -0.27620692644E+03  0.43729621642E+03  0.46999998093E+01 0.  1.
       -5    1    3    3    0  502 -0.92535544845E+02 -0.32611776650E+03  0.32310219291E+03  0.46832973613E+03  0.46999998093E+01 0. -1.
</event>
<event>
 5   0  0.3815269E-03  0.8971675E+03  0.7818609E-02  0.9429129E-01
       -2   -1    0    0    0  501  0.00000000000E+00  0.00000000000E+00  0.39759714469E+03  0.39759714470E+03  0.25500000920E-02 0.  1.
        2   -1    0    0  501    0  0.00000000000E+00  0.00000000000E+00 -0.50610869594E+03  0.50610869595E+03  0.25500000920E-02 0. -1.
    10030    2    1    2    0    0  0.00000000000E+00  0.00000000000E+00 -0.10851155125E+03  0.90370584064E+03  0.89716748139E+03 0.  0.
        5    1    3    3  502    0  0.40195943092E+03  0.67809686508E+02  0.13428671597E+03  0.42921387416E+03  0.46999998093E+01 0. -1.
       -5    1    3    3    0  502 -0.40195943092E+03 -0.67809686508E+02 -0.24279826722E+03  0.47449196648E+03  0.46999998093E+01 0.  1.
</event>
<event>
 5   0  0.3815269E-03  0.8999063E+03  0.7818609E-02  0.9425699E-01
       -2   -1    0    0    0  501  0.00000000000E+00  0.00000000000E+00  0.19641840009E+03  0.19641840011E+03  0.25500000920E-02 0.  1.
        2   -1    0    0  501    0  0.00000000000E+00  0.00000000000E+00 -0.10307478072E+04  0.10307478072E+04  0.25500000920E-02 0. -1.
    10030    2    1    2    0    0  0.00000000000E+00  0.00000000000E+00 -0.83432940710E+03  0.12271662073E+04  0.89990629557E+03 0.  0.
        5    1    3    3  502    0  0.14718129121E+03  0.26057703976E+03  0.40978415525E+02  0.30209939865E+03  0.46999998093E+01 0.  1.
       -5    1    3    3    0  502 -0.14718129121E+03 -0.26057703976E+03 -0.87530782263E+03  0.92506680866E+03  0.46999998093E+01 0. -1.
</event>
<event>
 5   0  0.3815269E-03  0.8994975E+03  0.7818609E-02  0.9426210E-01
       -2   -1    0    0    0  501  0.00000000000E+00  0.00000000000E+00  0.56113558947E+03  0.56113558947E+03  0.25500000920E-02 0. -1.
        2   -1    0    0  501    0  0.00000000000E+00  0.00000000000E+00 -0.36047244839E+03  0.36047244840E+03  0.25500000920E-02 0.  1.
    10030    2    1    2    0    0  0.00000000000E+00  0.00000000000E+00  0.20066314107E+03  0.92160803788E+03  0.89949745930E+03 0.  0.
        5    1    3    3  502    0  0.44255642376E+03 -0.69120202281E+02  0.14154519782E+03  0.46977752564E+03  0.46999998093E+01 0.  1.
       -5    1    3    3    0  502 -0.44255642376E+03  0.69120202281E+02  0.59117943252E+02  0.45183051223E+03  0.46999998093E+01 0. -1.
</event>
<event>
 5   0  0.2134145E-03  0.9017814E+03  0.7818609E-02  0.9423357E-01
        1   -1    0    0  501    0  0.00000000000E+00  0.00000000000E+00  0.94839050280E+03  0.94839050281E+03  0.50400001928E-02 0. -1.
       -1   -1    0    0    0  501  0.00000000000E+00  0.00000000000E+00 -0.21436571255E+03  0.21436571261E+03  0.50400001928E-02 0.  1.
    10030    2    1    2    0    0  0.00000000000E+00  0.00000000000E+00  0.73402479025E+03  0.11627562154E+04  0.90178136143E+03 0.  0.
        1    1    3    3  502    0  0.14112905724E+03  0.31552641582E+02 -0.18365231233E+03  0.23375446913E+03  0.50400001928E-02 0.  1.
       -1    1    3    3    0  502 -0.14112905724E+03 -0.31552641582E+02  0.91767710258E+03  0.92900174629E+03  0.50400001928E-02 0. -1.
</event>
<event>
 5   0  0.3663255E-03  0.9007851E+03  0.7818609E-02  0.9424601E-01
       -2   -1    0    0    0  501  0.00000000000E+00  0.00000000000E+00  0.88450170614E+03  0.88450170614E+03  0.25500000920E-02 0. -1.
        2   -1    0    0  501    0  0.00000000000E+00  0.00000000000E+00 -0.22934205408E+03  0.22934205410E+03  0.25500000920E-02 0.  1.
    10030    2    1    2    0    0  0.00000000000E+00  0.00000000000E+00  0.65515965205E+03  0.11138437602E+04  0.90078507566E+03 0.  0.
        4    1    3    3  502    0  0.36927158306E+03 -0.90690432949E+02  0.29104051061E+02  0.38135929957E+03  0.12699999809E+01 0.  1.
       -4    1    3    3    0  502 -0.36927158306E+03  0.90690432949E+02  0.62605560099E+03  0.73248446067E+03  0.12699999809E+01 0. -1.
</event>
<event>
 5   0  0.2134145E-03  0.8975948E+03  0.7818609E-02  0.9428593E-01
        1   -1    0    0  501    0  0.00000000000E+00  0.00000000000E+00  0.61194184198E+03  0.61194184200E+03  0.50400001928E-02 0. -1.
       -1   -1    0    0    0  501  0.00000000000E+00  0.00000000000E+00 -0.32914746902E+03  0.32914746905E+03  0.50400001928E-02 0.  1.
    10030    2    1    2    0    0  0.00000000000E+00  0.00000000000E+00  0.28279437296E+03  0.94108931106E+03  0.89759480502E+03 0.  0.
        1    1    3    3  502    0 -0.20218349277E+03  0.42259404141E+02 -0.27635077066E+03  0.34501271057E+03  0.50400001928E-02 0.  1.
       -1    1    3    3    0  502  0.20218349277E+03 -0.42259404141E+02  0.55914514362E+03  0.59607660049E+03  0.50400001928E-02 0. -1.
</event>
<event>
 5   0  0.1436000E-03  0.9138686E+03  0.7818609E-02  0.9408409E-01
        3   -1    0    0  501    0  0.00000000000E+00  0.00000000000E+00  0.65557384340E+03  0.65557385118E+03  0.10100000352E+00 0.  1.
       -3   -1    0    0    0  501  0.00000000000E+00  0.00000000000E+00 -0.31848272814E+03  0.31848274415E+03  0.10100000352E+00 0. -1.
    10030    2    1    2    0    0  0.00000000000E+00  0.00000000000E+00  0.33709111526E+03  0.97405659533E+03  0.91386860703E+03 0.  0.
        3    1    3    3  502    0 -0.23931423328E+03  0.14903053303E+03  0.55182221167E+03  0.61966859330E+03  0.10100000352E+00 0.  1.
       -3    1    3    3    0  502  0.23931423328E+03 -0.14903053303E+03 -0.21473109641E+03  0.35438800204E+03  0.10100000352E+00 0. -1.
</event>
<event>
 5   0  0.2134145E-03  0.8994193E+03  0.7818609E-02  0.9426308E-01
        1   -1    0    0  501    0  0.00000000000E+00  0.00000000000E+00  0.11972316511E+04  0.11972316511E+04  0.50400001928E-02 0. -1.
       -1   -1    0    0    0  501  0.00000000000E+00  0.00000000000E+00 -0.16892201234E+03  0.16892201242E+03  0.50400001928E-02 0.  1.
    10030    2    1    2    0    0  0.00000000000E+00  0.00000000000E+00  0.10283096387E+04  0.13661536635E+04  0.89941932333E+03 0.  0.
        1    1    3    3  502    0 -0.34781685257E+03 -0.22850121965E+03  0.25527035379E+03  0.48821339993E+03  0.50400001928E-02 0.  1.
       -1    1    3    3    0  502  0.34781685257E+03  0.22850121965E+03  0.77303928494E+03  0.87794026357E+03  0.50400001928E-02 0. -1.
</event>
<event>
 5   0  0.2074970E-03  0.9019301E+03  0.7818609E-02  0.9423172E-01
        1   -1    0    0  501    0  0.00000000000E+00  0.00000000000E+00  0.10835498702E+04  0.10835498702E+04  0.50400001928E-02 0. -1.
       -1   -1    0    0    0  501  0.00000000000E+00  0.00000000000E+00 -0.18768813580E+03  0.18768813587E+03  0.50400001928E-02 0.  1.
    10030    2    1    2    0    0  0.00000000000E+00  0.00000000000E+00  0.89586173438E+03  0.12712380061E+04  0.90193005324E+03 0.  0.
        2    1    3    3  502    0 -0.41284347733E+02  0.41303311586E+03  0.19949426989E+03  0.46054176346E+03  0.25500000920E-02 0. -1.
       -2    1    3    3    0  502  0.41284347733E+02 -0.41303311586E+03  0.69636746450E+03  0.81069624261E+03  0.25500000920E-02 0.  1.
</event>
<event>
 5   0  0.3663255E-03  0.8992680E+03  0.7818609E-02  0.9426497E-01
       -2   -1    0    0    0  501  0.00000000000E+00  0.00000000000E+00  0.18601166086E+03  0.18601166088E+03  0.25500000920E-02 0. -1.
        2   -1    0    0  501    0  0.00000000000E+00  0.00000000000E+00 -0.10868712018E+04  0.10868712018E+04  0.25500000920E-02 0.  1.
    10030    2    1    2    0    0  0.00000000000E+00  0.00000000000E+00 -0.90085954093E+03  0.12728828627E+04  0.89926796317E+03 0.  0.
        4    1    3    3  502    0 -0.24217355945E+03  0.14706042883E+03 -0.94461643267E+03  0.98619299348E+03  0.12699999809E+01 0.  1.
       -4    1    3    3    0  502  0.24217355945E+03 -0.14706042883E+03  0.43756891737E+02  0.28668986919E+03  0.12699999809E+01 0. -1.
</event>
<event>
 5   0  0.2295158E-03  0.8995046E+03  0.7818609E-02  0.9426201E-01
        1   -1    0    0  501    0  0.00000000000E+00  0.00000000000E+00  0.53208443596E+03  0.53208443598E+03  0.50400001928E-02 0.  1.
       -1   -1    0    0    0  501  0.00000000000E+00  0.00000000000E+00 -0.38015982997E+03  0.38015983000E+03  0.50400001928E-02 0. -1.
    10030    2    1    2    0    0  0.00000000000E+00  0.00000000000E+00  0.15192460599E+03  0.91224426598E+03  0.89950459416E+03 0.  0.
        4    1    3    3  502    0 -0.35539279566E+03 -0.27562857772E+03  0.75350630997E+02  0.45602026551E+03  0.12699999809E+01 0. -1.
       -4    1    3    3    0  502  0.35539279566E+03  0.27562857772E+03  0.76573974998E+02  0.45622400048E+03  0.12699999809E+01 0.  1.
</event>
<event>
 5   0  0.2129280E-03  0.9312125E+03  0.7818609E-02  0.9387384E-01
        1   -1    0    0  501    0  0.00000000000E+00  0.00000000000E+00  0.48806274431E+03  0.48806274433E+03  0.50400001928E-02 0.  1.
       -1   -1    0    0    0  501  0.00000000000E+00  0.00000000000E+00 -0.44418302448E+03  0.44418302451E+03  0.50400001928E-02 0. -1.
    10030    2    1    2    0    0  0.00000000000E+00  0.00000000000E+00  0.43879719823E+02  0.93224576885E+03  0.93121251265E+03 0.  0.
        3    1    3    3  502    0 -0.24829804608E+03 -0.25247703304E+03 -0.28070767673E+03  0.45187761825E+03  0.10100000352E+00 0. -1.
       -3    1    3    3    0  502  0.24829804608E+03  0.25247703304E+03  0.32458739656E+03  0.48036815059E+03  0.10100000352E+00 0.  1.
</event>
<event>
 5   0  0.3685879E-03  0.8879644E+03  0.7818609E-02  0.9440753E-01
       -2   -1    0    0    0  501  0.00000000000E+00  0.00000000000E+00  0.43667415665E+03  0.43667415665E+03  0.25500000920E-02 0.  1.
        2   -1    0    0  501    0  0.00000000000E+00  0.00000000000E+00 -0.45141251594E+03  0.45141251595E+03  0.25500000920E-02 0. -1.
    10030    2    1    2    0    0  0.00000000000E+00  0.00000000000E+00 -0.14738359293E+02  0.88808667260E+03  0.88796436799E+03 0.  0.
        1    1    3    3  502    0  0.27733106539E+03  0.14679675172E+03  0.30677338833E+03  0.43882994196E+03  0.50400001928E-02 0.  1.
       -1    1    3    3    0  502 -0.27733106539E+03 -0.14679675172E+03 -0.32151174762E+03  0.44925673064E+03  0.50400001928E-02 0. -1.
</event>
<event>
 5   0  0.3815269E-03  0.9071244E+03  0.7818609E-02  0.9416719E-01
       -2   -1    0    0    0  501  0.00000000000E+00  0.00000000000E+00  0.85165849545E+02  0.85165849583E+02  0.25500000920E-02 0.  1.
        2   -1    0    0  501    0  0.00000000000E+00  0.00000000000E+00 -0.24155067118E+04  0.24155067118E+04  0.25500000920E-02 0. -1.
    10030    2    1    2    0    0  0.00000000000E+00  0.00000000000E+00 -0.23303408623E+04  0.25006725614E+04  0.90712442640E+03 0.  0.
        5    1    3    3  502    0 -0.25490626038E+03 -0.29488626582E+03 -0.52598690260E+03  0.65469032608E+03  0.46999998093E+01 0.  1.
       -5    1    3    3    0  502  0.25490626038E+03  0.29488626582E+03 -0.18043539597E+04  0.18459822353E+04  0.46999998093E+01 0. -1.
</event>
<event>
 5   0  0.2295158E-03  0.8680536E+03  0.7818609E-02  0.9466421E-01
       -1   -1    0    0    0  501  0.00000000000E+00  0.00000000000E+00  0.17562074365E+03  0.17562074373E+03  0.50400001928E-02 0.  1.
        1   -1    0    0  501    0  0.00000000000E+00  0.00000000000E+00 -0.10726481431E+04  0.10726481431E+04  0.50400001928E-02 0. -1.
    10030    2    1    2    0    0  0.00000000000E+00  0.00000000000E+00 -0.89702739945E+03  0.12482688868E+04  0.86805360347E+03 0.  0.
        4    1    3    3  502    0 -0.39753789935E+03  0.72541784789E+02 -0.22078573702E+03  0.46048522944E+03  0.12699999809E+01 0.  1.
       -4    1    3    3    0  502  0.39753789935E+03 -0.72541784789E+02 -0.67624166242E+03  0.78778365739E+03  0.12699999809E+01 0. -1.
</event>
<event>
 5   0  0.3663255E-03  0.9013075E+03  0.7818609E-02  0.9423949E-01
        2   -1    0    0  501    0  0.00000000000E+00  0.00000000000E+00  0.28953994041E+03  0.28953994042E+03  0.25500000920E-02 0. -1.
       -2   -1    0    0    0  501  0.00000000000E+00  0.00000000000E+00 -0.70141888560E+03  0.70141888560E+03  0.25500000920E-02 0.  1.
    10030    2    1    2    0    0  0.00000000000E+00  0.00000000000E+00 -0.41187894519E+03  0.99095882603E+03  0.90130745553E+03 0.  0.
        4    1    3    3  502    0 -0.24732174944E+02 -0.71432501584E+01 -0.70060784573E+03  0.70108178760E+03  0.12699999809E+01 0.  1.
       -4    1    3    3    0  502  0.24732174944E+02  0.71432501584E+01  0.28872890054E+03  0.28987703843E+03  0.12699999809E+01 0. -1.
</event>
<event>
 5   0  0.3806019E-03  0.9076799E+03  0.7818609E-02  0.9416032E-01
       -2   -1    0    0    0  501  0.00000000000E+00  0.00000000000E+00  0.19566259971E+03  0.19566259973E+03  0.25500000920E-02 0.  1.
        2   -1    0    0  501    0  0.00000000000E+00  0.00000000000E+00 -0.10526830815E+04  0.10526830815E+04  0.25500000920E-02 0. -1.
    10030    2    1    2    0    0  0.00000000000E+00  0.00000000000E+00 -0.85702048183E+03  0.12483456813E+04  0.90767991808E+03 0.  0.
        2    1    3    3  502    0 -0.35789612211E+03  0.47808144559E+02 -0.80664794260E+03  0.88377381508E+03  0.25500000920E-02 0. -1.
       -2    1    3    3    0  502  0.35789612211E+03 -0.47808144559E+02 -0.50372539232E+02  0.36457186620E+03  0.25500000920E-02 0.  1.
</event>
<event>
 5   0  0.2134145E-03  0.9008826E+03  0.7818609E-02  0.9424479E-01
       -1   -1    0    0    0  501  0.00000000000E+00  0.00000000000E+00  0.47891704593E+03  0.47891704596E+03  0.50400001928E-02 0.  1.
        1   -1    0    0  501    0  0.00000000000E+00  0.00000000000E+00 -0.42365871870E+03  0.42365871873E+03  0.50400001928E-02 0. -1.
    10030    2    1    2    0    0  0.00000000000E+00  0.00000000000E+00  0.55258327236E+02  0.90257576468E+03  0.90088263845E+03 0.  0.
        1    1    3    3  502    0 -0.13609291990E+03 -0.37708473948E+03 -0.17814232698E+03  0.43868995006E+03  0.50400001928E-02 0. -1.
       -1    1    3    3    0  502  0.13609291990E+03  0.37708473948E+03  0.23340065421E+03  0.46388581462E+03  0.50400001928E-02 0.  1.
</event>
<event>
 5   0  0.3806019E-03  0.9027012E+03  0.7818609E-02  0.9422211E-01
       -2   -1    0    0    0  501  0.00000000000E+00  0.00000000000E+00  0.10703272308E+03  0.10703272311E+03  0.25500000920E-02 0.  1.
        2   -1    0    0  501    0  0.00000000000E+00  0.00000000000E+00 -0.19033185446E+04  0.19033185446E+04  0.25500000920E-02 0. -1.
    10030    2    1    2    0    0  0.00000000000E+00  0.00000000000E+00 -0.17962858216E+04  0.20103512678E+04  0.90270120585E+03 0.  0.
        2    1    3    3  502    0 -0.29255234365E+03  0.15273597746E+03 -0.15838476734E+04  0.16178654471E+04  0.25500000920E-02 0. -1.
       -2    1    3    3    0  502  0.29255234365E+03 -0.15273597746E+03 -0.21243814820E+03  0.39248582064E+03  0.25500000920E-02 0.  1.
</event>
<event>
 5   0  0.2074970E-03  0.8968147E+03  0.7818609E-02  0.9429572E-01
       -1   -1    0    0    0  501  0.00000000000E+00  0.00000000000E+00  0.75069600900E+02  0.75069601069E+02  0.50400001928E-02 0.  1.
        1   -1    0    0  501    0  0.00000000000E+00  0.00000000000E+00 -0.26784362893E+04  0.26784362893E+04  0.50400001928E-02 0. -1.
    10030    2    1    2    0    0  0.00000000000E+00  0.00000000000E+00 -0.26033666884E+04  0.27535058903E+04  0.89681468211E+03 0.  0.
        2    1    3    3  502    0  0.16514431133E+03 -0.16965672684E+03 -0.24708782408E+04  0.24821956670E+04  0.25500000920E-02 0. -1.
       -2    1    3    3    0  502 -0.16514431133E+03  0.16965672684E+03 -0.13248844755E+03  0.27131022330E+03  0.25500000920E-02 0.  1.
</event>
<event>
 5   0  0.2295158E-03  0.8996189E+03  0.7818609E-02  0.9426058E-01
       -1   -1    0    0    0  501  0.00000000000E+00  0.00000000000E+00  0.37041974586E+03  0.37041974589E+03  0.50400001928E-02 0. -1.
        1   -1    0    0  501    0  0.00000000000E+00  0.00000000000E+00 -0.54621421848E+03  0.54621421851E+03  0.50400001928E-02 0.  1.
    10030    2    1    2    0    0  0.00000000000E+00  0.00000000000E+00 -0.17579447262E+03  0.91663396440E+03  0.89961887935E+03 0.  0.
        4    1    3    3  502    0 -0.13013785131E+03 -0.42353450805E+03 -0.16688492729E+03  0.47346544933E+03  0.12699999809E+01 0. -1.
       -4    1    3    3    0  502  0.13013785131E+03  0.42353450805E+03 -0.89095453326E+01  0.44316851507E+03  0.12699999809E+01 0.  1.
</event>
<event>
 5   0  0.3685879E-03  0.8989419E+03  0.7818609E-02  0.9426905E-01
       -2   -1    0    0    0  501  0.00000000000E+00  0.00000000000E+00  0.11414594147E+03  0.11414594150E+03  0.25500000920E-02 0.  1.
        2   -1    0    0  501    0  0.00000000000E+00  0.00000000000E+00 -0.17698755825E+04  0.17698755825E+04  0.25500000920E-02 0. -1.
    10030    2    1    2    0    0  0.00000000000E+00  0.00000000000E+00 -0.16557296410E+04  0.18840215240E+04  0.89894185501E+03 0.  0.
        1    1    3    3  502    0  0.11235920812E+03 -0.43492526027E+03 -0.86030208066E+03  0.97051751333E+03  0.50400001928E-02 0. -1.
       -1    1    3    3    0  502 -0.11235920812E+03  0.43492526027E+03 -0.79542756036E+03  0.91350401065E+03  0.50400001928E-02 0.  1.
</event>
<event>
 5   0  0.3806019E-03  0.9015099E+03  0.7818609E-02  0.9423696E-01
       -2   -1    0    0    0  501  0.00000000000E+00  0.00000000000E+00  0.48491544686E+03  0.48491544687E+03  0.25500000920E-02 0. -1.
        2   -1    0    0  501    0  0.00000000000E+00  0.00000000000E+00 -0.41900088915E+03  0.41900088916E+03  0.25500000920E-02 0.  1.
    10030    2    1    2    0    0  0.00000000000E+00  0.00000000000E+00  0.65914557714E+02  0.90391633603E+03  0.90150985221E+03 0.  0.
        2    1    3    3  502    0  0.10515171444E+03  0.38924875882E+03  0.23501077094E+03  0.46669212738E+03  0.25500000920E-02 0. -1.
       -2    1    3    3    0  502 -0.10515171444E+03 -0.38924875882E+03 -0.16909621323E+03  0.43722420865E+03  0.25500000920E-02 0.  1.
</event>
<event>
 5   0  0.2134145E-03  0.9035251E+03  0.7818609E-02  0.9421186E-01
        1   -1    0    0  501    0  0.00000000000E+00  0.00000000000E+00  0.37375512588E+03  0.37375512592E+03  0.50400001928E-02 0.  1.
       -1   -1    0    0    0  501  0.00000000000E+00  0.00000000000E+00 -0.54605110492E+03  0.54605110495E+03  0.50400001928E-02 0. -1.
    10030    2    1    2    0    0  0.00000000000E+00  0.00000000000E+00 -0.17229597904E+03  0.91980623086E+03  0.90352509536E+03 0.  0.
        1    1    3    3  502    0 -0.31289676080E+03  0.25727585486E+03  0.11744103847E+03  0.42176728886E+03  0.50400001928E-02 0.  1.
       -1    1    3    3    0  502  0.31289676080E+03 -0.25727585486E+03 -0.28973701751E+03  0.49803894200E+03  0.50400001928E-02 0. -1.
</event>
<event>
 5   0  0.2074970E-03  0.9061672E+03  0.7818609E-02  0.9417905E-01
       -1   -1    0    0    0  501  0.00000000000E+00  0.00000000000E+00  0.19745992019E+03  0.19745992025E+03  0.50400001928E-02 0. -1.
        1   -1    0    0  501    0  0.00000000000E+00  0.00000000000E+00 -0.10396273412E+04  0.10396273412E+04  0.50400001928E-02 0.  1.
    10030    2    1    2    0    0  0.00000000000E+00  0.00000000000E+00 -0.84216742101E+03  0.12370872615E+04  0.90616716308E+03 0.  0.
        2    1    3    3  502    0  0.44378836458E+03 -0.20114044525E+02 -0.29949742628E+03  0.53577177574E+03  0.25500000920E-02 0.  1.
       -2    1    3    3    0  502 -0.44378836458E+03  0.20114044525E+02 -0.54266999473E+03  0.70131548572E+03  0.25500000920E-02 0. -1.
</event>
<event>
 5   0  0.3685879E-03  0.9005970E+03  0.7818609E-02  0.9424835E-01
       -2   -1    0    0    0  501  0.00000000000E+00  0.00000000000E+00  0.38359070957E+03  0.38359070958E+03  0.25500000920E-02 0. -1.
        2   -1    0    0  501    0  0.00000000000E+00  0.00000000000E+00 -0.52860701348E+03  0.52860701349E+03  0.25500000920E-02 0.  1.
    10030    2    1    2    0    0  0.00000000000E+00  0.00000000000E+00 -0.14501630391E+03  0.91219772306E+03  0.90059700064E+03 0.  0.
        1    1    3    3  502    0 -0.16953400798E+03  0.38967835841E+03  0.78332047200E+02  0.43211909529E+03  0.50400001928E-02 0. -1.
       -1    1    3    3    0  502  0.16953400798E+03 -0.38967835841E+03 -0.22334835111E+03  0.48007862777E+03  0.50400001928E-02 0.  1.
</event>
<event>
 5   0  0.2074970E-03  0.8817443E+03  0.7818609E-02  0.9448694E-01
       -1   -1    0    0    0  501  0.00000000000E+00  0.00000000000E+00  0.21528761668E+03  0.21528761674E+03  0.50400001928E-02 0.  1.
        1   -1    0    0  501    0  0.00000000000E+00  0.00000000000E+00 -0.90283053955E+03  0.90283053957E+03  0.50400001928E-02 0. -1.
    10030    2    1    2    0    0  0.00000000000E+00  0.00000000000E+00 -0.68754292287E+03  0.11181181563E+04  0.88174426035E+03 0.  0.
        2    1    3    3  502    0 -0.18496453270E+03 -0.36663440175E+03 -0.54720004407E+03  0.68414950935E+03  0.25500000920E-02 0. -1.
       -2    1    3    3    0  502  0.18496453270E+03  0.36663440175E+03 -0.14034287881E+03  0.43396864696E+03  0.25500000920E-02 0.  1.
</event>
<event>
 5   0  0.2129280E-03  0.9007447E+03  0.7818609E-02  0.9424651E-01
        1   -1    0    0  501    0  0.00000000000E+00  0.00000000000E+00  0.47421224762E+03  0.47421224765E+03  0.50400001928E-02 0. -1.
       -1   -1    0    0    0  501  0.00000000000E+00  0.00000000000E+00 -0.42773093232E+03  0.42773093235E+03  0.50400001928E-02 0.  1.
    10030    2    1    2    0    0  0.00000000000E+00  0.00000000000E+00  0.46481315308E+02  0.90194318000E+03  0.90074468484E+03 0.  0.
        3    1    3    3  502    0 -0.11640067194E+03 -0.99818205668E+02  0.44726891396E+03  0.47282373270E+03  0.10100000352E+00 0. -1.
       -3    1    3    3    0  502  0.11640067194E+03  0.99818205668E+02 -0.40078759865E+03  0.42911944729E+03  0.10100000352E+00 0.  1.
</event>
<event>
 5   0  0.3685879E-03  0.9022855E+03  0.7818609E-02  0.9422729E-01
       -2   -1    0    0    0  501  0.00000000000E+00  0.00000000000E+00  0.57833227829E+03  0.57833227830E+03  0.25500000920E-02 0. -1.
        2   -1    0    0  501    0  0.00000000000E+00  0.00000000000E+00 -0.35192534563E+03  0.35192534564E+03  0.25500000920E-02 0.  1.
    10030    2    1    2    0    0  0.00000000000E+00  0.00000000000E+00  0.22640693266E+03  0.93025762394E+03  0.90228551343E+03 0.  0.
        1    1    3    3  502    0  0.12675550498E+03 -0.27601982756E+03  0.45712532502E+03  0.54883282159E+03  0.50400001928E-02 0. -1.
       -1    1    3    3    0  502 -0.12675550498E+03  0.27601982756E+03 -0.23071839236E+03  0.38142480235E+03  0.50400001928E-02 0.  1.
</event>
<event>
 5   0  0.3663255E-03  0.8911311E+03  0.7818609E-02  0.9436736E-01
        2   -1    0    0  501    0  0.00000000000E+00  0.00000000000E+00  0.41497396146E+03  0.41497396147E+03  0.25500000920E-02 0. -1.
       -2   -1    0    0    0  501  0.00000000000E+00  0.00000000000E+00 -0.47841237457E+03  0.47841237457E+03  0.25500000920E-02 0.  1.
    10030    2    1    2    0    0  0.00000000000E+00  0.00000000000E+00 -0.63438413106E+02  0.89338633604E+03  0.89113114252E+03 0.  0.
        4    1    3    3  502    0 -0.34569202389E+03  0.39762202790E+02 -0.31070939437E+03  0.46650396440E+03  0.12699999809E+01 0.  1.
       -4    1    3    3    0  502  0.34569202389E+03 -0.39762202790E+02  0.24727098126E+03  0.42688237165E+03  0.12699999809E+01 0. -1.
</event>
<event>
 5   0  0.3663255E-03  0.8991508E+03  0.7818609E-02  0.9426644E-01
       -2   -1    0    0    0  501  0.00000000000E+00  0.00000000000E+00  0.24274005138E+03  0.24274005140E+03  0.25500000920E-02 0. -1.
        2   -1    0    0  501    0  0.00000000000E+00  0.00000000000E+00 -0.83265216573E+03  0.83265216574E+03  0.25500000920E-02 0.  1.
    10030    2    1    2    0    0  0.00000000000E+00  0.00000000000E+00 -0.58991211435E+03  0.10753922171E+04  0.89915077602E+03 0.  0.
        4    1    3    3  502    0 -0.27816577961E+03  0.35271148744E+03 -0.31684080470E+03  0.54970110310E+03  0.12699999809E+01 0. -1.
       -4    1    3    3    0  502  0.27816577961E+03 -0.35271148744E+03 -0.27307130965E+03  0.52569111404E+03  0.12699999809E+01 0.  1.
</event>
<event>
 5   0  0.3626546E-03  0.8982314E+03  0.7818609E-02  0.9427795E-01
        2   -1    0    0  501    0  0.00000000000E+00  0.00000000000E+00  0.66336076549E+03  0.66336076549E+03  0.25500000920E-02 0.  1.
       -2   -1    0    0    0  501  0.00000000000E+00  0.00000000000E+00 -0.30406515287E+03  0.30406515288E+03  0.25500000920E-02 0. -1.
    10030    2    1    2    0    0  0.00000000000E+00  0.00000000000E+00  0.35929561262E+03  0.96742591837E+03  0.89823135677E+03 0.  0.
        3    1    3    3  502    0  0.21324229531E+03  0.30412433484E+02 -0.24480165447E+03  0.32607522575E+03  0.10100000352E+00 0. -1.
       -3    1    3    3    0  502 -0.21324229531E+03 -0.30412433484E+02  0.60409726709E+03  0.64135069262E+03  0.10100000352E+00 0.  1.
</event>
<event>
 5   0  0.2134145E-03  0.9022533E+03  0.7818609E-02  0.9422769E-01
       -1   -1    0    0    0  501  0.00000000000E+00  0.00000000000E+00  0.21048958490E+03  0.21048958496E+03  0.50400001928E-02 0.  1.
        1   -1    0    0  501    0  0.00000000000E+00  0.00000000000E+00 -0.96686617350E+03  0.96686617351E+03  0.50400001928E-02 0. -1.
    10030    2    1    2    0    0  0.00000000000E+00  0.00000000000E+00 -0.75637658860E+03  0.11773557585E+04  0.90225331156E+03 0.  0.
        1    1    3    3  502    0 -0.44377704166E+03  0.76091622193E+02 -0.41480159069E+03  0.61219960580E+03  0.50400001928E-02 0. -1.
       -1    1    3    3    0  502  0.44377704166E+03 -0.76091622193E+02 -0.34157499791E+03  0.56515615267E+03  0.50400001928E-02 0.  1.
</event>
<event>
 5   0  0.3806019E-03  0.8962061E+03  0.7818609E-02  0.9430336E-01
       -2   -1    0    0    0  501  0.00000000000E+00  0.00000000000E+00  0.23247265819E+03  0.23247265820E+03  0.25500000920E-02 0.  1.
        2   -1    0    0  501    0  0.00000000000E+00  0.00000000000E+00 -0.86374172456E+03  0.86374172457E+03  0.25500000920E-02 0. -1.
    10030    2    1    2    0    0  0.00000000000E+00  0.00000000000E+00 -0.63126906638E+03  0.10962143828E+04  0.89620608056E+03 0.  0.
        2    1    3    3  502    0 -0.65655653299E+02  0.28448423856E+03 -0.73143103427E+03  0.78754892209E+03  0.25500000920E-02 0. -1.
       -2    1    3    3    0  502  0.65655653299E+02 -0.28448423856E+03  0.10016196789E+03  0.30866546068E+03  0.25500000920E-02 0.  1.
</event>
<event>
 5   0  0.3685879E-03  0.9035758E+03  0.7818609E-02  0.9421123E-01
        2   -1    0    0  501    0  0.00000000000E+00  0.00000000000E+00  0.91568297517E+03  0.91568297517E+03  0.25500000920E-02 0. -1.
       -2   -1    0    0    0  501  0.00000000000E+00  0.00000000000E+00 -0.22290716503E+03  0.22290716504E+03  0.25500000920E-02 0.  1.
    10030    2    1    2    0    0  0.00000000000E+00  0.00000000000E+00  0.69277581014E+03  0.11385901402E+04  0.90357577672E+03 0.  0.
        1    1    3    3  502    0  0.19736496825E+03  0.39013650454E+03  0.48980003820E+03  0.65655426304E+03  0.50400001928E-02 0.  1.
       -1    1    3    3    0  502 -0.19736496825E+03 -0.39013650454E+03  0.20297577194E+03  0.48203587717E+03  0.50400001928E-02 0. -1.
</event>
<event>
 5   0  0.2074970E-03  0.8982576E+03  0.7818609E-02  0.9427762E-01
       -1   -1    0    0    0  501  0.00000000000E+00  0.00000000000E+00  0.14395416347E+03  0.14395416356E+03  0.50400001928E-02 0.  1.
        1   -1    0    0  501    0  0.00000000000E+00  0.00000000000E+00 -0.14012561977E+04  0.14012561977E+04  0.50400001928E-02 0. -1.
    10030    2    1    2    0    0  0.00000000000E+00  0.00000000000E+00 -0.12573020342E+04  0.15452103612E+04  0.89825756622E+03 0.  0.
        2    1    3    3  502    0 -0.77967433058E+01 -0.25202733339E+03  0.10706040101E+02  0.25237508848E+03  0.25500000920E-02 0.  1.
       -2    1    3    3    0  502  0.77967433058E+01  0.25202733339E+03 -0.12680080743E+04  0.12928352728E+04  0.25500000920E-02 0. -1.
</event>
<event>
 5   0  0.2074970E-03  0.8980700E+03  0.7818609E-02  0.9427997E-01
       -1   -1    0    0    0  501  0.00000000000E+00  0.00000000000E+00  0.96902621800E+03  0.96902621801E+03  0.50400001928E-02 0. -1.
        1   -1    0    0  501    0  0.00000000000E+00  0.00000000000E+00 -0.20807736654E+03  0.20807736660E+03  0.50400001928E-02 0.  1.
    10030    2    1    2    0    0  0.00000000000E+00  0.00000000000E+00  0.76094885146E+03  0.11771035846E+04  0.89806998300E+03 0.  0.
        2    1    3    3  502    0  0.32457371071E+03 -0.51958849069E+02  0.78143965565E+03  0.84775925303E+03  0.25500000920E-02 0. -1.
       -2    1    3    3    0  502 -0.32457371071E+03  0.51958849069E+02 -0.20490804191E+02  0.32934433158E+03  0.25500000920E-02 0.  1.
</event>
<event>
 5   0  0.3685879E-03  0.9066825E+03  0.7818609E-02  0.9417266E-01
        2   -1    0    0  501    0  0.00000000000E+00  0.00000000000E+00  0.48756381948E+03  0.48756381949E+03  0.25500000920E-02 0.  1.
       -2   -1    0    0    0  501  0.00000000000E+00  0.00000000000E+00 -0.42152079296E+03  0.42152079297E+03  0.25500000920E-02 0. -1.
    10030    2    1    2    0    0  0.00000000000E+00  0.00000000000E+00  0.66043026518E+02  0.90908461246E+03  0.90668249749E+03 0.  0.
        1    1    3    3  502    0  0.22356417873E+03  0.37928400047E+03 -0.75343465954E+02  0.44666982539E+03  0.50400001928E-02 0. -1.
       -1    1    3    3    0  502 -0.22356417873E+03 -0.37928400047E+03  0.14138649247E+03  0.46241478707E+03  0.50400001928E-02 0.  1.
</event>
<event>
 5   0  0.3663255E-03  0.9014286E+03  0.7818609E-02  0.9423797E-01
        2   -1    0    0  501    0  0.00000000000E+00  0.00000000000E+00  0.15713677512E+04  0.15713677512E+04  0.25500000920E-02 0. -1.
       -2   -1    0    0    0  501  0.00000000000E+00  0.00000000000E+00 -0.12927805934E+03  0.12927805936E+03  0.25500000920E-02 0.  1.
    10030    2    1    2    0    0  0.00000000000E+00  0.00000000000E+00  0.14420896918E+04  0.17006458105E+04  0.90142858485E+03 0.  0.
        4    1    3    3  502    0 -0.41929691007E+02 -0.96189768962E+02  0.15479990968E+04  0.15515519287E+04  0.12699999809E+01 0. -1.
       -4    1    3    3    0  502  0.41929691007E+02  0.96189768962E+02 -0.10590940501E+03  0.14909388187E+03  0.12699999809E+01 0.  1.
</event>
<event>
 5   0  0.3663255E-03  0.9004635E+03  0.7818609E-02  0.9425002E-01
       -2   -1    0    0    0  501  0.00000000000E+00  0.00000000000E+00  0.12040580607E+03  0.12040580610E+03  0.25500000920E-02 0. -1.
        2   -1    0    0  501    0  0.00000000000E+00  0.00000000000E+00 -0.16835453983E+04  0.16835453983E+04  0.25500000920E-02 0.  1.
    10030    2    1    2    0    0  0.00000000000E+00  0.00000000000E+00 -0.15631395922E+04  0.18039512044E+04  0.90046352677E+03 0.  0.
        4    1    3    3  502    0 -0.36031367210E+03 -0.26987363315E+03 -0.79563726465E+03  0.91416518747E+03  0.12699999809E+01 0. -1.
       -4    1    3    3    0  502  0.36031367210E+03  0.26987363315E+03 -0.76750232756E+03  0.88978601691E+03  0.12699999809E+01 0.  1.
</event>
<event>
 5   0  0.2129280E-03  0.8937493E+03  0.7818609E-02  0.9433429E-01
        1   -1    0    0  501    0  0.00000000000E+00  0.00000000000E+00  0.75681493775E+03  0.75681493777E+03  0.50400001928E-02 0.  1.
       -1   -1    0    0    0  501  0.00000000000E+00  0.00000000000E+00 -0.26386496550E+03  0.26386496554E+03  0.50400001928E-02 0. -1.
    10030    2    1    2    0    0  0.00000000000E+00  0.00000000000E+00  0.49294997226E+03  0.10206799033E+04  0.89374928804E+03 0.  0.
        3    1    3    3  502    0  0.37740525095E+03 -0.60981231327E+02 -0.17782467833E+02  0.38271354873E+03  0.10100000352E+00 0. -1.
       -3    1    3    3    0  502 -0.37740525095E+03  0.60981231327E+02  0.51073244009E+03  0.63796635458E+03  0.10100000352E+00 0.  1.
</event>
<event>
 5   0  0.1436000E-03  0.8974615E+03  0.7818609E-02  0.9428760E-01
        3   -1    0    0  501    0  0.00000000000E+00  0.00000000000E+00  0.61700282921E+03  0.61700283748E+03  0.10100000352E+00 0.  1.
       -3   -1    0    0    0  501  0.00000000000E+00  0.00000000000E+00 -0.32635064288E+03  0.32635065851E+03  0.10100000352E+00 0. -1.
    10030    2    1    2    0    0  0.00000000000E+00  0.00000000000E+00  0.29065218633E+03  0.94335349599E+03  0.89746148941E+03 0.  0.
        1    1    3    3  502    0  0.44153164726E+03 -0.67873715114E+02  0.18994978454E+03  0.48542554260E+03  0.50400001928E-02 0. -1.
       -1    1    3    3    0  502 -0.44153164726E+03  0.67873715114E+02  0.10070240179E+03  0.45792795339E+03  0.50400001928E-02 0.  1.
</event>
<event>
 5   0  0.2129280E-03  0.9009507E+03  0.7818609E-02  0.9424394E-01
        1   -1    0    0  501    0  0.00000000000E+00  0.00000000000E+00  0.84594919948E+03  0.84594919950E+03  0.50400001928E-02 0. -1.
       -1   -1    0    0    0  501  0.00000000000E+00  0.00000000000E+00 -0.23988207122E+03  0.23988207127E+03  0.50400001928E-02 0.  1.
    10030    2    1    2    0    0  0.00000000000E+00  0.00000000000E+00  0.60606712827E+03  0.10858312708E+04  0.90095071153E+03 0.  0.
        3    1    3    3  502    0  0.39326843577E+03  0.78908833761E+02  0.55918205347E+02  0.40498583001E+03  0.10100000352E+00 0.  1.
       -3    1    3    3    0  502 -0.39326843577E+03 -0.78908833761E+02  0.55014892292E+03  0.68084544076E+03  0.10100000352E+00 0. -1.
</event>
<event>
 5   0  0.3806019E-03  0.8921363E+03  0.7818609E-02  0.9435465E-01
        2   -1    0    0  501    0  0.00000000000E+00  0.00000000000E+00  0.13892656128E+04  0.13892656128E+04  0.25500000920E-02 0. -1.
       -2   -1    0    0    0  501  0.00000000000E+00  0.00000000000E+00 -0.14322445857E+03  0.14322445859E+03  0.25500000920E-02 0.  1.
    10030    2    1    2    0    0  0.00000000000E+00  0.00000000000E+00  0.12460411542E+04  0.15324900713E+04  0.89213634656E+03 0.  0.
        2    1    3    3  502    0 -0.17678572137E+03  0.37649404989E+03  0.34616622417E+03  0.54113955284E+03  0.25500000920E-02 0.  1.
       -2    1    3    3    0  502  0.17678572137E+03 -0.37649404989E+03  0.89987493001E+03  0.99135051851E+03  0.25500000920E-02 0. -1.
</event>
<event>
 5   0  0.2074970E-03  0.8973994E+03  0.7818609E-02  0.9428838E-01
        1   -1    0    0  501    0  0.00000000000E+00  0.00000000000E+00  0.41505419456E+03  0.41505419459E+03  0.50400001928E-02 0. -1.
       -1   -1    0    0    0  501  0.00000000000E+00  0.00000000000E+00 -0.48507262665E+03  0.48507262668E+03  0.50400001928E-02 0.  1.
    10030    2    1    2    0    0  0.00000000000E+00  0.00000000000E+00 -0.70018432088E+02  0.90012682127E+03  0.89739941695E+03 0.  0.
        2    1    3    3  502    0 -0.34720106424E+03 -0.24253161801E+03 -0.18365294181E+03  0.46162600423E+03  0.25500000920E-02 0.  1.
       -2    1    3    3    0  502  0.34720106424E+03  0.24253161801E+03  0.11363450972E+03  0.43850081704E+03  0.25500000920E-02 0. -1.
</event>
<event>
 5   0  0.2074970E-03  0.9013126E+03  0.7818609E-02  0.9423942E-01
       -1   -1    0    0    0  501  0.00000000000E+00  0.00000000000E+00  0.24366959625E+03  0.24366959631E+03  0.50400001928E-02 0. -1.
        1   -1    0    0  501    0  0.00000000000E+00  0.00000000000E+00 -0.83346925636E+03  0.83346925637E+03  0.50400001928E-02 0.  1.
    10030    2    1    2    0    0  0.00000000000E+00  0.00000000000E+00 -0.58979966011E+03  0.10771388527E+04  0.90131263660E+03 0.  0.
        2    1    3    3  502    0 -0.18029024210E+03  0.86441086617E+02 -0.77756114869E+03  0.80285613457E+03  0.25500000920E-02 0.  1.
       -2    1    3    3    0  502  0.18029024210E+03 -0.86441086617E+02  0.18776148859E+03  0.27428271811E+03  0.25500000920E-02 0. -1.
</event>
<event>
 5   0  0.2134145E-03  0.8999711E+03  0.7818609E-02  0.9425617E-01
       -1   -1    0    0    0  501  0.00000000000E+00  0.00000000000E+00  0.42740470439E+03  0.42740470442E+03  0.50400001928E-02 0. -1.
        1   -1    0    0  501    0  0.00000000000E+00  0.00000000000E+00 -0.47375944751E+03  0.47375944754E+03  0.50400001928E-02 0.  1.
    10030    2    1    2    0    0  0.00000000000E+00  0.00000000000E+00 -0.46354743127E+02  0.90116415195E+03  0.89997114762E+03 0.  0.
        1    1    3    3  502    0  0.30802306029E+03 -0.32799255105E+03 -0.17720615741E+02  0.45030138737E+03  0.50400001928E-02 0.  1.
       -1    1    3    3    0  502 -0.30802306029E+03  0.32799255105E+03 -0.28634127385E+02  0.45086276459E+03  0.50400001928E-02 0. -1.
</event>
<event>
 5   0  0.3806019E-03  0.8987838E+03  0.7818609E-02  0.9427103E-01
        2   -1    0    0  501    0  0.00000000000E+00  0.00000000000E+00  0.73997823388E+03  0.73997823388E+03  0.25500000920E-02 0.  1.
       -2   -1    0    0    0  501  0.00000000000E+00  0.00000000000E+00 -0.27291760311E+03  0.27291760312E+03  0.25500000920E-02 0. -1.
    10030    2    1    2    0    0  0.00000000000E+00  0.00000000000E+00  0.46706063077E+03  0.10128958370E+04  0.89878381373E+03 0.  0.
        2    1    3    3  502    0  0.33434715388E+03  0.28912111437E+03  0.32490501757E+03  0.54858208915E+03  0.25500000920E-02 0.  1.
       -2    1    3    3    0  502 -0.33434715388E+03 -0.28912111437E+03  0.14215561320E+03  0.46431374786E+03  0.25500000920E-02 0. -1.
</event>
<event>
 5   0  0.3663255E-03  0.8813360E+03  0.7818609E-02  0.9449218E-01
       -2   -1    0    0    0  501  0.00000000000E+00  0.00000000000E+00  0.24222960450E+03  0.24222960451E+03  0.25500000920E-02 0.  1.
        2   -1    0    0  501    0  0.00000000000E+00  0.00000000000E+00 -0.80167024656E+03  0.80167024656E+03  0.25500000920E-02 0. -1.
    10030    2    1    2    0    0  0.00000000000E+00  0.00000000000E+00 -0.55944064206E+03  0.10438998511E+04  0.88133595585E+03 0.  0.
        4    1    3    3  502    0 -0.32341647124E+03 -0.19565198248E+03 -0.11425042804E+02  0.37816670480E+03  0.12699999809E+01 0. -1.
       -4    1    3    3    0  502  0.32341647124E+03  0.19565198248E+03 -0.54801559926E+03  0.66573314627E+03  0.12699999809E+01 0.  1.
</event>
<event>
 5   0  0.2134145E-03  0.9007919E+03  0.7818609E-02  0.9424592E-01
        1   -1    0    0  501    0  0.00000000000E+00  0.00000000000E+00  0.34892352641E+03  0.34892352645E+03  0.50400001928E-02 0.  1.
       -1   -1    0    0    0  501  0.00000000000E+00  0.00000000000E+00 -0.58137820278E+03  0.58137820280E+03  0.50400001928E-02 0. -1.
    10030    2    1    2    0    0  0.00000000000E+00  0.00000000000E+00 -0.23245467636E+03  0.93030172925E+03  0.90079194650E+03 0.  0.
        1    1    3    3  502    0 -0.26073347104E+03 -0.18936180190E+03  0.20875035583E+03  0.38394862420E+03  0.50400001928E-02 0.  1.
       -1    1    3    3    0  502  0.26073347104E+03  0.18936180190E+03 -0.44120503219E+03  0.54635310505E+03  0.50400001928E-02 0. -1.
</event>
<event>
 5   0  0.3685879E-03  0.9016769E+03  0.7818609E-02  0.9423488E-01
       -2   -1    0    0    0  501  0.00000000000E+00  0.00000000000E+00  0.42993930977E+03  0.42993930978E+03  0.25500000920E-02 0.  1.
        2   -1    0    0  501    0  0.00000000000E+00  0.00000000000E+00 -0.47275352885E+03  0.47275352885E+03  0.25500000920E-02 0. -1.
    10030    2    1    2    0    0  0.00000000000E+00  0.00000000000E+00 -0.42814219074E+02  0.90269283863E+03  0.90167693969E+03 0.  0.
        1    1    3    3  502    0 -0.30416860275E+03 -0.26871336117E+03 -0.21791865365E+03  0.46066685251E+03  0.50400001928E-02 0. -1.
       -1    1    3    3    0  502  0.30416860275E+03  0.26871336117E+03  0.17510443458E+03  0.44202598612E+03  0.50400001928E-02 0.  1.
</event>
<event>
 5   0  0.2074970E-03  0.8993487E+03  0.7818609E-02  0.9426396E-01
       -1   -1    0    0    0  501  0.00000000000E+00  0.00000000000E+00  0.55433648199E+03  0.55433648202E+03  0.50400001928E-02 0. -1.
        1   -1    0    0  501    0  0.00000000000E+00  0.00000000000E+00 -0.36477307756E+03  0.36477307760E+03  0.50400001928E-02 0.  1.
    10030    2    1    2    0    0  0.00000000000E+00  0.00000000000E+00  0.18956340443E+03  0.91910955961E+03  0.89934870783E+03 0.  0.
        2    1    3    3  502    0 -0.38489950090E+03  0.39872849522E+02  0.32887708999E+03  0.50783620415E+03  0.25500000920E-02 0. -1.
       -2    1    3    3    0  502  0.38489950090E+03 -0.39872849522E+02 -0.13931368556E+03  0.41127335546E+03  0.25500000920E-02 0.  1.
</event>
<event>
 5   0  0.2134145E-03  0.8979467E+03  0.7818609E-02  0.9428152E-01
       -1   -1    0    0    0  501  0.00000000000E+00  0.00000000000E+00  0.16185153206E+03  0.16185153214E+03  0.50400001928E-02 0. -1.
        1   -1    0    0  501    0  0.00000000000E+00  0.00000000000E+00 -0.12454441872E+04  0.12454441872E+04  0.50400001928E-02 0.  1.
    10030    2    1    2    0    0  0.00000000000E+00  0.00000000000E+00 -0.10835926551E+04  0.14072957193E+04  0.89794665732E+03 0.  0.
        1    1    3    3  502    0 -0.31262033139E+03 -0.29116354951E+03 -0.75821909779E+03  0.87028954058E+03  0.50400001928E-02 0.  1.
       -1    1    3    3    0  502  0.31262033139E+03  0.29116354951E+03 -0.32537355731E+03  0.53700617872E+03  0.50400001928E-02 0. -1.
</event>
<event>
 5   0  0.2134145E-03  0.9152045E+03  0.7818609E-02  0.9406772E-01
       -1   -1    0    0    0  501  0.00000000000E+00  0.00000000000E+00  0.50726975318E+03  0.50726975321E+03  0.50400001928E-02 0.  1.
        1   -1    0    0  501    0  0.00000000000E+00  0.00000000000E+00 -0.41279774613E+03  0.41279774616E+03  0.50400001928E-02 0. -1.
    10030    2    1    2    0    0  0.00000000000E+00  0.00000000000E+00  0.94472007052E+02  0.92006749937E+03  0.91520448167E+03 0.  0.
        1    1    3    3  502    0 -0.35617780029E+03 -0.26881785421E+03  0.14913606162E+03  0.47049678964E+03  0.50400001928E-02 0.  1.
       -1    1    3    3    0  502  0.35617780029E+03  0.26881785421E+03 -0.54664054564E+02  0.44957070973E+03  0.50400001928E-02 0. -1.
</event>
<event>
 5   0  0.2134145E-03  0.8998783E+03  0.7818609E-02  0.9425734E-01
       -1   -1    0    0    0  501  0.00000000000E+00  0.00000000000E+00  0.42121492354E+03  0.42121492357E+03  0.50400001928E-02 0. -1.
        1   -1    0    0  501    0  0.00000000000E+00  0.00000000000E+00 -0.48062216004E+03  0.48062216007E+03  0.50400001928E-02 0.  1.
    10030    2    1    2    0    0  0.00000000000E+00  0.00000000000E+00 -0.59407236498E+02  0.90183708364E+03  0.89987827270E+03 0.  0.
        1    1    3    3  502    0  0.41937446766E+03 -0.97115173515E+02  0.10149707113E+03  0.44227588283E+03  0.50400001928E-02 0. -1.
       -1    1    3    3    0  502 -0.41937446766E+03  0.97115173515E+02 -0.16090430763E+03  0.45956120082E+03  0.50400001928E-02 0.  1.
</event>
<event>
 5   0  0.2134145E-03  0.8997250E+03  0.7818609E-02  0.9425925E-01
       -1   -1    0    0    0  501  0.00000000000E+00  0.00000000000E+00  0.72925183361E+03  0.72925183362E+03  0.50400001928E-02 0.  1.
        1   -1    0    0  501    0  0.00000000000E+00  0.00000000000E+00 -0.27751217889E+03  0.27751217894E+03  0.50400001928E-02 0. -1.
    10030    2    1    2    0    0  0.00000000000E+00  0.00000000000E+00  0.45173965471E+03  0.10067640126E+04  0.89972499207E+03 0.  0.
        1    1    3    3  502    0 -0.14295361582E+03  0.39584120675E+03  0.40367766292E+03  0.58316520199E+03  0.50400001928E-02 0.  1.
       -1    1    3    3    0  502  0.14295361582E+03 -0.39584120675E+03  0.48061991790E+02  0.42359881058E+03  0.50400001928E-02 0. -1.
</event>
<event>
 5   0  0.2074970E-03  0.8928733E+03  0.7818609E-02  0.9434534E-01
        1   -1    0    0  501    0  0.00000000000E+00  0.00000000000E+00  0.13156049224E+04  0.13156049224E+04  0.50400001928E-02 0. -1.
       -1   -1    0    0    0  501  0.00000000000E+00  0.00000000000E+00 -0.15149357171E+03  0.15149357179E+03  0.50400001928E-02 0.  1.
    10030    2    1    2    0    0  0.00000000000E+00  0.00000000000E+00  0.11641113507E+04  0.14670984942E+04  0.89287331400E+03 0.  0.
        2    1    3    3  502    0  0.15764091622E+03  0.26712319275E+03  0.54462407036E+02  0.31491524631E+03  0.25500000920E-02 0.  1.
       -2    1    3    3    0  502 -0.15764091622E+03 -0.26712319275E+03  0.11096489436E+04  0.11521832479E+04  0.25500000920E-02 0. -1.
</event>
<event>
 5   0  0.2295158E-03  0.9001743E+03  0.7818609E-02  0.9425364E-01
        1   -1    0    0  501    0  0.00000000000E+00  0.00000000000E+00  0.40952088177E+03  0.40952088180E+03  0.50400001928E-02 0. -1.
       -1   -1    0    0    0  501  0.00000000000E+00  0.00000000000E+00 -0.49467182402E+03  0.49467182404E+03  0.50400001928E-02 0.  1.
    10030    2    1    2    0    0  0.00000000000E+00  0.00000000000E+00 -0.85150942249E+02  0.90419270585E+03  0.90017429775E+03 0.  0.
        4    1    3    3  502    0  0.30770266507E+03  0.31946014816E+03  0.34192872427E+02  0.44486681353E+03  0.12699999809E+01 0. -1.
       -4    1    3    3    0  502 -0.30770266507E+03 -0.31946014816E+03 -0.11934381468E+03  0.45932589232E+03  0.12699999809E+01 0.  1.
</event>
<event>
 5   0  0.3806019E-03  0.9047730E+03  0.7818609E-02  0.9419634E-01
        2   -1    0    0  501    0  0.00000000000E+00  0.00000000000E+00  0.21325792546E+03  0.21325792548E+03  0.25500000920E-02 0.  1.
       -2   -1    0    0    0  501  0.00000000000E+00  0.00000000000E+00 -0.95965280778E+03  0.95965280778E+03  0.25500000920E-02 0. -1.
    10030    2    1    2    0    0  0.00000000000E+00  0.00000000000E+00 -0.74639488232E+03  0.11729107333E+04  0.90477304770E+03 0.  0.
        2    1    3    3  502    0 -0.34799681774E+03 -0.22782524119E+02  0.35363004762E+00  0.34874195850E+03  0.25500000920E-02 0.  1.
       -2    1    3    3    0  502  0.34799681774E+03  0.22782524119E+02 -0.74674851236E+03  0.82416877476E+03  0.25500000920E-02 0. -1.
</event>
<event>
 5   0  0.2074970E-03  0.8619175E+03  0.7818609E-02  0.9474480E-01
       -1   -1    0    0    0  501  0.00000000000E+00  0.00000000000E+00  0.13553919866E+03  0.13553919875E+03  0.50400001928E-02 0. -1.
        1   -1    0    0  501    0  0.00000000000E+00  0.00000000000E+00 -0.13702709271E+04  0.13702709271E+04  0.50400001928E-02 0.  1.
    10030    2    1    2    0    0  0.00000000000E+00  0.00000000000E+00 -0.12347317284E+04  0.15058101259E+04  0.86191745191E+03 0.  0.
        2    1    3    3  502    0  0.21086762160E+03  0.45639504380E+01 -0.12739381279E+04  0.12912801157E+04  0.25500000920E-02 0.  1.
       -2    1    3    3    0  502 -0.21086762160E+03 -0.45639504380E+01  0.39206399480E+02  0.21453001013E+03  0.25500000920E-02 0. -1.
</event>
<event>
 5   0  0.2130975E-03  0.9027899E+03  0.7818609E-02  0.9422101E-01
       -1   -1    0    0    0  501  0.00000000000E+00  0.00000000000E+00  0.22173718066E+03  0.22173718072E+03  0.50400001928E-02 0. -1.
        1   -1    0    0  501    0  0.00000000000E+00  0.00000000000E+00 -0.91891409065E+03  0.91891409066E+03  0.50400001928E-02 0.  1.
    10030    2    1    2    0    0  0.00000000000E+00  0.00000000000E+00 -0.69717690999E+03  0.11406512714E+04  0.90278994184E+03 0.  0.
        5    1    3    3  502    0 -0.40490773198E+03  0.16810096868E+03 -0.21293631959E+03  0.48741375984E+03  0.46999998093E+01 0. -1.
       -5    1    3    3    0  502  0.40490773198E+03 -0.16810096868E+03 -0.48424059040E+03  0.65323751153E+03  0.46999998093E+01 0.  1.
</event>
<event>
 5   0  0.3685879E-03  0.8996367E+03  0.7818609E-02  0.9426036E-01
        2   -1    0    0  501    0  0.00000000000E+00  0.00000000000E+00  0.72136751410E+03  0.72136751410E+03  0.25500000920E-02 0.  1.
       -2   -1    0    0    0  501  0.00000000000E+00  0.00000000000E+00 -0.28049022110E+03  0.28049022111E+03  0.25500000920E-02 0. -1.
    10030    2    1    2    0    0  0.00000000000E+00  0.00000000000E+00  0.44087729300E+03  0.10018577352E+04  0.89963666784E+03 0.  0.
        1    1    3    3  502    0  0.40390876694E+03  0.56163712108E+02  0.43185110133E+03  0.59396298564E+03  0.50400001928E-02 0.  1.
       -1    1    3    3    0  502 -0.40390876694E+03 -0.56163712108E+02  0.90261916783E+01  0.40789474957E+03  0.50400001928E-02 0. -1.
</event>
<event>
 5   0  0.3685879E-03  0.8996474E+03  0.7818609E-02  0.9426022E-01
       -2   -1    0    0    0  501  0.00000000000E+00  0.00000000000E+00  0.47895162978E+03  0.47895162979E+03  0.25500000920E-02 0. -1.
        2   -1    0    0  501    0  0.00000000000E+00  0.00000000000E+00 -0.42246718192E+03  0.42246718193E+03  0.25500000920E-02 0.  1.
    10030    2    1    2    0    0  0.00000000000E+00  0.00000000000E+00  0.56484447856E+02  0.90141881172E+03  0.89964736495E+03 0.  0.
        1    1    3    3  502    0  0.40613219446E+03 -0.17227609361E+03 -0.59788232607E+02  0.44519326656E+03  0.50400001928E-02 0.  1.
       -1    1    3    3    0  502 -0.40613219446E+03  0.17227609361E+03  0.11627268046E+03  0.45622554516E+03  0.50400001928E-02 0. -1.
</event>
<event>
 5   0  0.3806019E-03  0.8928419E+03  0.7818609E-02  0.9434574E-01
       -2   -1    0    0    0  501  0.00000000000E+00  0.00000000000E+00  0.59925964527E+03  0.59925964527E+03  0.25500000920E-02 0. -1.
        2   -1    0    0  501    0  0.00000000000E+00  0.00000000000E+00 -0.33256309514E+03  0.33256309514E+03  0.25500000920E-02 0.  1.
    10030    2    1    2    0    0  0.00000000000E+00  0.00000000000E+00  0.26669655013E+03  0.93182274042E+03  0.89284185033E+03 0.  0.
        2    1    3    3  502    0  0.27408264148E+03  0.29243463741E+03 -0.71837198269E+02  0.40718533198E+03  0.25500000920E-02 0.  1.
       -2    1    3    3    0  502 -0.27408264148E+03 -0.29243463741E+03  0.33853374840E+03  0.52463740844E+03  0.25500000920E-02 0. -1.
</event>
<event>
 5   0  0.3815269E-03  0.8860178E+03  0.7818609E-02  0.9443231E-01
       -2   -1    0    0    0  501  0.00000000000E+00  0.00000000000E+00  0.70072545911E+03  0.70072545911E+03  0.25500000920E-02 0. -1.
        2   -1    0    0  501    0  0.00000000000E+00  0.00000000000E+00 -0.28007670303E+03  0.28007670304E+03  0.25500000920E-02 0.  1.
    10030    2    1    2    0    0  0.00000000000E+00  0.00000000000E+00  0.42064875608E+03  0.98080216215E+03  0.88601777933E+03 0.  0.
        5    1    3    3  502    0  0.13429484753E+03  0.30959949060E+03 -0.10733748043E+03  0.35416151027E+03  0.46999998093E+01 0.  1.
       -5    1    3    3    0  502 -0.13429484753E+03 -0.30959949060E+03  0.52798623651E+03  0.62664065188E+03  0.46999998093E+01 0. -1.
</event>
<event>
 5   0  0.2295158E-03  0.8983172E+03  0.7818609E-02  0.9427687E-01
       -1   -1    0    0    0  501  0.00000000000E+00  0.00000000000E+00  0.36944613279E+03  0.36944613282E+03  0.50400001928E-02 0.  1.
        1   -1    0    0  501    0  0.00000000000E+00  0.00000000000E+00 -0.54607003557E+03  0.54607003560E+03  0.50400001928E-02 0. -1.
    10030    2    1    2    0    0  0.00000000000E+00  0.00000000000E+00 -0.17662390279E+03  0.91551616842E+03  0.89831723328E+03 0.  0.
        4    1    3    3  502    0  0.42955054682E+03  0.85255072618E+01  0.45174717196E+02  0.43200546816E+03  0.12699999809E+01 0.  1.
       -4    1    3    3    0  502 -0.42955054682E+03 -0.85255072618E+01 -0.22179861998E+03  0.48351070026E+03  0.12699999809E+01 0. -1.
</event>
<event>
 5   0  0.3685879E-03  0.8989670E+03  0.7818609E-02  0.9426874E-01
        2   -1    0    0  501    0  0.00000000000E+00  0.00000000000E+00  0.46029276808E+03  0.46029276809E+03  0.25500000920E-02 0.  1.
       -2   -1    0    0    0  501  0.00000000000E+00  0.00000000000E+00 -0.43892807143E+03  0.43892807144E+03  0.25500000920E-02 0. -1.
    10030    2    1    2    0    0  0.00000000000E+00  0.00000000000E+00  0.21364696648E+02  0.89922083953E+03  0.89896700050E+03 0.  0.
        1    1    3    3  502    0  0.18764062290E+03  0.11922006821E+03 -0.38008508506E+03  0.44032612907E+03  0.50400001928E-02 0. -1.
       -1    1    3    3    0  502 -0.18764062290E+03 -0.11922006821E+03  0.40144978171E+03  0.45889471046E+03  0.50400001928E-02 0.  1.
</event>
<event>
 5   0  0.2134145E-03  0.8938124E+03  0.7818609E-02  0.9433349E-01
        1   -1    0    0  501    0  0.00000000000E+00  0.00000000000E+00  0.42125130467E+03  0.42125130470E+03  0.50400001928E-02 0. -1.
       -1   -1    0    0    0  501  0.00000000000E+00  0.00000000000E+00 -0.47412349203E+03  0.47412349206E+03  0.50400001928E-02 0.  1.
    10030    2    1    2    0    0  0.00000000000E+00  0.00000000000E+00 -0.52872187359E+02  0.89537479675E+03  0.89381237319E+03 0.  0.
        1    1    3    3  502    0  0.10251309516E+02 -0.42576332521E+03 -0.16211894149E+03  0.45569951685E+03  0.50400001928E-02 0.  1.
       -1    1    3    3    0  502 -0.10251309516E+02  0.42576332521E+03  0.10924675413E+03  0.43967527990E+03  0.50400001928E-02 0. -1.
</event>
<event>
 5   0  0.2074970E-03  0.9043355E+03  0.7818609E-02  0.9420178E-01
       -1   -1    0    0    0  501  0.00000000000E+00  0.00000000000E+00  0.42907259531E+03  0.42907259534E+03  0.50400001928E-02 0. -1.
        1   -1    0    0  501    0  0.00000000000E+00  0.00000000000E+00 -0.47650605547E+03  0.47650605550E+03  0.50400001928E-02 0.  1.
    10030    2    1    2    0    0  0.00000000000E+00  0.00000000000E+00 -0.47433460163E+02  0.90557865084E+03  0.90433553492E+03 0.  0.
        2    1    3    3  502    0 -0.52963106215E+02  0.85210217248E+02 -0.46521940163E+03  0.47591486991E+03  0.25500000920E-02 0.  1.
       -2    1    3    3    0  502  0.52963106215E+02 -0.85210217248E+02  0.41778594147E+03  0.42966378093E+03  0.25500000920E-02 0. -1.
</event>
<event>
 5   0  0.2134145E-03  0.8986106E+03  0.7818609E-02  0.9427320E-01
       -1   -1    0    0    0  501  0.00000000000E+00  0.00000000000E+00  0.28750564796E+03  0.28750564801E+03  0.50400001928E-02 0. -1.
        1   -1    0    0  501    0  0.00000000000E+00  0.00000000000E+00 -0.70216097230E+03  0.70216097232E+03  0.50400001928E-02 0.  1.
    10030    2    1    2    0    0  0.00000000000E+00  0.00000000000E+00 -0.41465532434E+03  0.98966662033E+03  0.89861058384E+03 0.  0.
        1    1    3    3  502    0  0.17776659776E+03  0.34747008307E+03  0.37798822393E+02  0.39212902584E+03  0.50400001928E-02 0. -1.
       -1    1    3    3    0  502 -0.17776659776E+03 -0.34747008307E+03 -0.45245414673E+03  0.59753759449E+03  0.50400001928E-02 0.  1.
</event>
<event>
 5   0  0.2130975E-03  0.9055834E+03  0.7818609E-02  0.9418629E-01
       -1   -1    0    0    0  501  0.00000000000E+00  0.00000000000E+00  0.17021395647E+03  0.17021395654E+03  0.50400001928E-02 0. -1.
        1   -1    0    0  501    0  0.00000000000E+00  0.00000000000E+00 -0.12044859781E+04  0.12044859781E+04  0.50400001928E-02 0.  1.
    10030    2    1    2    0    0  0.00000000000E+00  0.00000000000E+00 -0.10342720217E+04  0.13746999347E+04  0.90558340070E+03 0.  0.
        5    1    3    3  502    0 -0.20871707894E+03 -0.15129936200E+03  0.47896180274E+02  0.26224120589E+03  0.46999998093E+01 0. -1.
       -5    1    3    3    0  502  0.20871707894E+03  0.15129936200E+03 -0.10821682019E+04  0.11124587288E+04  0.46999998093E+01 0.  1.
</event>
<event>
 5   0  0.2074970E-03  0.9038911E+03  0.7818609E-02  0.9420730E-01
       -1   -1    0    0    0  501  0.00000000000E+00  0.00000000000E+00  0.20104409525E+03  0.20104409531E+03  0.50400001928E-02 0. -1.
        1   -1    0    0  501    0  0.00000000000E+00  0.00000000000E+00 -0.10159701182E+04  0.10159701182E+04  0.50400001928E-02 0.  1.
    10030    2    1    2    0    0  0.00000000000E+00  0.00000000000E+00 -0.81492602296E+03  0.12170142135E+04  0.90389112898E+03 0.  0.
        2    1    3    3  502    0  0.17750030704E+03 -0.65155157364E+02 -0.96015561661E+03  0.97859611773E+03  0.25500000920E-02 0.  1.
       -2    1    3    3    0  502 -0.17750030704E+03  0.65155157364E+02  0.14522959365E+03  0.23841809580E+03  0.25500000920E-02 0. -1.
</event>
<event>
 5   0  0.3685879E-03  0.8998422E+03  0.7818609E-02  0.9425779E-01
        2   -1    0    0  501    0  0.00000000000E+00  0.00000000000E+00  0.98661700017E+03  0.98661700018E+03  0.25500000920E-02 0. -1.
       -2   -1    0    0    0  501  0.00000000000E+00  0.00000000000E+00 -0.20517483044E+03  0.20517483046E+03  0.25500000920E-02 0.  1.
    10030    2    1    2    0    0  0.00000000000E+00  0.00000000000E+00  0.78144216973E+03  0.11917918306E+04  0.89984215446E+03 0.  0.
        1    1    3    3  502    0 -0.13549537120E+03  0.41023047209E+02 -0.17490719698E+03  0.22502091814E+03  0.50400001928E-02 0.  1.
       -1    1    3    3    0  502  0.13549537120E+03 -0.41023047209E+02  0.95634936671E+03  0.96677091250E+03  0.50400001928E-02 0. -1.
</event>
<event>
 5   0  0.3626546E-03  0.8957170E+03  0.7818609E-02  0.9430951E-01
       -2   -1    0    0    0  501  0.00000000000E+00  0.00000000000E+00  0.42992682697E+03  0.42992682697E+03  0.25500000920E-02 0. -1.
        2   -1    0    0  501    0  0.00000000000E+00  0.00000000000E+00 -0.46653807827E+03  0.46653807828E+03  0.25500000920E-02 0.  1.
    10030    2    1    2    0    0  0.00000000000E+00  0.00000000000E+00 -0.36611251304E+02  0.89646490525E+03  0.89571699918E+03 0.  0.
        3    1    3    3  502    0  0.20323198926E+03  0.95650137052E+02 -0.40608886774E+03  0.46406935783E+03  0.10100000352E+00 0.  1.
       -3    1    3    3    0  502 -0.20323198926E+03 -0.95650137052E+02  0.36947761644E+03  0.43239554742E+03  0.10100000352E+00 0. -1.
</event>
<event>
 5   0  0.2134145E-03  0.8950940E+03  0.7818609E-02  0.9431735E-01
        1   -1    0    0  501    0  0.00000000000E+00  0.00000000000E+00  0.29365270008E+03  0.29365270013E+03  0.50400001928E-02 0.  1.
       -1   -1    0    0    0  501  0.00000000000E+00  0.00000000000E+00 -0.68209252829E+03  0.68209252831E+03  0.50400001928E-02 0. -1.
    10030    2    1    2    0    0  0.00000000000E+00  0.00000000000E+00 -0.38843982820E+03  0.97574522843E+03  0.89509398985E+03 0.  0.
        1    1    3    3  502    0  0.17452931062E+03 -0.24977035685E+03 -0.55155549463E+03  0.63012631679E+03  0.50400001928E-02 0. -1.
       -1    1    3    3    0  502 -0.17452931062E+03  0.24977035685E+03  0.16311566643E+03  0.34561891164E+03  0.50400001928E-02 0.  1.
</event>
<event>
 5   0  0.2074970E-03  0.9000593E+03  0.7818609E-02  0.9425507E-01
       -1   -1    0    0    0  501  0.00000000000E+00  0.00000000000E+00  0.16482357512E+03  0.16482357520E+03  0.50400001928E-02 0.  1.
        1   -1    0    0  501    0  0.00000000000E+00  0.00000000000E+00 -0.12287484149E+04  0.12287484149E+04  0.50400001928E-02 0. -1.
    10030    2    1    2    0    0  0.00000000000E+00  0.00000000000E+00 -0.10639248398E+04  0.13935719901E+04  0.90005934633E+03 0.  0.
        2    1    3    3  502    0 -0.31464460265E+02 -0.41298867940E+03 -0.25945504692E+03  0.48873979064E+03  0.25500000920E-02 0.  1.
       -2    1    3    3    0  502  0.31464460265E+02  0.41298867940E+03 -0.80446979284E+03  0.90483219946E+03  0.25500000920E-02 0. -1.
</event>
<event>
 5   0  0.1436000E-03  0.8985783E+03  0.7818609E-02  0.9427360E-01
        3   -1    0    0  501    0  0.00000000000E+00  0.00000000000E+00  0.24235277626E+03  0.24235279730E+03  0.10100000352E+00 0.  1.
       -3   -1    0    0    0  501  0.00000000000E+00  0.00000000000E+00 -0.83292094514E+03  0.83292095126E+03  0.10100000352E+00 0. -1.
    10030    2    1    2    0    0  0.00000000000E+00  0.00000000000E+00 -0.59056816888E+03  0.10752737486E+04  0.89857825049E+03 0.  0.
        1    1    3    3  502    0 -0.44502538260E+03  0.60162637164E+02 -0.27863471332E+03  0.52849260881E+03  0.50400001928E-02 0. -1.
       -1    1    3    3    0  502  0.44502538260E+03 -0.60162637164E+02 -0.31193345556E+03  0.54678113976E+03  0.50400001928E-02 0.  1.
</event>
<event>
 5   0  0.2134145E-03  0.9002544E+03  0.7818609E-02  0.9425264E-01
        1   -1    0    0  501    0  0.00000000000E+00  0.00000000000E+00  0.80361339421E+03  0.80361339422E+03  0.50400001928E-02 0. -1.
       -1   -1    0    0    0  501  0.00000000000E+00  0.00000000000E+00 -0.25212930196E+03  0.25212930201E+03  0.50400001928E-02 0.  1.
    10030    2    1    2    0    0  0.00000000000E+00  0.00000000000E+00  0.55148409224E+03  0.10557426962E+04  0.90025437331E+03 0.  0.
        1    1    3    3  502    0  0.22302105811E+03 -0.20157813350E+03 -0.11714817283E+03  0.32263885490E+03  0.50400001928E-02 0.  1.
       -1    1    3    3    0  502 -0.22302105811E+03  0.20157813350E+03  0.66863226507E+03  0.73310384134E+03  0.50400001928E-02 0. -1.
</event>
<event>
 5   0  0.2074970E-03  0.9123950E+03  0.7818609E-02  0.9410218E-01
        1   -1    0    0  501    0  0.00000000000E+00  0.00000000000E+00  0.82645021815E+03  0.82645021816E+03  0.50400001928E-02 0. -1.
       -1   -1    0    0    0  501  0.00000000000E+00  0.00000000000E+00 -0.25181933002E+03  0.25181933007E+03  0.50400001928E-02 0.  1.
    10030    2    1    2    0    0  0.00000000000E+00  0.00000000000E+00  0.57463088813E+03  0.10782695482E+04  0.91239495891E+03 0.  0.
        2    1    3    3  502    0  0.66057822468E+02 -0.40554414155E+03  0.52155804229E+03  0.66396722670E+03  0.25500000920E-02 0. -1.
       -2    1    3    3    0  502 -0.66057822468E+02  0.40554414155E+03  0.53072845842E+02  0.41430232153E+03  0.25500000920E-02 0.  1.
</event>
<event>
 5   0  0.2129280E-03  0.8628142E+03  0.7818609E-02  0.9473298E-01
        1   -1    0    0  501    0  0.00000000000E+00  0.00000000000E+00  0.33323680095E+03  0.33323680099E+03  0.50400001928E-02 0.  1.
       -1   -1    0    0    0  501  0.00000000000E+00  0.00000000000E+00 -0.55849795868E+03  0.55849795871E+03  0.50400001928E-02 0. -1.
    10030    2    1    2    0    0  0.00000000000E+00  0.00000000000E+00 -0.22526115773E+03  0.89173475970E+03  0.86281417030E+03 0.  0.
        3    1    3    3  502    0 -0.41717805955E+03  0.10483166584E+03 -0.14667167607E+03  0.45446650294E+03  0.10100000352E+00 0. -1.
       -3    1    3    3    0  502  0.41717805955E+03 -0.10483166584E+03 -0.78589481667E+02  0.43726825675E+03  0.10100000352E+00 0.  1.
</event>
<event>
 5   0  0.3685879E-03  0.9033211E+03  0.7818609E-02  0.9421439E-01
       -2   -1    0    0    0  501  0.00000000000E+00  0.00000000000E+00  0.91974078679E+02  0.91974078714E+02  0.25500000920E-02 0. -1.
        2   -1    0    0  501    0  0.00000000000E+00  0.00000000000E+00 -0.22179863776E+04  0.22179863776E+04  0.25500000920E-02 0.  1.
    10030    2    1    2    0    0  0.00000000000E+00  0.00000000000E+00 -0.21260122989E+04  0.23099604563E+04  0.90332110269E+03 0.  0.
        1    1    3    3  502    0  0.42538645540E+03 -0.13161836950E+03 -0.86960064462E+03  0.97697610655E+03  0.50400001928E-02 0. -1.
       -1    1    3    3    0  502 -0.42538645540E+03  0.13161836950E+03 -0.12564116543E+04  0.13329843497E+04  0.50400001928E-02 0.  1.
</event>
<event>
 5   0  0.2130975E-03  0.8925115E+03  0.7818609E-02  0.9434991E-01
       -1   -1    0    0    0  501  0.00000000000E+00  0.00000000000E+00  0.13561156791E+03  0.13561156800E+03  0.50400001928E-02 0.  1.
        1   -1    0    0  501    0  0.00000000000E+00  0.00000000000E+00 -0.14684898572E+04  0.14684898573E+04  0.50400001928E-02 0. -1.
    10030    2    1    2    0    0  0.00000000000E+00  0.00000000000E+00 -0.13328782893E+04  0.16041014253E+04  0.89251153960E+03 0.  0.
        5    1    3    3  502    0  0.61263114732E+02  0.12662713066E+03  0.94675249309E+02  0.16962633131E+03  0.46999998093E+01 0.  1.
       -5    1    3    3    0  502 -0.61263114732E+02 -0.12662713066E+03 -0.14275535386E+04  0.14344750939E+04  0.46999998093E+01 0. -1.
</event>
<event>
 5   0  0.3806019E-03  0.9018323E+03  0.7818609E-02  0.9423294E-01
        2   -1    0    0  501    0  0.00000000000E+00  0.00000000000E+00  0.15097004044E+04  0.15097004044E+04  0.25500000920E-02 0.  1.
       -2   -1    0    0    0  501  0.00000000000E+00  0.00000000000E+00 -0.13467929937E+03  0.13467929940E+03  0.25500000920E-02 0. -1.
    10030    2    1    2    0    0  0.00000000000E+00  0.00000000000E+00  0.13750211050E+04  0.16443797038E+04  0.90183234084E+03 0.  0.
        2    1    3    3  502    0  0.27328931925E+03  0.32659996852E+03  0.95778142909E+03  0.10481888462E+04  0.25500000920E-02 0.  1.
       -2    1    3    3    0  502 -0.27328931925E+03 -0.32659996852E+03  0.41723967592E+03  0.59619085754E+03  0.25500000920E-02 0. -1.
</event>
<event>
 5   0  0.2074970E-03  0.8958193E+03  0.7818609E-02  0.9430823E-01
       -1   -1    0    0    0  501  0.00000000000E+00  0.00000000000E+00  0.71270157957E+03  0.71270157958E+03  0.50400001928E-02 0.  1.
        1   -1    0    0  501    0  0.00000000000E+00  0.00000000000E+00 -0.28149655994E+03  0.28149655998E+03  0.50400001928E-02 0. -1.
    10030    2    1    2    0    0  0.00000000000E+00  0.00000000000E+00  0.43120501963E+03  0.99419813957E+03  0.89581927405E+03 0.  0.
        2    1    3    3  502    0  0.13231260474E+03 -0.32409333060E+03 -0.94512118860E+02  0.36259571555E+03  0.25500000920E-02 0. -1.
       -2    1    3    3    0  502 -0.13231260474E+03  0.32409333060E+03  0.52571713849E+03  0.63160242402E+03  0.25500000920E-02 0.  1.
</event>
<event>
 5   0  0.3626546E-03  0.9109371E+03  0.7818609E-02  0.9412012E-01
       -2   -1    0    0    0  501  0.00000000000E+00  0.00000000000E+00  0.96265080278E+02  0.96265080312E+02  0.25500000920E-02 0. -1.
        2   -1    0    0  501    0  0.00000000000E+00  0.00000000000E+00 -0.21550034683E+04  0.21550034683E+04  0.25500000920E-02 0.  1.
    10030    2    1    2    0    0  0.00000000000E+00  0.00000000000E+00 -0.20587383881E+04  0.22512685487E+04  0.91093706022E+03 0.  0.
        3    1    3    3  502    0 -0.28998686229E+03  0.34598068769E+03 -0.87992639331E+03  0.98897193307E+03  0.10100000352E+00 0.  1.
       -3    1    3    3    0  502  0.28998686229E+03 -0.34598068769E+03 -0.11788119947E+04  0.12622966156E+04  0.10100000352E+00 0. -1.
</event>
<event>
 5   0  0.2134145E-03  0.8986509E+03  0.7818609E-02  0.9427269E-01
        1   -1    0    0  501    0  0.00000000000E+00  0.00000000000E+00  0.54570795803E+03  0.54570795806E+03  0.50400001928E-02 0. -1.
       -1   -1    0    0    0  501  0.00000000000E+00  0.00000000000E+00 -0.36996597656E+03  0.36996597660E+03  0.50400001928E-02 0.  1.
    10030    2    1    2    0    0  0.00000000000E+00  0.00000000000E+00  0.17574198147E+03  0.91567393465E+03  0.89865093922E+03 0.  0.
        1    1    3    3  502    0 -0.14406251398E+03  0.21936381161E+03  0.45949731988E+03  0.52916186255E+03  0.50400001928E-02 0. -1.
       -1    1    3    3    0  502  0.14406251398E+03 -0.21936381161E+03 -0.28375533842E+03  0.38651207210E+03  0.50400001928E-02 0.  1.
</event>
<event>
 5   0  0.3626546E-03  0.8990592E+03  0.7818609E-02  0.9426758E-01
       -2   -1    0    0    0  501  0.00000000000E+00  0.00000000000E+00  0.38485896929E+03  0.38485896929E+03  0.25500000920E-02 0. -1.
        2   -1    0    0  501    0  0.00000000000E+00  0.00000000000E+00 -0.52506729973E+03  0.52506729974E+03  0.25500000920E-02 0.  1.
    10030    2    1    2    0    0  0.00000000000E+00  0.00000000000E+00 -0.14020833045E+03  0.90992626903E+03  0.89905919669E+03 0.  0.
        3    1    3    3  502    0  0.87868283767E+02 -0.17033066627E+03  0.34143526322E+03  0.39155002277E+03  0.10100000352E+00 0. -1.
       -3    1    3    3    0  502 -0.87868283767E+02  0.17033066627E+03 -0.48164359367E+03  0.51837624626E+03  0.10100000352E+00 0.  1.
</event>
<event>
 5   0  0.2129280E-03  0.9004368E+03  0.7818609E-02  0.9425036E-01
        1   -1    0    0  501    0  0.00000000000E+00  0.00000000000E+00  0.39011640403E+03  0.39011640406E+03  0.50400001928E-02 0.  1.
       -1   -1    0    0    0  501  0.00000000000E+00  0.00000000000E+00 -0.51957985543E+03  0.51957985546E+03  0.50400001928E-02 0. -1.
    10030    2    1    2    0    0  0.00000000000E+00  0.00000000000E+00 -0.12946345140E+03  0.90969625952E+03  0.90043683806E+03 0.  0.
        3    1    3    3  502    0 -0.10944038141E+03  0.53643670864E+02  0.37313227964E+03  0.39253350025E+03  0.10100000352E+00 0.  1.
       -3    1    3    3    0  502  0.10944038141E+03 -0.53643670864E+02 -0.50259573105E+03  0.51716275927E+03  0.10100000352E+00 0. -1.
</event>
<event>
 5   0  0.2130975E-03  0.8959884E+03  0.7818609E-02  0.9430610E-01
       -1   -1    0    0    0  501  0.00000000000E+00  0.00000000000E+00  0.23213896425E+03  0.23213896430E+03  0.50400001928E-02 0.  1.
        1   -1    0    0  501    0  0.00000000000E+00  0.00000000000E+00 -0.86456324843E+03  0.86456324844E+03  0.50400001928E-02 0. -1.
    10030    2    1    2    0    0  0.00000000000E+00  0.00000000000E+00 -0.63242428418E+03  0.10967022127E+04  0.89598843085E+03 0.  0.
        5    1    3    3  502    0  0.27800558082E+03  0.34428714717E+03 -0.23091687011E+03  0.49916473591E+03  0.46999998093E+01 0.  1.
       -5    1    3    3    0  502 -0.27800558082E+03 -0.34428714717E+03 -0.40150741407E+03  0.59753747684E+03  0.46999998093E+01 0. -1.
</event>
<event>
 5   0  0.2129280E-03  0.9011333E+03  0.7818609E-02  0.9424166E-01
       -1   -1    0    0    0  501  0.00000000000E+00  0.00000000000E+00  0.44097012327E+03  0.44097012330E+03  0.50400001928E-02 0.  1.
        1   -1    0    0  501    0  0.00000000000E+00  0.00000000000E+00 -0.46037203610E+03  0.46037203613E+03  0.50400001928E-02 0. -1.
    10030    2    1    2    0    0  0.00000000000E+00  0.00000000000E+00 -0.19401912833E+02  0.90134215943E+03  0.90113331652E+03 0.  0.
        3    1    3    3  502    0 -0.33568889583E+03  0.20704330986E+03  0.20819428334E+03  0.44598075828E+03  0.10100000352E+00 0. -1.
       -3    1    3    3    0  502  0.33568889583E+03 -0.20704330986E+03 -0.22759619617E+03  0.45536140115E+03  0.10100000352E+00 0.  1.
</event>
<event>
 5   0  0.3815269E-03  0.9010726E+03  0.7818609E-02  0.9424242E-01
        2   -1    0    0  501    0  0.00000000000E+00  0.00000000000E+00  0.11591169004E+04  0.11591169004E+04  0.25500000920E-02 0. -1.
       -2   -1    0    0    0  501  0.00000000000E+00  0.00000000000E+00 -0.17511861449E+03  0.17511861451E+03  0.25500000920E-02 0.  1.
    10030    2    1    2    0    0  0.00000000000E+00  0.00000000000E+00  0.98399828589E+03  0.13342355149E+04  0.90107257343E+03 0.  0.
        5    1    3    3  502    0  0.99475318509E+02 -0.43267206977E+03  0.60535298188E+03  0.75071617914E+03  0.46999998093E+01 0. -1.
       -5    1    3    3    0  502 -0.99475318509E+02  0.43267206977E+03  0.37864530401E+03  0.58351933575E+03  0.46999998093E+01 0.  1.
</event>
<event>
 5   0  0.3685879E-03  0.8980838E+03  0.7818609E-02  0.9427980E-01
        2   -1    0    0  501    0  0.00000000000E+00  0.00000000000E+00  0.13438294481E+04  0.13438294481E+04  0.25500000920E-02 0.  1.
       -2   -1    0    0    0  501  0.00000000000E+00  0.00000000000E+00 -0.15004779216E+03  0.15004779218E+03  0.25500000920E-02 0. -1.
    10030    2    1    2    0    0  0.00000000000E+00  0.00000000000E+00  0.11937816560E+04  0.14938772403E+04  0.89808383072E+03 0.  0.
        1    1    3    3  502    0 -0.57425077903E+01 -0.93513183155E+02 -0.13360911119E+03  0.16318421013E+03  0.50400001928E-02 0. -1.
       -1    1    3    3    0  502  0.57425077903E+01  0.93513183155E+02  0.13273907671E+04  0.13306930302E+04  0.50400001928E-02 0.  1.
</event>
<event>
 5   0  0.3685879E-03  0.9019501E+03  0.7818609E-02  0.9423147E-01
        2   -1    0    0  501    0  0.00000000000E+00  0.00000000000E+00  0.10149418776E+04  0.10149418776E+04  0.25500000920E-02 0.  1.
       -2   -1    0    0    0  501  0.00000000000E+00  0.00000000000E+00 -0.20038438455E+03  0.20038438457E+03  0.25500000920E-02 0. -1.
    10030    2    1    2    0    0  0.00000000000E+00  0.00000000000E+00  0.81455749304E+03  0.12153262622E+04  0.90195011726E+03 0.  0.
        1    1    3    3  502    0 -0.18768775379E+03  0.32938420093E+03  0.73639110751E+03  0.82824664684E+03  0.50400001928E-02 0.  1.
       -1    1    3    3    0  502  0.18768775379E+03 -0.32938420093E+03  0.78166385529E+02  0.38707961532E+03  0.50400001928E-02 0. -1.
</event>
<event>
 5   0  0.2074970E-03  0.9020107E+03  0.7818609E-02  0.9423071E-01
        1   -1    0    0  501    0  0.00000000000E+00  0.00000000000E+00  0.35623868420E+03  0.35623868423E+03  0.50400001928E-02 0.  1.
       -1   -1    0    0    0  501  0.00000000000E+00  0.00000000000E+00 -0.57098183994E+03  0.57098183997E+03  0.50400001928E-02 0. -1.
    10030    2    1    2    0    0  0.00000000000E+00  0.00000000000E+00 -0.21474315575E+03  0.92722052420E+03  0.90201068595E+03 0.  0.
        2    1    3    3  502    0 -0.36045417356E+03  0.73619058889E+02  0.16080054653E+03  0.40150192134E+03  0.25500000920E-02 0.  1.
       -2    1    3    3    0  502  0.36045417356E+03 -0.73619058889E+02 -0.37554370228E+03  0.52571860286E+03  0.25500000920E-02 0. -1.
</event>
<event>
 5   0  0.1436000E-03  0.9053641E+03  0.7818609E-02  0.9418901E-01
        4   -1    0    0  501    0  0.00000000000E+00  0.00000000000E+00  0.38569080007E+03  0.38569289099E+03  0.12699999809E+01 0.  1.
       -4   -1    0    0    0  501  0.00000000000E+00  0.00000000000E+00 -0.53130486955E+03  0.53130638741E+03  0.12699999809E+01 0. -1.
    10030    2    1    2    0    0  0.00000000000E+00  0.00000000000E+00 -0.14561406948E+03  0.91699927840E+03  0.90536413633E+03 0.  0.
        1    1    3    3  502    0  0.36612122692E+03  0.16599206091E+03  0.13800949305E+03  0.42502321970E+03  0.50400001928E-02 0. -1.
       -1    1    3    3    0  502 -0.36612122692E+03 -0.16599206091E+03 -0.28362356253E+03  0.49197605870E+03  0.50400001928E-02 0.  1.
</event>
<event>
 5   0  0.3806019E-03  0.8994810E+03  0.7818609E-02  0.9426230E-01
        2   -1    0    0  501    0  0.00000000000E+00  0.00000000000E+00  0.76376069627E+03  0.76376069627E+03  0.25500000920E-02 0.  1.
       -2   -1    0    0    0  501  0.00000000000E+00  0.00000000000E+00 -0.26482970553E+03  0.26482970554E+03  0.25500000920E-02 0. -1.
    10030    2    1    2    0    0  0.00000000000E+00  0.00000000000E+00  0.49893099073E+03  0.10285904018E+04  0.89948100658E+03 0.  0.
        2    1    3    3  502    0  0.16218759774E+03  0.21760763495E+03  0.65956147374E+03  0.71321752453E+03  0.25500000920E-02 0.  1.
       -2    1    3    3    0  502 -0.16218759774E+03 -0.21760763495E+03 -0.16063048301E+03  0.31537287728E+03  0.25500000920E-02 0. -1.
</event>
<event>
 5   0  0.2130975E-03  0.9006638E+03  0.7818609E-02  0.9424752E-01
        1   -1    0    0  501    0  0.00000000000E+00  0.00000000000E+00  0.87407027759E+03  0.87407027760E+03  0.50400001928E-02 0. -1.
       -1   -1    0    0    0  501  0.00000000000E+00  0.00000000000E+00 -0.23201661312E+03  0.23201661318E+03  0.50400001928E-02 0.  1.
    10030    2    1    2    0    0  0.00000000000E+00  0.00000000000E+00  0.64205366447E+03  0.11060868908E+04  0.90066381180E+03 0.  0.
        5    1    3    3  502    0 -0.22091699399E+02  0.22517039488E+03 -0.15711582431E+03  0.27549450477E+03  0.46999998093E+01 0.  1.
       -5    1    3    3    0  502  0.22091699399E+02 -0.22517039488E+03  0.79916948877E+03  0.83059238601E+03  0.46999998093E+01 0. -1.
</event>
<event>
 5   0  0.2295158E-03  0.8927295E+03  0.7818609E-02  0.9434716E-01
        1   -1    0    0  501    0  0.00000000000E+00  0.00000000000E+00  0.48127257670E+03  0.48127257673E+03  0.50400001928E-02 0. -1.
       -1   -1    0    0    0  501  0.00000000000E+00  0.00000000000E+00 -0.41398888383E+03  0.41398888386E+03  0.50400001928E-02 0.  1.
    10030    2    1    2    0    0  0.00000000000E+00  0.00000000000E+00  0.67283692874E+02  0.89526146059E+03  0.89272951530E+03 0.  0.
        4    1    3    3  502    0 -0.21837540749E+03  0.50249813433E+02  0.42077690884E+03  0.47672600334E+03  0.12699999809E+01 0. -1.
       -4    1    3    3    0  502  0.21837540749E+03 -0.50249813433E+02 -0.35349321596E+03  0.41853545725E+03  0.12699999809E+01 0.  1.
</event>
<event>
 5   0  0.2129280E-03  0.8983736E+03  0.7818609E-02  0.9427617E-01
       -1   -1    0    0    0  501  0.00000000000E+00  0.00000000000E+00  0.22688411894E+03  0.22688411900E+03  0.50400001928E-02 0.  1.
        1   -1    0    0  501    0  0.00000000000E+00  0.00000000000E+00 -0.88930329083E+03  0.88930329084E+03  0.50400001928E-02 0. -1.
    10030    2    1    2    0    0  0.00000000000E+00  0.00000000000E+00 -0.66241917189E+03  0.11161874098E+04  0.89837362750E+03 0.  0.
        3    1    3    3  502    0 -0.10766754052E+03  0.23452401858E+03  0.12559269551E+03  0.28699712532E+03  0.10100000352E+00 0.  1.
       -3    1    3    3    0  502  0.10766754052E+03 -0.23452401858E+03 -0.78801186740E+03  0.82919028452E+03  0.10100000352E+00 0. -1.
</event>
<event>
 5   0  0.2130975E-03  0.8989440E+03  0.7818609E-02  0.9426902E-01
       -1   -1    0    0    0  501  0.00000000000E+00  0.00000000000E+00  0.26521765661E+03  0.26521765666E+03  0.50400001928E-02 0.  1.
        1   -1    0    0  501    0  0.00000000000E+00  0.00000000000E+00 -0.76173311675E+03  0.76173311676E+03  0.50400001928E-02 0. -1.
    10030    2    1    2    0    0  0.00000000000E+00  0.00000000000E+00 -0.49651546014E+03  0.10269507734E+04  0.89894398539E+03 0.  0.
        5    1    3    3  502    0  0.25819356486E+03 -0.36770762356E+03 -0.26129151486E+03  0.51977702825E+03  0.46999998093E+01 0. -1.
       -5    1    3    3    0  502 -0.25819356486E+03  0.36770762356E+03 -0.23522394528E+03  0.50717374517E+03  0.46999998093E+01 0.  1.
</event>
<event>
 5   0  0.3806019E-03  0.9049803E+03  0.7818609E-02  0.9419377E-01
       -2   -1    0    0    0  501  0.00000000000E+00  0.00000000000E+00  0.60255437619E+02  0.60255437673E+02  0.25500000920E-02 0. -1.
        2   -1    0    0  501    0  0.00000000000E+00  0.00000000000E+00 -0.33979895990E+04  0.33979895990E+04  0.25500000920E-02 0.  1.
    10030    2    1    2    0    0  0.00000000000E+00  0.00000000000E+00 -0.33377341613E+04  0.34582450366E+04  0.90498033217E+03 0.  0.
        2    1    3    3  502    0  0.17516307324E+03 -0.41055335996E+03 -0.19525539190E+04  0.20029236057E+04  0.25500000920E-02 0.  1.
       -2    1    3    3    0  502 -0.17516307324E+03  0.41055335996E+03 -0.13851802424E+04  0.14553214310E+04  0.25500000920E-02 0. -1.
</event>
<event>
 5   0  0.3806019E-03  0.9018016E+03  0.7818609E-02  0.9423332E-01
        2   -1    0    0  501    0  0.00000000000E+00  0.00000000000E+00  0.70481288911E+03  0.70481288911E+03  0.25500000920E-02 0. -1.
       -2   -1    0    0    0  501  0.00000000000E+00  0.00000000000E+00 -0.28846172353E+03  0.28846172354E+03  0.25500000920E-02 0.  1.
    10030    2    1    2    0    0  0.00000000000E+00  0.00000000000E+00  0.41635116558E+03  0.99327461265E+03  0.90180162068E+03 0.  0.
        2    1    3    3  502    0  0.29571623362E+03 -0.73966639314E+02 -0.15777958502E+03  0.34323978793E+03  0.25500000920E-02 0.  1.
       -2    1    3    3    0  502 -0.29571623362E+03  0.73966639314E+02  0.57413075060E+03  0.65003482472E+03  0.25500000920E-02 0. -1.
</event>
<event>
 5   0  0.2295158E-03  0.8993241E+03  0.7818609E-02  0.9426427E-01
       -1   -1    0    0    0  501  0.00000000000E+00  0.00000000000E+00  0.83087605590E+03  0.83087605591E+03  0.50400001928E-02 0.  1.
        1   -1    0    0  501    0  0.00000000000E+00  0.00000000000E+00 -0.24335274736E+03  0.24335274741E+03  0.50400001928E-02 0. -1.
    10030    2    1    2    0    0  0.00000000000E+00  0.00000000000E+00  0.58752330854E+03  0.10742288033E+04  0.89932412611E+03 0.  0.
        4    1    3    3  502    0  0.25937394457E+03 -0.30851309205E+03  0.55644854380E+02  0.40688221122E+03  0.12699999809E+01 0. -1.
       -4    1    3    3    0  502 -0.25937394457E+03  0.30851309205E+03  0.53187845416E+03  0.66734659210E+03  0.12699999809E+01 0.  1.
</event>
<event>
 5   0  0.2134145E-03  0.9117479E+03  0.7818609E-02  0.9411014E-01
       -1   -1    0    0    0  501  0.00000000000E+00  0.00000000000E+00  0.28706835540E+03  0.28706835544E+03  0.50400001928E-02 0. -1.
        1   -1    0    0  501    0  0.00000000000E+00  0.00000000000E+00 -0.72394272403E+03  0.72394272405E+03  0.50400001928E-02 0.  1.
    10030    2    1    2    0    0  0.00000000000E+00  0.00000000000E+00 -0.43687436863E+03  0.10110110795E+04  0.91174787572E+03 0.  0.
        1    1    3    3  502    0  0.18403414666E+03 -0.21232605267E+03  0.17963083126E+03  0.33349386103E+03  0.50400001928E-02 0. -1.
       -1    1    3    3    0  502 -0.18403414666E+03  0.21232605267E+03 -0.61650519990E+03  0.67751721846E+03  0.50400001928E-02 0.  1.
</event>
<event>
 5   0  0.2134145E-03  0.8882205E+03  0.7818609E-02  0.9440427E-01
        1   -1    0    0  501    0  0.00000000000E+00  0.00000000000E+00  0.28975160346E+03  0.28975160350E+03  0.50400001928E-02 0.  1.
       -1   -1    0    0    0  501  0.00000000000E+00  0.00000000000E+00 -0.68070002667E+03  0.68070002669E+03  0.50400001928E-02 0. -1.
    10030    2    1    2    0    0  0.00000000000E+00  0.00000000000E+00 -0.39094842321E+03  0.97045163019E+03  0.88822052269E+03 0.  0.
        1    1    3    3  502    0 -0.38204102665E+03 -0.16398440454E+03 -0.24850866515E+02  0.41648985170E+03  0.50400001928E-02 0. -1.
       -1    1    3    3    0  502  0.38204102665E+03  0.16398440454E+03 -0.36609755670E+03  0.55396177849E+03  0.50400001928E-02 0.  1.
</event>
<event>
 5   0  0.1436000E-03  0.8983147E+03  0.7818609E-02  0.9427691E-01
       -3   -1    0    0    0  501  0.00000000000E+00  0.00000000000E+00  0.46656565928E+03  0.46656567021E+03  0.10100000352E+00 0.  1.
        3   -1    0    0  501    0  0.00000000000E+00  0.00000000000E+00 -0.43239854271E+03  0.43239855451E+03  0.10100000352E+00 0. -1.
    10030    2    1    2    0    0  0.00000000000E+00  0.00000000000E+00  0.34167116569E+02  0.89896422472E+03  0.89831469178E+03 0.  0.
        1    1    3    3  502    0 -0.47660045422E+02 -0.46137260924E+02  0.46163690395E+03  0.46637834200E+03  0.50400001928E-02 0.  1.
       -1    1    3    3    0  502  0.47660045422E+02  0.46137260924E+02 -0.42746978738E+03  0.43258588271E+03  0.50400001928E-02 0. -1.
</event>
<event>
 5   0  0.2130975E-03  0.8986473E+03  0.7818609E-02  0.9427274E-01
        1   -1    0    0  501    0  0.00000000000E+00  0.00000000000E+00  0.13473747151E+04  0.13473747151E+04  0.50400001928E-02 0. -1.
       -1   -1    0    0    0  501  0.00000000000E+00  0.00000000000E+00 -0.14984081148E+03  0.14984081156E+03  0.50400001928E-02 0.  1.
    10030    2    1    2    0    0  0.00000000000E+00  0.00000000000E+00  0.11975339036E+04  0.14972155267E+04  0.89864725169E+03 0.  0.
        5    1    3    3  502    0 -0.30931437087E+03  0.31063195567E+03  0.76287375145E+03  0.87986705959E+03  0.46999998093E+01 0. -1.
       -5    1    3    3    0  502  0.30931437087E+03 -0.31063195567E+03  0.43466015217E+03  0.61734846707E+03  0.46999998093E+01 0.  1.
</event>
<event>
 5   0  0.3685879E-03  0.9038301E+03  0.7818609E-02  0.9420806E-01
       -2   -1    0    0    0  501  0.00000000000E+00  0.00000000000E+00  0.49177813469E+03  0.49177813469E+03  0.25500000920E-02 0.  1.
        2   -1    0    0  501    0  0.00000000000E+00  0.00000000000E+00 -0.41528321156E+03  0.41528321157E+03  0.25500000920E-02 0. -1.
    10030    2    1    2    0    0  0.00000000000E+00  0.00000000000E+00  0.76494923123E+02  0.90706134626E+03  0.90383007951E+03 0.  0.
        1    1    3    3  502    0 -0.39502053470E+03  0.14613375415E+03 -0.12613956502E+03  0.43966747302E+03  0.50400001928E-02 0. -1.
       -1    1    3    3    0  502  0.39502053470E+03 -0.14613375415E+03  0.20263448814E+03  0.46739387325E+03  0.50400001928E-02 0.  1.
</event>
<event>
 5   0  0.3626546E-03  0.8997941E+03  0.7818609E-02  0.9425839E-01
       -2   -1    0    0    0  501  0.00000000000E+00  0.00000000000E+00  0.41980545841E+03  0.41980545841E+03  0.25500000920E-02 0.  1.
        2   -1    0    0  501    0  0.00000000000E+00  0.00000000000E+00 -0.48214564335E+03  0.48214564336E+03  0.25500000920E-02 0. -1.
    10030    2    1    2    0    0  0.00000000000E+00  0.00000000000E+00 -0.62340184948E+02  0.90195110178E+03  0.89979413831E+03 0.  0.
        3    1    3    3  502    0 -0.43907788550E+02  0.62236923282E+02 -0.47563579622E+03  0.48169570204E+03  0.10100000352E+00 0. -1.
       -3    1    3    3    0  502  0.43907788550E+02 -0.62236923282E+02  0.41329561127E+03  0.42025539974E+03  0.10100000352E+00 0.  1.
</event>
<event>
 5   0  0.3685879E-03  0.8980419E+03  0.7818609E-02  0.9428032E-01
       -2   -1    0    0    0  501  0.00000000000E+00  0.00000000000E+00  0.33770776605E+03  0.33770776606E+03  0.25500000920E-02 0. -1.
        2   -1    0    0  501    0  0.00000000000E+00  0.00000000000E+00 -0.59702456611E+03  0.59702456612E+03  0.25500000920E-02 0.  1.
    10030    2    1    2    0    0  0.00000000000E+00  0.00000000000E+00 -0.25931680006E+03  0.93473233218E+03  0.89804194225E+03 0.  0.
        1    1    3    3  502    0 -0.20554186349E+03 -0.25792059576E+03  0.18750280390E+03  0.37937816603E+03  0.50400001928E-02 0. -1.
       -1    1    3    3    0  502  0.20554186349E+03  0.25792059576E+03 -0.44681960395E+03  0.55535416616E+03  0.50400001928E-02 0.  1.
</event>
<event>
 5   0  0.1436000E-03  0.8997891E+03  0.7818609E-02  0.9425845E-01
       -3   -1    0    0    0  501  0.00000000000E+00  0.00000000000E+00  0.75813719588E+03  0.75813720261E+03  0.10100000352E+00 0. -1.
        3   -1    0    0  501    0  0.00000000000E+00  0.00000000000E+00 -0.26697684624E+03  0.26697686535E+03  0.10100000352E+00 0.  1.
    10030    2    1    2    0    0  0.00000000000E+00  0.00000000000E+00  0.49116034964E+03  0.10251140680E+04  0.89978906599E+03 0.  0.
        5    1    3    3  502    0 -0.32433205390E+02 -0.17630400935E+03  0.71566092959E+03  0.73778565496E+03  0.46999998093E+01 0. -1.
       -5    1    3    3    0  502  0.32433205390E+02  0.17630400935E+03 -0.22450057995E+03  0.28732841300E+03  0.46999998093E+01 0.  1.
</event>
<event>
 5   0  0.3626546E-03  0.9042809E+03  0.7818609E-02  0.9420246E-01
        2   -1    0    0  501    0  0.00000000000E+00  0.00000000000E+00  0.20763345275E+04  0.20763345275E+04  0.25500000920E-02 0.  1.
       -2   -1    0    0    0  501  0.00000000000E+00  0.00000000000E+00 -0.98457633790E+02  0.98457633823E+02  0.25500000920E-02 0. -1.
    10030    2    1    2    0    0  0.00000000000E+00  0.00000000000E+00  0.19778768937E+04  0.21747921614E+04  0.90428089569E+03 0.  0.
        3    1    3    3  502    0 -0.27761138889E+03 -0.24683137796E+03  0.36904086913E+03  0.52362676181E+03  0.10100000352E+00 0. -1.
       -3    1    3    3    0  502  0.27761138889E+03  0.24683137796E+03  0.16088360246E+04  0.16511653996E+04  0.10100000352E+00 0.  1.
</event>
<event>
 5   0  0.3815269E-03  0.8862490E+03  0.7818609E-02  0.9442936E-01
       -2   -1    0    0    0  501  0.00000000000E+00  0.00000000000E+00  0.27625300011E+03  0.27625300013E+03  0.25500000920E-02 0.  1.
        2   -1    0    0  501    0  0.00000000000E+00  0.00000000000E+00 -0.71079518140E+03  0.71079518140E+03  0.25500000920E-02 0. -1.
    10030    2    1    2    0    0  0.00000000000E+00  0.00000000000E+00 -0.43454218128E+03  0.98704818153E+03  0.88624895224E+03 0.  0.
        5    1    3    3  502    0  0.26121728793E+03  0.51549263156E+01 -0.61585226105E+03  0.66899711675E+03  0.46999998093E+01 0. -1.
       -5    1    3    3    0  502 -0.26121728793E+03 -0.51549263156E+01  0.18131007977E+03  0.31805106477E+03  0.46999998093E+01 0.  1.
</event>
<event>
 5   0  0.1436000E-03  0.8977831E+03  0.7818609E-02  0.9428357E-01
        4   -1    0    0  501    0  0.00000000000E+00  0.00000000000E+00  0.67361112097E+03  0.67361231817E+03  0.12699999809E+01 0. -1.
       -4   -1    0    0    0  501  0.00000000000E+00  0.00000000000E+00 -0.29913661263E+03  0.29913930854E+03  0.12699999809E+01 0.  1.
    10030    2    1    2    0    0  0.00000000000E+00  0.00000000000E+00  0.37447450834E+03  0.97275162671E+03  0.89778314190E+03 0.  0.
        4    1    3    3  502    0  0.48544358909E+02 -0.27292020101E+03 -0.19531797980E+03  0.33910576084E+03  0.12699999809E+01 0.  1.
       -4    1    3    3    0  502 -0.48544358909E+02  0.27292020101E+03  0.56979248814E+03  0.63364586587E+03  0.12699999809E+01 0. -1.
</event>
<event>
 5   0  0.2134145E-03  0.8995518E+03  0.7818609E-02  0.9426142E-01
       -1   -1    0    0    0  501  0.00000000000E+00  0.00000000000E+00  0.13946730274E+03  0.13946730283E+03  0.50400001928E-02 0. -1.
        1   -1    0    0  501    0  0.00000000000E+00  0.00000000000E+00 -0.14505073587E+04  0.14505073587E+04  0.50400001928E-02 0.  1.
    10030    2    1    2    0    0  0.00000000000E+00  0.00000000000E+00 -0.13110400560E+04  0.15899746616E+04  0.89955177505E+03 0.  0.
        1    1    3    3  502    0 -0.40767388394E+03  0.97283870501E+02 -0.36705033839E+03  0.55712484960E+03  0.50400001928E-02 0. -1.
       -1    1    3    3    0  502  0.40767388394E+03 -0.97283870501E+02 -0.94398971760E+03  0.10328498120E+04  0.50400001928E-02 0.  1.
</event>
<event>
 5   0  0.3685879E-03  0.9050136E+03  0.7818609E-02  0.9419336E-01
       -2   -1    0    0    0  501  0.00000000000E+00  0.00000000000E+00  0.13018630701E+03  0.13018630704E+03  0.25500000920E-02 0.  1.
        2   -1    0    0  501    0  0.00000000000E+00  0.00000000000E+00 -0.15728414491E+04  0.15728414491E+04  0.25500000920E-02 0. -1.
    10030    2    1    2    0    0  0.00000000000E+00  0.00000000000E+00 -0.14426551421E+04  0.17030277562E+04  0.90501363482E+03 0.  0.
        1    1    3    3  502    0  0.25478171269E+03  0.18886137395E+03 -0.11394972457E+03  0.33699685376E+03  0.50400001928E-02 0.  1.
       -1    1    3    3    0  502 -0.25478171269E+03 -0.18886137395E+03 -0.13287054176E+04  0.13660309024E+04  0.50400001928E-02 0. -1.
</event>
<event>
 5   0  0.2129280E-03  0.9006143E+03  0.7818609E-02  0.9424814E-01
       -1   -1    0    0    0  501  0.00000000000E+00  0.00000000000E+00  0.50933158507E+03  0.50933158510E+03  0.50400001928E-02 0. -1.
        1   -1    0    0  501    0  0.00000000000E+00  0.00000000000E+00 -0.39812278669E+03  0.39812278672E+03  0.50400001928E-02 0.  1.
    10030    2    1    2    0    0  0.00000000000E+00  0.00000000000E+00  0.11120879838E+03  0.90745437182E+03  0.90061425710E+03 0.  0.
        3    1    3    3  502    0 -0.42775399586E+03  0.79784780955E+02  0.17240463636E+03  0.46804108910E+03  0.10100000352E+00 0.  1.
       -3    1    3    3    0  502  0.42775399586E+03 -0.79784780955E+02 -0.61195837980E+02  0.43941328272E+03  0.10100000352E+00 0. -1.
</event>
<event>
 5   0  0.2074970E-03  0.9000819E+03  0.7818609E-02  0.9425479E-01
        1   -1    0    0  501    0  0.00000000000E+00  0.00000000000E+00  0.12289631551E+04  0.12289631551E+04  0.50400001928E-02 0. -1.
       -1   -1    0    0    0  501  0.00000000000E+00  0.00000000000E+00 -0.16480301789E+03  0.16480301796E+03  0.50400001928E-02 0.  1.
    10030    2    1    2    0    0  0.00000000000E+00  0.00000000000E+00  0.10641601372E+04  0.13937661730E+04  0.90008185602E+03 0.  0.
        2    1    3    3  502    0 -0.54380139140E+02 -0.35371199843E+03  0.10951734637E+03  0.37425048634E+03  0.25500000920E-02 0.  1.
       -2    1    3    3    0  502  0.54380139140E+02  0.35371199843E+03  0.95464279080E+03  0.10195156867E+04  0.25500000920E-02 0. -1.
</event>
<event>
 5   0  0.2295158E-03  0.9010058E+03  0.7818609E-02  0.9424325E-01
       -1   -1    0    0    0  501  0.00000000000E+00  0.00000000000E+00  0.70546410680E+03  0.70546410682E+03  0.50400001928E-02 0. -1.
        1   -1    0    0  501    0  0.00000000000E+00  0.00000000000E+00 -0.28768704544E+03  0.28768704549E+03  0.50400001928E-02 0.  1.
    10030    2    1    2    0    0  0.00000000000E+00  0.00000000000E+00  0.41777706136E+03  0.99315115230E+03  0.90100584811E+03 0.  0.
        4    1    3    3  502    0 -0.34798450940E+02  0.40841884123E+03  0.28661882086E+01  0.40991061220E+03  0.12699999809E+01 0.  1.
       -4    1    3    3    0  502  0.34798450940E+02 -0.40841884123E+03  0.41491087315E+03  0.58324054010E+03  0.12699999809E+01 0. -1.
</event>
<event>
 5   0  0.3663255E-03  0.9032636E+03  0.7818609E-02  0.9421511E-01
       -2   -1    0    0    0  501  0.00000000000E+00  0.00000000000E+00  0.36961637173E+03  0.36961637174E+03  0.25500000920E-02 0. -1.
        2   -1    0    0  501    0  0.00000000000E+00  0.00000000000E+00 -0.55184592488E+03  0.55184592489E+03  0.25500000920E-02 0.  1.
    10030    2    1    2    0    0  0.00000000000E+00  0.00000000000E+00 -0.18222955315E+03  0.92146229663E+03  0.90326361272E+03 0.  0.
        4    1    3    3  502    0  0.37736685576E+03  0.10657227684E+03  0.13746725242E+03  0.41552647618E+03  0.12699999809E+01 0. -1.
       -4    1    3    3    0  502 -0.37736685576E+03 -0.10657227684E+03 -0.31969680557E+03  0.50593582045E+03  0.12699999809E+01 0.  1.
</event>
<event>
 5   0  0.2130975E-03  0.8962937E+03  0.7818609E-02  0.9430226E-01
        1   -1    0    0  501    0  0.00000000000E+00  0.00000000000E+00  0.30235637197E+03  0.30235637201E+03  0.50400001928E-02 0.  1.
       -1   -1    0    0    0  501  0.00000000000E+00  0.00000000000E+00 -0.66423472860E+03  0.66423472862E+03  0.50400001928E-02 0. -1.
    10030    2    1    2    0    0  0.00000000000E+00  0.00000000000E+00 -0.36187835663E+03  0.96659110063E+03  0.89629370790E+03 0.  0.
        5    1    3    3  502    0 -0.37043241687E+02 -0.23969720955E+03 -0.58730395937E+03  0.63543291126E+03  0.46999998093E+01 0. -1.
       -5    1    3    3    0  502  0.37043241687E+02  0.23969720955E+03  0.22542560274E+03  0.33115818937E+03  0.46999998093E+01 0.  1.
</event>
<event>
 5   0  0.2130975E-03  0.9012596E+03  0.7818609E-02  0.9424008E-01
       -1   -1    0    0    0  501  0.00000000000E+00  0.00000000000E+00  0.25692289854E+03  0.25692289859E+03  0.50400001928E-02 0. -1.
        1   -1    0    0  501    0  0.00000000000E+00  0.00000000000E+00 -0.79038196937E+03  0.79038196939E+03  0.50400001928E-02 0.  1.
    10030    2    1    2    0    0  0.00000000000E+00  0.00000000000E+00 -0.53345907084E+03  0.10473048680E+04  0.90125962199E+03 0.  0.
        5    1    3    3  502    0 -0.51953525515E+02 -0.22817885394E+03  0.18074162539E+03  0.29572687289E+03  0.46999998093E+01 0. -1.
       -5    1    3    3    0  502  0.51953525515E+02  0.22817885394E+03 -0.71420069623E+03  0.75157799508E+03  0.46999998093E+01 0.  1.
</event>
<event>
 5   0  0.2130975E-03  0.8964517E+03  0.7818609E-02  0.9430028E-01
        1   -1    0    0  501    0  0.00000000000E+00  0.00000000000E+00  0.83443901550E+03  0.83443901551E+03  0.50400001928E-02 0. -1.
       -1   -1    0    0    0  501  0.00000000000E+00  0.00000000000E+00 -0.24076824511E+03  0.24076824516E+03  0.50400001928E-02 0.  1.
    10030    2    1    2    0    0  0.00000000000E+00  0.00000000000E+00  0.59367077039E+03  0.10752072607E+04  0.89645171080E+03 0.  0.
        5    1    3    3  502    0  0.39828598704E+03 -0.39505164633E+02  0.53878196998E+03  0.67119333033E+03  0.46999998093E+01 0. -1.
       -5    1    3    3    0  502 -0.39828598704E+03  0.39505164633E+02  0.54888800405E+02  0.40401393034E+03  0.46999998093E+01 0.  1.
</event>
<event>
 5   0  0.3815269E-03  0.9048722E+03  0.7818609E-02  0.9419511E-01
        2   -1    0    0  501    0  0.00000000000E+00  0.00000000000E+00  0.49893724491E+03  0.49893724491E+03  0.25500000920E-02 0.  1.
       -2   -1    0    0    0  501  0.00000000000E+00  0.00000000000E+00 -0.41026887419E+03  0.41026887420E+03  0.25500000920E-02 0. -1.
    10030    2    1    2    0    0  0.00000000000E+00  0.00000000000E+00  0.88668370719E+02  0.90920611911E+03  0.90487219377E+03 0.  0.
        5    1    3    3  502    0 -0.14010125796E+03  0.27020893885E+03 -0.29198539898E+03  0.42180421564E+03  0.46999998093E+01 0. -1.
       -5    1    3    3    0  502  0.14010125796E+03 -0.27020893885E+03  0.38065376970E+03  0.48740190347E+03  0.46999998093E+01 0.  1.
</event>
<event>
 5   0  0.3685879E-03  0.9019468E+03  0.7818609E-02  0.9423151E-01
       -2   -1    0    0    0  501  0.00000000000E+00  0.00000000000E+00  0.76972562269E+03  0.76972562269E+03  0.25500000920E-02 0. -1.
        2   -1    0    0  501    0  0.00000000000E+00  0.00000000000E+00 -0.26422012483E+03  0.26422012484E+03  0.25500000920E-02 0.  1.
    10030    2    1    2    0    0  0.00000000000E+00  0.00000000000E+00  0.50550549786E+03  0.10339457475E+04  0.90194678361E+03 0.  0.
        1    1    3    3  502    0 -0.98552184639E+02 -0.19060673905E+03  0.70745540559E+03  0.73928114611E+03  0.50400001928E-02 0. -1.
       -1    1    3    3    0  502  0.98552184639E+02  0.19060673905E+03 -0.20194990773E+03  0.29466460142E+03  0.50400001928E-02 0.  1.
</event>
<event>
 5   0  0.2074970E-03  0.9003236E+03  0.7818609E-02  0.9425177E-01
       -1   -1    0    0    0  501  0.00000000000E+00  0.00000000000E+00  0.18861705139E+03  0.18861705146E+03  0.50400001928E-02 0. -1.
        1   -1    0    0  501    0  0.00000000000E+00  0.00000000000E+00 -0.10743760428E+04  0.10743760428E+04  0.50400001928E-02 0.  1.
    10030    2    1    2    0    0  0.00000000000E+00  0.00000000000E+00 -0.88575899141E+03  0.12629930943E+04  0.90032358922E+03 0.  0.
        2    1    3    3  502    0 -0.37918032277E+03 -0.16016192756E+03 -0.69854759508E+03  0.81080102541E+03  0.25500000920E-02 0.  1.
       -2    1    3    3    0  502  0.37918032277E+03  0.16016192756E+03 -0.18721139633E+03  0.45219206885E+03  0.25500000920E-02 0. -1.
</event>
<event>
 5   0  0.1436000E-03  0.9005317E+03  0.7818609E-02  0.9424917E-01
       -4   -1    0    0    0  501  0.00000000000E+00  0.00000000000E+00  0.15556203807E+04  0.15556208991E+04  0.12699999809E+01 0. -1.
        4   -1    0    0  501    0  0.00000000000E+00  0.00000000000E+00 -0.13032336801E+03  0.13032955593E+03  0.12699999809E+01 0.  1.
    10030    2    1    2    0    0  0.00000000000E+00  0.00000000000E+00  0.14252970127E+04  0.16859504550E+04  0.90053171096E+03 0.  0.
        4    1    3    3  502    0 -0.35608013256E+03 -0.18738721278E+03  0.33434601019E+03  0.52315953183E+03  0.12699999809E+01 0. -1.
       -4    1    3    3    0  502  0.35608013256E+03  0.18738721278E+03  0.10909510025E+04  0.11627909232E+04  0.12699999809E+01 0.  1.
</event>
<event>
 5   0  0.3685879E-03  0.9019279E+03  0.7818609E-02  0.9423175E-01
       -2   -1    0    0    0  501  0.00000000000E+00  0.00000000000E+00  0.19338056819E+03  0.19338056820E+03  0.25500000920E-02 0. -1.
        2   -1    0    0  501    0  0.00000000000E+00  0.00000000000E+00 -0.10516489487E+04  0.10516489488E+04  0.25500000920E-02 0.  1.
    10030    2    1    2    0    0  0.00000000000E+00  0.00000000000E+00 -0.85826838056E+03  0.12450295170E+04  0.90192787129E+03 0.  0.
        1    1    3    3  502    0  0.30466459022E+03 -0.26505141636E+03 -0.15203374648E+03  0.43149394659E+03  0.50400001928E-02 0.  1.
       -1    1    3    3    0  502 -0.30466459022E+03  0.26505141636E+03 -0.70623463408E+03  0.81353557037E+03  0.50400001928E-02 0. -1.
</event>
<event>
 5   0  0.1436000E-03  0.9019494E+03  0.7818609E-02  0.9423148E-01
        3   -1    0    0  501    0  0.00000000000E+00  0.00000000000E+00  0.11764665794E+04  0.11764665838E+04  0.10100000352E+00 0.  1.
       -3   -1    0    0    0  501  0.00000000000E+00  0.00000000000E+00 -0.17287201210E+03  0.17287204161E+03  0.10100000352E+00 0. -1.
    10030    2    1    2    0    0  0.00000000000E+00  0.00000000000E+00  0.10035945673E+04  0.13493386254E+04  0.90194937239E+03 0.  0.
        4    1    3    3  502    0 -0.77060161726E+02 -0.30082426198E+03  0.99102952910E+03  0.10385444842E+04  0.12699999809E+01 0.  1.
       -4    1    3    3    0  502  0.77060161726E+02  0.30082426198E+03  0.12565038215E+02  0.31079414121E+03  0.12699999809E+01 0. -1.
</event>
<event>
 5   0  0.3685879E-03  0.8927794E+03  0.7818609E-02  0.9434653E-01
        2   -1    0    0  501    0  0.00000000000E+00  0.00000000000E+00  0.94772718526E+03  0.94772718526E+03  0.25500000920E-02 0. -1.
       -2   -1    0    0    0  501  0.00000000000E+00  0.00000000000E+00 -0.21025435600E+03  0.21025435601E+03  0.25500000920E-02 0.  1.
    10030    2    1    2    0    0  0.00000000000E+00  0.00000000000E+00  0.73747282926E+03  0.11579815413E+04  0.89277941062E+03 0.  0.
        1    1    3    3  502    0 -0.40311250870E+03 -0.18539854359E+03  0.30530731918E+03  0.53859527830E+03  0.50400001928E-02 0.  1.
       -1    1    3    3    0  502  0.40311250870E+03  0.18539854359E+03  0.43216551008E+03  0.61938626297E+03  0.50400001928E-02 0. -1.
</event>
<event>
 5   0  0.3626546E-03  0.8961112E+03  0.7818609E-02  0.9430456E-01
       -2   -1    0    0    0  501  0.00000000000E+00  0.00000000000E+00  0.26982114043E+03  0.26982114045E+03  0.25500000920E-02 0. -1.
        2   -1    0    0  501    0  0.00000000000E+00  0.00000000000E+00 -0.74402551782E+03  0.74402551782E+03  0.25500000920E-02 0.  1.
    10030    2    1    2    0    0  0.00000000000E+00  0.00000000000E+00 -0.47420437739E+03  0.10138466583E+04  0.89611118448E+03 0.  0.
        3    1    3    3  502    0 -0.17070914748E+03  0.18828785554E+03  0.18037711126E+03  0.31165660917E+03  0.10100000352E+00 0. -1.
       -3    1    3    3    0  502  0.17070914748E+03 -0.18828785554E+03 -0.65458148864E+03  0.70219004910E+03  0.10100000352E+00 0.  1.
</event>
<event>
 5   0  0.2295158E-03  0.8960670E+03  0.7818609E-02  0.9430511E-01
        1   -1    0    0  501    0  0.00000000000E+00  0.00000000000E+00  0.39399682501E+03  0.39399682504E+03  0.50400001928E-02 0.  1.
       -1   -1    0    0    0  501  0.00000000000E+00  0.00000000000E+00 -0.50948135038E+03  0.50948135040E+03  0.50400001928E-02 0. -1.
    10030    2    1    2    0    0  0.00000000000E+00  0.00000000000E+00 -0.11548452537E+03  0.90347817545E+03  0.89606703874E+03 0.  0.
        4    1    3    3  502    0  0.37408536284E+03 -0.18009351806E+03  0.11205151064E+03  0.43003568209E+03  0.12699999809E+01 0. -1.
       -4    1    3    3    0  502 -0.37408536284E+03  0.18009351806E+03 -0.22753603601E+03  0.47344249336E+03  0.12699999809E+01 0.  1.
</event>
<event>
 5   0  0.2295158E-03  0.8965340E+03  0.7818609E-02  0.9429925E-01
       -1   -1    0    0    0  501  0.00000000000E+00  0.00000000000E+00  0.20711090012E+03  0.20711090018E+03  0.50400001928E-02 0. -1.
        1   -1    0    0  501    0  0.00000000000E+00  0.00000000000E+00 -0.97022077436E+03  0.97022077437E+03  0.50400001928E-02 0.  1.
    10030    2    1    2    0    0  0.00000000000E+00  0.00000000000E+00 -0.76310987424E+03  0.11773316746E+04  0.89653398806E+03 0.  0.
        4    1    3    3  502    0 -0.48226026033E+02  0.31631645321E+03 -0.79382524517E+03  0.85588666360E+03  0.12699999809E+01 0.  1.
       -4    1    3    3    0  502  0.48226026033E+02 -0.31631645321E+03  0.30715370932E+02  0.32144501096E+03  0.12699999809E+01 0. -1.
</event>
<event>
 5   0  0.2134145E-03  0.9049382E+03  0.7818609E-02  0.9419429E-01
       -1   -1    0    0    0  501  0.00000000000E+00  0.00000000000E+00  0.34752020715E+03  0.34752020718E+03  0.50400001928E-02 0. -1.
        1   -1    0    0  501    0  0.00000000000E+00  0.00000000000E+00 -0.58911193838E+03  0.58911193840E+03  0.50400001928E-02 0.  1.
    10030    2    1    2    0    0  0.00000000000E+00  0.00000000000E+00 -0.24159173123E+03  0.93663214558E+03  0.90493823631E+03 0.  0.
        1    1    3    3  502    0 -0.38568900089E+03  0.23553159375E+03 -0.14387400228E+03  0.47426876939E+03  0.50400001928E-02 0.  1.
       -1    1    3    3    0  502  0.38568900089E+03 -0.23553159375E+03 -0.97717728951E+02  0.46236337619E+03  0.50400001928E-02 0. -1.
</event>
<event>
 5   0  0.3815269E-03  0.8999129E+03  0.7818609E-02  0.9425690E-01
        2   -1    0    0  501    0  0.00000000000E+00  0.00000000000E+00  0.33924603557E+03  0.33924603557E+03  0.25500000920E-02 0.  1.
       -2   -1    0    0    0  501  0.00000000000E+00  0.00000000000E+00 -0.59679632812E+03  0.59679632813E+03  0.25500000920E-02 0. -1.
    10030    2    1    2    0    0  0.00000000000E+00  0.00000000000E+00 -0.25755029256E+03  0.93604236370E+03  0.89991285881E+03 0.  0.
        5    1    3    3  502    0  0.51121472549E+02 -0.44694435565E+03 -0.13722767427E+03  0.47034687900E+03  0.46999998093E+01 0. -1.
       -5    1    3    3    0  502 -0.51121472549E+02  0.44694435565E+03 -0.12032261828E+03  0.46569548470E+03  0.46999998093E+01 0.  1.
</event>
<event>
 5   0  0.2134145E-03  0.8998470E+03  0.7818609E-02  0.9425773E-01
        1   -1    0    0  501    0  0.00000000000E+00  0.00000000000E+00  0.46211601321E+03  0.46211601323E+03  0.50400001928E-02 0.  1.
       -1   -1    0    0    0  501  0.00000000000E+00  0.00000000000E+00 -0.43805269583E+03  0.43805269586E+03  0.50400001928E-02 0. -1.
    10030    2    1    2    0    0  0.00000000000E+00  0.00000000000E+00  0.24063317375E+02  0.90016870909E+03  0.89984702121E+03 0.  0.
        1    1    3    3  502    0 -0.27623403109E+03  0.33442473230E+03 -0.10753522619E+03  0.44688809159E+03  0.50400001928E-02 0. -1.
       -1    1    3    3    0  502  0.27623403109E+03 -0.33442473230E+03  0.13159854357E+03  0.45328061750E+03  0.50400001928E-02 0.  1.
</event>
<event>
 5   0  0.1436000E-03  0.9105636E+03  0.7818609E-02  0.9412472E-01
       -3   -1    0    0    0  501  0.00000000000E+00  0.00000000000E+00  0.36733308352E+03  0.36733309740E+03  0.10100000352E+00 0.  1.
        3   -1    0    0  501    0  0.00000000000E+00  0.00000000000E+00 -0.56428764848E+03  0.56428765752E+03  0.10100000352E+00 0. -1.
    10030    2    1    2    0    0  0.00000000000E+00  0.00000000000E+00 -0.19695456496E+03  0.93162075492E+03  0.91056363333E+03 0.  0.
        1    1    3    3  502    0 -0.30611650303E+03  0.24120971308E+03  0.14232064437E+03  0.41490312719E+03  0.50400001928E-02 0.  1.
       -1    1    3    3    0  502  0.30611650303E+03 -0.24120971308E+03 -0.33927520933E+03  0.51671762773E+03  0.50400001928E-02 0. -1.
</event>
<event>
 5   0  0.3815269E-03  0.8996605E+03  0.7818609E-02  0.9426006E-01
       -2   -1    0    0    0  501  0.00000000000E+00  0.00000000000E+00  0.19062648011E+03  0.19062648013E+03  0.25500000920E-02 0. -1.
        2   -1    0    0  501    0  0.00000000000E+00  0.00000000000E+00 -0.10614856650E+04  0.10614856650E+04  0.25500000920E-02 0.  1.
    10030    2    1    2    0    0  0.00000000000E+00  0.00000000000E+00 -0.87085918491E+03  0.12521121452E+04  0.89966054937E+03 0.  0.
        5    1    3    3  502    0 -0.27018706196E+03 -0.24432866065E+02  0.63914212838E+02  0.27875639902E+03  0.46999998093E+01 0. -1.
       -5    1    3    3    0  502  0.27018706196E+03  0.24432866065E+02 -0.93477339775E+03  0.97335574613E+03  0.46999998093E+01 0.  1.
</event>
<event>
 5   0  0.3685879E-03  0.9144763E+03  0.7818609E-02  0.9407664E-01
       -2   -1    0    0    0  501  0.00000000000E+00  0.00000000000E+00  0.23827280919E+03  0.23827280921E+03  0.25500000920E-02 0.  1.
        2   -1    0    0  501    0  0.00000000000E+00  0.00000000000E+00 -0.87742588621E+03  0.87742588621E+03  0.25500000920E-02 0. -1.
    10030    2    1    2    0    0  0.00000000000E+00  0.00000000000E+00 -0.63915307701E+03  0.11156986954E+04  0.91447631084E+03 0.  0.
        1    1    3    3  502    0 -0.10328213133E+03 -0.71963942741E+02  0.21671545959E+03  0.25062242150E+03  0.50400001928E-02 0.  1.
       -1    1    3    3    0  502  0.10328213133E+03  0.71963942741E+02 -0.85586853661E+03  0.86507627391E+03  0.50400001928E-02 0. -1.
</event>
<event>
 5   0  0.3663255E-03  0.8972859E+03  0.7818609E-02  0.9428981E-01
       -2   -1    0    0    0  501  0.00000000000E+00  0.00000000000E+00  0.18535208875E+03  0.18535208877E+03  0.25500000920E-02 0. -1.
        2   -1    0    0  501    0  0.00000000000E+00  0.00000000000E+00 -0.10859359602E+04  0.10859359602E+04  0.25500000920E-02 0.  1.
    10030    2    1    2    0    0  0.00000000000E+00  0.00000000000E+00 -0.90058387142E+03  0.12712880489E+04  0.89728590423E+03 0.  0.
        4    1    3    3  502    0  0.15630071483E+03 -0.27907814659E+03 -0.89600209131E+03  0.95138629688E+03  0.12699999809E+01 0.  1.
       -4    1    3    3    0  502 -0.15630071483E+03  0.27907814659E+03 -0.45817801088E+01  0.31990175206E+03  0.12699999809E+01 0. -1.
</event>
<event>
 5   0  0.3815269E-03  0.8971317E+03  0.7818609E-02  0.9429174E-01
        2   -1    0    0  501    0  0.00000000000E+00  0.00000000000E+00  0.19623532474E+03  0.19623532475E+03  0.25500000920E-02 0. -1.
       -2   -1    0    0    0  501  0.00000000000E+00  0.00000000000E+00 -0.10253572323E+04  0.10253572323E+04  0.25500000920E-02 0.  1.
    10030    2    1    2    0    0  0.00000000000E+00  0.00000000000E+00 -0.82912190757E+03  0.12215925571E+04  0.89713167253E+03 0.  0.
        5    1    3    3  502    0 -0.29017761221E+03 -0.33446393793E+03 -0.51199419836E+03  0.67692637824E+03  0.46999998093E+01 0.  1.
       -5    1    3    3    0  502  0.29017761221E+03  0.33446393793E+03 -0.31712770921E+03  0.54466617882E+03  0.46999998093E+01 0. -1.
</event>
<event>
 5   0  0.2295158E-03  0.9029723E+03  0.7818609E-02  0.9421874E-01
       -1   -1    0    0    0  501  0.00000000000E+00  0.00000000000E+00  0.44342116542E+03  0.44342116545E+03  0.50400001928E-02 0.  1.
        1   -1    0    0  501    0  0.00000000000E+00  0.00000000000E+00 -0.45969780055E+03  0.45969780058E+03  0.50400001928E-02 0. -1.
    10030    2    1    2    0    0  0.00000000000E+00  0.00000000000E+00 -0.16276635130E+02  0.90311896603E+03  0.90297227972E+03 0.  0.
        4    1    3    3  502    0  0.25392366358E+03  0.23031094587E+03  0.28570825719E+03  0.44626357665E+03  0.12699999809E+01 0.  1.
       -4    1    3    3    0  502 -0.25392366358E+03 -0.23031094587E+03 -0.30198489232E+03  0.45685538938E+03  0.12699999809E+01 0. -1.
</event>
<event>
 5   0  0.3685879E-03  0.9002531E+03  0.7818609E-02  0.9425265E-01
        2   -1    0    0  501    0  0.00000000000E+00  0.00000000000E+00  0.13172676351E+04  0.13172676351E+04  0.25500000920E-02 0.  1.
       -2   -1    0    0    0  501  0.00000000000E+00  0.00000000000E+00 -0.15381378017E+03  0.15381378020E+03  0.25500000920E-02 0. -1.
    10030    2    1    2    0    0  0.00000000000E+00  0.00000000000E+00  0.11634538549E+04  0.14710814153E+04  0.90025310767E+03 0.  0.
        1    1    3    3  502    0 -0.84548598939E+02  0.24612396737E+03  0.11818764269E+04  0.12101889775E+04  0.50400001928E-02 0.  1.
       -1    1    3    3    0  502  0.84548598939E+02 -0.24612396737E+03 -0.18422571965E+02  0.26089243776E+03  0.50400001928E-02 0. -1.
</event>
<event>
 5   0  0.2295158E-03  0.8981184E+03  0.7818609E-02  0.9427937E-01
        1   -1    0    0  501    0  0.00000000000E+00  0.00000000000E+00  0.22838073334E+03  0.22838073339E+03  0.50400001928E-02 0. -1.
       -1   -1    0    0    0  501  0.00000000000E+00  0.00000000000E+00 -0.88297353412E+03  0.88297353413E+03  0.50400001928E-02 0.  1.
    10030    2    1    2    0    0  0.00000000000E+00  0.00000000000E+00 -0.65459280078E+03  0.11113542675E+04  0.89811835140E+03 0.  0.
        4    1    3    3  502    0  0.38331417693E+03 -0.21630381260E+03 -0.43752753054E+03  0.62060377896E+03  0.12699999809E+01 0.  1.
       -4    1    3    3    0  502 -0.38331417693E+03  0.21630381260E+03 -0.21706527023E+03  0.49075048856E+03  0.12699999809E+01 0. -1.
</event>
<event>
 5   0  0.2074970E-03  0.8920726E+03  0.7818609E-02  0.9435546E-01
        1   -1    0    0  501    0  0.00000000000E+00  0.00000000000E+00  0.15831041971E+04  0.15831041971E+04  0.50400001928E-02 0.  1.
       -1   -1    0    0    0  501  0.00000000000E+00  0.00000000000E+00 -0.12566978992E+03  0.12566979002E+03  0.50400001928E-02 0. -1.
    10030    2    1    2    0    0  0.00000000000E+00  0.00000000000E+00  0.14574344072E+04  0.17087739872E+04  0.89207257995E+03 0.  0.
        2    1    3    3  502    0  0.39201297030E+03 -0.11600369894E+03  0.38703968723E+03  0.56296602611E+03  0.25500000920E-02 0. -1.
       -2    1    3    3    0  502 -0.39201297030E+03  0.11600369894E+03  0.10703947200E+04  0.11458079611E+04  0.25500000920E-02 0.  1.
</event>
<event>
 5   0  0.1436000E-03  0.9122613E+03  0.7818609E-02  0.9410383E-01
        4   -1    0    0  501    0  0.00000000000E+00  0.00000000000E+00  0.40487084569E+03  0.40487283755E+03  0.12699999809E+01 0.  1.
       -4   -1    0    0    0  501  0.00000000000E+00  0.00000000000E+00 -0.51387629073E+03  0.51387786008E+03  0.12699999809E+01 0. -1.
    10030    2    1    2    0    0  0.00000000000E+00  0.00000000000E+00 -0.10900544504E+03  0.91875069763E+03  0.91226128787E+03 0.  0.
        5    1    3    3  502    0  0.31387586825E+03  0.29635357643E+03 -0.20282415839E+03  0.47697298892E+03  0.46999998093E+01 0. -1.
       -5    1    3    3    0  502 -0.31387586825E+03 -0.29635357643E+03  0.93818713348E+02  0.44177770871E+03  0.46999998093E+01 0.  1.
</event>
<event>
 5   0  0.2134145E-03  0.9012145E+03  0.7818609E-02  0.9424064E-01
       -1   -1    0    0    0  501  0.00000000000E+00  0.00000000000E+00  0.21775894353E+03  0.21775894359E+03  0.50400001928E-02 0. -1.
        1   -1    0    0  501    0  0.00000000000E+00  0.00000000000E+00 -0.93243891046E+03  0.93243891048E+03  0.50400001928E-02 0.  1.
    10030    2    1    2    0    0  0.00000000000E+00  0.00000000000E+00 -0.71467996693E+03  0.11501978541E+04  0.90121454070E+03 0.  0.
        1    1    3    3  502    0 -0.13202135689E+03 -0.33762158524E+03 -0.15762982931E+02  0.36285871238E+03  0.50400001928E-02 0. -1.
       -1    1    3    3    0  502  0.13202135689E+03  0.33762158524E+03 -0.69891698400E+03  0.78733914169E+03  0.50400001928E-02 0.  1.
</event>
<event>
 5   0  0.2295158E-03  0.8943903E+03  0.7818609E-02  0.9432621E-01
        1   -1    0    0  501    0  0.00000000000E+00  0.00000000000E+00  0.37302666502E+03  0.37302666505E+03  0.50400001928E-02 0.  1.
       -1   -1    0    0    0  501  0.00000000000E+00  0.00000000000E+00 -0.53611044375E+03  0.53611044378E+03  0.50400001928E-02 0. -1.
    10030    2    1    2    0    0  0.00000000000E+00  0.00000000000E+00 -0.16308377873E+03  0.90913710883E+03  0.89439027486E+03 0.  0.
        4    1    3    3  502    0 -0.97903537125E+02  0.36121263682E+03 -0.33036815116E+03  0.49920376579E+03  0.12699999809E+01 0. -1.
       -4    1    3    3    0  502  0.97903537125E+02 -0.36121263682E+03  0.16728437242E+03  0.40993334304E+03  0.12699999809E+01 0.  1.
</event>
<event>
 5   0  0.3663255E-03  0.8895113E+03  0.7818609E-02  0.9438789E-01
       -2   -1    0    0    0  501  0.00000000000E+00  0.00000000000E+00  0.31446731460E+03  0.31446731461E+03  0.25500000920E-02 0. -1.
        2   -1    0    0  501    0  0.00000000000E+00  0.00000000000E+00 -0.62902436656E+03  0.62902436657E+03  0.25500000920E-02 0.  1.
    10030    2    1    2    0    0  0.00000000000E+00  0.00000000000E+00 -0.31455705196E+03  0.94349168118E+03  0.88951133411E+03 0.  0.
        4    1    3    3  502    0 -0.29514890783E+01 -0.16709070770E+03 -0.59445333228E+03  0.61749849639E+03  0.12699999809E+01 0.  1.
       -4    1    3    3    0  502  0.29514890783E+01  0.16709070770E+03  0.27989628032E+03  0.32599318479E+03  0.12699999809E+01 0. -1.
</event>
<event>
 5   0  0.3663255E-03  0.8979327E+03  0.7818609E-02  0.9428169E-01
       -2   -1    0    0    0  501  0.00000000000E+00  0.00000000000E+00  0.41558371117E+03  0.41558371118E+03  0.25500000920E-02 0.  1.
        2   -1    0    0  501    0  0.00000000000E+00  0.00000000000E+00 -0.48503055842E+03  0.48503055843E+03  0.25500000920E-02 0. -1.
    10030    2    1    2    0    0  0.00000000000E+00  0.00000000000E+00 -0.69446847244E+02  0.90061426961E+03  0.89793273580E+03 0.  0.
        4    1    3    3  502    0 -0.41963446363E+03  0.11898291906E+03  0.71985878986E+02  0.44207872350E+03  0.12699999809E+01 0.  1.
       -4    1    3    3    0  502  0.41963446363E+03 -0.11898291906E+03 -0.14143272623E+03  0.45853554611E+03  0.12699999809E+01 0. -1.
</event>
<event>
 5   0  0.2130975E-03  0.9091970E+03  0.7818609E-02  0.9414157E-01
        1   -1    0    0  501    0  0.00000000000E+00  0.00000000000E+00  0.65648364220E+03  0.65648364222E+03  0.50400001928E-02 0.  1.
       -1   -1    0    0    0  501  0.00000000000E+00  0.00000000000E+00 -0.31479809824E+03  0.31479809828E+03  0.50400001928E-02 0. -1.
    10030    2    1    2    0    0  0.00000000000E+00  0.00000000000E+00  0.34168554395E+03  0.97128174050E+03  0.90919701302E+03 0.  0.
        5    1    3    3  502    0 -0.41398658324E+03  0.17969428402E+03  0.11269443273E+03  0.46518496534E+03  0.46999998093E+01 0.  1.
       -5    1    3    3    0  502  0.41398658324E+03 -0.17969428402E+03  0.22899111122E+03  0.50609677516E+03  0.46999998093E+01 0. -1.
</event>
<event>
 5   0  0.3806019E-03  0.8985577E+03  0.7818609E-02  0.9427386E-01
       -2   -1    0    0    0  501  0.00000000000E+00  0.00000000000E+00  0.53084386056E+03  0.53084386057E+03  0.25500000920E-02 0. -1.
        2   -1    0    0  501    0  0.00000000000E+00  0.00000000000E+00 -0.38024643693E+03  0.38024643694E+03  0.25500000920E-02 0.  1.
    10030    2    1    2    0    0  0.00000000000E+00  0.00000000000E+00  0.15059742364E+03  0.91109029751E+03  0.89855770333E+03 0.  0.
        2    1    3    3  502    0  0.28473835594E+01  0.44249105788E+03  0.15413299709E+03  0.46857595403E+03  0.25500000920E-02 0. -1.
       -2    1    3    3    0  502 -0.28473835594E+01 -0.44249105788E+03 -0.35355734488E+01  0.44251434348E+03  0.25500000920E-02 0.  1.
</event>
<event>
 5   0  0.2130975E-03  0.9078206E+03  0.7818609E-02  0.9415858E-01
        1   -1    0    0  501    0  0.00000000000E+00  0.00000000000E+00  0.16553771607E+04  0.16553771607E+04  0.50400001928E-02 0. -1.
       -1   -1    0    0    0  501  0.00000000000E+00  0.00000000000E+00 -0.12446381279E+03  0.12446381289E+03  0.50400001928E-02 0.  1.
    10030    2    1    2    0    0  0.00000000000E+00  0.00000000000E+00  0.15309133479E+04  0.17798409736E+04  0.90782058386E+03 0.  0.
        5    1    3    3  502    0 -0.19653972124E+03 -0.32343216378E+03  0.12566798092E+04  0.13124414118E+04  0.46999998093E+01 0. -1.
       -5    1    3    3    0  502  0.19653972124E+03  0.32343216378E+03  0.27423353868E+03  0.46739956175E+03  0.46999998093E+01 0.  1.
</event>
<event>
 5   0  0.3685879E-03  0.8983163E+03  0.7818609E-02  0.9427689E-01
        2   -1    0    0  501    0  0.00000000000E+00  0.00000000000E+00  0.48576964635E+03  0.48576964636E+03  0.25500000920E-02 0.  1.
       -2   -1    0    0    0  501  0.00000000000E+00  0.00000000000E+00 -0.41530594705E+03  0.41530594706E+03  0.25500000920E-02 0. -1.
    10030    2    1    2    0    0  0.00000000000E+00  0.00000000000E+00  0.70463699295E+02  0.90107559342E+03  0.89831625396E+03 0.  0.
        1    1    3    3  502    0 -0.21216454458E+03  0.21623503024E+03  0.36787020216E+03  0.47654996374E+03  0.50400001928E-02 0.  1.
       -1    1    3    3    0  502  0.21216454458E+03 -0.21623503024E+03 -0.29740650287E+03  0.42452562968E+03  0.50400001928E-02 0. -1.
</event>
<event>
 5   0  0.3663255E-03  0.8886808E+03  0.7818609E-02  0.9439843E-01
        2   -1    0    0  501    0  0.00000000000E+00  0.00000000000E+00  0.11544028227E+04  0.11544028227E+04  0.25500000920E-02 0. -1.
       -2   -1    0    0    0  501  0.00000000000E+00  0.00000000000E+00 -0.17103077141E+03  0.17103077143E+03  0.25500000920E-02 0.  1.
    10030    2    1    2    0    0  0.00000000000E+00  0.00000000000E+00  0.98337205130E+03  0.13254335941E+04  0.88868083201E+03 0.  0.
        4    1    3    3  502    0  0.16626002621E+02 -0.43010602840E+03  0.32715693803E+03  0.54064858701E+03  0.12699999809E+01 0.  1.
       -4    1    3    3    0  502 -0.16626002621E+02  0.43010602840E+03  0.65621511327E+03  0.78478500713E+03  0.12699999809E+01 0. -1.
</event>
<event>
 5   0  0.2129280E-03  0.9071371E+03  0.7818609E-02  0.9416703E-01
       -1   -1    0    0    0  501  0.00000000000E+00  0.00000000000E+00  0.24605239271E+03  0.24605239276E+03  0.50400001928E-02 0. -1.
        1   -1    0    0  501    0  0.00000000000E+00  0.00000000000E+00 -0.83610016891E+03  0.83610016893E+03  0.50400001928E-02 0.  1.
    10030    2    1    2    0    0  0.00000000000E+00  0.00000000000E+00 -0.59004777621E+03  0.10821525617E+04  0.90713713878E+03 0.  0.
        3    1    3    3  502    0  0.21668867224E+03 -0.17048426168E+03 -0.72465414801E+03  0.77533380462E+03  0.10100000352E+00 0.  1.
       -3    1    3    3    0  502 -0.21668867224E+03  0.17048426168E+03  0.13460637180E+03  0.30681875707E+03  0.10100000352E+00 0. -1.
</event>
<event>
 5   0  0.3663255E-03  0.8999631E+03  0.7818609E-02  0.9425628E-01
        2   -1    0    0  501    0  0.00000000000E+00  0.00000000000E+00  0.57422499604E+03  0.57422499604E+03  0.25500000920E-02 0. -1.
       -2   -1    0    0    0  501  0.00000000000E+00  0.00000000000E+00 -0.35262027866E+03  0.35262027867E+03  0.25500000920E-02 0.  1.
    10030    2    1    2    0    0  0.00000000000E+00  0.00000000000E+00  0.22160471738E+03  0.92684527471E+03  0.89996306173E+03 0.  0.
        4    1    3    3  502    0 -0.33455581590E+03  0.29658426755E+03  0.16323422555E+03  0.47595887113E+03  0.12699999809E+01 0.  1.
       -4    1    3    3    0  502  0.33455581590E+03 -0.29658426755E+03  0.58370491828E+02  0.45088640358E+03  0.12699999809E+01 0. -1.
</event>
<event>
 5   0  0.3815269E-03  0.8899890E+03  0.7818609E-02  0.9438183E-01
        2   -1    0    0  501    0  0.00000000000E+00  0.00000000000E+00  0.42222798876E+03  0.42222798877E+03  0.25500000920E-02 0.  1.
       -2   -1    0    0    0  501  0.00000000000E+00  0.00000000000E+00 -0.46898853993E+03  0.46898853994E+03  0.25500000920E-02 0. -1.
    10030    2    1    2    0    0  0.00000000000E+00  0.00000000000E+00 -0.46760551169E+02  0.89121652870E+03  0.88998896167E+03 0.  0.
        5    1    3    3  502    0 -0.41376349747E+03  0.14822501341E+03  0.46192972492E+02  0.44195787938E+03  0.46999998093E+01 0. -1.
       -5    1    3    3    0  502  0.41376349747E+03 -0.14822501341E+03 -0.92953523662E+02  0.44925864933E+03  0.46999998093E+01 0.  1.
</event>
<event>
 5   0  0.3685879E-03  0.8992788E+03  0.7818609E-02  0.9426483E-01
       -2   -1    0    0    0  501  0.00000000000E+00  0.00000000000E+00  0.14024925129E+03  0.14024925131E+03  0.25500000920E-02 0.  1.
        2   -1    0    0  501    0  0.00000000000E+00  0.00000000000E+00 -0.14415447925E+04  0.14415447925E+04  0.25500000920E-02 0. -1.
    10030    2    1    2    0    0  0.00000000000E+00  0.00000000000E+00 -0.13012955412E+04  0.15817940438E+04  0.89927877293E+03 0.  0.
        1    1    3    3  502    0 -0.48529744270E+02  0.57702004110E+02  0.12905097810E+03  0.14946174204E+03  0.50400001928E-02 0.  1.
       -1    1    3    3    0  502  0.48529744270E+02 -0.57702004110E+02 -0.14303465193E+04  0.14323323018E+04  0.50400001928E-02 0. -1.
</event>
<event>
 5   0  0.2295158E-03  0.8978638E+03  0.7818609E-02  0.9428256E-01
        1   -1    0    0  501    0  0.00000000000E+00  0.00000000000E+00  0.15638712171E+04  0.15638712171E+04  0.50400001928E-02 0. -1.
       -1   -1    0    0    0  501  0.00000000000E+00  0.00000000000E+00 -0.12887240813E+03  0.12887240823E+03  0.50400001928E-02 0.  1.
    10030    2    1    2    0    0  0.00000000000E+00  0.00000000000E+00  0.14349988089E+04  0.16927436253E+04  0.89786379779E+03 0.  0.
        4    1    3    3  502    0  0.20331082683E+03  0.35626227965E+03  0.10614319316E+04  0.11379356144E+04  0.12699999809E+01 0. -1.
       -4    1    3    3    0  502 -0.20331082683E+03 -0.35626227965E+03  0.37356687729E+03  0.55480801086E+03  0.12699999809E+01 0.  1.
</event>
<event>
 5   0  0.3685879E-03  0.8998615E+03  0.7818609E-02  0.9425755E-01
        2   -1    0    0  501    0  0.00000000000E+00  0.00000000000E+00  0.14196901069E+04  0.14196901069E+04  0.25500000920E-02 0. -1.
       -2   -1    0    0    0  501  0.00000000000E+00  0.00000000000E+00 -0.14259285395E+03  0.14259285397E+03  0.25500000920E-02 0.  1.
    10030    2    1    2    0    0  0.00000000000E+00  0.00000000000E+00  0.12770972529E+04  0.15622829608E+04  0.89986146508E+03 0.  0.
        1    1    3    3  502    0  0.14296239494E+02 -0.14768125551E+03 -0.98898058356E+02  0.17831141765E+03  0.50400001928E-02 0.  1.
       -1    1    3    3    0  502 -0.14296239494E+02  0.14768125551E+03  0.13759953113E+04  0.13839715432E+04  0.50400001928E-02 0. -1.
</event>
<event>
 5   0  0.2074970E-03  0.9009236E+03  0.7818609E-02  0.9424428E-01
        1   -1    0    0  501    0  0.00000000000E+00  0.00000000000E+00  0.29500656383E+03  0.29500656387E+03  0.50400001928E-02 0. -1.
       -1   -1    0    0    0  501  0.00000000000E+00  0.00000000000E+00 -0.68783493802E+03  0.68783493804E+03  0.50400001928E-02 0.  1.
    10030    2    1    2    0    0  0.00000000000E+00  0.00000000000E+00 -0.39282837420E+03  0.98284150191E+03  0.90092357407E+03 0.  0.
        2    1    3    3  502    0 -0.33759712057E+03 -0.28801620267E+03 -0.11197708221E+03  0.45767238912E+03  0.25500000920E-02 0. -1.
       -2    1    3    3    0  502  0.33759712057E+03  0.28801620267E+03 -0.28085129199E+03  0.52516911279E+03  0.25500000920E-02 0.  1.
</event>
<event>
 5   0  0.3626546E-03  0.8950370E+03  0.7818609E-02  0.9431807E-01
       -2   -1    0    0    0  501  0.00000000000E+00  0.00000000000E+00  0.18062417926E+03  0.18062417928E+03  0.25500000920E-02 0.  1.
        2   -1    0    0  501    0  0.00000000000E+00  0.00000000000E+00 -0.11087818830E+04  0.11087818830E+04  0.25500000920E-02 0. -1.
    10030    2    1    2    0    0  0.00000000000E+00  0.00000000000E+00 -0.92815770371E+03  0.12894060623E+04  0.89503702181E+03 0.  0.
        3    1    3    3  502    0  0.25975210655E+03 -0.23680073891E+03 -0.65032827334E+02  0.35745632689E+03  0.10100000352E+00 0.  1.
       -3    1    3    3    0  502 -0.25975210655E+03  0.23680073891E+03 -0.86312487638E+03  0.93194973536E+03  0.10100000352E+00 0. -1.
</event>
<event>
 5   0  0.2295158E-03  0.8991246E+03  0.7818609E-02  0.9426676E-01
        1   -1    0    0  501    0  0.00000000000E+00  0.00000000000E+00  0.16448217464E+03  0.16448217472E+03  0.50400001928E-02 0. -1.
       -1   -1    0    0    0  501  0.00000000000E+00  0.00000000000E+00 -0.12287425062E+04  0.12287425062E+04  0.50400001928E-02 0.  1.
    10030    2    1    2    0    0  0.00000000000E+00  0.00000000000E+00 -0.10642603315E+04  0.13932246809E+04  0.89912455099E+03 0.  0.
        4    1    3    3  502    0 -0.96042061752E+02 -0.20808921821E+03 -0.11314204467E+04  0.11543998616E+04  0.12699999809E+01 0.  1.
       -4    1    3    3    0  502  0.96042061752E+02  0.20808921821E+03  0.67160115139E+02  0.23882481933E+03  0.12699999809E+01 0. -1.
</event>
<event>
 5   0  0.2295158E-03  0.9002462E+03  0.7818609E-02  0.9425274E-01
       -1   -1    0    0    0  501  0.00000000000E+00  0.00000000000E+00  0.23977622494E+03  0.23977622499E+03  0.50400001928E-02 0. -1.
        1   -1    0    0  501    0  0.00000000000E+00  0.00000000000E+00 -0.84499955688E+03  0.84499955689E+03  0.50400001928E-02 0.  1.
    10030    2    1    2    0    0  0.00000000000E+00  0.00000000000E+00 -0.60522333194E+03  0.10847757819E+04  0.90024619712E+03 0.  0.
        4    1    3    3  502    0  0.10407835963E+03 -0.37304151694E+03 -0.26209548175E+02  0.38817628935E+03  0.12699999809E+01 0. -1.
       -4    1    3    3    0  502 -0.10407835963E+03  0.37304151694E+03 -0.57901378377E+03  0.69659949253E+03  0.12699999809E+01 0.  1.
</event>
<event>
 5   0  0.3685879E-03  0.8991805E+03  0.7818609E-02  0.9426606E-01
        2   -1    0    0  501    0  0.00000000000E+00  0.00000000000E+00  0.14025024564E+04  0.14025024564E+04  0.25500000920E-02 0.  1.
       -2   -1    0    0    0  501  0.00000000000E+00  0.00000000000E+00 -0.14412194193E+03  0.14412194195E+03  0.25500000920E-02 0. -1.
    10030    2    1    2    0    0  0.00000000000E+00  0.00000000000E+00  0.12583805145E+04  0.15466243984E+04  0.89918046596E+03 0.  0.
        1    1    3    3  502    0 -0.21211382758E+03  0.24990245263E+03  0.99910654500E+02  0.34267426310E+03  0.50400001928E-02 0. -1.
       -1    1    3    3    0  502  0.21211382758E+03 -0.24990245263E+03  0.11584698600E+04  0.12039501353E+04  0.50400001928E-02 0.  1.
</event>
<event>
 5   0  0.3663255E-03  0.8966217E+03  0.7818609E-02  0.9429814E-01
        2   -1    0    0  501    0  0.00000000000E+00  0.00000000000E+00  0.13690720631E+04  0.13690720631E+04  0.25500000920E-02 0. -1.
       -2   -1    0    0    0  501  0.00000000000E+00  0.00000000000E+00 -0.14680206081E+03  0.14680206083E+03  0.25500000920E-02 0.  1.
    10030    2    1    2    0    0  0.00000000000E+00  0.00000000000E+00  0.12222700023E+04  0.15158741239E+04  0.89662165996E+03 0.  0.
        4    1    3    3  502    0 -0.83248821677E+02 -0.15134138142E+03  0.13105546149E+04  0.13218886457E+04  0.12699999809E+01 0. -1.
       -4    1    3    3    0  502  0.83248821677E+02  0.15134138142E+03 -0.88284612627E+02  0.19398547824E+03  0.12699999809E+01 0.  1.
</event>
<event>
 5   0  0.2130975E-03  0.9052088E+03  0.7818609E-02  0.9419094E-01
        1   -1    0    0  501    0  0.00000000000E+00  0.00000000000E+00  0.89349724617E+03  0.89349724619E+03  0.50400001928E-02 0.  1.
       -1   -1    0    0    0  501  0.00000000000E+00  0.00000000000E+00 -0.22926845848E+03  0.22926845853E+03  0.50400001928E-02 0. -1.
    10030    2    1    2    0    0  0.00000000000E+00  0.00000000000E+00  0.66422878770E+03  0.11227657047E+04  0.90520878547E+03 0.  0.
        5    1    3    3  502    0  0.31031066887E+03  0.31162793499E+03  0.19954330761E+03  0.48295372728E+03  0.46999998093E+01 0. -1.
       -5    1    3    3    0  502 -0.31031066887E+03 -0.31162793499E+03  0.46468548009E+03  0.63981197745E+03  0.46999998093E+01 0.  1.
</event>
<event>
 5   0  0.3685879E-03  0.8934939E+03  0.7818609E-02  0.9433751E-01
        2   -1    0    0  501    0  0.00000000000E+00  0.00000000000E+00  0.79272548596E+03  0.79272548597E+03  0.25500000920E-02 0.  1.
       -2   -1    0    0    0  501  0.00000000000E+00  0.00000000000E+00 -0.25176788619E+03  0.25176788620E+03  0.25500000920E-02 0. -1.
    10030    2    1    2    0    0  0.00000000000E+00  0.00000000000E+00  0.54095759977E+03  0.10444933722E+04  0.89349386106E+03 0.  0.
        1    1    3    3  502    0  0.83774659693E+02 -0.69821953238E+02  0.77692594664E+03  0.78454268548E+03  0.50400001928E-02 0.  1.
       -1    1    3    3    0  502 -0.83774659693E+02  0.69821953238E+02 -0.23596834687E+03  0.25995068669E+03  0.50400001928E-02 0. -1.
</event>
<event>
 5   0  0.3626546E-03  0.9010250E+03  0.7818609E-02  0.9424301E-01
       -2   -1    0    0    0  501  0.00000000000E+00  0.00000000000E+00  0.15264265182E+03  0.15264265184E+03  0.25500000920E-02 0. -1.
        2   -1    0    0  501    0  0.00000000000E+00  0.00000000000E+00 -0.13296513752E+04  0.13296513752E+04  0.25500000920E-02 0.  1.
    10030    2    1    2    0    0  0.00000000000E+00  0.00000000000E+00 -0.11770087234E+04  0.14822940271E+04  0.90102499838E+03 0.  0.
        3    1    3    3  502    0  0.15173719356E+03 -0.36469715842E+03 -0.23210402703E+03  0.45814897450E+03  0.10100000352E+00 0. -1.
       -3    1    3    3    0  502 -0.15173719356E+03  0.36469715842E+03 -0.94490469639E+03  0.10241450526E+04  0.10100000352E+00 0.  1.
</event>
<event>
 5   0  0.2134145E-03  0.9008893E+03  0.7818609E-02  0.9424470E-01
       -1   -1    0    0    0  501  0.00000000000E+00  0.00000000000E+00  0.17216861307E+03  0.17216861314E+03  0.50400001928E-02 0.  1.
        1   -1    0    0  501    0  0.00000000000E+00  0.00000000000E+00 -0.11784980413E+04  0.11784980413E+04  0.50400001928E-02 0. -1.
    10030    2    1    2    0    0  0.00000000000E+00  0.00000000000E+00 -0.10063294282E+04  0.13506666545E+04  0.90088927917E+03 0.  0.
        1    1    3    3  502    0  0.35778922578E+03  0.85140963498E+01 -0.93083019376E+02  0.36979733429E+03  0.50400001928E-02 0.  1.
       -1    1    3    3    0  502 -0.35778922578E+03 -0.85140963498E+01 -0.91324640886E+03  0.98086932017E+03  0.50400001928E-02 0. -1.
</event>
<event>
 5   0  0.2295158E-03  0.8991437E+03  0.7818609E-02  0.9426652E-01
       -1   -1    0    0    0  501  0.00000000000E+00  0.00000000000E+00  0.15392937993E+03  0.15392938001E+03  0.50400001928E-02 0.  1.
        1   -1    0    0  501    0  0.00000000000E+00  0.00000000000E+00 -0.13130361411E+04  0.13130361411E+04  0.50400001928E-02 0. -1.
    10030    2    1    2    0    0  0.00000000000E+00  0.00000000000E+00 -0.11591067612E+04  0.14669655211E+04  0.89914367950E+03 0.  0.
        4    1    3    3  502    0 -0.41322871932E+02  0.16425423643E+03  0.99881995008E+02  0.19663433005E+03  0.12699999809E+01 0.  1.
       -4    1    3    3    0  502  0.41322871932E+02 -0.16425423643E+03 -0.12589887562E+04  0.12703311911E+04  0.12699999809E+01 0. -1.
</event>
<event>
 5   0  0.2129280E-03  0.9036098E+03  0.7818609E-02  0.9421080E-01
        1   -1    0    0  501    0  0.00000000000E+00  0.00000000000E+00  0.14227544113E+04  0.14227544113E+04  0.50400001928E-02 0.  1.
       -1   -1    0    0    0  501  0.00000000000E+00  0.00000000000E+00 -0.14347357890E+03  0.14347357899E+03  0.50400001928E-02 0. -1.
    10030    2    1    2    0    0  0.00000000000E+00  0.00000000000E+00  0.12792808324E+04  0.15662279903E+04  0.90360979935E+03 0.  0.
        3    1    3    3  502    0 -0.39706819871E+03 -0.12233825555E+03  0.94726039055E+03  0.10343752032E+04  0.10100000352E+00 0. -1.
       -3    1    3    3    0  502  0.39706819871E+03  0.12233825555E+03  0.33202044186E+03  0.53185278716E+03  0.10100000352E+00 0.  1.
</event>
<event>
 5   0  0.2130975E-03  0.9040498E+03  0.7818609E-02  0.9420533E-01
       -1   -1    0    0    0  501  0.00000000000E+00  0.00000000000E+00  0.29175979995E+03  0.29175980000E+03  0.50400001928E-02 0. -1.
        1   -1    0    0  501    0  0.00000000000E+00  0.00000000000E+00 -0.70032445206E+03  0.70032445208E+03  0.50400001928E-02 0.  1.
    10030    2    1    2    0    0  0.00000000000E+00  0.00000000000E+00 -0.40856465211E+03  0.99208425208E+03  0.90404982621E+03 0.  0.
        5    1    3    3  502    0 -0.33163754301E+03  0.86572994871E+02 -0.52763861178E+03  0.62920818337E+03  0.46999998093E+01 0.  1.
       -5    1    3    3    0  502  0.33163754301E+03 -0.86572994871E+02  0.11907395967E+03  0.36287606871E+03  0.46999998093E+01 0. -1.
</event>
<event>
 5   0  0.1436000E-03  0.9002016E+03  0.7818609E-02  0.9425329E-01
        3   -1    0    0  501    0  0.00000000000E+00  0.00000000000E+00  0.76906851614E+03  0.76906852277E+03  0.10100000352E+00 0. -1.
       -3   -1    0    0    0  501  0.00000000000E+00  0.00000000000E+00 -0.26342350829E+03  0.26342352765E+03  0.10100000352E+00 0.  1.
    10030    2    1    2    0    0  0.00000000000E+00  0.00000000000E+00  0.50564500785E+03  0.10324920504E+04  0.90020162198E+03 0.  0.
        3    1    3    3  502    0  0.21405667537E+03 -0.26414194160E+03 -0.85480079613E+02  0.35056822416E+03  0.10100000352E+00 0.  1.
       -3    1    3    3    0  502 -0.21405667537E+03  0.26414194160E+03  0.59112508746E+03  0.68192382625E+03  0.10100000352E+00 0. -1.
</event>
<event>
 5   0  0.2129280E-03  0.8991428E+03  0.7818609E-02  0.9426654E-01
        1   -1    0    0  501    0  0.00000000000E+00  0.00000000000E+00  0.56478134854E+03  0.56478134857E+03  0.50400001928E-02 0.  1.
       -1   -1    0    0    0  501  0.00000000000E+00  0.00000000000E+00 -0.35786319238E+03  0.35786319242E+03  0.50400001928E-02 0. -1.
    10030    2    1    2    0    0  0.00000000000E+00  0.00000000000E+00  0.20691815616E+03  0.92264454098E+03  0.89914282828E+03 0.  0.
        3    1    3    3  502    0  0.19945048786E+03  0.89757937822E+02  0.50650726729E+03  0.55171243100E+03  0.10100000352E+00 0.  1.
       -3    1    3    3    0  502 -0.19945048786E+03 -0.89757937822E+02 -0.29958911112E+03  0.37093210998E+03  0.10100000352E+00 0. -1.
</event>
<event>
 5   0  0.3663255E-03  0.8987591E+03  0.7818609E-02  0.9427134E-01
        2   -1    0    0  501    0  0.00000000000E+00  0.00000000000E+00  0.20619434767E+04  0.20619434767E+04  0.25500000920E-02 0.  1.
       -2   -1    0    0    0  501  0.00000000000E+00  0.00000000000E+00 -0.97937685308E+02  0.97937685341E+02  0.25500000920E-02 0. -1.
    10030    2    1    2    0    0  0.00000000000E+00  0.00000000000E+00  0.19640057914E+04  0.21598811621E+04  0.89875908092E+03 0.  0.
        4    1    3    3  502    0  0.16728113696E+03 -0.30503510413E+03  0.16655843246E+04  0.17015293558E+04  0.12699999809E+01 0.  1.
       -4    1    3    3    0  502 -0.16728113696E+03  0.30503510413E+03  0.29842146688E+03  0.45835180629E+03  0.12699999809E+01 0. -1.
</event>
<event>
 5   0  0.3685879E-03  0.8982115E+03  0.7818609E-02  0.9427820E-01
       -2   -1    0    0    0  501  0.00000000000E+00  0.00000000000E+00  0.53426228849E+03  0.53426228850E+03  0.25500000920E-02 0. -1.
        2   -1    0    0  501    0  0.00000000000E+00  0.00000000000E+00 -0.37752241431E+03  0.37752241432E+03  0.25500000920E-02 0.  1.
    10030    2    1    2    0    0  0.00000000000E+00  0.00000000000E+00  0.15673987418E+03  0.91178470282E+03  0.89821153195E+03 0.  0.
        1    1    3    3  502    0  0.27029955392E+03  0.24122772360E+03 -0.19105240069E+03  0.40957744484E+03  0.50400001928E-02 0.  1.
       -1    1    3    3    0  502 -0.27029955392E+03 -0.24122772360E+03  0.34779227487E+03  0.50220725798E+03  0.50400001928E-02 0. -1.
</event>
<event>
 5   0  0.2074970E-03  0.9016732E+03  0.7818609E-02  0.9423492E-01
        1   -1    0    0  501    0  0.00000000000E+00  0.00000000000E+00  0.50401824368E+03  0.50401824371E+03  0.50400001928E-02 0. -1.
       -1   -1    0    0    0  501  0.00000000000E+00  0.00000000000E+00 -0.40326645644E+03  0.40326645647E+03  0.50400001928E-02 0.  1.
    10030    2    1    2    0    0  0.00000000000E+00  0.00000000000E+00  0.10075178724E+03  0.90728470018E+03  0.90167322492E+03 0.  0.
        2    1    3    3  502    0 -0.32417048304E+03  0.28361528662E+03  0.18435679069E+03  0.46852060697E+03  0.25500000920E-02 0. -1.
       -2    1    3    3    0  502  0.32417048304E+03 -0.28361528662E+03 -0.83605003443E+02  0.43876409320E+03  0.25500000920E-02 0.  1.
</event>
<event>
 5   0  0.3815269E-03  0.9059582E+03  0.7818609E-02  0.9418164E-01
       -2   -1    0    0    0  501  0.00000000000E+00  0.00000000000E+00  0.32612670058E+03  0.32612670059E+03  0.25500000920E-02 0.  1.
        2   -1    0    0  501    0  0.00000000000E+00  0.00000000000E+00 -0.62917290993E+03  0.62917290994E+03  0.25500000920E-02 0. -1.
    10030    2    1    2    0    0  0.00000000000E+00  0.00000000000E+00 -0.30304620935E+03  0.95529961053E+03  0.90595824456E+03 0.  0.
        5    1    3    3  502    0  0.11215775258E+03  0.36945573993E+03 -0.40125749888E+03  0.55687213580E+03  0.46999998093E+01 0. -1.
       -5    1    3    3    0  502 -0.11215775258E+03 -0.36945573993E+03  0.98211289535E+02  0.39842747473E+03  0.46999998093E+01 0.  1.
</event>
<event>
 5   0  0.2074970E-03  0.8985410E+03  0.7818609E-02  0.9427407E-01
        1   -1    0    0  501    0  0.00000000000E+00  0.00000000000E+00  0.79210075443E+03  0.79210075444E+03  0.50400001928E-02 0.  1.
       -1   -1    0    0    0  501  0.00000000000E+00  0.00000000000E+00 -0.25482108609E+03  0.25482108614E+03  0.50400001928E-02 0. -1.
    10030    2    1    2    0    0  0.00000000000E+00  0.00000000000E+00  0.53727966834E+03  0.10469218406E+04  0.89854098309E+03 0.  0.
        2    1    3    3  502    0 -0.16540425204E+03  0.62429897140E+02 -0.21258773675E+03  0.27649521600E+03  0.25500000920E-02 0. -1.
       -2    1    3    3    0  502  0.16540425204E+03 -0.62429897140E+02  0.74986740508E+03  0.77042662458E+03  0.25500000920E-02 0.  1.
</event>
<event>
 5   0  0.3806019E-03  0.8928013E+03  0.7818609E-02  0.9434625E-01
        2   -1    0    0  501    0  0.00000000000E+00  0.00000000000E+00  0.50636763738E+03  0.50636763739E+03  0.25500000920E-02 0.  1.
       -2   -1    0    0    0  501  0.00000000000E+00  0.00000000000E+00 -0.39353533032E+03  0.39353533032E+03  0.25500000920E-02 0. -1.
    10030    2    1    2    0    0  0.00000000000E+00  0.00000000000E+00  0.11283230707E+03  0.89990296771E+03  0.89280133388E+03 0.  0.
        2    1    3    3  502    0 -0.43847184658E+03  0.51170169846E+02  0.12325811041E+03  0.45833231209E+03  0.25500000920E-02 0.  1.
       -2    1    3    3    0  502  0.43847184658E+03 -0.51170169846E+02 -0.10425803343E+02  0.44157065562E+03  0.25500000920E-02 0. -1.
</event>
<event>
 5   0  0.3626546E-03  0.8979394E+03  0.7818609E-02  0.9428161E-01
        2   -1    0    0  501    0  0.00000000000E+00  0.00000000000E+00  0.45138731929E+03  0.45138731929E+03  0.25500000920E-02 0. -1.
       -2   -1    0    0    0  501  0.00000000000E+00  0.00000000000E+00 -0.44656506270E+03  0.44656506271E+03  0.25500000920E-02 0.  1.
    10030    2    1    2    0    0  0.00000000000E+00  0.00000000000E+00  0.48222565839E+01  0.89795238200E+03  0.89793943347E+03 0.  0.
        3    1    3    3  502    0  0.35010386447E+03 -0.14932663423E+02  0.28308953504E+03  0.45048351291E+03  0.10100000352E+00 0. -1.
       -3    1    3    3    0  502 -0.35010386447E+03  0.14932663423E+02 -0.27826727845E+03  0.44746886910E+03  0.10100000352E+00 0.  1.
</event>
<event>
 5   0  0.1436000E-03  0.9183399E+03  0.7818609E-02  0.9402942E-01
       -3   -1    0    0    0  501  0.00000000000E+00  0.00000000000E+00  0.41622047596E+03  0.41622048821E+03  0.10100000352E+00 0.  1.
        3   -1    0    0  501    0  0.00000000000E+00  0.00000000000E+00 -0.50655135519E+03  0.50655136526E+03  0.10100000352E+00 0. -1.
    10030    2    1    2    0    0  0.00000000000E+00  0.00000000000E+00 -0.90330879230E+02  0.92277185347E+03  0.91833992934E+03 0.  0.
        4    1    3    3  502    0 -0.41193288320E+03 -0.21492720043E+02 -0.24784362044E+03  0.48122625694E+03  0.12699999809E+01 0. -1.
       -4    1    3    3    0  502  0.41193288320E+03  0.21492720043E+02  0.15751274121E+03  0.44154559653E+03  0.12699999809E+01 0.  1.
</event>
<event>
 5   0  0.3685879E-03  0.9002193E+03  0.7818609E-02  0.9425307E-01
       -2   -1    0    0    0  501  0.00000000000E+00  0.00000000000E+00  0.29781855484E+03  0.29781855485E+03  0.25500000920E-02 0. -1.
        2   -1    0    0  501    0  0.00000000000E+00  0.00000000000E+00 -0.68027556598E+03  0.68027556598E+03  0.25500000920E-02 0.  1.
    10030    2    1    2    0    0  0.00000000000E+00  0.00000000000E+00 -0.38245701114E+03  0.97809412083E+03  0.90021927542E+03 0.  0.
        1    1    3    3  502    0  0.30020604393E+03 -0.32825444721E+03 -0.11655115624E+03  0.45984652111E+03  0.50400001928E-02 0.  1.
       -1    1    3    3    0  502 -0.30020604393E+03  0.32825444721E+03 -0.26590585489E+03  0.51824759973E+03  0.50400001928E-02 0. -1.
</event>
<event>
 5   0  0.3663255E-03  0.8987345E+03  0.7818609E-02  0.9427165E-01
        2   -1    0    0  501    0  0.00000000000E+00  0.00000000000E+00  0.91675709428E+03  0.91675709428E+03  0.25500000920E-02 0.  1.
       -2   -1    0    0    0  501  0.00000000000E+00  0.00000000000E+00 -0.22026654358E+03  0.22026654359E+03  0.25500000920E-02 0. -1.
    10030    2    1    2    0    0  0.00000000000E+00  0.00000000000E+00  0.69649055070E+03  0.11370236379E+04  0.89873448018E+03 0.  0.
        4    1    3    3  502    0 -0.25590814374E+03  0.20609078098E+03  0.73606114374E+03  0.80607072163E+03  0.12699999809E+01 0.  1.
       -4    1    3    3    0  502  0.25590814374E+03 -0.20609078098E+03 -0.39570593039E+02  0.33095291625E+03  0.12699999809E+01 0. -1.
</event>
<event>
 5   0  0.2130975E-03  0.9027915E+03  0.7818609E-02  0.9422099E-01
        1   -1    0    0  501    0  0.00000000000E+00  0.00000000000E+00  0.12726245350E+04  0.12726245350E+04  0.50400001928E-02 0.  1.
       -1   -1    0    0    0  501  0.00000000000E+00  0.00000000000E+00 -0.16010860252E+03  0.16010860260E+03  0.50400001928E-02 0. -1.
    10030    2    1    2    0    0  0.00000000000E+00  0.00000000000E+00  0.11125159324E+04  0.14327331376E+04  0.90279152828E+03 0.  0.
        5    1    3    3  502    0 -0.99039939435E+02 -0.37447147881E+03  0.18850355718E+03  0.43080561639E+03  0.46999998093E+01 0. -1.
       -5    1    3    3    0  502  0.99039939435E+02  0.37447147881E+03  0.92401237527E+03  0.10019275212E+04  0.46999998093E+01 0.  1.
</event>
<event>
 5   0  0.2074970E-03  0.9037721E+03  0.7818609E-02  0.9420878E-01
       -1   -1    0    0    0  501  0.00000000000E+00  0.00000000000E+00  0.12302619584E+03  0.12302619594E+03  0.50400001928E-02 0.  1.
        1   -1    0    0  501    0  0.00000000000E+00  0.00000000000E+00 -0.16598171399E+04  0.16598171399E+04  0.50400001928E-02 0. -1.
    10030    2    1    2    0    0  0.00000000000E+00  0.00000000000E+00 -0.15367909441E+04  0.17828433359E+04  0.90377206995E+03 0.  0.
        2    1    3    3  502    0 -0.42514031630E+03  0.14149853433E+03 -0.88400911667E+03  0.99107933190E+03  0.25500000920E-02 0.  1.
       -2    1    3    3    0  502  0.42514031630E+03 -0.14149853433E+03 -0.65278182741E+03  0.79176400396E+03  0.25500000920E-02 0. -1.
</event>
<event>
 5   0  0.2130975E-03  0.9304242E+03  0.7818609E-02  0.9388329E-01
        1   -1    0    0  501    0  0.00000000000E+00  0.00000000000E+00  0.45365979525E+03  0.45365979528E+03  0.50400001928E-02 0. -1.
       -1   -1    0    0    0  501  0.00000000000E+00  0.00000000000E+00 -0.47705856992E+03  0.47705856995E+03  0.50400001928E-02 0.  1.
    10030    2    1    2    0    0  0.00000000000E+00  0.00000000000E+00 -0.23398774670E+02  0.93071836523E+03  0.93042418967E+03 0.  0.
        5    1    3    3  502    0  0.30135685789E+03 -0.56182225199E+02  0.33830808983E+03  0.45655980098E+03  0.46999998093E+01 0. -1.
       -5    1    3    3    0  502 -0.30135685789E+03  0.56182225199E+02 -0.36170686450E+03  0.47415856425E+03  0.46999998093E+01 0.  1.
</event>
<event>
 5   0  0.3626546E-03  0.9014772E+03  0.7818609E-02  0.9423737E-01
        2   -1    0    0  501    0  0.00000000000E+00  0.00000000000E+00  0.14111071319E+04  0.14111071319E+04  0.25500000920E-02 0.  1.
       -2   -1    0    0    0  501  0.00000000000E+00  0.00000000000E+00 -0.14397581403E+03  0.14397581405E+03  0.25500000920E-02 0. -1.
    10030    2    1    2    0    0  0.00000000000E+00  0.00000000000E+00  0.12671313179E+04  0.15550829460E+04  0.90147722771E+03 0.  0.
        3    1    3    3  502    0 -0.13717975578E+03  0.17717059054E+03  0.13082246402E+04  0.13272751874E+04  0.10100000352E+00 0.  1.
       -3    1    3    3    0  502  0.13717975578E+03 -0.17717059054E+03 -0.41093322305E+02  0.22780775862E+03  0.10100000352E+00 0. -1.
</event>
<event>
 5   0  0.3806019E-03  0.9001976E+03  0.7818609E-02  0.9425334E-01
       -2   -1    0    0    0  501  0.00000000000E+00  0.00000000000E+00  0.74073295367E+03  0.74073295368E+03  0.25500000920E-02 0. -1.
        2   -1    0    0  501    0  0.00000000000E+00  0.00000000000E+00 -0.27349795613E+03  0.27349795614E+03  0.25500000920E-02 0.  1.
    10030    2    1    2    0    0  0.00000000000E+00  0.00000000000E+00  0.46723499754E+03  0.10142309098E+04  0.90019764246E+03 0.  0.
        2    1    3    3  502    0  0.21619450957E+03  0.17938942176E+03 -0.16259502441E+03  0.32458862053E+03  0.25500000920E-02 0.  1.
       -2    1    3    3    0  502 -0.21619450957E+03 -0.17938942176E+03  0.62983002196E+03  0.68964228928E+03  0.25500000920E-02 0. -1.
</event>
<event>
 5   0  0.3815269E-03  0.8999713E+03  0.7818609E-02  0.9425617E-01
        2   -1    0    0  501    0  0.00000000000E+00  0.00000000000E+00  0.41701733584E+03  0.41701733585E+03  0.25500000920E-02 0.  1.
       -2   -1    0    0    0  501  0.00000000000E+00  0.00000000000E+00 -0.48556034454E+03  0.48556034455E+03  0.25500000920E-02 0. -1.
    10030    2    1    2    0    0  0.00000000000E+00  0.00000000000E+00 -0.68543008700E+02  0.90257768039E+03  0.89997129127E+03 0.  0.
        5    1    3    3  502    0  0.34628646348E+03  0.34644006007E+02  0.25177455248E+03  0.42956610343E+03  0.46999998093E+01 0.  1.
       -5    1    3    3    0  502 -0.34628646348E+03 -0.34644006007E+02 -0.32031756118E+03  0.47301157696E+03  0.46999998093E+01 0. -1.
</event>
<event>
 5   0  0.2295158E-03  0.9047388E+03  0.7818609E-02  0.9419677E-01
       -1   -1    0    0    0  501  0.00000000000E+00  0.00000000000E+00  0.38405971933E+03  0.38405971936E+03  0.50400001928E-02 0. -1.
        1   -1    0    0  501    0  0.00000000000E+00  0.00000000000E+00 -0.53282876701E+03  0.53282876703E+03  0.50400001928E-02 0.  1.
    10030    2    1    2    0    0  0.00000000000E+00  0.00000000000E+00 -0.14876904768E+03  0.91688848639E+03  0.90473878381E+03 0.  0.
        4    1    3    3  502    0 -0.23604150867E+03  0.30085179660E+03 -0.31930968750E+03  0.49818439033E+03  0.12699999809E+01 0.  1.
       -4    1    3    3    0  502  0.23604150867E+03 -0.30085179660E+03  0.17054063982E+03  0.41870409607E+03  0.12699999809E+01 0. -1.
</event>
<event>
 5   0  0.2134145E-03  0.9017073E+03  0.7818609E-02  0.9423450E-01
       -1   -1    0    0    0  501  0.00000000000E+00  0.00000000000E+00  0.40269741014E+03  0.40269741017E+03  0.50400001928E-02 0. -1.
        1   -1    0    0  501    0  0.00000000000E+00  0.00000000000E+00 -0.50476859377E+03  0.50476859379E+03  0.50400001928E-02 0.  1.
    10030    2    1    2    0    0  0.00000000000E+00  0.00000000000E+00 -0.10207118363E+03  0.90746600396E+03  0.90170728167E+03 0.  0.
        1    1    3    3  502    0 -0.27353425399E+03  0.35218345321E+03 -0.11790414216E+03  0.46125433286E+03  0.50400001928E-02 0.  1.
       -1    1    3    3    0  502  0.27353425399E+03 -0.35218345321E+03  0.15832958530E+02  0.44621167110E+03  0.50400001928E-02 0. -1.
</event>
<event>
 5   0  0.3806019E-03  0.9019254E+03  0.7818609E-02  0.9423178E-01
        2   -1    0    0  501    0  0.00000000000E+00  0.00000000000E+00  0.75864339093E+03  0.75864339093E+03  0.25500000920E-02 0. -1.
       -2   -1    0    0    0  501  0.00000000000E+00  0.00000000000E+00 -0.26806715407E+03  0.26806715408E+03  0.25500000920E-02 0.  1.
    10030    2    1    2    0    0  0.00000000000E+00  0.00000000000E+00  0.49057623686E+03  0.10267105450E+04  0.90192543986E+03 0.  0.
        2    1    3    3  502    0  0.23781999615E+03  0.15967889646E+03  0.64177487342E+03  0.70280202668E+03  0.25500000920E-02 0. -1.
       -2    1    3    3    0  502 -0.23781999615E+03 -0.15967889646E+03 -0.15119863656E+03  0.32390851833E+03  0.25500000920E-02 0.  1.
</event>
<event>
 5   0  0.1436000E-03  0.8974695E+03  0.7818609E-02  0.9428750E-01
       -3   -1    0    0    0  501  0.00000000000E+00  0.00000000000E+00  0.78891771947E+03  0.78891772593E+03  0.10100000352E+00 0.  1.
        3   -1    0    0  501    0  0.00000000000E+00  0.00000000000E+00 -0.25523935177E+03  0.25523937175E+03  0.10100000352E+00 0. -1.
    10030    2    1    2    0    0  0.00000000000E+00  0.00000000000E+00  0.53367836770E+03  0.10441570977E+04  0.89746946717E+03 0.  0.
        2    1    3    3  502    0  0.43429375527E+02  0.38665430906E+03  0.67493276659E+01  0.38914421338E+03  0.25500000920E-02 0.  1.
       -2    1    3    3    0  502 -0.43429375527E+02 -0.38665430906E+03  0.52692904003E+03  0.65501288431E+03  0.25500000920E-02 0. -1.
</event>
<event>
 5   0  0.2295158E-03  0.8878556E+03  0.7818609E-02  0.9440891E-01
       -1   -1    0    0    0  501  0.00000000000E+00  0.00000000000E+00  0.24373409023E+03  0.24373409029E+03  0.50400001928E-02 0. -1.
        1   -1    0    0  501    0  0.00000000000E+00  0.00000000000E+00 -0.80855288348E+03  0.80855288350E+03  0.50400001928E-02 0.  1.
    10030    2    1    2    0    0  0.00000000000E+00  0.00000000000E+00 -0.56481879325E+03  0.10522869738E+04  0.88785562227E+03 0.  0.
        4    1    3    3  502    0  0.20263677797E+03  0.23287244569E+03  0.95703107051E+02  0.32319024946E+03  0.12699999809E+01 0. -1.
       -4    1    3    3    0  502 -0.20263677797E+03 -0.23287244569E+03 -0.66052190030E+03  0.72909672432E+03  0.12699999809E+01 0.  1.
</event>
<event>
 5   0  0.3663255E-03  0.8957148E+03  0.7818609E-02  0.9430954E-01
        2   -1    0    0  501    0  0.00000000000E+00  0.00000000000E+00  0.25776901000E+03  0.25776901001E+03  0.25500000920E-02 0.  1.
       -2   -1    0    0    0  501  0.00000000000E+00  0.00000000000E+00 -0.77812405551E+03  0.77812405551E+03  0.25500000920E-02 0. -1.
    10030    2    1    2    0    0  0.00000000000E+00  0.00000000000E+00 -0.52035504551E+03  0.10358930655E+04  0.89571483733E+03 0.  0.
        4    1    3    3  502    0 -0.38268077314E+03 -0.22570275932E+03 -0.32547972119E+03  0.55074946346E+03  0.12699999809E+01 0. -1.
       -4    1    3    3    0  502  0.38268077314E+03  0.22570275932E+03 -0.19487532432E+03  0.48514360207E+03  0.12699999809E+01 0.  1.
</event>
<event>
 5   0  0.2130975E-03  0.8940857E+03  0.7818609E-02  0.9433005E-01
        1   -1    0    0  501    0  0.00000000000E+00  0.00000000000E+00  0.41770643674E+03  0.41770643677E+03  0.50400001928E-02 0.  1.
       -1   -1    0    0    0  501  0.00000000000E+00  0.00000000000E+00 -0.47843966732E+03  0.47843966734E+03  0.50400001928E-02 0. -1.
    10030    2    1    2    0    0  0.00000000000E+00  0.00000000000E+00 -0.60733230581E+02  0.89614610411E+03  0.89408574232E+03 0.  0.
        5    1    3    3  502    0  0.18524246531E+03  0.29816871011E+03 -0.30778211825E+03  0.46687393690E+03  0.46999998093E+01 0. -1.
       -5    1    3    3    0  502 -0.18524246531E+03 -0.29816871011E+03  0.24704888767E+03  0.42927216721E+03  0.46999998093E+01 0.  1.
</event>
<event>
 5   0  0.3815269E-03  0.9036586E+03  0.7818609E-02  0.9421020E-01
        2   -1    0    0  501    0  0.00000000000E+00  0.00000000000E+00  0.85866031922E+03  0.85866031923E+03  0.25500000920E-02 0. -1.
       -2   -1    0    0    0  501  0.00000000000E+00  0.00000000000E+00 -0.23775374769E+03  0.23775374771E+03  0.25500000920E-02 0.  1.
    10030    2    1    2    0    0  0.00000000000E+00  0.00000000000E+00  0.62090657153E+03  0.10964140669E+04  0.90365858354E+03 0.  0.
        5    1    3    3  502    0  0.12813980104E+03 -0.34197453890E+03  0.63320450546E+03  0.73098319379E+03  0.46999998093E+01 0. -1.
       -5    1    3    3    0  502 -0.12813980104E+03  0.34197453890E+03 -0.12297933931E+02  0.36543087315E+03  0.46999998093E+01 0.  1.
</event>
<event>
 5   0  0.3685879E-03  0.9000278E+03  0.7818609E-02  0.9425547E-01
       -2   -1    0    0    0  501  0.00000000000E+00  0.00000000000E+00  0.17523614578E+03  0.17523614580E+03  0.25500000920E-02 0.  1.
        2   -1    0    0  501    0  0.00000000000E+00  0.00000000000E+00 -0.11556549937E+04  0.11556549937E+04  0.25500000920E-02 0. -1.
    10030    2    1    2    0    0  0.00000000000E+00  0.00000000000E+00 -0.98041884794E+03  0.13308911395E+04  0.90002783728E+03 0.  0.
        1    1    3    3  502    0  0.11460861990E+03  0.19416972988E+03  0.85686917494E+02  0.24120378855E+03  0.50400001928E-02 0.  1.
       -1    1    3    3    0  502 -0.11460861990E+03 -0.19416972988E+03 -0.10661057654E+04  0.10896873510E+04  0.50400001928E-02 0. -1.
</event>
<event>
 5   0  0.2129280E-03  0.8991851E+03  0.7818609E-02  0.9426601E-01
       -1   -1    0    0    0  501  0.00000000000E+00  0.00000000000E+00  0.12230618628E+03  0.12230618639E+03  0.50400001928E-02 0.  1.
        1   -1    0    0  501    0  0.00000000000E+00  0.00000000000E+00 -0.16526840477E+04  0.16526840477E+04  0.50400001928E-02 0. -1.
    10030    2    1    2    0    0  0.00000000000E+00  0.00000000000E+00 -0.15303778614E+04  0.17749902341E+04  0.89918514913E+03 0.  0.
        3    1    3    3  502    0  0.40023458123E+03 -0.20449450318E+03 -0.74287741365E+03  0.86825836233E+03  0.10100000352E+00 0.  1.
       -3    1    3    3    0  502 -0.40023458123E+03  0.20449450318E+03 -0.78750044777E+03  0.90673187177E+03  0.10100000352E+00 0. -1.
</event>
<event>
 5   0  0.1436000E-03  0.9006665E+03  0.7818609E-02  0.9424749E-01
        3   -1    0    0  501    0  0.00000000000E+00  0.00000000000E+00  0.95657324385E+03  0.95657324918E+03  0.10100000352E+00 0. -1.
       -3   -1    0    0    0  501  0.00000000000E+00  0.00000000000E+00 -0.21200680409E+03  0.21200682814E+03  0.10100000352E+00 0.  1.
    10030    2    1    2    0    0  0.00000000000E+00  0.00000000000E+00  0.74456643977E+03  0.11685800773E+04  0.90066653868E+03 0.  0.
        3    1    3    3  502    0 -0.44492442991E+03  0.65287529061E+02  0.34104069695E+03  0.56438371430E+03  0.10100000352E+00 0.  1.
       -3    1    3    3    0  502  0.44492442991E+03 -0.65287529061E+02  0.40352574282E+03  0.60419636303E+03  0.10100000352E+00 0. -1.
</event>
<event>
 5   0  0.2074970E-03  0.9060040E+03  0.7818609E-02  0.9418107E-01
       -1   -1    0    0    0  501  0.00000000000E+00  0.00000000000E+00  0.48785046444E+03  0.48785046447E+03  0.50400001928E-02 0. -1.
        1   -1    0    0  501    0  0.00000000000E+00  0.00000000000E+00 -0.42064287359E+03  0.42064287362E+03  0.50400001928E-02 0.  1.
    10030    2    1    2    0    0  0.00000000000E+00  0.00000000000E+00  0.67207590849E+02  0.90849333809E+03  0.90600402046E+03 0.  0.
        2    1    3    3  502    0 -0.44484003189E+03 -0.81053492209E+02  0.59872698519E+01  0.45220368196E+03  0.25500000920E-02 0.  1.
       -2    1    3    3    0  502  0.44484003189E+03  0.81053492209E+02  0.61220320997E+02  0.45628965612E+03  0.25500000920E-02 0. -1.
</event>
<event>
 5   0  0.2295158E-03  0.9001279E+03  0.7818609E-02  0.9425422E-01
        1   -1    0    0  501    0  0.00000000000E+00  0.00000000000E+00  0.11414561089E+04  0.11414561089E+04  0.50400001928E-02 0. -1.
       -1   -1    0    0    0  501  0.00000000000E+00  0.00000000000E+00 -0.17745541730E+03  0.17745541737E+03  0.50400001928E-02 0.  1.
    10030    2    1    2    0    0  0.00000000000E+00  0.00000000000E+00  0.96400069162E+03  0.13189115263E+04  0.90012792467E+03 0.  0.
        4    1    3    3  502    0 -0.42046558279E+03 -0.15343116282E+03  0.41290753628E+03  0.60895539611E+03  0.12699999809E+01 0.  1.
       -4    1    3    3    0  502  0.42046558279E+03  0.15343116282E+03  0.55109315534E+03  0.70995613019E+03  0.12699999809E+01 0. -1.
</event>
<event>
 5   0  0.2295158E-03  0.8989819E+03  0.7818609E-02  0.9426855E-01
       -1   -1    0    0    0  501  0.00000000000E+00  0.00000000000E+00  0.92461598857E+02  0.92461598995E+02  0.50400001928E-02 0. -1.
        1   -1    0    0  501    0  0.00000000000E+00  0.00000000000E+00 -0.21851460852E+04  0.21851460852E+04  0.50400001928E-02 0.  1.
    10030    2    1    2    0    0  0.00000000000E+00  0.00000000000E+00 -0.20926844863E+04  0.22776076842E+04  0.89898187064E+03 0.  0.
        4    1    3    3  502    0  0.31976435006E+03 -0.26497456578E+03 -0.61060460655E+03  0.73844455344E+03  0.12699999809E+01 0. -1.
       -4    1    3    3    0  502 -0.31976435006E+03  0.26497456578E+03 -0.14820798798E+04  0.15391631307E+04  0.12699999809E+01 0.  1.
</event>
<event>
 5   0  0.2134145E-03  0.9018069E+03  0.7818609E-02  0.9423326E-01
        1   -1    0    0  501    0  0.00000000000E+00  0.00000000000E+00  0.13040463532E+03  0.13040463542E+03  0.50400001928E-02 0. -1.
       -1   -1    0    0    0  501  0.00000000000E+00  0.00000000000E+00 -0.15591004224E+04  0.15591004224E+04  0.50400001928E-02 0.  1.
    10030    2    1    2    0    0  0.00000000000E+00  0.00000000000E+00 -0.14286957871E+04  0.16895050579E+04  0.90180690196E+03 0.  0.
        1    1    3    3  502    0 -0.82959568523E+02  0.43183786356E+03 -0.90120391571E+03  0.10027635455E+04  0.50400001928E-02 0.  1.
       -1    1    3    3    0  502  0.82959568523E+02 -0.43183786356E+03 -0.52749187139E+03  0.68674151238E+03  0.50400001928E-02 0. -1.
</event>
<event>
 5   0  0.3815269E-03  0.9138397E+03  0.7818609E-02  0.9408445E-01
       -2   -1    0    0    0  501  0.00000000000E+00  0.00000000000E+00  0.73690032161E+03  0.73690032162E+03  0.25500000920E-02 0.  1.
        2   -1    0    0  501    0  0.00000000000E+00  0.00000000000E+00 -0.28331615917E+03  0.28331615919E+03  0.25500000920E-02 0. -1.
    10030    2    1    2    0    0  0.00000000000E+00  0.00000000000E+00  0.45358416244E+03  0.10202164808E+04  0.91383974267E+03 0.  0.
        5    1    3    3  502    0  0.29569719339E+03 -0.96714237019E+02 -0.14676756410E+03  0.34402511782E+03  0.46999998093E+01 0. -1.
       -5    1    3    3    0  502 -0.29569719339E+03  0.96714237019E+02  0.60035172654E+03  0.67619136299E+03  0.46999998093E+01 0.  1.
</event>
<event>
 5   0  0.3806019E-03  0.8912032E+03  0.7818609E-02  0.9436645E-01
       -2   -1    0    0    0  501  0.00000000000E+00  0.00000000000E+00  0.12168441952E+03  0.12168441955E+03  0.25500000920E-02 0.  1.
        2   -1    0    0  501    0  0.00000000000E+00  0.00000000000E+00 -0.16317683608E+04  0.16317683608E+04  0.25500000920E-02 0. -1.
    10030    2    1    2    0    0  0.00000000000E+00  0.00000000000E+00 -0.15100839413E+04  0.17534527803E+04  0.89120319974E+03 0.  0.
        2    1    3    3  502    0 -0.43299243609E+03 -0.31519815129E+02 -0.55745796444E+03  0.70656587137E+03  0.25500000920E-02 0. -1.
       -2    1    3    3    0  502  0.43299243609E+03  0.31519815129E+02 -0.95262597683E+03  0.10468869090E+04  0.25500000920E-02 0.  1.
</event>
<event>
 5   0  0.2074970E-03  0.9102065E+03  0.7818609E-02  0.9412912E-01
       -1   -1    0    0    0  501  0.00000000000E+00  0.00000000000E+00  0.32377525411E+03  0.32377525415E+03  0.50400001928E-02 0.  1.
        1   -1    0    0  501    0  0.00000000000E+00  0.00000000000E+00 -0.63969987477E+03  0.63969987479E+03  0.50400001928E-02 0. -1.
    10030    2    1    2    0    0  0.00000000000E+00  0.00000000000E+00 -0.31592462066E+03  0.96347512894E+03  0.91020654698E+03 0.  0.
        2    1    3    3  502    0  0.12781591149E+03 -0.11198872997E+02 -0.62015870365E+03  0.63329230194E+03  0.25500000920E-02 0. -1.
       -2    1    3    3    0  502 -0.12781591149E+03  0.11198872997E+02  0.30423408299E+03  0.33018282700E+03  0.25500000920E-02 0.  1.
</event>
<event>
 5   0  0.2134145E-03  0.8997556E+03  0.7818609E-02  0.9425887E-01
       -1   -1    0    0    0  501  0.00000000000E+00  0.00000000000E+00  0.23804969477E+03  0.23804969482E+03  0.50400001928E-02 0. -1.
        1   -1    0    0  501    0  0.00000000000E+00  0.00000000000E+00 -0.85020083600E+03  0.85020083602E+03  0.50400001928E-02 0.  1.
    10030    2    1    2    0    0  0.00000000000E+00  0.00000000000E+00 -0.61215114123E+03  0.10882505308E+04  0.89975563247E+03 0.  0.
        1    1    3    3  502    0  0.11606697045E+03 -0.42422891759E+03 -0.19166256589E+03  0.47976687603E+03  0.50400001928E-02 0.  1.
       -1    1    3    3    0  502 -0.11606697045E+03  0.42422891759E+03 -0.42048857535E+03  0.60848365481E+03  0.50400001928E-02 0. -1.
</event>
<event>
 5   0  0.2129280E-03  0.8993779E+03  0.7818609E-02  0.9426359E-01
        1   -1    0    0  501    0  0.00000000000E+00  0.00000000000E+00  0.10550760089E+04  0.10550760090E+04  0.50400001928E-02 0. -1.
       -1   -1    0    0    0  501  0.00000000000E+00  0.00000000000E+00 -0.19166405840E+03  0.19166405847E+03  0.50400001928E-02 0.  1.
    10030    2    1    2    0    0  0.00000000000E+00  0.00000000000E+00  0.86341195054E+03  0.12467400674E+04  0.89937789576E+03 0.  0.
        3    1    3    3  502    0 -0.29599517329E+03  0.17063924672E+03  0.83701796119E+03  0.90406303579E+03  0.10100000352E+00 0. -1.
       -3    1    3    3    0  502  0.29599517329E+03 -0.17063924672E+03  0.26393989347E+02  0.34267703163E+03  0.10100000352E+00 0.  1.
</event>
<event>
 5   0  0.2134145E-03  0.9009105E+03  0.7818609E-02  0.9424444E-01
        1   -1    0    0  501    0  0.00000000000E+00  0.00000000000E+00  0.92325699736E+03  0.92325699738E+03  0.50400001928E-02 0. -1.
       -1   -1    0    0    0  501  0.00000000000E+00  0.00000000000E+00 -0.21977621051E+03  0.21977621057E+03  0.50400001928E-02 0.  1.
    10030    2    1    2    0    0  0.00000000000E+00  0.00000000000E+00  0.70348078685E+03  0.11430332079E+04  0.90091048223E+03 0.  0.
        1    1    3    3  502    0 -0.20557342505E+03  0.10823083748E+03 -0.13789909324E+03  0.27016755395E+03  0.50400001928E-02 0.  1.
       -1    1    3    3    0  502  0.20557342505E+03 -0.10823083748E+03  0.84137988009E+03  0.87286565399E+03  0.50400001928E-02 0. -1.
</event>
<event>
 5   0  0.2295158E-03  0.8990128E+03  0.7818609E-02  0.9426816E-01
       -1   -1    0    0    0  501  0.00000000000E+00  0.00000000000E+00  0.22420770026E+03  0.22420770032E+03  0.50400001928E-02 0. -1.
        1   -1    0    0  501    0  0.00000000000E+00  0.00000000000E+00 -0.90120018826E+03  0.90120018827E+03  0.50400001928E-02 0.  1.
    10030    2    1    2    0    0  0.00000000000E+00  0.00000000000E+00 -0.67699248799E+03  0.11254078886E+04  0.89901284023E+03 0.  0.
        4    1    3    3  502    0 -0.95335565744E+02 -0.37552846404E+03 -0.62380255937E+03  0.73433081331E+03  0.12699999809E+01 0.  1.
       -4    1    3    3    0  502  0.95335565744E+02  0.37552846404E+03 -0.53189928623E+02  0.39107707528E+03  0.12699999809E+01 0. -1.
</event>
<event>
 5   0  0.2295158E-03  0.8950466E+03  0.7818609E-02  0.9431795E-01
        1   -1    0    0  501    0  0.00000000000E+00  0.00000000000E+00  0.12176452789E+04  0.12176452789E+04  0.50400001928E-02 0. -1.
       -1   -1    0    0    0  501  0.00000000000E+00  0.00000000000E+00 -0.16447901375E+03  0.16447901383E+03  0.50400001928E-02 0.  1.
    10030    2    1    2    0    0  0.00000000000E+00  0.00000000000E+00  0.10531662652E+04  0.13821242928E+04  0.89504657900E+03 0.  0.
        4    1    3    3  502    0 -0.30213781318E+03 -0.28934690067E+03  0.77203979243E+03  0.87809791087E+03  0.12699999809E+01 0. -1.
       -4    1    3    3    0  502  0.30213781318E+03  0.28934690067E+03  0.28112647275E+03  0.50402638191E+03  0.12699999809E+01 0.  1.
</event>
<event>
 5   0  0.2129280E-03  0.9004342E+03  0.7818609E-02  0.9425039E-01
        1   -1    0    0  501    0  0.00000000000E+00  0.00000000000E+00  0.15078224606E+04  0.15078224606E+04  0.50400001928E-02 0. -1.
       -1   -1    0    0    0  501  0.00000000000E+00  0.00000000000E+00 -0.13442923287E+03  0.13442923296E+03  0.50400001928E-02 0.  1.
    10030    2    1    2    0    0  0.00000000000E+00  0.00000000000E+00  0.13733932277E+04  0.16422516935E+04  0.90043415475E+03 0.  0.
        3    1    3    3  502    0 -0.33778075776E+03  0.10128492976E+02  0.12292618744E+04  0.12748659509E+04  0.10100000352E+00 0. -1.
       -3    1    3    3    0  502  0.33778075776E+03 -0.10128492976E+02  0.14413135328E+03  0.36738574263E+03  0.10100000352E+00 0.  1.
</event>
<event>
 5   0  0.3806019E-03  0.9005220E+03  0.7818609E-02  0.9424929E-01
       -2   -1    0    0    0  501  0.00000000000E+00  0.00000000000E+00  0.16978587707E+03  0.16978587709E+03  0.25500000920E-02 0.  1.
        2   -1    0    0  501    0  0.00000000000E+00  0.00000000000E+00 -0.11940626075E+04  0.11940626075E+04  0.25500000920E-02 0. -1.
    10030    2    1    2    0    0  0.00000000000E+00  0.00000000000E+00 -0.10242767304E+04  0.13638484846E+04  0.90052199774E+03 0.  0.
        2    1    3    3  502    0  0.21653445121E+02 -0.35780997655E+03 -0.92479161585E+03  0.99183485710E+03  0.25500000920E-02 0. -1.
       -2    1    3    3    0  502 -0.21653445121E+02  0.35780997655E+03 -0.99485114553E+02  0.37201362747E+03  0.25500000920E-02 0.  1.
</event>
<event>
 5   0  0.2130975E-03  0.8960853E+03  0.7818609E-02  0.9430488E-01
        1   -1    0    0  501    0  0.00000000000E+00  0.00000000000E+00  0.51006327056E+03  0.51006327058E+03  0.50400001928E-02 0.  1.
       -1   -1    0    0    0  501  0.00000000000E+00  0.00000000000E+00 -0.39356338160E+03  0.39356338164E+03  0.50400001928E-02 0. -1.
    10030    2    1    2    0    0  0.00000000000E+00  0.00000000000E+00  0.11649988895E+03  0.90362665222E+03  0.89608532098E+03 0.  0.
        5    1    3    3  502    0  0.41553875000E+00  0.48509518002E+02  0.50738210176E+03  0.50971760142E+03  0.46999998093E+01 0.  1.
       -5    1    3    3    0  502 -0.41553875000E+00 -0.48509518002E+02 -0.39088221281E+03  0.39390905080E+03  0.46999998093E+01 0. -1.
</event>
<event>
 5   0  0.3685879E-03  0.8983191E+03  0.7818609E-02  0.9427685E-01
        2   -1    0    0  501    0  0.00000000000E+00  0.00000000000E+00  0.19160819384E+03  0.19160819385E+03  0.25500000920E-02 0.  1.
       -2   -1    0    0    0  501  0.00000000000E+00  0.00000000000E+00 -0.10529002814E+04  0.10529002814E+04  0.25500000920E-02 0. -1.
    10030    2    1    2    0    0  0.00000000000E+00  0.00000000000E+00 -0.86129208758E+03  0.12445084753E+04  0.89831914423E+03 0.  0.
        1    1    3    3  502    0 -0.15698487568E+02  0.28809677980E+03  0.46249145164E+02  0.29220742718E+03  0.50400001928E-02 0.  1.
       -1    1    3    3    0  502  0.15698487568E+02 -0.28809677980E+03 -0.90754123274E+03  0.95230104809E+03  0.50400001928E-02 0. -1.
</event>
<event>
 5   0  0.2129280E-03  0.8982618E+03  0.7818609E-02  0.9427757E-01
       -1   -1    0    0    0  501  0.00000000000E+00  0.00000000000E+00  0.52929980971E+03  0.52929980974E+03  0.50400001928E-02 0.  1.
        1   -1    0    0  501    0  0.00000000000E+00  0.00000000000E+00 -0.38110454862E+03  0.38110454865E+03  0.50400001928E-02 0. -1.
    10030    2    1    2    0    0  0.00000000000E+00  0.00000000000E+00  0.14819526109E+03  0.91040435839E+03  0.89826179946E+03 0.  0.
        3    1    3    3  502    0  0.97355666516E+02 -0.15983540306E+03 -0.33970207175E+03  0.38784402745E+03  0.10100000352E+00 0. -1.
       -3    1    3    3    0  502 -0.97355666516E+02  0.15983540306E+03  0.48789733285E+03  0.52256033094E+03  0.10100000352E+00 0.  1.
</event>
<event>
 5   0  0.3685879E-03  0.9033290E+03  0.7818609E-02  0.9421430E-01
       -2   -1    0    0    0  501  0.00000000000E+00  0.00000000000E+00  0.10987441986E+03  0.10987441989E+03  0.25500000920E-02 0. -1.
        2   -1    0    0  501    0  0.00000000000E+00  0.00000000000E+00 -0.18566724583E+04  0.18566724583E+04  0.25500000920E-02 0.  1.
    10030    2    1    2    0    0  0.00000000000E+00  0.00000000000E+00 -0.17467980385E+04  0.19665468782E+04  0.90332897497E+03 0.  0.
        1    1    3    3  502    0  0.44464906902E+03 -0.45430130657E+02 -0.73190881376E+03  0.85759384503E+03  0.50400001928E-02 0. -1.
       -1    1    3    3    0  502 -0.44464906902E+03  0.45430130657E+02 -0.10148892247E+04  0.11089530332E+04  0.50400001928E-02 0.  1.
</event>
<event>
 5   0  0.2134145E-03  0.8995688E+03  0.7818609E-02  0.9426121E-01
       -1   -1    0    0    0  501  0.00000000000E+00  0.00000000000E+00  0.32884003725E+03  0.32884003729E+03  0.50400001928E-02 0.  1.
        1   -1    0    0  501    0  0.00000000000E+00  0.00000000000E+00 -0.61521100752E+03  0.61521100755E+03  0.50400001928E-02 0. -1.
    10030    2    1    2    0    0  0.00000000000E+00  0.00000000000E+00 -0.28637097027E+03  0.94405104484E+03  0.89956880929E+03 0.  0.
        1    1    3    3  502    0 -0.12500571564E+03 -0.29611748620E+03 -0.47337673499E+03  0.57218661976E+03  0.50400001928E-02 0. -1.
       -1    1    3    3    0  502  0.12500571564E+03  0.29611748620E+03  0.18700576472E+03  0.37186442508E+03  0.50400001928E-02 0.  1.
</event>
<event>
 5   0  0.3815269E-03  0.8968393E+03  0.7818609E-02  0.9429541E-01
        2   -1    0    0  501    0  0.00000000000E+00  0.00000000000E+00  0.12756410974E+04  0.12756410974E+04  0.25500000920E-02 0. -1.
       -2   -1    0    0    0  501  0.00000000000E+00  0.00000000000E+00 -0.15763070141E+03  0.15763070143E+03  0.25500000920E-02 0.  1.
    10030    2    1    2    0    0  0.00000000000E+00  0.00000000000E+00  0.11180103960E+04  0.14332717989E+04  0.89683934115E+03 0.  0.
        5    1    3    3  502    0  0.17595303677E+03 -0.31791046127E+03  0.13911299849E+03  0.38910287699E+03  0.46999998093E+01 0.  1.
       -5    1    3    3    0  502 -0.17595303677E+03  0.31791046127E+03  0.97889739754E+03  0.10441689219E+04  0.46999998093E+01 0. -1.
</event>
<event>
 5   0  0.2074970E-03  0.9136604E+03  0.7818609E-02  0.9408665E-01
       -1   -1    0    0    0  501  0.00000000000E+00  0.00000000000E+00  0.69117486059E+03  0.69117486061E+03  0.50400001928E-02 0.  1.
        1   -1    0    0  501    0  0.00000000000E+00  0.00000000000E+00 -0.30194068631E+03  0.30194068635E+03  0.50400001928E-02 0. -1.
    10030    2    1    2    0    0  0.00000000000E+00  0.00000000000E+00  0.38923417428E+03  0.99311554697E+03  0.91366035658E+03 0.  0.
        2    1    3    3  502    0  0.13580601725E+03  0.37441984506E+03 -0.48581919890E+02  0.40124019943E+03  0.25500000920E-02 0. -1.
       -2    1    3    3    0  502 -0.13580601725E+03 -0.37441984506E+03  0.43781609418E+03  0.59187534753E+03  0.25500000920E-02 0.  1.
</event>
<event>
 5   0  0.3626546E-03  0.8986278E+03  0.7818609E-02  0.9427298E-01
       -2   -1    0    0    0  501  0.00000000000E+00  0.00000000000E+00  0.28265756586E+03  0.28265756588E+03  0.25500000920E-02 0. -1.
        2   -1    0    0  501    0  0.00000000000E+00  0.00000000000E+00 -0.71423164706E+03  0.71423164706E+03  0.25500000920E-02 0.  1.
    10030    2    1    2    0    0  0.00000000000E+00  0.00000000000E+00 -0.43157408120E+03  0.99688921294E+03  0.89862779576E+03 0.  0.
        3    1    3    3  502    0 -0.28179236225E+03 -0.18954026206E+03 -0.54215077606E+03  0.63973425776E+03  0.10100000352E+00 0.  1.
       -3    1    3    3    0  502  0.28179236225E+03  0.18954026206E+03  0.11057669486E+03  0.35715495518E+03  0.10100000352E+00 0. -1.
</event>
<event>
 5   0  0.3806019E-03  0.9002397E+03  0.7818609E-02  0.9425282E-01
        2   -1    0    0  501    0  0.00000000000E+00  0.00000000000E+00  0.14934058930E+04  0.14934058930E+04  0.25500000920E-02 0.  1.
       -2   -1    0    0    0  501  0.00000000000E+00  0.00000000000E+00 -0.13566834114E+03  0.13566834116E+03  0.25500000920E-02 0. -1.
    10030    2    1    2    0    0  0.00000000000E+00  0.00000000000E+00  0.13577375519E+04  0.16290742342E+04  0.90023974623E+03 0.  0.
        2    1    3    3  502    0  0.22290263214E+03 -0.18714343255E+03  0.13002225688E+04  0.13323989554E+04  0.25500000920E-02 0.  1.
       -2    1    3    3    0  502 -0.22290263214E+03  0.18714343255E+03  0.57514983008E+02  0.29667527878E+03  0.25500000920E-02 0. -1.
</event>
<event>
 5   0  0.1436000E-03  0.9022828E+03  0.7818609E-02  0.9422732E-01
       -4   -1    0    0    0  501  0.00000000000E+00  0.00000000000E+00  0.16477645599E+03  0.16478135012E+03  0.12699999809E+01 0.  1.
        4   -1    0    0  501    0  0.00000000000E+00  0.00000000000E+00 -0.12351563565E+04  0.12351570094E+04  0.12699999809E+01 0. -1.
    10030    2    1    2    0    0  0.00000000000E+00  0.00000000000E+00 -0.10703799005E+04  0.13999383595E+04  0.90228281545E+03 0.  0.
        5    1    3    3  502    0 -0.10082493967E+03 -0.43535305060E+03 -0.63094133616E+03  0.77317980237E+03  0.46999998093E+01 0.  1.
       -5    1    3    3    0  502  0.10082493967E+03  0.43535305060E+03 -0.43943856431E+03  0.62675855712E+03  0.46999998093E+01 0. -1.
</event>
<event>
 5   0  0.3815269E-03  0.9009057E+03  0.7818609E-02  0.9424450E-01
        2   -1    0    0  501    0  0.00000000000E+00  0.00000000000E+00  0.16344566426E+04  0.16344566426E+04  0.25500000920E-02 0. -1.
       -2   -1    0    0    0  501  0.00000000000E+00  0.00000000000E+00 -0.12414388046E+03  0.12414388049E+03  0.25500000920E-02 0.  1.
    10030    2    1    2    0    0  0.00000000000E+00  0.00000000000E+00  0.15103127622E+04  0.17586005231E+04  0.90090574442E+03 0.  0.
        5    1    3    3  502    0 -0.43746645631E+03  0.27178825961E+02  0.55257574349E+03  0.70532094204E+03  0.46999998093E+01 0.  1.
       -5    1    3    3    0  502  0.43746645631E+03 -0.27178825961E+02  0.95773701867E+03  0.10532795811E+04  0.46999998093E+01 0. -1.
</event>
<event>
 5   0  0.3815269E-03  0.8975114E+03  0.7818609E-02  0.9428698E-01
       -2   -1    0    0    0  501  0.00000000000E+00  0.00000000000E+00  0.11651243720E+03  0.11651243723E+03  0.25500000920E-02 0. -1.
        2   -1    0    0  501    0  0.00000000000E+00  0.00000000000E+00 -0.17284134770E+04  0.17284134771E+04  0.25500000920E-02 0.  1.
    10030    2    1    2    0    0  0.00000000000E+00  0.00000000000E+00 -0.16119010399E+04  0.18449259143E+04  0.89751137425E+03 0.  0.
        5    1    3    3  502    0 -0.14470629149E+03 -0.42455645240E+03 -0.77903197361E+03  0.89894437980E+03  0.46999998093E+01 0.  1.
       -5    1    3    3    0  502  0.14470629149E+03  0.42455645240E+03 -0.83286906624E+03  0.94598153447E+03  0.46999998093E+01 0. -1.
</event>
<event>
 5   0  0.3626546E-03  0.8998862E+03  0.7818609E-02  0.9425724E-01
       -2   -1    0    0    0  501  0.00000000000E+00  0.00000000000E+00  0.11413891862E+03  0.11413891865E+03  0.25500000920E-02 0. -1.
        2   -1    0    0  501    0  0.00000000000E+00  0.00000000000E+00 -0.17737053546E+04  0.17737053546E+04  0.25500000920E-02 0.  1.
    10030    2    1    2    0    0  0.00000000000E+00  0.00000000000E+00 -0.16595664359E+04  0.18878442732E+04  0.89988623980E+03 0.  0.
        3    1    3    3  502    0 -0.44082405153E+03 -0.84452977170E+00 -0.10188505750E+04  0.11101274981E+04  0.10100000352E+00 0.  1.
       -3    1    3    3    0  502  0.44082405153E+03  0.84452977170E+00 -0.64071586093E+03  0.77771677511E+03  0.10100000352E+00 0. -1.
</event>
<event>
 5   0  0.3685879E-03  0.9001967E+03  0.7818609E-02  0.9425336E-01
        2   -1    0    0  501    0  0.00000000000E+00  0.00000000000E+00  0.86701948042E+03  0.86701948043E+03  0.25500000920E-02 0.  1.
       -2   -1    0    0    0  501  0.00000000000E+00  0.00000000000E+00 -0.23366084462E+03  0.23366084464E+03  0.25500000920E-02 0. -1.
    10030    2    1    2    0    0  0.00000000000E+00  0.00000000000E+00  0.63335863580E+03  0.11006803251E+04  0.90019665431E+03 0.  0.
        1    1    3    3  502    0 -0.26208848488E+03  0.25523604687E+03 -0.39244766156E+01  0.36585682318E+03  0.50400001928E-02 0.  1.
       -1    1    3    3    0  502  0.26208848488E+03 -0.25523604687E+03  0.63728311242E+03  0.73482350188E+03  0.50400001928E-02 0. -1.
</event>
<event>
 5   0  0.2130975E-03  0.9002634E+03  0.7818609E-02  0.9425252E-01
        1   -1    0    0  501    0  0.00000000000E+00  0.00000000000E+00  0.45061793171E+03  0.45061793174E+03  0.50400001928E-02 0. -1.
       -1   -1    0    0    0  501  0.00000000000E+00  0.00000000000E+00 -0.44964599957E+03  0.44964599960E+03  0.50400001928E-02 0.  1.
    10030    2    1    2    0    0  0.00000000000E+00  0.00000000000E+00  0.97193214431E+00  0.90026393134E+03  0.90026340669E+03 0.  0.
        5    1    3    3  502    0  0.31056547449E+02 -0.13968974017E+03 -0.42626799112E+03  0.44967123868E+03  0.46999998093E+01 0.  1.
       -5    1    3    3    0  502 -0.31056547449E+02  0.13968974017E+03  0.42723992326E+03  0.45059269266E+03  0.46999998093E+01 0. -1.
</event>
<event>
 5   0  0.2134145E-03  0.9064415E+03  0.7818609E-02  0.9417565E-01
        1   -1    0    0  501    0  0.00000000000E+00  0.00000000000E+00  0.42117686002E+03  0.42117686005E+03  0.50400001928E-02 0.  1.
       -1   -1    0    0    0  501  0.00000000000E+00  0.00000000000E+00 -0.48770254700E+03  0.48770254703E+03  0.50400001928E-02 0. -1.
    10030    2    1    2    0    0  0.00000000000E+00  0.00000000000E+00 -0.66525686984E+02  0.90887940708E+03  0.90644145403E+03 0.  0.
        1    1    3    3  502    0  0.17468991146E+03  0.78941593045E+01  0.38598869303E+03  0.42375246795E+03  0.50400001928E-02 0.  1.
       -1    1    3    3    0  502 -0.17468991146E+03 -0.78941593045E+01 -0.45251438002E+03  0.48512693913E+03  0.50400001928E-02 0. -1.
</event>
<event>
 5   0  0.1436000E-03  0.8982647E+03  0.7818609E-02  0.9427753E-01
       -3   -1    0    0    0  501  0.00000000000E+00  0.00000000000E+00  0.23235872143E+03  0.23235874338E+03  0.10100000352E+00 0. -1.
        3   -1    0    0  501    0  0.00000000000E+00  0.00000000000E+00 -0.86813970527E+03  0.86813971115E+03  0.10100000352E+00 0.  1.
    10030    2    1    2    0    0  0.00000000000E+00  0.00000000000E+00 -0.63578098384E+03  0.11004984545E+04  0.89826465421E+03 0.  0.
        1    1    3    3  502    0 -0.13635904830E+03 -0.30712961378E+03  0.47187280159E+02  0.33933615950E+03  0.50400001928E-02 0. -1.
       -1    1    3    3    0  502  0.13635904830E+03  0.30712961378E+03 -0.68296826400E+03  0.76116229503E+03  0.50400001928E-02 0.  1.
</event>
<event>
 5   0  0.3806019E-03  0.8975470E+03  0.7818609E-02  0.9428653E-01
        2   -1    0    0  501    0  0.00000000000E+00  0.00000000000E+00  0.55626592662E+03  0.55626592663E+03  0.25500000920E-02 0. -1.
       -2   -1    0    0    0  501  0.00000000000E+00  0.00000000000E+00 -0.36205282776E+03  0.36205282777E+03  0.25500000920E-02 0.  1.
    10030    2    1    2    0    0  0.00000000000E+00  0.00000000000E+00  0.19421309887E+03  0.91831875440E+03  0.89754699426E+03 0.  0.
        2    1    3    3  502    0  0.30846385484E+02  0.18310178363E+03 -0.32090694365E+03  0.37075467516E+03  0.25500000920E-02 0.  1.
       -2    1    3    3    0  502 -0.30846385484E+02 -0.18310178363E+03  0.51512004251E+03  0.54756407924E+03  0.25500000920E-02 0. -1.
</event>
<event>
 5   0  0.2074970E-03  0.9028537E+03  0.7818609E-02  0.9422021E-01
        1   -1    0    0  501    0  0.00000000000E+00  0.00000000000E+00  0.23497637481E+03  0.23497637486E+03  0.50400001928E-02 0.  1.
       -1   -1    0    0    0  501  0.00000000000E+00  0.00000000000E+00 -0.86726252073E+03  0.86726252075E+03  0.50400001928E-02 0. -1.
    10030    2    1    2    0    0  0.00000000000E+00  0.00000000000E+00 -0.63228614593E+03  0.11022388956E+04  0.90285370501E+03 0.  0.
        2    1    3    3  502    0  0.11198358529E+03 -0.20056347367E+03 -0.79057709943E+03  0.82327284693E+03  0.25500000920E-02 0. -1.
       -2    1    3    3    0  502 -0.11198358529E+03  0.20056347367E+03  0.15829095350E+03  0.27896604867E+03  0.25500000920E-02 0.  1.
</event>
<event>
 5   0  0.3626546E-03  0.9012202E+03  0.7818609E-02  0.9424057E-01
       -2   -1    0    0    0  501  0.00000000000E+00  0.00000000000E+00  0.11799996854E+04  0.11799996854E+04  0.25500000920E-02 0.  1.
        2   -1    0    0  501    0  0.00000000000E+00  0.00000000000E+00 -0.17207586983E+03  0.17207586985E+03  0.25500000920E-02 0. -1.
    10030    2    1    2    0    0  0.00000000000E+00  0.00000000000E+00  0.10079238156E+04  0.13520755553E+04  0.90122022234E+03 0.  0.
        3    1    3    3  502    0  0.29664962502E+03  0.33881701916E+03  0.52775385772E+03  0.69377382268E+03  0.10100000352E+00 0.  1.
       -3    1    3    3    0  502 -0.29664962502E+03 -0.33881701916E+03  0.48016995788E+03  0.65830173260E+03  0.10100000352E+00 0. -1.
</event>
<event>
 5   0  0.3815269E-03  0.8978636E+03  0.7818609E-02  0.9428256E-01
        2   -1    0    0  501    0  0.00000000000E+00  0.00000000000E+00  0.63083938979E+03  0.63083938979E+03  0.25500000920E-02 0.  1.
       -2   -1    0    0    0  501  0.00000000000E+00  0.00000000000E+00 -0.31947871007E+03  0.31947871008E+03  0.25500000920E-02 0. -1.
    10030    2    1    2    0    0  0.00000000000E+00  0.00000000000E+00  0.31136067971E+03  0.95031809988E+03  0.89786358545E+03 0.  0.
        5    1    3    3  502    0  0.35235635673E+03  0.20517829858E+03  0.35443974189E+03  0.54028025780E+03  0.46999998093E+01 0.  1.
       -5    1    3    3    0  502 -0.35235635673E+03 -0.20517829858E+03 -0.43079062176E+02  0.41003784208E+03  0.46999998093E+01 0. -1.
</event>
<event>
 5   0  0.1436000E-03  0.8991774E+03  0.7818609E-02  0.9426610E-01
       -3   -1    0    0    0  501  0.00000000000E+00  0.00000000000E+00  0.11510499431E+04  0.11510499475E+04  0.10100000352E+00 0.  1.
        3   -1    0    0  501    0  0.00000000000E+00  0.00000000000E+00 -0.17560489016E+03  0.17560491920E+03  0.10100000352E+00 0. -1.
    10030    2    1    2    0    0  0.00000000000E+00  0.00000000000E+00  0.97544505295E+03  0.13266548667E+04  0.89917744862E+03 0.  0.
        1    1    3    3  502    0 -0.17594263143E+03 -0.19520712654E+03 -0.50485286728E+02  0.26760118835E+03  0.50400001928E-02 0.  1.
       -1    1    3    3    0  502  0.17594263143E+03  0.19520712654E+03  0.10259303397E+04  0.10590536784E+04  0.50400001928E-02 0. -1.
</event>
<event>
 5   0  0.2129280E-03  0.8989977E+03  0.7818609E-02  0.9426835E-01
       -1   -1    0    0    0  501  0.00000000000E+00  0.00000000000E+00  0.71123450780E+03  0.71123450781E+03  0.50400001928E-02 0. -1.
        1   -1    0    0  501    0  0.00000000000E+00  0.00000000000E+00 -0.28408241747E+03  0.28408241751E+03  0.50400001928E-02 0.  1.
    10030    2    1    2    0    0  0.00000000000E+00  0.00000000000E+00  0.42715209033E+03  0.99531692533E+03  0.89899770498E+03 0.  0.
        3    1    3    3  502    0  0.21997577064E+01 -0.26539072102E+03  0.61522882077E+03  0.67003252596E+03  0.10100000352E+00 0. -1.
       -3    1    3    3    0  502 -0.21997577064E+01  0.26539072102E+03 -0.18807673044E+03  0.32528439936E+03  0.10100000352E+00 0.  1.
</event>
<event>
 5   0  0.2130975E-03  0.9030593E+03  0.7818609E-02  0.9421765E-01
        1   -1    0    0  501    0  0.00000000000E+00  0.00000000000E+00  0.38471231946E+03  0.38471231949E+03  0.50400001928E-02 0.  1.
       -1   -1    0    0    0  501  0.00000000000E+00  0.00000000000E+00 -0.52995194124E+03  0.52995194126E+03  0.50400001928E-02 0. -1.
    10030    2    1    2    0    0  0.00000000000E+00  0.00000000000E+00 -0.14523962178E+03  0.91466426075E+03  0.90305933479E+03 0.  0.
        5    1    3    3  502    0 -0.13714645219E+03 -0.83967207129E+02 -0.49993875090E+03  0.52518614402E+03  0.46999998093E+01 0. -1.
       -5    1    3    3    0  502  0.13714645219E+03  0.83967207129E+02  0.35469912911E+03  0.38947811673E+03  0.46999998093E+01 0.  1.
</event>
<event>
 5   0  0.3685879E-03  0.9012044E+03  0.7818609E-02  0.9424077E-01
       -2   -1    0    0    0  501  0.00000000000E+00  0.00000000000E+00  0.16549794993E+03  0.16549794995E+03  0.25500000920E-02 0. -1.
        2   -1    0    0  501    0  0.00000000000E+00  0.00000000000E+00 -0.12268570149E+04  0.12268570149E+04  0.25500000920E-02 0.  1.
    10030    2    1    2    0    0  0.00000000000E+00  0.00000000000E+00 -0.10613590650E+04  0.13923549649E+04  0.90120435162E+03 0.  0.
        1    1    3    3  502    0  0.13235542521E+03 -0.75456031062E+01 -0.11960453875E+04  0.12033700443E+04  0.50400001928E-02 0.  1.
       -1    1    3    3    0  502 -0.13235542521E+03  0.75456031062E+01  0.13468632247E+03  0.18898492054E+03  0.50400001928E-02 0. -1.
</event>
<event>
 5   0  0.3663255E-03  0.8981733E+03  0.7818609E-02  0.9427868E-01
        2   -1    0    0  501    0  0.00000000000E+00  0.00000000000E+00  0.15976924298E+04  0.15976924298E+04  0.25500000920E-02 0.  1.
       -2   -1    0    0    0  501  0.00000000000E+00  0.00000000000E+00 -0.12623131633E+03  0.12623131635E+03  0.25500000920E-02 0. -1.
    10030    2    1    2    0    0  0.00000000000E+00  0.00000000000E+00  0.14714611134E+04  0.17239237461E+04  0.89817329847E+03 0.  0.
        4    1    3    3  502    0  0.16767494445E+03 -0.63975394894E+01 -0.63798811977E+02  0.17952079773E+03  0.12699999809E+01 0. -1.
       -4    1    3    3    0  502 -0.16767494445E+03  0.63975394894E+01  0.15352599254E+04  0.15444029484E+04  0.12699999809E+01 0.  1.
</event>
<event>
 5   0  0.1436000E-03  0.8962771E+03  0.7818609E-02  0.9430247E-01
       -4   -1    0    0    0  501  0.00000000000E+00  0.00000000000E+00  0.30651149307E+03  0.30651412412E+03  0.12699999809E+01 0.  1.
        4   -1    0    0  501    0  0.00000000000E+00  0.00000000000E+00 -0.65519993716E+03  0.65520116801E+03  0.12699999809E+01 0. -1.
    10030    2    1    2    0    0  0.00000000000E+00  0.00000000000E+00 -0.34868844409E+03  0.96171529213E+03  0.89627711790E+03 0.  0.
        3    1    3    3  502    0  0.19696211324E+03 -0.56032297937E+02  0.25337483217E+03  0.32577984628E+03  0.10100000352E+00 0.  1.
       -3    1    3    3    0  502 -0.19696211324E+03  0.56032297937E+02 -0.60206327626E+03  0.63593544585E+03  0.10100000352E+00 0. -1.
</event>
<event>
 5   0  0.2295158E-03  0.9011528E+03  0.7818609E-02  0.9424141E-01
       -1   -1    0    0    0  501  0.00000000000E+00  0.00000000000E+00  0.34975114389E+03  0.34975114392E+03  0.50400001928E-02 0. -1.
        1   -1    0    0  501    0  0.00000000000E+00  0.00000000000E+00 -0.58046729209E+03  0.58046729212E+03  0.50400001928E-02 0.  1.
    10030    2    1    2    0    0  0.00000000000E+00  0.00000000000E+00 -0.23071614821E+03  0.93021843604E+03  0.90115281595E+03 0.  0.
        4    1    3    3  502    0 -0.22334269198E+03  0.38757236310E+03 -0.59547671424E+02  0.45126691965E+03  0.12699999809E+01 0. -1.
       -4    1    3    3    0  502  0.22334269198E+03 -0.38757236310E+03 -0.17116847678E+03  0.47895151638E+03  0.12699999809E+01 0.  1.
</event>
<event>
 5   0  0.3626546E-03  0.8954863E+03  0.7818609E-02  0.9431241E-01
       -2   -1    0    0    0  501  0.00000000000E+00  0.00000000000E+00  0.27735252128E+03  0.27735252129E+03  0.25500000920E-02 0.  1.
        2   -1    0    0  501    0  0.00000000000E+00  0.00000000000E+00 -0.72281278931E+03  0.72281278932E+03  0.25500000920E-02 0. -1.
    10030    2    1    2    0    0  0.00000000000E+00  0.00000000000E+00 -0.44546026804E+03  0.10001653106E+04  0.89548634727E+03 0.  0.
        3    1    3    3  502    0 -0.23508430105E+02 -0.92495864160E+02 -0.71132060265E+03  0.71769432290E+03  0.10100000352E+00 0. -1.
       -3    1    3    3    0  502  0.23508430105E+02  0.92495864160E+02  0.26586033462E+03  0.28247098771E+03  0.10100000352E+00 0.  1.
</event>
<event>
 5   0  0.2134145E-03  0.8997997E+03  0.7818609E-02  0.9425832E-01
       -1   -1    0    0    0  501  0.00000000000E+00  0.00000000000E+00  0.45720383687E+03  0.45720383690E+03  0.50400001928E-02 0. -1.
        1   -1    0    0  501    0  0.00000000000E+00  0.00000000000E+00 -0.44271254960E+03  0.44271254963E+03  0.50400001928E-02 0.  1.
    10030    2    1    2    0    0  0.00000000000E+00  0.00000000000E+00  0.14491287266E+02  0.89991638653E+03  0.89979970290E+03 0.  0.
        1    1    3    3  502    0  0.40411792497E+03  0.69635039148E+02  0.19233595593E+03  0.45293868893E+03  0.50400001928E-02 0. -1.
       -1    1    3    3    0  502 -0.40411792497E+03 -0.69635039148E+02 -0.17784466867E+03  0.44697769760E+03  0.50400001928E-02 0.  1.
</event>
<event>
 5   0  0.3815269E-03  0.8942136E+03  0.7818609E-02  0.9432844E-01
       -2   -1    0    0    0  501  0.00000000000E+00  0.00000000000E+00  0.48811034326E+03  0.48811034327E+03  0.25500000920E-02 0.  1.
        2   -1    0    0  501    0  0.00000000000E+00  0.00000000000E+00 -0.40954772445E+03  0.40954772446E+03  0.25500000920E-02 0. -1.
    10030    2    1    2    0    0  0.00000000000E+00  0.00000000000E+00  0.78562618814E+02  0.89765806772E+03  0.89421357710E+03 0.  0.
        5    1    3    3  502    0 -0.11995858627E+03  0.20312817523E+03  0.42052213053E+03  0.48219505416E+03  0.46999998093E+01 0.  1.
       -5    1    3    3    0  502  0.11995858627E+03 -0.20312817523E+03 -0.34195951171E+03  0.41546301357E+03  0.46999998093E+01 0. -1.
</event>
<event>
 5   0  0.2074970E-03  0.8996895E+03  0.7818609E-02  0.9425970E-01
       -1   -1    0    0    0  501  0.00000000000E+00  0.00000000000E+00  0.19809791351E+03  0.19809791357E+03  0.50400001928E-02 0.  1.
        1   -1    0    0  501    0  0.00000000000E+00  0.00000000000E+00 -0.10215165460E+04  0.10215165460E+04  0.50400001928E-02 0. -1.
    10030    2    1    2    0    0  0.00000000000E+00  0.00000000000E+00 -0.82341863248E+03  0.12196144596E+04  0.89968949404E+03 0.  0.
        2    1    3    3  502    0  0.24855774709E+02 -0.44802576126E+03 -0.36851273484E+03  0.58064320200E+03  0.25500000920E-02 0.  1.
       -2    1    3    3    0  502 -0.24855774709E+02  0.44802576126E+03 -0.45490589764E+03  0.63897125757E+03  0.25500000920E-02 0. -1.
</event>
<event>
 5   0  0.3685879E-03  0.8984788E+03  0.7818609E-02  0.9427485E-01
        2   -1    0    0  501    0  0.00000000000E+00  0.00000000000E+00  0.88009022055E+03  0.88009022055E+03  0.25500000920E-02 0. -1.
       -2   -1    0    0    0  501  0.00000000000E+00  0.00000000000E+00 -0.22931289890E+03  0.22931289892E+03  0.25500000920E-02 0.  1.
    10030    2    1    2    0    0  0.00000000000E+00  0.00000000000E+00  0.65077732164E+03  0.11094031195E+04  0.89847880282E+03 0.  0.
        1    1    3    3  502    0 -0.24213350029E+03 -0.37227081052E+03  0.40915081615E+03  0.60383654966E+03  0.50400001928E-02 0.  1.
       -1    1    3    3    0  502  0.24213350029E+03  0.37227081052E+03  0.24162650550E+03  0.50556656981E+03  0.50400001928E-02 0. -1.
</event>
<event>
 5   0  0.3806019E-03  0.8988742E+03  0.7818609E-02  0.9426990E-01
       -2   -1    0    0    0  501  0.00000000000E+00  0.00000000000E+00  0.12358686058E+03  0.12358686061E+03  0.25500000920E-02 0. -1.
        2   -1    0    0  501    0  0.00000000000E+00  0.00000000000E+00 -0.16344269197E+04  0.16344269197E+04  0.25500000920E-02 0.  1.
    10030    2    1    2    0    0  0.00000000000E+00  0.00000000000E+00 -0.15108400591E+04  0.17580137803E+04  0.89887416668E+03 0.  0.
        2    1    3    3  502    0 -0.17721159737E+03 -0.26793771324E+03 -0.14066807017E+03  0.35068800150E+03  0.25500000920E-02 0. -1.
       -2    1    3    3    0  502  0.17721159737E+03  0.26793771324E+03 -0.13701719889E+04  0.14073257788E+04  0.25500000920E-02 0.  1.
</event>
<event>
 5   0  0.1436000E-03  0.9028981E+03  0.7818609E-02  0.9421966E-01
        3   -1    0    0  501    0  0.00000000000E+00  0.00000000000E+00  0.15365926185E+04  0.15365926219E+04  0.10100000352E+00 0. -1.
       -3   -1    0    0    0  501  0.00000000000E+00  0.00000000000E+00 -0.13263516614E+03  0.13263520459E+03  0.10100000352E+00 0.  1.
    10030    2    1    2    0    0  0.00000000000E+00  0.00000000000E+00  0.14039574524E+04  0.16692278264E+04  0.90289811631E+03 0.  0.
        2    1    3    3  502    0 -0.96439193457E+01 -0.50615857528E+02 -0.12718113700E+03  0.13722249024E+03  0.25500000920E-02 0.  1.
       -2    1    3    3    0  502  0.96439193457E+01  0.50615857528E+02  0.15311385894E+04  0.15320053362E+04  0.25500000920E-02 0. -1.
</event>
<event>
 5   0  0.2295158E-03  0.9003537E+03  0.7818609E-02  0.9425139E-01
       -1   -1    0    0    0  501  0.00000000000E+00  0.00000000000E+00  0.26428369074E+03  0.26428369079E+03  0.50400001928E-02 0. -1.
        1   -1    0    0  501    0  0.00000000000E+00  0.00000000000E+00 -0.76682444529E+03  0.76682444530E+03  0.50400001928E-02 0.  1.
    10030    2    1    2    0    0  0.00000000000E+00  0.00000000000E+00 -0.50254075455E+03  0.10311081361E+04  0.90035369624E+03 0.  0.
        4    1    3    3  502    0  0.21367617240E+03  0.56543273230E+02  0.19786097330E+03  0.29665674786E+03  0.12699999809E+01 0. -1.
       -4    1    3    3    0  502 -0.21367617240E+03 -0.56543273230E+02 -0.70040172785E+03  0.73445138823E+03  0.12699999809E+01 0.  1.
</event>
<event>
 5   0  0.1436000E-03  0.8966047E+03  0.7818609E-02  0.9429836E-01
       -3   -1    0    0    0  501  0.00000000000E+00  0.00000000000E+00  0.72312642378E+03  0.72312643084E+03  0.10100000352E+00 0.  1.
        3   -1    0    0  501    0  0.00000000000E+00  0.00000000000E+00 -0.27792507098E+03  0.27792508933E+03  0.10100000352E+00 0. -1.
    10030    2    1    2    0    0  0.00000000000E+00  0.00000000000E+00  0.44520135280E+03  0.10010515202E+04  0.89660465172E+03 0.  0.
        4    1    3    3  502    0  0.41487327078E+02 -0.44447334251E+03  0.17662600039E+03  0.48007927202E+03  0.12699999809E+01 0.  1.
       -4    1    3    3    0  502 -0.41487327078E+02  0.44447334251E+03  0.26857535241E+03  0.52097224814E+03  0.12699999809E+01 0. -1.
</event>
<event>
 5   0  0.3663255E-03  0.8999146E+03  0.7818609E-02  0.9425688E-01
       -2   -1    0    0    0  501  0.00000000000E+00  0.00000000000E+00  0.18812279985E+03  0.18812279986E+03  0.25500000920E-02 0.  1.
        2   -1    0    0  501    0  0.00000000000E+00  0.00000000000E+00 -0.10762203066E+04  0.10762203066E+04  0.25500000920E-02 0. -1.
    10030    2    1    2    0    0  0.00000000000E+00  0.00000000000E+00 -0.88809750679E+03  0.12643431065E+04  0.89991461228E+03 0.  0.
        4    1    3    3  502    0  0.43129023614E+03 -0.12809310384E+03 -0.43506872331E+03  0.62586381741E+03  0.12699999809E+01 0. -1.
       -4    1    3    3    0  502 -0.43129023614E+03  0.12809310384E+03 -0.45302878348E+03  0.63847928909E+03  0.12699999809E+01 0.  1.
</event>
<event>
 5   0  0.3815269E-03  0.8977587E+03  0.7818609E-02  0.9428387E-01
        2   -1    0    0  501    0  0.00000000000E+00  0.00000000000E+00  0.87597952348E+03  0.87597952348E+03  0.25500000920E-02 0.  1.
       -2   -1    0    0    0  501  0.00000000000E+00  0.00000000000E+00 -0.23001986170E+03  0.23001986171E+03  0.25500000920E-02 0. -1.
    10030    2    1    2    0    0  0.00000000000E+00  0.00000000000E+00  0.64595966178E+03  0.11059993852E+04  0.89775874009E+03 0.  0.
        5    1    3    3  502    0  0.37182418140E+03 -0.13902808232E+03  0.58106969895E+03  0.70373724825E+03  0.46999998093E+01 0.  1.
       -5    1    3    3    0  502 -0.37182418140E+03  0.13902808232E+03  0.64889962833E+02  0.40226213694E+03  0.46999998093E+01 0. -1.
</event>
<event>
 5   0  0.2134145E-03  0.9001015E+03  0.7818609E-02  0.9425455E-01
       -1   -1    0    0    0  501  0.00000000000E+00  0.00000000000E+00  0.44551696533E+03  0.44551696536E+03  0.50400001928E-02 0. -1.
        1   -1    0    0  501    0  0.00000000000E+00  0.00000000000E+00 -0.45463064635E+03  0.45463064637E+03  0.50400001928E-02 0.  1.
    10030    2    1    2    0    0  0.00000000000E+00  0.00000000000E+00 -0.91136810138E+01  0.90014761174E+03  0.90010147413E+03 0.  0.
        1    1    3    3  502    0 -0.23158179149E+03  0.16800279332E+03 -0.35198017634E+03  0.45359134612E+03  0.50400001928E-02 0.  1.
       -1    1    3    3    0  502  0.23158179149E+03 -0.16800279332E+03  0.34286649533E+03  0.44655626561E+03  0.50400001928E-02 0. -1.
</event>
<event>
 5   0  0.3663255E-03  0.9006649E+03  0.7818609E-02  0.9424751E-01
        2   -1    0    0  501    0  0.00000000000E+00  0.00000000000E+00  0.13969346983E+04  0.13969346983E+04  0.25500000920E-02 0.  1.
       -2   -1    0    0    0  501  0.00000000000E+00  0.00000000000E+00 -0.14517451949E+03  0.14517451951E+03  0.25500000920E-02 0. -1.
    10030    2    1    2    0    0  0.00000000000E+00  0.00000000000E+00  0.12517601788E+04  0.15421092178E+04  0.90066491793E+03 0.  0.
        4    1    3    3  502    0  0.42522143579E+03  0.14003643790E+03  0.54245168297E+03  0.70333414154E+03  0.12699999809E+01 0.  1.
       -4    1    3    3    0  502 -0.42522143579E+03 -0.14003643790E+03  0.70930849586E+03  0.83877507628E+03  0.12699999809E+01 0. -1.
</event>
<event>
 5   0  0.1436000E-03  0.8902950E+03  0.7818609E-02  0.9437795E-01
        3   -1    0    0  501    0  0.00000000000E+00  0.00000000000E+00  0.80399410888E+03  0.80399411522E+03  0.10100000352E+00 0. -1.
       -3   -1    0    0    0  501  0.00000000000E+00  0.00000000000E+00 -0.24646483109E+03  0.24646485179E+03  0.10100000352E+00 0.  1.
    10030    2    1    2    0    0  0.00000000000E+00  0.00000000000E+00  0.55752927779E+03  0.10504589670E+04  0.89029497684E+03 0.  0.
        4    1    3    3  502    0  0.14858261787E+03 -0.36871718440E+03  0.51511457594E+03  0.65067180334E+03  0.12699999809E+01 0. -1.
       -4    1    3    3    0  502 -0.14858261787E+03  0.36871718440E+03  0.42414701845E+02  0.39978716368E+03  0.12699999809E+01 0.  1.
</event>
<event>
 5   0  0.2129280E-03  0.9003193E+03  0.7818609E-02  0.9425182E-01
       -1   -1    0    0    0  501  0.00000000000E+00  0.00000000000E+00  0.14267740291E+03  0.14267740300E+03  0.50400001928E-02 0.  1.
        1   -1    0    0  501    0  0.00000000000E+00  0.00000000000E+00 -0.14202929866E+04  0.14202929866E+04  0.50400001928E-02 0. -1.
    10030    2    1    2    0    0  0.00000000000E+00  0.00000000000E+00 -0.12776155837E+04  0.15629703896E+04  0.90031930954E+03 0.  0.
        3    1    3    3  502    0  0.11773403532E+03 -0.43448972672E+03 -0.64061098178E+03  0.78295917255E+03  0.10100000352E+00 0.  1.
       -3    1    3    3    0  502 -0.11773403532E+03  0.43448972672E+03 -0.63700460195E+03  0.78001121710E+03  0.10100000352E+00 0. -1.
</event>
<event>
 5   0  0.2074970E-03  0.9058664E+03  0.7818609E-02  0.9418278E-01
        1   -1    0    0  501    0  0.00000000000E+00  0.00000000000E+00  0.34048198773E+03  0.34048198777E+03  0.50400001928E-02 0.  1.
       -1   -1    0    0    0  501  0.00000000000E+00  0.00000000000E+00 -0.60252371185E+03  0.60252371187E+03  0.50400001928E-02 0. -1.
    10030    2    1    2    0    0  0.00000000000E+00  0.00000000000E+00 -0.26204172411E+03  0.94300569964E+03  0.90586637225E+03 0.  0.
        2    1    3    3  502    0 -0.38130514835E+03  0.13412762397E+02  0.12306589652E+03  0.40089740988E+03  0.25500000920E-02 0.  1.
       -2    1    3    3    0  502  0.38130514835E+03 -0.13412762397E+02 -0.38510762063E+03  0.54210828976E+03  0.25500000920E-02 0. -1.
</event>
<event>
 5   0  0.2074970E-03  0.8963226E+03  0.7818609E-02  0.9430190E-01
       -1   -1    0    0    0  501  0.00000000000E+00  0.00000000000E+00  0.69020466344E+03  0.69020466345E+03  0.50400001928E-02 0.  1.
        1   -1    0    0  501    0  0.00000000000E+00  0.00000000000E+00 -0.29099854383E+03  0.29099854387E+03  0.50400001928E-02 0. -1.
    10030    2    1    2    0    0  0.00000000000E+00  0.00000000000E+00  0.39920611961E+03  0.98120320732E+03  0.89632260271E+03 0.  0.
        2    1    3    3  502    0 -0.43113847225E+03 -0.73889959269E+02  0.30634849948E+03  0.53403137686E+03  0.25500000920E-02 0. -1.
       -2    1    3    3    0  502  0.43113847225E+03  0.73889959269E+02  0.92857620134E+02  0.44717183046E+03  0.25500000920E-02 0.  1.
</event>
<event>
 5   0  0.2134145E-03  0.9120944E+03  0.7818609E-02  0.9410588E-01
        1   -1    0    0  501    0  0.00000000000E+00  0.00000000000E+00  0.22911236676E+04  0.22911236676E+04  0.50400001928E-02 0. -1.
       -1   -1    0    0    0  501  0.00000000000E+00  0.00000000000E+00 -0.90776004880E+02  0.90776005020E+02  0.50400001928E-02 0.  1.
    10030    2    1    2    0    0  0.00000000000E+00  0.00000000000E+00  0.22003476627E+04  0.23818996727E+04  0.91209441048E+03 0.  0.
        1    1    3    3  502    0  0.78990828704E+02  0.44786609049E+03  0.11889430731E+04  0.12729529517E+04  0.50400001928E-02 0. -1.
       -1    1    3    3    0  502 -0.78990828704E+02 -0.44786609049E+03  0.10114045896E+04  0.11089467210E+04  0.50400001928E-02 0.  1.
</event>
<event>
 5   0  0.2130975E-03  0.9033475E+03  0.7818609E-02  0.9421407E-01
        1   -1    0    0  501    0  0.00000000000E+00  0.00000000000E+00  0.83552779948E+03  0.83552779949E+03  0.50400001928E-02 0.  1.
       -1   -1    0    0    0  501  0.00000000000E+00  0.00000000000E+00 -0.24416802181E+03  0.24416802186E+03  0.50400001928E-02 0. -1.
    10030    2    1    2    0    0  0.00000000000E+00  0.00000000000E+00  0.59135977767E+03  0.10796958213E+04  0.90334748574E+03 0.  0.
        5    1    3    3  502    0 -0.32469030002E+03  0.30133105829E+03  0.40098709321E+03  0.59752567856E+03  0.46999998093E+01 0.  1.
       -5    1    3    3    0  502  0.32469030002E+03 -0.30133105829E+03  0.19037268446E+03  0.48217014279E+03  0.46999998093E+01 0. -1.
</event>
<event>
 5   0  0.2074970E-03  0.8989202E+03  0.7818609E-02  0.9426932E-01
       -1   -1    0    0    0  501  0.00000000000E+00  0.00000000000E+00  0.18520729220E+03  0.18520729227E+03  0.50400001928E-02 0. -1.
        1   -1    0    0  501    0  0.00000000000E+00  0.00000000000E+00 -0.10907473841E+04  0.10907473841E+04  0.50400001928E-02 0.  1.
    10030    2    1    2    0    0  0.00000000000E+00  0.00000000000E+00 -0.90554009186E+03  0.12759546763E+04  0.89892017338E+03 0.  0.
        2    1    3    3  502    0  0.40919765977E+03  0.18439726314E+03 -0.48663749333E+03  0.66201293441E+03  0.25500000920E-02 0.  1.
       -2    1    3    3    0  502 -0.40919765977E+03 -0.18439726314E+03 -0.41890259853E+03  0.61394174192E+03  0.25500000920E-02 0. -1.
</event>
<event>
 5   0  0.3663255E-03  0.8987158E+03  0.7818609E-02  0.9427188E-01
       -2   -1    0    0    0  501  0.00000000000E+00  0.00000000000E+00  0.54167562836E+03  0.54167562836E+03  0.25500000920E-02 0.  1.
        2   -1    0    0  501    0  0.00000000000E+00  0.00000000000E+00 -0.37277384251E+03  0.37277384252E+03  0.25500000920E-02 0. -1.
    10030    2    1    2    0    0  0.00000000000E+00  0.00000000000E+00  0.16890178585E+03  0.91444947088E+03  0.89871576237E+03 0.  0.
        4    1    3    3  502    0 -0.99553655281E+02 -0.21885862450E+03  0.47071621160E+03  0.52856919373E+03  0.12699999809E+01 0.  1.
       -4    1    3    3    0  502  0.99553655281E+02  0.21885862450E+03 -0.30181442575E+03  0.38588027715E+03  0.12699999809E+01 0. -1.
</event>
<event>
 5   0  0.3663255E-03  0.9010240E+03  0.7818609E-02  0.9424302E-01
       -2   -1    0    0    0  501  0.00000000000E+00  0.00000000000E+00  0.32620584595E+03  0.32620584596E+03  0.25500000920E-02 0. -1.
        2   -1    0    0  501    0  0.00000000000E+00  0.00000000000E+00 -0.62218708502E+03  0.62218708502E+03  0.25500000920E-02 0.  1.
    10030    2    1    2    0    0  0.00000000000E+00  0.00000000000E+00 -0.29598123906E+03  0.94839293098E+03  0.90102400504E+03 0.  0.
        4    1    3    3  502    0 -0.19431502906E+03 -0.28907301143E+03 -0.44873526171E+03  0.56805500126E+03  0.12699999809E+01 0.  1.
       -4    1    3    3    0  502  0.19431502906E+03  0.28907301143E+03  0.15275402264E+03  0.38033792973E+03  0.12699999809E+01 0. -1.
</event>
<event>
 5   0  0.3685879E-03  0.9012159E+03  0.7818609E-02  0.9424063E-01
       -2   -1    0    0    0  501  0.00000000000E+00  0.00000000000E+00  0.28326774291E+03  0.28326774292E+03  0.25500000920E-02 0. -1.
        2   -1    0    0  501    0  0.00000000000E+00  0.00000000000E+00 -0.71680422268E+03  0.71680422269E+03  0.25500000920E-02 0.  1.
    10030    2    1    2    0    0  0.00000000000E+00  0.00000000000E+00 -0.43353647977E+03  0.10000719656E+04  0.90121587708E+03 0.  0.
        1    1    3    3  502    0 -0.20112211261E+03 -0.19053536182E+03  0.17759210540E+03  0.32907869000E+03  0.50400001928E-02 0. -1.
       -1    1    3    3    0  502  0.20112211261E+03  0.19053536182E+03 -0.61112858517E+03  0.67099327561E+03  0.50400001928E-02 0.  1.
</event>
<event>
 5   0  0.2295158E-03  0.8985456E+03  0.7818609E-02  0.9427401E-01
        1   -1    0    0  501    0  0.00000000000E+00  0.00000000000E+00  0.35657390367E+03  0.35657390370E+03  0.50400001928E-02 0.  1.
       -1   -1    0    0    0  501  0.00000000000E+00  0.00000000000E+00 -0.56607067244E+03  0.56607067246E+03  0.50400001928E-02 0. -1.
    10030    2    1    2    0    0  0.00000000000E+00  0.00000000000E+00 -0.20949676877E+03  0.92264457616E+03  0.89854555688E+03 0.  0.
        4    1    3    3  502    0  0.41646922319E+03 -0.14958840445E+03 -0.25071437760E+02  0.44323074634E+03  0.12699999809E+01 0.  1.
       -4    1    3    3    0  502 -0.41646922319E+03  0.14958840445E+03 -0.18442533101E+03  0.47941382982E+03  0.12699999809E+01 0. -1.
</event>
<event>
 5   0  0.2295158E-03  0.9020345E+03  0.7818609E-02  0.9423042E-01
       -1   -1    0    0    0  501  0.00000000000E+00  0.00000000000E+00  0.72554387700E+03  0.72554387702E+03  0.50400001928E-02 0.  1.
        1   -1    0    0  501    0  0.00000000000E+00  0.00000000000E+00 -0.28036421935E+03  0.28036421940E+03  0.50400001928E-02 0. -1.
    10030    2    1    2    0    0  0.00000000000E+00  0.00000000000E+00  0.44517965765E+03  0.10059080964E+04  0.90203446212E+03 0.  0.
        4    1    3    3  502    0  0.14549722978E+03 -0.42607715757E+03  0.19300685514E+03  0.48986166120E+03  0.12699999809E+01 0.  1.
       -4    1    3    3    0  502 -0.14549722978E+03  0.42607715757E+03  0.25217280251E+03  0.51604643522E+03  0.12699999809E+01 0. -1.
</event>
<event>
 5   0  0.3815269E-03  0.8984832E+03  0.7818609E-02  0.9427479E-01
        2   -1    0    0  501    0  0.00000000000E+00  0.00000000000E+00  0.31173254966E+03  0.31173254967E+03  0.25500000920E-02 0.  1.
       -2   -1    0    0    0  501  0.00000000000E+00  0.00000000000E+00 -0.64740758861E+03  0.64740758861E+03  0.25500000920E-02 0. -1.
    10030    2    1    2    0    0  0.00000000000E+00  0.00000000000E+00 -0.33567503895E+03  0.95914013828E+03  0.89848320691E+03 0.  0.
        5    1    3    3  502    0  0.31408686051E+02  0.36147201726E+03 -0.45057143096E+03  0.57851986069E+03  0.46999998093E+01 0. -1.
       -5    1    3    3    0  502 -0.31408686051E+02 -0.36147201726E+03  0.11489639201E+03  0.38062027759E+03  0.46999998093E+01 0.  1.
</event>
<event>
 5   0  0.2130975E-03  0.9006763E+03  0.7818609E-02  0.9424736E-01
        1   -1    0    0  501    0  0.00000000000E+00  0.00000000000E+00  0.91416509539E+03  0.91416509540E+03  0.50400001928E-02 0.  1.
       -1   -1    0    0    0  501  0.00000000000E+00  0.00000000000E+00 -0.22184662183E+03  0.22184662188E+03  0.50400001928E-02 0. -1.
    10030    2    1    2    0    0  0.00000000000E+00  0.00000000000E+00  0.69231847356E+03  0.11360117173E+04  0.90067627535E+03 0.  0.
        5    1    3    3  502    0 -0.52716124312E+02  0.17757891765E+03  0.86385450819E+03  0.88350436505E+03  0.46999998093E+01 0.  1.
       -5    1    3    3    0  502  0.52716124312E+02 -0.17757891765E+03 -0.17153603463E+03  0.25250735223E+03  0.46999998093E+01 0. -1.
</event>
<event>
 5   0  0.2130975E-03  0.8989203E+03  0.7818609E-02  0.9426932E-01
        1   -1    0    0  501    0  0.00000000000E+00  0.00000000000E+00  0.52036893468E+03  0.52036893470E+03  0.50400001928E-02 0. -1.
       -1   -1    0    0    0  501  0.00000000000E+00  0.00000000000E+00 -0.38821384710E+03  0.38821384713E+03  0.50400001928E-02 0.  1.
    10030    2    1    2    0    0  0.00000000000E+00  0.00000000000E+00  0.13215508758E+03  0.90858278183E+03  0.89892029917E+03 0.  0.
        5    1    3    3  502    0 -0.18095844473E+03 -0.29601060329E+03  0.35484783968E+03  0.49629357773E+03  0.46999998093E+01 0. -1.
       -5    1    3    3    0  502  0.18095844473E+03  0.29601060329E+03 -0.22269275210E+03  0.41228920410E+03  0.46999998093E+01 0.  1.
</event>
<event>
 5   0  0.3806019E-03  0.9022194E+03  0.7818609E-02  0.9422811E-01
       -2   -1    0    0    0  501  0.00000000000E+00  0.00000000000E+00  0.15661922292E+03  0.15661922294E+03  0.25500000920E-02 0.  1.
        2   -1    0    0  501    0  0.00000000000E+00  0.00000000000E+00 -0.12993294628E+04  0.12993294628E+04  0.25500000920E-02 0. -1.
    10030    2    1    2    0    0  0.00000000000E+00  0.00000000000E+00 -0.11427102399E+04  0.14559486857E+04  0.90221942076E+03 0.  0.
        2    1    3    3  502    0  0.95846480257E+02  0.64739153823E+02 -0.12749949049E+04  0.12802303360E+04  0.25500000920E-02 0. -1.
       -2    1    3    3    0  502 -0.95846480257E+02 -0.64739153823E+02  0.13228466502E+03  0.17571834970E+03  0.25500000920E-02 0.  1.
</event>
<event>
 5   0  0.2129280E-03  0.9019317E+03  0.7818609E-02  0.9423170E-01
       -1   -1    0    0    0  501  0.00000000000E+00  0.00000000000E+00  0.30840746240E+03  0.30840746244E+03  0.50400001928E-02 0. -1.
        1   -1    0    0  501    0  0.00000000000E+00  0.00000000000E+00 -0.65942049157E+03  0.65942049159E+03  0.50400001928E-02 0.  1.
    10030    2    1    2    0    0  0.00000000000E+00  0.00000000000E+00 -0.35101302917E+03  0.96782795403E+03  0.90193170582E+03 0.  0.
        3    1    3    3  502    0  0.18136484377E+03  0.18352713522E+03  0.22137352876E+03  0.33997303622E+03  0.10100000352E+00 0. -1.
       -3    1    3    3    0  502 -0.18136484377E+03 -0.18352713522E+03 -0.57238655793E+03  0.62785491781E+03  0.10100000352E+00 0.  1.
</event>
<event>
 5   0  0.3626546E-03  0.9034373E+03  0.7818609E-02  0.9421295E-01
       -2   -1    0    0    0  501  0.00000000000E+00  0.00000000000E+00  0.67536977637E+03  0.67536977638E+03  0.25500000920E-02 0. -1.
        2   -1    0    0  501    0  0.00000000000E+00  0.00000000000E+00 -0.30213037966E+03  0.30213037967E+03  0.25500000920E-02 0.  1.
    10030    2    1    2    0    0  0.00000000000E+00  0.00000000000E+00  0.37323939671E+03  0.97750015605E+03  0.90343727387E+03 0.  0.
        3    1    3    3  502    0 -0.42953377410E+03  0.11816739569E+03  0.26749298014E+03  0.51962996558E+03  0.10100000352E+00 0. -1.
       -3    1    3    3    0  502  0.42953377410E+03 -0.11816739569E+03  0.10574641658E+03  0.45787019047E+03  0.10100000352E+00 0.  1.
</event>
<event>
 5   0  0.1436000E-03  0.8978998E+03  0.7818609E-02  0.9428211E-01
       -3   -1    0    0    0  501  0.00000000000E+00  0.00000000000E+00  0.42041650760E+03  0.42041651973E+03  0.10100000352E+00 0.  1.
        3   -1    0    0  501    0  0.00000000000E+00  0.00000000000E+00 -0.47941977178E+03  0.47941978242E+03  0.10100000352E+00 0. -1.
    10030    2    1    2    0    0  0.00000000000E+00  0.00000000000E+00 -0.59003264179E+02  0.89983630215E+03  0.89789976360E+03 0.  0.
        1    1    3    3  502    0 -0.10085909918E+01 -0.42834708991E+03 -0.16423022807E+03  0.45875245451E+03  0.50400001928E-02 0.  1.
       -1    1    3    3    0  502  0.10085909918E+01  0.42834708991E+03  0.10522696389E+03  0.44108384763E+03  0.50400001928E-02 0. -1.
</event>
<event>
 5   0  0.3663255E-03  0.8874901E+03  0.7818609E-02  0.9441356E-01
        2   -1    0    0  501    0  0.00000000000E+00  0.00000000000E+00  0.29168646054E+03  0.29168646056E+03  0.25500000920E-02 0. -1.
       -2   -1    0    0    0  501  0.00000000000E+00  0.00000000000E+00 -0.67507300953E+03  0.67507300954E+03  0.25500000920E-02 0.  1.
    10030    2    1    2    0    0  0.00000000000E+00  0.00000000000E+00 -0.38338654899E+03  0.96675947010E+03  0.88749007153E+03 0.  0.
        4    1    3    3  502    0 -0.41031186575E+03 -0.12160433604E+03 -0.63891535500E+02  0.43269756520E+03  0.12699999809E+01 0. -1.
       -4    1    3    3    0  502  0.41031186575E+03  0.12160433604E+03 -0.31949501349E+03  0.53406190490E+03  0.12699999809E+01 0.  1.
</event>
<event>
 5   0  0.3663255E-03  0.8998811E+03  0.7818609E-02  0.9425730E-01
       -2   -1    0    0    0  501  0.00000000000E+00  0.00000000000E+00  0.17069903870E+03  0.17069903872E+03  0.25500000920E-02 0.  1.
        2   -1    0    0  501    0  0.00000000000E+00  0.00000000000E+00 -0.11859849221E+04  0.11859849221E+04  0.25500000920E-02 0. -1.
    10030    2    1    2    0    0  0.00000000000E+00  0.00000000000E+00 -0.10152858834E+04  0.13566839608E+04  0.89988107242E+03 0.  0.
        4    1    3    3  502    0 -0.18181478363E+03 -0.69198428459E+02 -0.11193003940E+04  0.11360809931E+04  0.12699999809E+01 0. -1.
       -4    1    3    3    0  502  0.18181478363E+03  0.69198428459E+02  0.10401451058E+03  0.22060296770E+03  0.12699999809E+01 0.  1.
</event>
<event>
 5   0  0.2074970E-03  0.8973378E+03  0.7818609E-02  0.9428915E-01
       -1   -1    0    0    0  501  0.00000000000E+00  0.00000000000E+00  0.34946679680E+03  0.34946679683E+03  0.50400001928E-02 0.  1.
        1   -1    0    0  501    0  0.00000000000E+00  0.00000000000E+00 -0.57603119753E+03  0.57603119755E+03  0.50400001928E-02 0. -1.
    10030    2    1    2    0    0  0.00000000000E+00  0.00000000000E+00 -0.22656440073E+03  0.92549799438E+03  0.89733779031E+03 0.  0.
        2    1    3    3  502    0 -0.61675487630E+02 -0.39398395619E+03  0.98782954511E+02  0.41083487634E+03  0.25500000920E-02 0.  1.
       -2    1    3    3    0  502  0.61675487630E+02  0.39398395619E+03 -0.32534735524E+03  0.51466311804E+03  0.25500000920E-02 0. -1.
</event>
<event>
 5   0  0.3685879E-03  0.8993042E+03  0.7818609E-02  0.9426452E-01
        2   -1    0    0  501    0  0.00000000000E+00  0.00000000000E+00  0.14501057931E+04  0.14501057931E+04  0.25500000920E-02 0.  1.
       -2   -1    0    0    0  501  0.00000000000E+00  0.00000000000E+00 -0.13942915052E+03  0.13942915054E+03  0.25500000920E-02 0. -1.
    10030    2    1    2    0    0  0.00000000000E+00  0.00000000000E+00  0.13106766426E+04  0.15895349436E+04  0.89930421751E+03 0.  0.
        1    1    3    3  502    0 -0.63235679867E+02 -0.10419669173E+02  0.14419917362E+04  0.14434152168E+04  0.50400001928E-02 0.  1.
       -1    1    3    3    0  502  0.63235679867E+02  0.10419669173E+02 -0.13131509367E+03  0.14611972682E+03  0.50400001928E-02 0. -1.
</event>
<event>
 5   0  0.2134145E-03  0.8981446E+03  0.7818609E-02  0.9427904E-01
        1   -1    0    0  501    0  0.00000000000E+00  0.00000000000E+00  0.91083843184E+03  0.91083843185E+03  0.50400001928E-02 0. -1.
       -1   -1    0    0    0  501  0.00000000000E+00  0.00000000000E+00 -0.22140690199E+03  0.22140690205E+03  0.50400001928E-02 0.  1.
    10030    2    1    2    0    0  0.00000000000E+00  0.00000000000E+00  0.68943152985E+03  0.11322453339E+04  0.89814456619E+03 0.  0.
        1    1    3    3  502    0 -0.31186489045E+03 -0.28956550532E+03  0.16396298990E+03  0.45606112951E+03  0.50400001928E-02 0.  1.
       -1    1    3    3    0  502  0.31186489045E+03  0.28956550532E+03  0.52546853995E+03  0.67618420439E+03  0.50400001928E-02 0. -1.
</event>
<event>
 5   0  0.2130975E-03  0.9014982E+03  0.7818609E-02  0.9423711E-01
        1   -1    0    0  501    0  0.00000000000E+00  0.00000000000E+00  0.76317450142E+03  0.76317450144E+03  0.50400001928E-02 0. -1.
       -1   -1    0    0    0  501  0.00000000000E+00  0.00000000000E+00 -0.26622317070E+03  0.26622317074E+03  0.50400001928E-02 0.  1.
    10030    2    1    2    0    0  0.00000000000E+00  0.00000000000E+00  0.49695133073E+03  0.10293976722E+04  0.90149816549E+03 0.  0.
        5    1    3    3  502    0  0.79458713456E+02 -0.38354010799E+03  0.50313143327E+03  0.63763628404E+03  0.46999998093E+01 0. -1.
       -5    1    3    3    0  502 -0.79458713456E+02  0.38354010799E+03 -0.61801025388E+01  0.39176138815E+03  0.46999998093E+01 0.  1.
</event>
<event>
 5   0  0.3685879E-03  0.9121057E+03  0.7818609E-02  0.9410574E-01
        2   -1    0    0  501    0  0.00000000000E+00  0.00000000000E+00  0.18470866898E+04  0.18470866898E+04  0.25500000920E-02 0. -1.
       -2   -1    0    0    0  501  0.00000000000E+00  0.00000000000E+00 -0.11260122348E+03  0.11260122351E+03  0.25500000920E-02 0.  1.
    10030    2    1    2    0    0  0.00000000000E+00  0.00000000000E+00  0.17344854663E+04  0.19596879133E+04  0.91210574206E+03 0.  0.
        1    1    3    3  502    0 -0.20461193059E+03  0.40267777043E+03  0.10025966741E+04  0.10996433603E+04  0.50400001928E-02 0. -1.
       -1    1    3    3    0  502  0.20461193059E+03 -0.40267777043E+03  0.73188879225E+03  0.86004455303E+03  0.50400001928E-02 0.  1.
</event>
<event>
 5   0  0.2130975E-03  0.9026042E+03  0.7818609E-02  0.9422332E-01
        1   -1    0    0  501    0  0.00000000000E+00  0.00000000000E+00  0.36809256540E+03  0.36809256544E+03  0.50400001928E-02 0. -1.
       -1   -1    0    0    0  501  0.00000000000E+00  0.00000000000E+00 -0.55332168743E+03  0.55332168745E+03  0.50400001928E-02 0.  1.
    10030    2    1    2    0    0  0.00000000000E+00  0.00000000000E+00 -0.18522912202E+03  0.92141425289E+03  0.90260423098E+03 0.  0.
        5    1    3    3  502    0 -0.26491094389E+03 -0.10852972519E+03 -0.44873256327E+03  0.53229645197E+03  0.46999998093E+01 0.  1.
       -5    1    3    3    0  502  0.26491094389E+03  0.10852972519E+03  0.26350344124E+03  0.38911780092E+03  0.46999998093E+01 0. -1.
</event>
<event>
 5   0  0.2129280E-03  0.9003957E+03  0.7818609E-02  0.9425087E-01
        1   -1    0    0  501    0  0.00000000000E+00  0.00000000000E+00  0.53245534367E+03  0.53245534369E+03  0.50400001928E-02 0.  1.
       -1   -1    0    0    0  501  0.00000000000E+00  0.00000000000E+00 -0.38064806777E+03  0.38064806780E+03  0.50400001928E-02 0. -1.
    10030    2    1    2    0    0  0.00000000000E+00  0.00000000000E+00  0.15180727590E+03  0.91310341149E+03  0.90039568583E+03 0.  0.
        3    1    3    3  502    0  0.11377163370E+03 -0.24912674243E+03 -0.28644859056E+03  0.39630912639E+03  0.10100000352E+00 0. -1.
       -3    1    3    3    0  502 -0.11377163370E+03  0.24912674243E+03  0.43825586645E+03  0.51679428510E+03  0.10100000352E+00 0.  1.
</event>
<event>
 5   0  0.2295158E-03  0.8999982E+03  0.7818609E-02  0.9425584E-01
       -1   -1    0    0    0  501  0.00000000000E+00  0.00000000000E+00  0.30337381592E+03  0.30337381596E+03  0.50400001928E-02 0. -1.
        1   -1    0    0  501    0  0.00000000000E+00  0.00000000000E+00 -0.66749067014E+03  0.66749067015E+03  0.50400001928E-02 0.  1.
    10030    2    1    2    0    0  0.00000000000E+00  0.00000000000E+00 -0.36411685421E+03  0.97086448612E+03  0.89999820382E+03 0.  0.
        4    1    3    3  502    0  0.31445917682E+03 -0.16041963837E+02 -0.52886243302E+03  0.61549898818E+03  0.12699999809E+01 0. -1.
       -4    1    3    3    0  502 -0.31445917682E+03  0.16041963837E+02  0.16474557880E+03  0.35536549794E+03  0.12699999809E+01 0.  1.
</event>
<event>
 5   0  0.3815269E-03  0.9009265E+03  0.7818609E-02  0.9424424E-01
        2   -1    0    0  501    0  0.00000000000E+00  0.00000000000E+00  0.69851984602E+03  0.69851984603E+03  0.25500000920E-02 0.  1.
       -2   -1    0    0    0  501  0.00000000000E+00  0.00000000000E+00 -0.29049587656E+03  0.29049587657E+03  0.25500000920E-02 0. -1.
    10030    2    1    2    0    0  0.00000000000E+00  0.00000000000E+00  0.40802396947E+03  0.98901572259E+03  0.90092648972E+03 0.  0.
        5    1    3    3  502    0 -0.19072700617E+03  0.10082091492E+03  0.63808970957E+03  0.67358905515E+03  0.46999998093E+01 0.  1.
       -5    1    3    3    0  502  0.19072700617E+03 -0.10082091492E+03 -0.23006574010E+03  0.31542666744E+03  0.46999998093E+01 0. -1.
</event>
<event>
 5   0  0.3685879E-03  0.8986043E+03  0.7818609E-02  0.9427328E-01
       -2   -1    0    0    0  501  0.00000000000E+00  0.00000000000E+00  0.17939202408E+03  0.17939202410E+03  0.25500000920E-02 0. -1.
        2   -1    0    0  501    0  0.00000000000E+00  0.00000000000E+00 -0.11253144611E+04  0.11253144611E+04  0.25500000920E-02 0.  1.
    10030    2    1    2    0    0  0.00000000000E+00  0.00000000000E+00 -0.94592243702E+03  0.13047064852E+04  0.89860433766E+03 0.  0.
        1    1    3    3  502    0 -0.19894103542E+03 -0.27187873403E+03 -0.41329265419E+02  0.33941669051E+03  0.50400001928E-02 0. -1.
       -1    1    3    3    0  502  0.19894103542E+03  0.27187873403E+03 -0.90459317160E+03  0.96528979469E+03  0.50400001928E-02 0.  1.
</event>
<event>
 5   0  0.2074970E-03  0.9002769E+03  0.7818609E-02  0.9425235E-01
        1   -1    0    0  501    0  0.00000000000E+00  0.00000000000E+00  0.35374365286E+03  0.35374365290E+03  0.50400001928E-02 0. -1.
       -1   -1    0    0    0  501  0.00000000000E+00  0.00000000000E+00 -0.57280076589E+03  0.57280076591E+03  0.50400001928E-02 0.  1.
    10030    2    1    2    0    0  0.00000000000E+00  0.00000000000E+00 -0.21905711303E+03  0.92654441881E+03  0.90027692476E+03 0.  0.
        2    1    3    3  502    0 -0.97259506027E+02 -0.41346592790E+03 -0.26291099952E+03  0.49953546292E+03  0.25500000920E-02 0.  1.
       -2    1    3    3    0  502  0.97259506027E+02  0.41346592790E+03  0.43853886485E+02  0.42700895589E+03  0.25500000920E-02 0. -1.
</event>
<event>
 5   0  0.2130975E-03  0.9016875E+03  0.7818609E-02  0.9423474E-01
        1   -1    0    0  501    0  0.00000000000E+00  0.00000000000E+00  0.57505495224E+03  0.57505495226E+03  0.50400001928E-02 0. -1.
       -1   -1    0    0    0  501  0.00000000000E+00  0.00000000000E+00 -0.35346204988E+03  0.35346204992E+03  0.50400001928E-02 0.  1.
    10030    2    1    2    0    0  0.00000000000E+00  0.00000000000E+00  0.22159290236E+03  0.92851700218E+03  0.90168753400E+03 0.  0.
        5    1    3    3  502    0 -0.78555288320E+02 -0.43284199702E+03  0.21229331351E+03  0.48848098086E+03  0.46999998093E+01 0.  1.
       -5    1    3    3    0  502  0.78555288320E+02  0.43284199702E+03  0.92995888501E+01  0.44003602132E+03  0.46999998093E+01 0. -1.
</event>
<event>
 5   0  0.3626546E-03  0.8978429E+03  0.7818609E-02  0.9428282E-01
       -2   -1    0    0    0  501  0.00000000000E+00  0.00000000000E+00  0.13606860973E+03  0.13606860976E+03  0.25500000920E-02 0.  1.
        2   -1    0    0  501    0  0.00000000000E+00  0.00000000000E+00 -0.14810945947E+04  0.14810945947E+04  0.25500000920E-02 0. -1.
    10030    2    1    2    0    0  0.00000000000E+00  0.00000000000E+00 -0.13450259850E+04  0.16171632045E+04  0.89784293148E+03 0.  0.
        3    1    3    3  502    0 -0.40604353115E+03 -0.46376209934E+02 -0.10071051115E+04  0.10868683535E+04  0.10100000352E+00 0. -1.
       -3    1    3    3    0  502  0.40604353115E+03  0.46376209934E+02 -0.33792087350E+03  0.53029485099E+03  0.10100000352E+00 0.  1.
</event>
<event>
 5   0  0.3685879E-03  0.9005054E+03  0.7818609E-02  0.9424950E-01
       -2   -1    0    0    0  501  0.00000000000E+00  0.00000000000E+00  0.23581144965E+03  0.23581144966E+03  0.25500000920E-02 0. -1.
        2   -1    0    0  501    0  0.00000000000E+00  0.00000000000E+00 -0.85970166582E+03  0.85970166583E+03  0.25500000920E-02 0.  1.
    10030    2    1    2    0    0  0.00000000000E+00  0.00000000000E+00 -0.62389021618E+03  0.10955131155E+04  0.90050540496E+03 0.  0.
        1    1    3    3  502    0  0.19191048728E+03  0.12010182409E+03  0.16153251928E+03  0.27811299518E+03  0.50400001928E-02 0. -1.
       -1    1    3    3    0  502 -0.19191048728E+03 -0.12010182409E+03 -0.78542273546E+03  0.81740012031E+03  0.50400001928E-02 0.  1.
</event>
<event>
 5   0  0.1436000E-03  0.8781735E+03  0.7818609E-02  0.9453285E-01
        3   -1    0    0  501    0  0.00000000000E+00  0.00000000000E+00  0.99142254814E+03  0.99142255329E+03  0.10100000352E+00 0. -1.
       -3   -1    0    0    0  501  0.00000000000E+00  0.00000000000E+00 -0.19446514894E+03  0.19446517517E+03  0.10100000352E+00 0.  1.
    10030    2    1    2    0    0  0.00000000000E+00  0.00000000000E+00  0.79695739920E+03  0.11858877285E+04  0.87817345004E+03 0.  0.
        3    1    3    3  502    0  0.43982888313E+02 -0.39217543011E+03  0.13850925620E+03  0.41823544410E+03  0.10100000352E+00 0.  1.
       -3    1    3    3    0  502 -0.43982888313E+02  0.39217543011E+03  0.65844814300E+03  0.76765228435E+03  0.10100000352E+00 0. -1.
</event>
<event>
 5   0  0.2130975E-03  0.8984187E+03  0.7818609E-02  0.9427560E-01
        1   -1    0    0  501    0  0.00000000000E+00  0.00000000000E+00  0.90989885041E+03  0.90989885042E+03  0.50400001928E-02 0.  1.
       -1   -1    0    0    0  501  0.00000000000E+00  0.00000000000E+00 -0.22177086073E+03  0.22177086079E+03  0.50400001928E-02 0. -1.
    10030    2    1    2    0    0  0.00000000000E+00  0.00000000000E+00  0.68812798967E+03  0.11316697112E+04  0.89841872482E+03 0.  0.
        5    1    3    3  502    0  0.90361674626E+02 -0.96834612204E+02  0.88471240323E+03  0.89458387018E+03  0.46999998093E+01 0.  1.
       -5    1    3    3    0  502 -0.90361674626E+02  0.96834612204E+02 -0.19658441356E+03  0.23708584103E+03  0.46999998093E+01 0. -1.
</event>
<event>
 5   0  0.2074970E-03  0.8953372E+03  0.7818609E-02  0.9431429E-01
        1   -1    0    0  501    0  0.00000000000E+00  0.00000000000E+00  0.81277572694E+03  0.81277572696E+03  0.50400001928E-02 0. -1.
       -1   -1    0    0    0  501  0.00000000000E+00  0.00000000000E+00 -0.24657128243E+03  0.24657128248E+03  0.50400001928E-02 0.  1.
    10030    2    1    2    0    0  0.00000000000E+00  0.00000000000E+00  0.56620444451E+03  0.10593470094E+04  0.89533715070E+03 0.  0.
        2    1    3    3  502    0 -0.20687969108E+03  0.25966344309E+03 -0.72212825931E+02  0.33976315646E+03  0.25500000920E-02 0.  1.
       -2    1    3    3    0  502  0.20687969108E+03 -0.25966344309E+03  0.63841727045E+03  0.71958385298E+03  0.25500000920E-02 0. -1.
</event>
<event>
 5   0  0.2130975E-03  0.9005867E+03  0.7818609E-02  0.9424848E-01
       -1   -1    0    0    0  501  0.00000000000E+00  0.00000000000E+00  0.41111618847E+03  0.41111618850E+03  0.50400001928E-02 0.  1.
        1   -1    0    0  501    0  0.00000000000E+00  0.00000000000E+00 -0.49320390224E+03  0.49320390227E+03  0.50400001928E-02 0. -1.
    10030    2    1    2    0    0  0.00000000000E+00  0.00000000000E+00 -0.82087713774E+02  0.90432009077E+03  0.90058671643E+03 0.  0.
        5    1    3    3  502    0  0.24229726484E+03 -0.26729594537E+03  0.22949263952E+03  0.42760267603E+03  0.46999998093E+01 0.  1.
       -5    1    3    3    0  502 -0.24229726484E+03  0.26729594537E+03 -0.31158035329E+03  0.47671741474E+03  0.46999998093E+01 0. -1.
</event>
<event>
 5   0  0.2074970E-03  0.8926960E+03  0.7818609E-02  0.9434758E-01
       -1   -1    0    0    0  501  0.00000000000E+00  0.00000000000E+00  0.28146834163E+03  0.28146834167E+03  0.50400001928E-02 0. -1.
        1   -1    0    0  501    0  0.00000000000E+00  0.00000000000E+00 -0.70781148763E+03  0.70781148764E+03  0.50400001928E-02 0.  1.
    10030    2    1    2    0    0  0.00000000000E+00  0.00000000000E+00 -0.42634314600E+03  0.98927982932E+03  0.89269597431E+03 0.  0.
        2    1    3    3  502    0  0.22061137011E+03 -0.28538655779E+03  0.78162476376E+02  0.36908567665E+03  0.25500000920E-02 0. -1.
       -2    1    3    3    0  502 -0.22061137011E+03  0.28538655779E+03 -0.50450562237E+03  0.62019415267E+03  0.25500000920E-02 0.  1.
</event>
<event>
 5   0  0.2130975E-03  0.9007158E+03  0.7818609E-02  0.9424687E-01
        1   -1    0    0  501    0  0.00000000000E+00  0.00000000000E+00  0.12440541252E+04  0.12440541252E+04  0.50400001928E-02 0. -1.
       -1   -1    0    0    0  501  0.00000000000E+00  0.00000000000E+00 -0.16303327877E+03  0.16303327885E+03  0.50400001928E-02 0.  1.
    10030    2    1    2    0    0  0.00000000000E+00  0.00000000000E+00  0.10810208464E+04  0.14070874040E+04  0.90071576662E+03 0.  0.
        5    1    3    3  502    0 -0.57035744659E+02  0.34229624966E+03  0.98888923889E+03  0.10480189958E+04  0.46999998093E+01 0. -1.
       -5    1    3    3    0  502  0.57035744659E+02 -0.34229624966E+03  0.92131607488E+02  0.35906840824E+03  0.46999998093E+01 0.  1.
</event>
<event>
 5   0  0.2074970E-03  0.9016910E+03  0.7818609E-02  0.9423470E-01
       -1   -1    0    0    0  501  0.00000000000E+00  0.00000000000E+00  0.20523293166E+03  0.20523293172E+03  0.50400001928E-02 0. -1.
        1   -1    0    0  501    0  0.00000000000E+00  0.00000000000E+00 -0.99039505800E+03  0.99039505801E+03  0.50400001928E-02 0.  1.
    10030    2    1    2    0    0  0.00000000000E+00  0.00000000000E+00 -0.78516212635E+03  0.11956279897E+04  0.90169103643E+03 0.  0.
        2    1    3    3  502    0  0.14713978411E+03  0.15013472555E+03 -0.92143288307E+03  0.94510798848E+03  0.25500000920E-02 0.  1.
       -2    1    3    3    0  502 -0.14713978411E+03 -0.15013472555E+03  0.13627075672E+03  0.25052000125E+03  0.25500000920E-02 0. -1.
</event>
<event>
 5   0  0.3626546E-03  0.8948518E+03  0.7818609E-02  0.9432040E-01
        2   -1    0    0  501    0  0.00000000000E+00  0.00000000000E+00  0.75155775733E+03  0.75155775733E+03  0.25500000920E-02 0.  1.
       -2   -1    0    0    0  501  0.00000000000E+00  0.00000000000E+00 -0.26636668303E+03  0.26636668305E+03  0.25500000920E-02 0. -1.
    10030    2    1    2    0    0  0.00000000000E+00  0.00000000000E+00  0.48519107429E+03  0.10179244404E+04  0.89485182446E+03 0.  0.
        3    1    3    3  502    0  0.30309869149E+03 -0.32786815498E+03  0.27524084073E+03  0.52452252043E+03  0.10100000352E+00 0.  1.
       -3    1    3    3    0  502 -0.30309869149E+03  0.32786815498E+03  0.20995023356E+03  0.49340191995E+03  0.10100000352E+00 0. -1.
</event>
<event>
 5   0  0.3806019E-03  0.9006474E+03  0.7818609E-02  0.9424773E-01
       -2   -1    0    0    0  501  0.00000000000E+00  0.00000000000E+00  0.19905625035E+03  0.19905625037E+03  0.25500000920E-02 0.  1.
        2   -1    0    0  501    0  0.00000000000E+00  0.00000000000E+00 -0.10187644612E+04  0.10187644612E+04  0.25500000920E-02 0. -1.
    10030    2    1    2    0    0  0.00000000000E+00  0.00000000000E+00 -0.81970821087E+03  0.12178207116E+04  0.90064739751E+03 0.  0.
        2    1    3    3  502    0 -0.26310214650E+03  0.34057605293E+03 -0.23058866830E+03  0.48824780725E+03  0.25500000920E-02 0. -1.
       -2    1    3    3    0  502  0.26310214650E+03 -0.34057605293E+03 -0.58911954257E+03  0.72957290435E+03  0.25500000920E-02 0.  1.
</event>
<event>
 5   0  0.3685879E-03  0.8997576E+03  0.7818609E-02  0.9425884E-01
        2   -1    0    0  501    0  0.00000000000E+00  0.00000000000E+00  0.17390468258E+04  0.17390468258E+04  0.25500000920E-02 0.  1.
       -2   -1    0    0    0  501  0.00000000000E+00  0.00000000000E+00 -0.11638038094E+03  0.11638038097E+03  0.25500000920E-02 0. -1.
    10030    2    1    2    0    0  0.00000000000E+00  0.00000000000E+00  0.16226664448E+04  0.18554272067E+04  0.89975759420E+03 0.  0.
        1    1    3    3  502    0  0.44978660487E+03  0.20162817449E+01  0.79301881388E+03  0.91169671191E+03  0.50400001928E-02 0.  1.
       -1    1    3    3    0  502 -0.44978660487E+03 -0.20162817449E+01  0.82964763095E+03  0.94373049483E+03  0.50400001928E-02 0. -1.
</event>
<event>
 5   0  0.2074970E-03  0.8984457E+03  0.7818609E-02  0.9427527E-01
        1   -1    0    0  501    0  0.00000000000E+00  0.00000000000E+00  0.66543076888E+03  0.66543076890E+03  0.50400001928E-02 0.  1.
       -1   -1    0    0    0  501  0.00000000000E+00  0.00000000000E+00 -0.30326392492E+03  0.30326392496E+03  0.50400001928E-02 0. -1.
    10030    2    1    2    0    0  0.00000000000E+00  0.00000000000E+00  0.36216684396E+03  0.96869469386E+03  0.89844565058E+03 0.  0.
        2    1    3    3  502    0  0.13718729500E+03  0.42736742900E+03  0.20090198492E+03  0.49175693267E+03  0.25500000920E-02 0.  1.
       -2    1    3    3    0  502 -0.13718729500E+03 -0.42736742900E+03  0.16126485904E+03  0.47693776119E+03  0.25500000920E-02 0. -1.
</event>
<event>
 5   0  0.3663255E-03  0.8995229E+03  0.7818609E-02  0.9426178E-01
       -2   -1    0    0    0  501  0.00000000000E+00  0.00000000000E+00  0.26022242046E+03  0.26022242047E+03  0.25500000920E-02 0. -1.
        2   -1    0    0  501    0  0.00000000000E+00  0.00000000000E+00 -0.77735567134E+03  0.77735567135E+03  0.25500000920E-02 0.  1.
    10030    2    1    2    0    0  0.00000000000E+00  0.00000000000E+00 -0.51713325088E+03  0.10375780918E+04  0.89952292770E+03 0.  0.
        4    1    3    3  502    0 -0.28423737946E+03  0.52859206453E+02 -0.65597011791E+03  0.71685660496E+03  0.12699999809E+01 0.  1.
       -4    1    3    3    0  502  0.28423737946E+03 -0.52859206453E+02  0.13883686703E+03  0.32072148686E+03  0.12699999809E+01 0. -1.
</event>
<event>
 5   0  0.2134145E-03  0.8992056E+03  0.7818609E-02  0.9426575E-01
        1   -1    0    0  501    0  0.00000000000E+00  0.00000000000E+00  0.63935050829E+03  0.63935050831E+03  0.50400001928E-02 0.  1.
       -1   -1    0    0    0  501  0.00000000000E+00  0.00000000000E+00 -0.31616875671E+03  0.31616875675E+03  0.50400001928E-02 0. -1.
    10030    2    1    2    0    0  0.00000000000E+00  0.00000000000E+00  0.32318175158E+03  0.95551926506E+03  0.89920555011E+03 0.  0.
        1    1    3    3  502    0  0.25758545721E+02 -0.21291558011E+03  0.58149104658E+03  0.61978091629E+03  0.50400001928E-02 0.  1.
       -1    1    3    3    0  502 -0.25758545721E+02  0.21291558011E+03 -0.25830929499E+03  0.33573834877E+03  0.50400001928E-02 0. -1.
</event>
<event>
 5   0  0.2074970E-03  0.8975688E+03  0.7818609E-02  0.9428626E-01
       -1   -1    0    0    0  501  0.00000000000E+00  0.00000000000E+00  0.30509923820E+03  0.30509923825E+03  0.50400001928E-02 0. -1.
        1   -1    0    0  501    0  0.00000000000E+00  0.00000000000E+00 -0.66013749592E+03  0.66013749594E+03  0.50400001928E-02 0.  1.
    10030    2    1    2    0    0  0.00000000000E+00  0.00000000000E+00 -0.35503825772E+03  0.96523673419E+03  0.89756882108E+03 0.  0.
        2    1    3    3  502    0 -0.25468193540E+03 -0.10232025126E+03 -0.55935857148E+03  0.62306848221E+03  0.25500000920E-02 0.  1.
       -2    1    3    3    0  502  0.25468193540E+03  0.10232025126E+03  0.20432031376E+03  0.34216825197E+03  0.25500000920E-02 0. -1.
</event>
<event>
 5   0  0.3626546E-03  0.9035741E+03  0.7818609E-02  0.9421125E-01
       -2   -1    0    0    0  501  0.00000000000E+00  0.00000000000E+00  0.25935507389E+03  0.25935507390E+03  0.25500000920E-02 0.  1.
        2   -1    0    0  501    0  0.00000000000E+00  0.00000000000E+00 -0.78699645047E+03  0.78699645047E+03  0.25500000920E-02 0. -1.
    10030    2    1    2    0    0  0.00000000000E+00  0.00000000000E+00 -0.52764137658E+03  0.10463515244E+04  0.90357406463E+03 0.  0.
        3    1    3    3  502    0  0.81771925989E+02  0.20754197461E+03  0.19113473894E+03  0.29375639182E+03  0.10100000352E+00 0.  1.
       -3    1    3    3    0  502 -0.81771925989E+02 -0.20754197461E+03 -0.71877611552E+03  0.75259513255E+03  0.10100000352E+00 0. -1.
</event>
<event>
 5   0  0.2130975E-03  0.9013395E+03  0.7818609E-02  0.9423908E-01
        1   -1    0    0  501    0  0.00000000000E+00  0.00000000000E+00  0.33494193128E+03  0.33494193132E+03  0.50400001928E-02 0. -1.
       -1   -1    0    0    0  501  0.00000000000E+00  0.00000000000E+00 -0.60638342623E+03  0.60638342625E+03  0.50400001928E-02 0.  1.
    10030    2    1    2    0    0  0.00000000000E+00  0.00000000000E+00 -0.27144149495E+03  0.94132535757E+03  0.90133952739E+03 0.  0.
        5    1    3    3  502    0 -0.11636005234E+03  0.24169137396E+03  0.24245790716E+03  0.36161071440E+03  0.46999998093E+01 0. -1.
       -5    1    3    3    0  502  0.11636005234E+03 -0.24169137396E+03 -0.51389940210E+03  0.57971464317E+03  0.46999998093E+01 0.  1.
</event>
<event>
 5   0  0.3626546E-03  0.9015740E+03  0.7818609E-02  0.9423616E-01
        2   -1    0    0  501    0  0.00000000000E+00  0.00000000000E+00  0.80120525700E+03  0.80120525700E+03  0.25500000920E-02 0. -1.
       -2   -1    0    0    0  501  0.00000000000E+00  0.00000000000E+00 -0.25362901838E+03  0.25362901839E+03  0.25500000920E-02 0.  1.
    10030    2    1    2    0    0  0.00000000000E+00  0.00000000000E+00  0.54757623862E+03  0.10548342754E+04  0.90157396338E+03 0.  0.
        3    1    3    3  502    0 -0.27208023726E+02 -0.37062599968E+03  0.57231950152E+03  0.68238810821E+03  0.10100000352E+00 0. -1.
       -3    1    3    3    0  502  0.27208023726E+02  0.37062599968E+03 -0.24743262904E+02  0.37244616719E+03  0.10100000352E+00 0.  1.
</event>
<event>
 5   0  0.1436000E-03  0.8924353E+03  0.7818609E-02  0.9435087E-01
       -3   -1    0    0    0  501  0.00000000000E+00  0.00000000000E+00  0.20633708585E+03  0.20633711056E+03  0.10100000352E+00 0.  1.
        3   -1    0    0  501    0  0.00000000000E+00  0.00000000000E+00 -0.96497518117E+03  0.96497518645E+03  0.10100000352E+00 0. -1.
    10030    2    1    2    0    0  0.00000000000E+00  0.00000000000E+00 -0.75863809532E+03  0.11713122970E+04  0.89243528475E+03 0.  0.
        5    1    3    3  502    0  0.67723760495E+02 -0.30256472291E+03 -0.80045485554E+03  0.85841830423E+03  0.46999998093E+01 0. -1.
       -5    1    3    3    0  502 -0.67723760495E+02  0.30256472291E+03  0.41816760218E+02  0.31289399278E+03  0.46999998093E+01 0.  1.
</event>
<event>
 5   0  0.2295158E-03  0.9059960E+03  0.7818609E-02  0.9418117E-01
        1   -1    0    0  501    0  0.00000000000E+00  0.00000000000E+00  0.64427429534E+03  0.64427429536E+03  0.50400001928E-02 0.  1.
       -1   -1    0    0    0  501  0.00000000000E+00  0.00000000000E+00 -0.31850906568E+03  0.31850906572E+03  0.50400001928E-02 0. -1.
    10030    2    1    2    0    0  0.00000000000E+00  0.00000000000E+00  0.32576522965E+03  0.96278336108E+03  0.90599603504E+03 0.  0.
        4    1    3    3  502    0  0.38728271823E+03  0.22899225750E+03  0.10684974228E+03  0.46243252282E+03  0.12699999809E+01 0. -1.
       -4    1    3    3    0  502 -0.38728271823E+03 -0.22899225750E+03  0.21891548738E+03  0.50035083826E+03  0.12699999809E+01 0.  1.
</event>
<event>
 5   0  0.2130975E-03  0.9001101E+03  0.7818609E-02  0.9425444E-01
        1   -1    0    0  501    0  0.00000000000E+00  0.00000000000E+00  0.14831257154E+04  0.14831257154E+04  0.50400001928E-02 0. -1.
       -1   -1    0    0    0  501  0.00000000000E+00  0.00000000000E+00 -0.13656937276E+03  0.13656937285E+03  0.50400001928E-02 0.  1.
    10030    2    1    2    0    0  0.00000000000E+00  0.00000000000E+00  0.13465563426E+04  0.16196950883E+04  0.90011010162E+03 0.  0.
        5    1    3    3  502    0 -0.36786098635E+03  0.67305749896E+02  0.11237702820E+04  0.11843705105E+04  0.46999998093E+01 0. -1.
       -5    1    3    3    0  502  0.36786098635E+03 -0.67305749896E+02  0.22278606059E+03  0.43532457780E+03  0.46999998093E+01 0.  1.
</event>
<event>
 5   0  0.3815269E-03  0.8943869E+03  0.7818609E-02  0.9432625E-01
       -2   -1    0    0    0  501  0.00000000000E+00  0.00000000000E+00  0.38409938244E+03  0.38409938244E+03  0.25500000920E-02 0. -1.
        2   -1    0    0  501    0  0.00000000000E+00  0.00000000000E+00 -0.52065170930E+03  0.52065170930E+03  0.25500000920E-02 0.  1.
    10030    2    1    2    0    0  0.00000000000E+00  0.00000000000E+00 -0.13655232686E+03  0.90475109175E+03  0.89438694090E+03 0.  0.
        5    1    3    3  502    0  0.44149380125E+03 -0.51479872275E+02 -0.11776087500E+03  0.45984417738E+03  0.46999998093E+01 0. -1.
       -5    1    3    3    0  502 -0.44149380125E+03  0.51479872275E+02 -0.18791451865E+02  0.44490691437E+03  0.46999998093E+01 0.  1.
</event>
<event>
 5   0  0.2134145E-03  0.9114072E+03  0.7818609E-02  0.9411433E-01
       -1   -1    0    0    0  501  0.00000000000E+00  0.00000000000E+00  0.27183314869E+03  0.27183314873E+03  0.50400001928E-02 0. -1.
        1   -1    0    0  501    0  0.00000000000E+00  0.00000000000E+00 -0.76394580287E+03  0.76394580289E+03  0.50400001928E-02 0.  1.
    10030    2    1    2    0    0  0.00000000000E+00  0.00000000000E+00 -0.49211265419E+03  0.10357789516E+04  0.91140724828E+03 0.  0.
        1    1    3    3  502    0  0.36097390836E+03  0.12334408138E+03  0.37262026152E+02  0.38328107642E+03  0.50400001928E-02 0. -1.
       -1    1    3    3    0  502 -0.36097390836E+03 -0.12334408138E+03 -0.52937468034E+03  0.65249787520E+03  0.50400001928E-02 0.  1.
</event>
<event>
 5   0  0.3815269E-03  0.8704599E+03  0.7818609E-02  0.9463280E-01
       -2   -1    0    0    0  501  0.00000000000E+00  0.00000000000E+00  0.55112086000E+03  0.55112086001E+03  0.25500000920E-02 0. -1.
        2   -1    0    0  501    0  0.00000000000E+00  0.00000000000E+00 -0.34370881654E+03  0.34370881655E+03  0.25500000920E-02 0.  1.
    10030    2    1    2    0    0  0.00000000000E+00  0.00000000000E+00  0.20741204347E+03  0.89482967655E+03  0.87045987516E+03 0.  0.
        5    1    3    3  502    0 -0.17737676670E+03 -0.22779458245E+03  0.43847653883E+03  0.52501109918E+03  0.46999998093E+01 0. -1.
       -5    1    3    3    0  502  0.17737676670E+03  0.22779458245E+03 -0.23106449536E+03  0.36981857738E+03  0.46999998093E+01 0.  1.
</event>
<event>
 5   0  0.2074970E-03  0.8982684E+03  0.7818609E-02  0.9427749E-01
       -1   -1    0    0    0  501  0.00000000000E+00  0.00000000000E+00  0.41304017429E+03  0.41304017432E+03  0.50400001928E-02 0.  1.
        1   -1    0    0  501    0  0.00000000000E+00  0.00000000000E+00 -0.48838233744E+03  0.48838233746E+03  0.50400001928E-02 0. -1.
    10030    2    1    2    0    0  0.00000000000E+00  0.00000000000E+00 -0.75342163145E+02  0.90142251178E+03  0.89826839152E+03 0.  0.
        2    1    3    3  502    0 -0.43526276332E+02 -0.19754822179E+03  0.36473782561E+03  0.41707735266E+03  0.25500000920E-02 0.  1.
       -2    1    3    3    0  502  0.43526276332E+02  0.19754822179E+03 -0.44007998875E+03  0.48434515913E+03  0.25500000920E-02 0. -1.
</event>
<event>
 5   0  0.2129280E-03  0.8977317E+03  0.7818609E-02  0.9428421E-01
       -1   -1    0    0    0  501  0.00000000000E+00  0.00000000000E+00  0.31563949348E+03  0.31563949352E+03  0.50400001928E-02 0. -1.
        1   -1    0    0  501    0  0.00000000000E+00  0.00000000000E+00 -0.63832484145E+03  0.63832484147E+03  0.50400001928E-02 0.  1.
    10030    2    1    2    0    0  0.00000000000E+00  0.00000000000E+00 -0.32268534797E+03  0.95396433499E+03  0.89773165180E+03 0.  0.
        3    1    3    3  502    0  0.89384577835E+02  0.28297962439E+03  0.19652121695E+03  0.35593211359E+03  0.10100000352E+00 0. -1.
       -3    1    3    3    0  502 -0.89384577835E+02 -0.28297962439E+03 -0.51920656492E+03  0.59803222140E+03  0.10100000352E+00 0.  1.
</event>
<event>
 5   0  0.1436000E-03  0.8988796E+03  0.7818609E-02  0.9426983E-01
       -3   -1    0    0    0  501  0.00000000000E+00  0.00000000000E+00  0.37653364358E+03  0.37653365713E+03  0.10100000352E+00 0. -1.
        3   -1    0    0  501    0  0.00000000000E+00  0.00000000000E+00 -0.53646236290E+03  0.53646237240E+03  0.10100000352E+00 0.  1.
    10030    2    1    2    0    0  0.00000000000E+00  0.00000000000E+00 -0.15992871931E+03  0.91299602953E+03  0.89887961078E+03 0.  0.
        3    1    3    3  502    0  0.95810990862E+02 -0.37945200445E+03  0.14448692751E+03  0.41718107828E+03  0.10100000352E+00 0. -1.
       -3    1    3    3    0  502 -0.95810990862E+02  0.37945200445E+03 -0.30441564682E+03  0.49581495125E+03  0.10100000352E+00 0.  1.
</event>
<event>
 5   0  0.2130975E-03  0.8921405E+03  0.7818609E-02  0.9435460E-01
        1   -1    0    0  501    0  0.00000000000E+00  0.00000000000E+00  0.93971396673E+03  0.93971396674E+03  0.50400001928E-02 0. -1.
       -1   -1    0    0    0  501  0.00000000000E+00  0.00000000000E+00 -0.21174384609E+03  0.21174384615E+03  0.50400001928E-02 0.  1.
    10030    2    1    2    0    0  0.00000000000E+00  0.00000000000E+00  0.72797012064E+03  0.11514578129E+04  0.89214045885E+03 0.  0.
        5    1    3    3  502    0 -0.33824541002E+02  0.32641892832E+03 -0.25923263736E+02  0.32922260242E+03  0.46999998093E+01 0.  1.
       -5    1    3    3    0  502  0.33824541002E+02 -0.32641892832E+03  0.75389338438E+03  0.82223521048E+03  0.46999998093E+01 0. -1.
</event>
<event>
 5   0  0.3806019E-03  0.8974516E+03  0.7818609E-02  0.9428773E-01
       -2   -1    0    0    0  501  0.00000000000E+00  0.00000000000E+00  0.13136212012E+03  0.13136212014E+03  0.25500000920E-02 0.  1.
        2   -1    0    0  501    0  0.00000000000E+00  0.00000000000E+00 -0.15328228446E+04  0.15328228446E+04  0.25500000920E-02 0. -1.
    10030    2    1    2    0    0  0.00000000000E+00  0.00000000000E+00 -0.14014607244E+04  0.16641849647E+04  0.89745163356E+03 0.  0.
        2    1    3    3  502    0  0.14637912669E+03  0.78546804495E+02  0.72241095616E+02  0.18114973124E+03  0.25500000920E-02 0.  1.
       -2    1    3    3    0  502 -0.14637912669E+03 -0.78546804495E+02 -0.14737018201E+04  0.14830352335E+04  0.25500000920E-02 0. -1.
</event>
<event>
 5   0  0.3685879E-03  0.9002232E+03  0.7818609E-02  0.9425302E-01
        2   -1    0    0  501    0  0.00000000000E+00  0.00000000000E+00  0.81816553833E+03  0.81816553834E+03  0.25500000920E-02 0.  1.
       -2   -1    0    0    0  501  0.00000000000E+00  0.00000000000E+00 -0.24762768592E+03  0.24762768593E+03  0.25500000920E-02 0. -1.
    10030    2    1    2    0    0  0.00000000000E+00  0.00000000000E+00  0.57053785242E+03  0.10657932243E+04  0.90022317003E+03 0.  0.
        1    1    3    3  502    0 -0.44525379058E+03  0.45182402367E+02  0.34214708232E+03  0.56334448917E+03  0.50400001928E-02 0.  1.
       -1    1    3    3    0  502  0.44525379058E+03 -0.45182402367E+02  0.22839077010E+03  0.50244873510E+03  0.50400001928E-02 0. -1.
</event>
<event>
 5   0  0.2134145E-03  0.8971930E+03  0.7818609E-02  0.9429097E-01
       -1   -1    0    0    0  501  0.00000000000E+00  0.00000000000E+00  0.27670075821E+03  0.27670075825E+03  0.50400001928E-02 0.  1.
        1   -1    0    0  501    0  0.00000000000E+00  0.00000000000E+00 -0.72727967828E+03  0.72727967830E+03  0.50400001928E-02 0. -1.
    10030    2    1    2    0    0  0.00000000000E+00  0.00000000000E+00 -0.45057892007E+03  0.10039804366E+04  0.89719304153E+03 0.  0.
        1    1    3    3  502    0 -0.41522762900E+03  0.90519503445E+02 -0.64558228476E+02  0.42985524223E+03  0.50400001928E-02 0. -1.
       -1    1    3    3    0  502  0.41522762900E+03 -0.90519503445E+02 -0.38602069160E+03  0.57412519432E+03  0.50400001928E-02 0.  1.
</event>
<event>
 5   0  0.2129280E-03  0.9063916E+03  0.7818609E-02  0.9417627E-01
        1   -1    0    0  501    0  0.00000000000E+00  0.00000000000E+00  0.14292045179E+03  0.14292045188E+03  0.50400001928E-02 0. -1.
       -1   -1    0    0    0  501  0.00000000000E+00  0.00000000000E+00 -0.14370682416E+04  0.14370682416E+04  0.50400001928E-02 0.  1.
    10030    2    1    2    0    0  0.00000000000E+00  0.00000000000E+00 -0.12941477898E+04  0.15799886935E+04  0.90639162048E+03 0.  0.
        3    1    3    3  502    0  0.39727233023E+03 -0.83964203063E+02 -0.99792700610E+03  0.10773734782E+04  0.10100000352E+00 0. -1.
       -3    1    3    3    0  502 -0.39727233023E+03  0.83964203063E+02 -0.29622078372E+03  0.50261521532E+03  0.10100000352E+00 0.  1.
</event>
<event>
 5   0  0.2129280E-03  0.8941284E+03  0.7818609E-02  0.9432951E-01
        1   -1    0    0  501    0  0.00000000000E+00  0.00000000000E+00  0.58501084808E+03  0.58501084810E+03  0.50400001928E-02 0. -1.
       -1   -1    0    0    0  501  0.00000000000E+00  0.00000000000E+00 -0.34164559049E+03  0.34164559053E+03  0.50400001928E-02 0.  1.
    10030    2    1    2    0    0  0.00000000000E+00  0.00000000000E+00  0.24336525759E+03  0.92665643864E+03  0.89412835022E+03 0.  0.
        3    1    3    3  502    0 -0.11958005726E+03  0.42105805395E+03  0.27394338166E+02  0.43856554226E+03  0.10100000352E+00 0. -1.
       -3    1    3    3    0  502  0.11958005726E+03 -0.42105805395E+03  0.21597091942E+03  0.48809089638E+03  0.10100000352E+00 0.  1.
</event>
<event>
 5   0  0.2074970E-03  0.8750616E+03  0.7818609E-02  0.9457304E-01
       -1   -1    0    0    0  501  0.00000000000E+00  0.00000000000E+00  0.68097997453E+03  0.68097997454E+03  0.50400001928E-02 0.  1.
        1   -1    0    0  501    0  0.00000000000E+00  0.00000000000E+00 -0.28111428105E+03  0.28111428110E+03  0.50400001928E-02 0. -1.
    10030    2    1    2    0    0  0.00000000000E+00  0.00000000000E+00  0.39986569348E+03  0.96209425564E+03  0.87506158864E+03 0.  0.
        2    1    3    3  502    0  0.10770919713E+03 -0.19559123639E+03 -0.21375599718E+03  0.30910973656E+03  0.25500000920E-02 0. -1.
       -2    1    3    3    0  502 -0.10770919713E+03  0.19559123639E+03  0.61362169066E+03  0.65298451908E+03  0.25500000920E-02 0.  1.
</event>
<event>
 5   0  0.3685879E-03  0.8979942E+03  0.7818609E-02  0.9428092E-01
       -2   -1    0    0    0  501  0.00000000000E+00  0.00000000000E+00  0.31219167752E+03  0.31219167753E+03  0.25500000920E-02 0. -1.
        2   -1    0    0  501    0  0.00000000000E+00  0.00000000000E+00 -0.64575204137E+03  0.64575204137E+03  0.25500000920E-02 0.  1.
    10030    2    1    2    0    0  0.00000000000E+00  0.00000000000E+00 -0.33356036385E+03  0.95794371890E+03  0.89799423843E+03 0.  0.
        1    1    3    3  502    0  0.35167166071E+02  0.38772881103E+03 -0.40538172209E+03  0.56205400194E+03  0.50400001928E-02 0.  1.
       -1    1    3    3    0  502 -0.35167166071E+02 -0.38772881103E+03  0.71821358238E+02  0.39588971696E+03  0.50400001928E-02 0. -1.
</event>
<event>
 5   0  0.3626546E-03  0.8982545E+03  0.7818609E-02  0.9427766E-01
        2   -1    0    0  501    0  0.00000000000E+00  0.00000000000E+00  0.13500174032E+04  0.13500174032E+04  0.25500000920E-02 0.  1.
       -2   -1    0    0    0  501  0.00000000000E+00  0.00000000000E+00 -0.14941679698E+03  0.14941679700E+03  0.25500000920E-02 0. -1.
    10030    2    1    2    0    0  0.00000000000E+00  0.00000000000E+00  0.12006006063E+04  0.14994342002E+04  0.89825447681E+03 0.  0.
        3    1    3    3  502    0  0.15021266676E+03  0.38042307601E+03  0.91003842943E+03  0.99772517020E+03  0.10100000352E+00 0.  1.
       -3    1    3    3    0  502 -0.15021266676E+03 -0.38042307601E+03  0.29056217682E+03  0.50170903003E+03  0.10100000352E+00 0. -1.
</event>
<event>
 5   0  0.2129280E-03  0.9002599E+03  0.7818609E-02  0.9425257E-01
        1   -1    0    0  501    0  0.00000000000E+00  0.00000000000E+00  0.36174026020E+03  0.36174026023E+03  0.50400001928E-02 0.  1.
       -1   -1    0    0    0  501  0.00000000000E+00  0.00000000000E+00 -0.56011726496E+03  0.56011726498E+03  0.50400001928E-02 0. -1.
    10030    2    1    2    0    0  0.00000000000E+00  0.00000000000E+00 -0.19837700476E+03  0.92185752521E+03  0.90025988513E+03 0.  0.
        3    1    3    3  502    0 -0.68417695667E+02  0.10018797502E+03 -0.54306012647E+03  0.55644669339E+03  0.10100000352E+00 0. -1.
       -3    1    3    3    0  502  0.68417695667E+02 -0.10018797502E+03  0.34468312171E+03  0.36541083182E+03  0.10100000352E+00 0.  1.
</event>
<event>
 5   0  0.3663255E-03  0.9011720E+03  0.7818609E-02  0.9424118E-01
       -2   -1    0    0    0  501  0.00000000000E+00  0.00000000000E+00  0.52312413951E+03  0.52312413952E+03  0.25500000920E-02 0.  1.
        2   -1    0    0  501    0  0.00000000000E+00  0.00000000000E+00 -0.38810622308E+03  0.38810622308E+03  0.25500000920E-02 0. -1.
    10030    2    1    2    0    0  0.00000000000E+00  0.00000000000E+00  0.13501791643E+03  0.91123036260E+03  0.90117197913E+03 0.  0.
        4    1    3    3  502    0  0.29212211101E+03  0.28607675943E+03 -0.12394767584E+03  0.42724685988E+03  0.12699999809E+01 0.  1.
       -4    1    3    3    0  502 -0.29212211101E+03 -0.28607675943E+03  0.25896559227E+03  0.48398350272E+03  0.12699999809E+01 0. -1.
</event>
<event>
 5   0  0.2129280E-03  0.9000527E+03  0.7818609E-02  0.9425516E-01
       -1   -1    0    0    0  501  0.00000000000E+00  0.00000000000E+00  0.21995432264E+03  0.21995432270E+03  0.50400001928E-02 0. -1.
        1   -1    0    0  501    0  0.00000000000E+00  0.00000000000E+00 -0.92075342868E+03  0.92075342870E+03  0.50400001928E-02 0.  1.
    10030    2    1    2    0    0  0.00000000000E+00  0.00000000000E+00 -0.70079910604E+03  0.11407077514E+04  0.90005265795E+03 0.  0.
        3    1    3    3  502    0  0.53441922600E+02 -0.28516722684E+03 -0.78639871193E+03  0.83821198434E+03  0.10100000352E+00 0.  1.
       -3    1    3    3    0  502 -0.53441922600E+02  0.28516722684E+03  0.85599605897E+02  0.30249576706E+03  0.10100000352E+00 0. -1.
</event>
<event>
 5   0  0.2129280E-03  0.9022905E+03  0.7818609E-02  0.9422723E-01
       -1   -1    0    0    0  501  0.00000000000E+00  0.00000000000E+00  0.23401888212E+03  0.23401888218E+03  0.50400001928E-02 0. -1.
        1   -1    0    0  501    0  0.00000000000E+00  0.00000000000E+00 -0.86972478790E+03  0.86972478792E+03  0.50400001928E-02 0.  1.
    10030    2    1    2    0    0  0.00000000000E+00  0.00000000000E+00 -0.63570590578E+03  0.11037436701E+04  0.90229046910E+03 0.  0.
        3    1    3    3  502    0 -0.40738869087E+03  0.13600912866E+03 -0.14893560868E+03  0.45458316539E+03  0.10100000352E+00 0. -1.
       -3    1    3    3    0  502  0.40738869087E+03 -0.13600912866E+03 -0.48677029710E+03  0.64916050470E+03  0.10100000352E+00 0.  1.
</event>
<event>
 5   0  0.3815269E-03  0.8997309E+03  0.7818609E-02  0.9425918E-01
        2   -1    0    0  501    0  0.00000000000E+00  0.00000000000E+00  0.45372687445E+03  0.45372687446E+03  0.25500000920E-02 0. -1.
       -2   -1    0    0    0  501  0.00000000000E+00  0.00000000000E+00 -0.44603692433E+03  0.44603692434E+03  0.25500000920E-02 0.  1.
    10030    2    1    2    0    0  0.00000000000E+00  0.00000000000E+00  0.76899501219E+01  0.89976379880E+03  0.89973093661E+03 0.  0.
        5    1    3    3  502    0  0.33007438553E+03  0.26611488270E+03 -0.14646227376E+03  0.44859727865E+03  0.46999998093E+01 0.  1.
       -5    1    3    3    0  502 -0.33007438553E+03 -0.26611488270E+03  0.15415222389E+03  0.45116652015E+03  0.46999998093E+01 0. -1.
</event>
<event>
 5   0  0.2295158E-03  0.9002134E+03  0.7818609E-02  0.9425315E-01
       -1   -1    0    0    0  501  0.00000000000E+00  0.00000000000E+00  0.79872034727E+03  0.79872034729E+03  0.50400001928E-02 0. -1.
        1   -1    0    0  501    0  0.00000000000E+00  0.00000000000E+00 -0.25365080883E+03  0.25365080888E+03  0.50400001928E-02 0.  1.
    10030    2    1    2    0    0  0.00000000000E+00  0.00000000000E+00  0.54506953844E+03  0.10523711562E+04  0.90021344613E+03 0.  0.
        4    1    3    3  502    0  0.36551186091E+03 -0.20588342122E+03  0.46322386030E+03  0.62495188715E+03  0.12699999809E+01 0.  1.
       -4    1    3    3    0  502 -0.36551186091E+03  0.20588342122E+03  0.81845678139E+02  0.42741926902E+03  0.12699999809E+01 0. -1.
</event>
<event>
 5   0  0.2129280E-03  0.8874182E+03  0.7818609E-02  0.9441447E-01
        1   -1    0    0  501    0  0.00000000000E+00  0.00000000000E+00  0.34027854216E+03  0.34027854220E+03  0.50400001928E-02 0. -1.
       -1   -1    0    0    0  501  0.00000000000E+00  0.00000000000E+00 -0.57857819595E+03  0.57857819598E+03  0.50400001928E-02 0.  1.
    10030    2    1    2    0    0  0.00000000000E+00  0.00000000000E+00 -0.23829965379E+03  0.91885673817E+03  0.88741815413E+03 0.  0.
        3    1    3    3  502    0  0.25566363198E+02  0.21764152121E+03  0.28033754291E+03  0.35582385930E+03  0.10100000352E+00 0. -1.
       -3    1    3    3    0  502 -0.25566363198E+02 -0.21764152121E+03 -0.51863719670E+03  0.56303287887E+03  0.10100000352E+00 0.  1.
</event>
<event>
 5   0  0.3806019E-03  0.8861227E+03  0.7818609E-02  0.9443097E-01
       -2   -1    0    0    0  501  0.00000000000E+00  0.00000000000E+00  0.34199603341E+03  0.34199603342E+03  0.25500000920E-02 0. -1.
        2   -1    0    0  501    0  0.00000000000E+00  0.00000000000E+00 -0.57399309116E+03  0.57399309117E+03  0.25500000920E-02 0.  1.
    10030    2    1    2    0    0  0.00000000000E+00  0.00000000000E+00 -0.23199705775E+03  0.91598912458E+03  0.88612270118E+03 0.  0.
        2    1    3    3  502    0  0.12872306006E+03 -0.71477032245E+02  0.31596728307E+03  0.34858846267E+03  0.25500000920E-02 0. -1.
       -2    1    3    3    0  502 -0.12872306006E+03  0.71477032245E+02 -0.54796434082E+03  0.56740066192E+03  0.25500000920E-02 0.  1.
</event>
<event>
 5   0  0.2295158E-03  0.9000731E+03  0.7818609E-02  0.9425490E-01
        1   -1    0    0  501    0  0.00000000000E+00  0.00000000000E+00  0.14529626685E+04  0.14529626685E+04  0.50400001928E-02 0. -1.
       -1   -1    0    0    0  501  0.00000000000E+00  0.00000000000E+00 -0.13939306434E+03  0.13939306444E+03  0.50400001928E-02 0.  1.
    10030    2    1    2    0    0  0.00000000000E+00  0.00000000000E+00  0.13135696041E+04  0.15923557329E+04  0.90007314995E+03 0.  0.
        4    1    3    3  502    0 -0.42231572442E+03  0.13811371912E+03  0.78319276401E+03  0.90045460130E+03  0.12699999809E+01 0. -1.
       -4    1    3    3    0  502  0.42231572442E+03 -0.13811371912E+03  0.53037684011E+03  0.69190113161E+03  0.12699999809E+01 0.  1.
</event>
<event>
 5   0  0.3685879E-03  0.9002389E+03  0.7818609E-02  0.9425283E-01
       -2   -1    0    0    0  501  0.00000000000E+00  0.00000000000E+00  0.13592964959E+03  0.13592964961E+03  0.25500000920E-02 0.  1.
        2   -1    0    0  501    0  0.00000000000E+00  0.00000000000E+00 -0.14905321814E+04  0.14905321814E+04  0.25500000920E-02 0. -1.
    10030    2    1    2    0    0  0.00000000000E+00  0.00000000000E+00 -0.13546025318E+04  0.16264618310E+04  0.90023889526E+03 0.  0.
        1    1    3    3  502    0 -0.30812841239E+03 -0.32305691971E+03 -0.78106667201E+03  0.89965217615E+03  0.50400001928E-02 0. -1.
       -1    1    3    3    0  502  0.30812841239E+03  0.32305691971E+03 -0.57353585978E+03  0.72680965484E+03  0.50400001928E-02 0.  1.
</event>
<event>
 5   0  0.2074970E-03  0.8974175E+03  0.7818609E-02  0.9428815E-01
        1   -1    0    0  501    0  0.00000000000E+00  0.00000000000E+00  0.11176776220E+04  0.11176776220E+04  0.50400001928E-02 0.  1.
       -1   -1    0    0    0  501  0.00000000000E+00  0.00000000000E+00 -0.18014097665E+03  0.18014097672E+03  0.50400001928E-02 0. -1.
    10030    2    1    2    0    0  0.00000000000E+00  0.00000000000E+00  0.93753664535E+03  0.12978185987E+04  0.89741749139E+03 0.  0.
        2    1    3    3  502    0 -0.14499321019E+03  0.40827342855E+03  0.29993565683E+03  0.52694555858E+03  0.25500000920E-02 0. -1.
       -2    1    3    3    0  502  0.14499321019E+03 -0.40827342855E+03  0.63760098853E+03  0.77087304016E+03  0.25500000920E-02 0.  1.
</event>
<event>
 5   0  0.2295158E-03  0.8972900E+03  0.7818609E-02  0.9428975E-01
        1   -1    0    0  501    0  0.00000000000E+00  0.00000000000E+00  0.34996266616E+03  0.34996266620E+03  0.50400001928E-02 0. -1.
       -1   -1    0    0    0  501  0.00000000000E+00  0.00000000000E+00 -0.57515368246E+03  0.57515368248E+03  0.50400001928E-02 0.  1.
    10030    2    1    2    0    0  0.00000000000E+00  0.00000000000E+00 -0.22519101629E+03  0.92511634868E+03  0.89728995580E+03 0.  0.
        4    1    3    3  502    0 -0.24397512890E+03 -0.24549184232E+03 -0.40691382711E+03  0.53420088334E+03  0.12699999809E+01 0.  1.
       -4    1    3    3    0  502  0.24397512890E+03  0.24549184232E+03  0.18172281082E+03  0.39091546534E+03  0.12699999809E+01 0. -1.
</event>
<event>
 5   0  0.3626546E-03  0.9003410E+03  0.7818609E-02  0.9425155E-01
       -2   -1    0    0    0  501  0.00000000000E+00  0.00000000000E+00  0.41246546372E+03  0.41246546372E+03  0.25500000920E-02 0.  1.
        2   -1    0    0  501    0  0.00000000000E+00  0.00000000000E+00 -0.49132225009E+03  0.49132225010E+03  0.25500000920E-02 0. -1.
    10030    2    1    2    0    0  0.00000000000E+00  0.00000000000E+00 -0.78856786377E+02  0.90378771382E+03  0.90034095703E+03 0.  0.
        3    1    3    3  502    0  0.35374924817E+02  0.44849144159E+03 -0.55536351068E+02  0.45329929956E+03  0.10100000352E+00 0.  1.
       -3    1    3    3    0  502 -0.35374924817E+02 -0.44849144159E+03 -0.23320435309E+02  0.45048841427E+03  0.10100000352E+00 0. -1.
</event>
<event>
 5   0  0.2129280E-03  0.8886613E+03  0.7818609E-02  0.9439867E-01
       -1   -1    0    0    0  501  0.00000000000E+00  0.00000000000E+00  0.26050076817E+03  0.26050076822E+03  0.50400001928E-02 0.  1.
        1   -1    0    0  501    0  0.00000000000E+00  0.00000000000E+00 -0.75788540772E+03  0.75788540774E+03  0.50400001928E-02 0. -1.
    10030    2    1    2    0    0  0.00000000000E+00  0.00000000000E+00 -0.49738463955E+03  0.10183861760E+04  0.88866130990E+03 0.  0.
        3    1    3    3  502    0 -0.32459998850E+03  0.55001651690E+01  0.98964792327E+02  0.33939570514E+03  0.10100000352E+00 0.  1.
       -3    1    3    3    0  502  0.32459998850E+03 -0.55001651690E+01 -0.59634943188E+03  0.67899047081E+03  0.10100000352E+00 0. -1.
</event>
<event>
 5   0  0.3806019E-03  0.8984514E+03  0.7818609E-02  0.9427519E-01
        2   -1    0    0  501    0  0.00000000000E+00  0.00000000000E+00  0.10041501983E+04  0.10041501983E+04  0.25500000920E-02 0. -1.
       -2   -1    0    0    0  501  0.00000000000E+00  0.00000000000E+00 -0.20096965722E+03  0.20096965724E+03  0.25500000920E-02 0.  1.
    10030    2    1    2    0    0  0.00000000000E+00  0.00000000000E+00  0.80318054103E+03  0.12051198555E+04  0.89845138133E+03 0.  0.
        2    1    3    3  502    0 -0.31247513857E+01 -0.41182369940E+03  0.64226539729E+03  0.76296354043E+03  0.25500000920E-02 0. -1.
       -2    1    3    3    0  502  0.31247513857E+01  0.41182369940E+03  0.16091514375E+03  0.44215631507E+03  0.25500000920E-02 0.  1.
</event>
<event>
 5   0  0.3626546E-03  0.9073788E+03  0.7818609E-02  0.9416404E-01
       -2   -1    0    0    0  501  0.00000000000E+00  0.00000000000E+00  0.18294230971E+03  0.18294230973E+03  0.25500000920E-02 0. -1.
        2   -1    0    0  501    0  0.00000000000E+00  0.00000000000E+00 -0.11251309786E+04  0.11251309786E+04  0.25500000920E-02 0.  1.
    10030    2    1    2    0    0  0.00000000000E+00  0.00000000000E+00 -0.94218866889E+03  0.13080732883E+04  0.90737877420E+03 0.  0.
        3    1    3    3  502    0  0.35042398372E+03  0.27839490432E+03 -0.36385900972E+03  0.57679639413E+03  0.10100000352E+00 0.  1.
       -3    1    3    3    0  502 -0.35042398372E+03 -0.27839490432E+03 -0.57832965917E+03  0.73127689420E+03  0.10100000352E+00 0. -1.
</event>
<event>
 5   0  0.3806019E-03  0.8997139E+03  0.7818609E-02  0.9425939E-01
       -2   -1    0    0    0  501  0.00000000000E+00  0.00000000000E+00  0.32774949585E+03  0.32774949586E+03  0.25500000920E-02 0. -1.
        2   -1    0    0  501    0  0.00000000000E+00  0.00000000000E+00 -0.61745719576E+03  0.61745719576E+03  0.25500000920E-02 0.  1.
    10030    2    1    2    0    0  0.00000000000E+00  0.00000000000E+00 -0.28970769991E+03  0.94520669163E+03  0.89971392037E+03 0.  0.
        2    1    3    3  502    0  0.41295611528E+03  0.11892992327E+03 -0.51083367872E+01  0.42977107267E+03  0.25500000920E-02 0.  1.
       -2    1    3    3    0  502 -0.41295611528E+03 -0.11892992327E+03 -0.28459936312E+03  0.51543561896E+03  0.25500000920E-02 0. -1.
</event>
<event>
 5   0  0.3663255E-03  0.9001477E+03  0.7818609E-02  0.9425397E-01
       -2   -1    0    0    0  501  0.00000000000E+00  0.00000000000E+00  0.40049828787E+03  0.40049828787E+03  0.25500000920E-02 0. -1.
        2   -1    0    0  501    0  0.00000000000E+00  0.00000000000E+00 -0.50578613413E+03  0.50578613414E+03  0.25500000920E-02 0.  1.
    10030    2    1    2    0    0  0.00000000000E+00  0.00000000000E+00 -0.10528784627E+03  0.90628442201E+03  0.90014772288E+03 0.  0.
        4    1    3    3  502    0  0.23742656776E+02 -0.41115885461E+03 -0.23540153492E+03  0.47437412768E+03  0.12699999809E+01 0. -1.
       -4    1    3    3    0  502 -0.23742656776E+02  0.41115885461E+03  0.13011368866E+03  0.43191029433E+03  0.12699999809E+01 0.  1.
</event>
<event>
 5   0  0.2130975E-03  0.9000618E+03  0.7818609E-02  0.9425504E-01
       -1   -1    0    0    0  501  0.00000000000E+00  0.00000000000E+00  0.64230005084E+03  0.64230005086E+03  0.50400001928E-02 0. -1.
        1   -1    0    0  501    0  0.00000000000E+00  0.00000000000E+00 -0.31531654498E+03  0.31531654502E+03  0.50400001928E-02 0.  1.
    10030    2    1    2    0    0  0.00000000000E+00  0.00000000000E+00  0.32698350586E+03  0.95761659588E+03  0.90006184876E+03 0.  0.
        5    1    3    3  502    0 -0.11411407314E+03  0.17455373416E+03 -0.26077399181E+03  0.33394040276E+03  0.46999998093E+01 0.  1.
       -5    1    3    3    0  502  0.11411407314E+03 -0.17455373416E+03  0.58775749766E+03  0.62367619311E+03  0.46999998093E+01 0. -1.
</event>
<event>
 5   0  0.2295158E-03  0.9002315E+03  0.7818609E-02  0.9425292E-01
        1   -1    0    0  501    0  0.00000000000E+00  0.00000000000E+00  0.40558595228E+03  0.40558595231E+03  0.50400001928E-02 0.  1.
       -1   -1    0    0    0  501  0.00000000000E+00  0.00000000000E+00 -0.49953455337E+03  0.49953455339E+03  0.50400001928E-02 0. -1.
    10030    2    1    2    0    0  0.00000000000E+00  0.00000000000E+00 -0.93948601086E+02  0.90512050571E+03  0.90023152034E+03 0.  0.
        4    1    3    3  502    0  0.19324263661E+03 -0.16050545106E+03  0.32854820886E+03  0.41358222262E+03  0.12699999809E+01 0.  1.
       -4    1    3    3    0  502 -0.19324263661E+03  0.16050545106E+03 -0.42249680995E+03  0.49153828309E+03  0.12699999809E+01 0. -1.
</event>
<event>
 5   0  0.3806019E-03  0.8994232E+03  0.7818609E-02  0.9426303E-01
       -2   -1    0    0    0  501  0.00000000000E+00  0.00000000000E+00  0.76879804242E+03  0.76879804242E+03  0.25500000920E-02 0.  1.
        2   -1    0    0  501    0  0.00000000000E+00  0.00000000000E+00 -0.26306064648E+03  0.26306064649E+03  0.25500000920E-02 0. -1.
    10030    2    1    2    0    0  0.00000000000E+00  0.00000000000E+00  0.50573739594E+03  0.10318586889E+04  0.89942317084E+03 0.  0.
        2    1    3    3  502    0 -0.18388377982E+03 -0.16953407758E+03 -0.17590857555E+03  0.30577585729E+03  0.25500000920E-02 0. -1.
       -2    1    3    3    0  502  0.18388377982E+03  0.16953407758E+03  0.68164597148E+03  0.72608283163E+03  0.25500000920E-02 0.  1.
</event>
<event>
 5   0  0.3806019E-03  0.9006370E+03  0.7818609E-02  0.9424786E-01
       -2   -1    0    0    0  501  0.00000000000E+00  0.00000000000E+00  0.30472296851E+03  0.30472296852E+03  0.25500000920E-02 0. -1.
        2   -1    0    0  501    0  0.00000000000E+00  0.00000000000E+00 -0.66547897675E+03  0.66547897676E+03  0.25500000920E-02 0.  1.
    10030    2    1    2    0    0  0.00000000000E+00  0.00000000000E+00 -0.36075600824E+03  0.97020194528E+03  0.90063695079E+03 0.  0.
        2    1    3    3  502    0 -0.41053312692E+03  0.58997945714E+02 -0.36933618849E+03  0.55536242764E+03  0.25500000920E-02 0. -1.
       -2    1    3    3    0  502  0.41053312692E+03 -0.58997945714E+02  0.85801802416E+01  0.41483951764E+03  0.25500000920E-02 0.  1.
</event>
<event>
 5   0  0.1436000E-03  0.9239759E+03  0.7818609E-02  0.9396097E-01
        3   -1    0    0  501    0  0.00000000000E+00  0.00000000000E+00  0.24169368671E+03  0.24169370781E+03  0.10100000352E+00 0. -1.
       -3   -1    0    0    0  501  0.00000000000E+00  0.00000000000E+00 -0.88307169053E+03  0.88307169631E+03  0.10100000352E+00 0.  1.
    10030    2    1    2    0    0  0.00000000000E+00  0.00000000000E+00 -0.64137800382E+03  0.11247654041E+04  0.92397590364E+03 0.  0.
        2    1    3    3  502    0 -0.12538652938E+02  0.66175971029E+02 -0.87706293238E+03  0.87964530597E+03  0.25500000920E-02 0.  1.
       -2    1    3    3    0  502  0.12538652938E+02 -0.66175971029E+02  0.23568492856E+03  0.24512009815E+03  0.25500000920E-02 0. -1.
</event>
<event>
 5   0  0.3626546E-03  0.9003832E+03  0.7818609E-02  0.9425103E-01
       -2   -1    0    0    0  501  0.00000000000E+00  0.00000000000E+00  0.46768376056E+03  0.46768376056E+03  0.25500000920E-02 0.  1.
        2   -1    0    0  501    0  0.00000000000E+00  0.00000000000E+00 -0.43335366317E+03  0.43335366317E+03  0.25500000920E-02 0. -1.
    10030    2    1    2    0    0  0.00000000000E+00  0.00000000000E+00  0.34330097392E+02  0.90103742374E+03  0.90038318698E+03 0.  0.
        3    1    3    3  502    0 -0.14714721036E+03 -0.41137154297E+03 -0.91512262396E+02  0.44637803738E+03  0.10100000352E+00 0.  1.
       -3    1    3    3    0  502  0.14714721036E+03  0.41137154297E+03  0.12584235979E+03  0.45465938636E+03  0.10100000352E+00 0. -1.
</event>
<event>
 5   0  0.1436000E-03  0.8982051E+03  0.7818609E-02  0.9427828E-01
       -4   -1    0    0    0  501  0.00000000000E+00  0.00000000000E+00  0.97762387617E+03  0.97762470108E+03  0.12699999809E+01 0.  1.
        4   -1    0    0  501    0  0.00000000000E+00  0.00000000000E+00 -0.20630665345E+03  0.20631056240E+03  0.12699999809E+01 0. -1.
    10030    2    1    2    0    0  0.00000000000E+00  0.00000000000E+00  0.77131722272E+03  0.11839352635E+04  0.89820512693E+03 0.  0.
        3    1    3    3  502    0  0.60431174083E+02  0.23007249862E+03 -0.11645019297E+03  0.26485078641E+03  0.10100000352E+00 0. -1.
       -3    1    3    3    0  502 -0.60431174083E+02 -0.23007249862E+03  0.88776741569E+03  0.91908447707E+03  0.10100000352E+00 0.  1.
</event>
<event>
 5   0  0.2134145E-03  0.8994684E+03  0.7818609E-02  0.9426246E-01
       -1   -1    0    0    0  501  0.00000000000E+00  0.00000000000E+00  0.62010452738E+03  0.62010452740E+03  0.50400001928E-02 0.  1.
        1   -1    0    0  501    0  0.00000000000E+00  0.00000000000E+00 -0.32617221540E+03  0.32617221544E+03  0.50400001928E-02 0. -1.
    10030    2    1    2    0    0  0.00000000000E+00  0.00000000000E+00  0.29393231197E+03  0.94627674284E+03  0.89946843747E+03 0.  0.
        1    1    3    3  502    0  0.28400138585E+03 -0.34815188711E+03  0.12607464980E+03  0.46664905552E+03  0.50400001928E-02 0. -1.
       -1    1    3    3    0  502 -0.28400138585E+03  0.34815188711E+03  0.16785766217E+03  0.47962768732E+03  0.50400001928E-02 0.  1.
</event>
<event>
 5   0  0.3806019E-03  0.9029586E+03  0.7818609E-02  0.9421891E-01
       -2   -1    0    0    0  501  0.00000000000E+00  0.00000000000E+00  0.45658181433E+03  0.45658181433E+03  0.25500000920E-02 0.  1.
        2   -1    0    0  501    0  0.00000000000E+00  0.00000000000E+00 -0.44643381042E+03  0.44643381043E+03  0.25500000920E-02 0. -1.
    10030    2    1    2    0    0  0.00000000000E+00  0.00000000000E+00  0.10148003904E+02  0.90301562477E+03  0.90295860181E+03 0.  0.
        2    1    3    3  502    0  0.21321489742E+03 -0.39612305056E+03  0.43279758309E+02  0.45193716505E+03  0.25500000920E-02 0.  1.
       -2    1    3    3    0  502 -0.21321489742E+03  0.39612305056E+03 -0.33131754404E+02  0.45107845972E+03  0.25500000920E-02 0. -1.
</event>
<event>
 5   0  0.3815269E-03  0.9002903E+03  0.7818609E-02  0.9425219E-01
        2   -1    0    0  501    0  0.00000000000E+00  0.00000000000E+00  0.47375444975E+03  0.47375444975E+03  0.25500000920E-02 0. -1.
       -2   -1    0    0    0  501  0.00000000000E+00  0.00000000000E+00 -0.42771240536E+03  0.42771240536E+03  0.25500000920E-02 0.  1.
    10030    2    1    2    0    0  0.00000000000E+00  0.00000000000E+00  0.46042044389E+02  0.90146685512E+03  0.90029029819E+03 0.  0.
        5    1    3    3  502    0 -0.25634675063E+03  0.32999062717E+03 -0.14453293851E+03  0.44217567876E+03  0.46999998093E+01 0.  1.
       -5    1    3    3    0  502  0.25634675063E+03 -0.32999062717E+03  0.19057498290E+03  0.45929117636E+03  0.46999998093E+01 0. -1.
</event>
<event>
 5   0  0.1436000E-03  0.9017771E+03  0.7818609E-02  0.9423363E-01
        4   -1    0    0  501    0  0.00000000000E+00  0.00000000000E+00  0.39684621827E+03  0.39684825041E+03  0.12699999809E+01 0. -1.
       -4   -1    0    0    0  501  0.00000000000E+00  0.00000000000E+00 -0.51228619187E+03  0.51228776609E+03  0.12699999809E+01 0.  1.
    10030    2    1    2    0    0  0.00000000000E+00  0.00000000000E+00 -0.11543997360E+03  0.90913601650E+03  0.90177708387E+03 0.  0.
        3    1    3    3  502    0 -0.12678049261E+03  0.41767075278E+03 -0.17168367101E+03  0.46903885140E+03  0.10100000352E+00 0. -1.
       -3    1    3    3    0  502  0.12678049261E+03 -0.41767075278E+03  0.56243697404E+02  0.44009716510E+03  0.10100000352E+00 0.  1.
</event>
<event>
 5   0  0.2130975E-03  0.8672782E+03  0.7818609E-02  0.9467436E-01
       -1   -1    0    0    0  501  0.00000000000E+00  0.00000000000E+00  0.34468818862E+03  0.34468818866E+03  0.50400001928E-02 0. -1.
        1   -1    0    0  501    0  0.00000000000E+00  0.00000000000E+00 -0.54554481968E+03  0.54554481970E+03  0.50400001928E-02 0.  1.
    10030    2    1    2    0    0  0.00000000000E+00  0.00000000000E+00 -0.20085663106E+03  0.89023300836E+03  0.86727816929E+03 0.  0.
        5    1    3    3  502    0 -0.96970368694E+02  0.29081221365E+03 -0.41521395466E+03  0.51613923911E+03  0.46999998093E+01 0.  1.
       -5    1    3    3    0  502  0.96970368694E+02 -0.29081221365E+03  0.21435732360E+03  0.37409376925E+03  0.46999998093E+01 0. -1.
</event>
<event>
 5   0  0.3663255E-03  0.8897078E+03  0.7818609E-02  0.9438539E-01
        2   -1    0    0  501    0  0.00000000000E+00  0.00000000000E+00  0.37740741114E+03  0.37740741115E+03  0.25500000920E-02 0.  1.
       -2   -1    0    0    0  501  0.00000000000E+00  0.00000000000E+00 -0.52435378523E+03  0.52435378523E+03  0.25500000920E-02 0. -1.
    10030    2    1    2    0    0  0.00000000000E+00  0.00000000000E+00 -0.14694637408E+03  0.90176119639E+03  0.88970782758E+03 0.  0.
        4    1    3    3  502    0 -0.11381482072E+03  0.27128037931E+03 -0.41168010240E+03  0.50599306045E+03  0.12699999809E+01 0. -1.
       -4    1    3    3    0  502  0.11381482072E+03 -0.27128037931E+03  0.26473372832E+03  0.39576813594E+03  0.12699999809E+01 0.  1.
</event>
<event>
 5   0  0.2129280E-03  0.8459793E+03  0.7818609E-02  0.9495749E-01
       -1   -1    0    0    0  501  0.00000000000E+00  0.00000000000E+00  0.29571748955E+03  0.29571748959E+03  0.50400001928E-02 0. -1.
        1   -1    0    0  501    0  0.00000000000E+00  0.00000000000E+00 -0.60503774347E+03  0.60503774349E+03  0.50400001928E-02 0.  1.
    10030    2    1    2    0    0  0.00000000000E+00  0.00000000000E+00 -0.30932025392E+03  0.90075523308E+03  0.84597929669E+03 0.  0.
        3    1    3    3  502    0  0.20378120583E+03  0.17142857767E+03  0.19526117986E+03  0.33021428748E+03  0.10100000352E+00 0. -1.
       -3    1    3    3    0  502 -0.20378120583E+03 -0.17142857767E+03 -0.50458143378E+03  0.57054094560E+03  0.10100000352E+00 0.  1.
</event>
<event>
 5   0  0.2074970E-03  0.9024276E+03  0.7818609E-02  0.9422552E-01
        1   -1    0    0  501    0  0.00000000000E+00  0.00000000000E+00  0.63247474143E+03  0.63247474145E+03  0.50400001928E-02 0. -1.
       -1   -1    0    0    0  501  0.00000000000E+00  0.00000000000E+00 -0.32190040316E+03  0.32190040320E+03  0.50400001928E-02 0.  1.
    10030    2    1    2    0    0  0.00000000000E+00  0.00000000000E+00  0.31057433827E+03  0.95437514466E+03  0.90242755784E+03 0.  0.
        2    1    3    3  502    0  0.23420469177E+03  0.10268144129E+03  0.54843739300E+03  0.60512716851E+03  0.25500000920E-02 0. -1.
       -2    1    3    3    0  502 -0.23420469177E+03 -0.10268144129E+03 -0.23786305472E+03  0.34924797614E+03  0.25500000920E-02 0.  1.
</event>
<event>
 5   0  0.3806019E-03  0.8957114E+03  0.7818609E-02  0.9430958E-01
        2   -1    0    0  501    0  0.00000000000E+00  0.00000000000E+00  0.77239176171E+03  0.77239176171E+03  0.25500000920E-02 0.  1.
       -2   -1    0    0    0  501  0.00000000000E+00  0.00000000000E+00 -0.25968003611E+03  0.25968003612E+03  0.25500000920E-02 0. -1.
    10030    2    1    2    0    0  0.00000000000E+00  0.00000000000E+00  0.51271172560E+03  0.10320717978E+04  0.89571138338E+03 0.  0.
        2    1    3    3  502    0 -0.31786193310E+03  0.70191697940E+02 -0.98060771477E+02  0.33996911313E+03  0.25500000920E-02 0. -1.
       -2    1    3    3    0  502  0.31786193310E+03 -0.70191697940E+02  0.61077249708E+03  0.69210268470E+03  0.25500000920E-02 0.  1.
</event>
<event>
 5   0  0.3815269E-03  0.9002526E+03  0.7818609E-02  0.9425266E-01
       -2   -1    0    0    0  501  0.00000000000E+00  0.00000000000E+00  0.10841553332E+03  0.10841553335E+03  0.25500000920E-02 0. -1.
        2   -1    0    0  501    0  0.00000000000E+00  0.00000000000E+00 -0.18688623023E+04  0.18688623023E+04  0.25500000920E-02 0.  1.
    10030    2    1    2    0    0  0.00000000000E+00  0.00000000000E+00 -0.17604467690E+04  0.19772778357E+04  0.90025263841E+03 0.  0.
        5    1    3    3  502    0  0.44852902058E+03 -0.28017622460E+02 -0.93527904208E+03  0.10376570946E+04  0.46999998093E+01 0.  1.
       -5    1    3    3    0  502 -0.44852902058E+03  0.28017622460E+02 -0.82516772693E+03  0.93962074106E+03  0.46999998093E+01 0. -1.
</event>
<event>
 5   0  0.2295158E-03  0.8985427E+03  0.7818609E-02  0.9427405E-01
        1   -1    0    0  501    0  0.00000000000E+00  0.00000000000E+00  0.71931958909E+03  0.71931958910E+03  0.50400001928E-02 0. -1.
       -1   -1    0    0    0  501  0.00000000000E+00  0.00000000000E+00 -0.28060511122E+03  0.28060511127E+03  0.50400001928E-02 0.  1.
    10030    2    1    2    0    0  0.00000000000E+00  0.00000000000E+00  0.43871447786E+03  0.99992470037E+03  0.89854271647E+03 0.  0.
        4    1    3    3  502    0 -0.69850222617E+02  0.11299280129E+03 -0.25824846756E+03  0.29041403313E+03  0.12699999809E+01 0.  1.
       -4    1    3    3    0  502  0.69850222617E+02 -0.11299280129E+03  0.69696294542E+03  0.70951066724E+03  0.12699999809E+01 0. -1.
</event>
<event>
 5   0  0.3815269E-03  0.8947050E+03  0.7818609E-02  0.9432225E-01
       -2   -1    0    0    0  501  0.00000000000E+00  0.00000000000E+00  0.13861386209E+03  0.13861386212E+03  0.25500000920E-02 0.  1.
        2   -1    0    0  501    0  0.00000000000E+00  0.00000000000E+00 -0.14437537202E+04  0.14437537202E+04  0.25500000920E-02 0. -1.
    10030    2    1    2    0    0  0.00000000000E+00  0.00000000000E+00 -0.13051398581E+04  0.15823675823E+04  0.89470504433E+03 0.  0.
        5    1    3    3  502    0  0.14265336759E+03 -0.24237138101E+03 -0.12677965312E+04  0.12986238887E+04  0.46999998093E+01 0. -1.
       -5    1    3    3    0  502 -0.14265336759E+03  0.24237138101E+03 -0.37343326855E+02  0.28374369363E+03  0.46999998093E+01 0.  1.
</event>
<event>
 5   0  0.1436000E-03  0.9060231E+03  0.7818609E-02  0.9418083E-01
        3   -1    0    0  501    0  0.00000000000E+00  0.00000000000E+00  0.29730055726E+03  0.29730057442E+03  0.10100000352E+00 0. -1.
       -3   -1    0    0    0  501  0.00000000000E+00  0.00000000000E+00 -0.69027600752E+03  0.69027601491E+03  0.10100000352E+00 0.  1.
    10030    2    1    2    0    0  0.00000000000E+00  0.00000000000E+00 -0.39297545025E+03  0.98757658932E+03  0.90602307657E+03 0.  0.
        5    1    3    3  502    0 -0.94732827987E+02  0.19008507100E+03 -0.63261636510E+03  0.66733214991E+03  0.46999998093E+01 0.  1.
       -5    1    3    3    0  502  0.94732827987E+02 -0.19008507100E+03  0.23964091484E+03  0.32024443942E+03  0.46999998093E+01 0. -1.
</event>
<event>
 5   0  0.2129280E-03  0.9009809E+03  0.7818609E-02  0.9424356E-01
       -1   -1    0    0    0  501  0.00000000000E+00  0.00000000000E+00  0.11617327495E+03  0.11617327506E+03  0.50400001928E-02 0.  1.
        1   -1    0    0  501    0  0.00000000000E+00  0.00000000000E+00 -0.17468875495E+04  0.17468875495E+04  0.50400001928E-02 0. -1.
    10030    2    1    2    0    0  0.00000000000E+00  0.00000000000E+00 -0.16307142745E+04  0.18630608245E+04  0.90098090479E+03 0.  0.
        3    1    3    3  502    0 -0.28604438647E+03  0.21795737310E+03 -0.13763974963E+04  0.14226021529E+04  0.10100000352E+00 0. -1.
       -3    1    3    3    0  502  0.28604438647E+03 -0.21795737310E+03 -0.25431677828E+03  0.44045867165E+03  0.10100000352E+00 0.  1.
</event>
<event>
 5   0  0.3806019E-03  0.8997761E+03  0.7818609E-02  0.9425861E-01
       -2   -1    0    0    0  501  0.00000000000E+00  0.00000000000E+00  0.42520367465E+03  0.42520367466E+03  0.25500000920E-02 0. -1.
        2   -1    0    0  501    0  0.00000000000E+00  0.00000000000E+00 -0.47600538680E+03  0.47600538680E+03  0.25500000920E-02 0.  1.
    10030    2    1    2    0    0  0.00000000000E+00  0.00000000000E+00 -0.50801712142E+02  0.90120906146E+03  0.89977606020E+03 0.  0.
        2    1    3    3  502    0 -0.11579457000E+03 -0.26027132391E+03  0.32336297811E+03  0.43094449771E+03  0.25500000920E-02 0. -1.
       -2    1    3    3    0  502  0.11579457000E+03  0.26027132391E+03 -0.37416469025E+03  0.47026456376E+03  0.25500000920E-02 0.  1.
</event>
<event>
 5   0  0.3626546E-03  0.9183178E+03  0.7818609E-02  0.9402969E-01
       -2   -1    0    0    0  501  0.00000000000E+00  0.00000000000E+00  0.12188559250E+04  0.12188559250E+04  0.25500000920E-02 0. -1.
        2   -1    0    0  501    0  0.00000000000E+00  0.00000000000E+00 -0.17297113613E+03  0.17297113615E+03  0.25500000920E-02 0.  1.
    10030    2    1    2    0    0  0.00000000000E+00  0.00000000000E+00  0.10458847889E+04  0.13918270612E+04  0.91831779715E+03 0.  0.
        3    1    3    3  502    0  0.62345893534E+02  0.35946795697E+03  0.10040406900E+03  0.37839821590E+03  0.10100000352E+00 0.  1.
       -3    1    3    3    0  502 -0.62345893534E+02 -0.35946795697E+03  0.94548071990E+03  0.10134288453E+04  0.10100000352E+00 0. -1.
</event>
<event>
 5   0  0.3685879E-03  0.8980411E+03  0.7818609E-02  0.9428033E-01
        2   -1    0    0  501    0  0.00000000000E+00  0.00000000000E+00  0.98523784304E+03  0.98523784305E+03  0.25500000920E-02 0. -1.
       -2   -1    0    0    0  501  0.00000000000E+00  0.00000000000E+00 -0.20464038648E+03  0.20464038650E+03  0.25500000920E-02 0.  1.
    10030    2    1    2    0    0  0.00000000000E+00  0.00000000000E+00  0.78059745656E+03  0.11898782295E+04  0.89804109703E+03 0.  0.
        1    1    3    3  502    0  0.82759205149E+02 -0.15022556744E+03  0.94012592345E+03  0.95564300819E+03  0.50400001928E-02 0. -1.
       -1    1    3    3    0  502 -0.82759205149E+02  0.15022556744E+03 -0.15952846688E+03  0.23423522135E+03  0.50400001928E-02 0.  1.
</event>
<event>
 5   0  0.2134145E-03  0.8986938E+03  0.7818609E-02  0.9427216E-01
       -1   -1    0    0    0  501  0.00000000000E+00  0.00000000000E+00  0.33303444695E+03  0.33303444698E+03  0.50400001928E-02 0.  1.
        1   -1    0    0  501    0  0.00000000000E+00  0.00000000000E+00 -0.60628159562E+03  0.60628159564E+03  0.50400001928E-02 0. -1.
    10030    2    1    2    0    0  0.00000000000E+00  0.00000000000E+00 -0.27324714868E+03  0.93931604263E+03  0.89869384313E+03 0.  0.
        1    1    3    3  502    0 -0.65767519040E+01 -0.37831748236E+03  0.11670634220E+03  0.39596431842E+03  0.50400001928E-02 0.  1.
       -1    1    3    3    0  502  0.65767519040E+01  0.37831748236E+03 -0.38995349088E+03  0.54335172421E+03  0.50400001928E-02 0. -1.
</event>
<event>
 5   0  0.3626546E-03  0.9059697E+03  0.7818609E-02  0.9418150E-01
       -2   -1    0    0    0  501  0.00000000000E+00  0.00000000000E+00  0.45207298084E+03  0.45207298084E+03  0.25500000920E-02 0.  1.
        2   -1    0    0  501    0  0.00000000000E+00  0.00000000000E+00 -0.45389851712E+03  0.45389851713E+03  0.25500000920E-02 0. -1.
    10030    2    1    2    0    0  0.00000000000E+00  0.00000000000E+00 -0.18255362867E+01  0.90597149797E+03  0.90596965874E+03 0.  0.
        3    1    3    3  502    0 -0.10868393695E+03 -0.32406424487E+03 -0.29817657568E+03  0.45358473678E+03  0.10100000352E+00 0. -1.
       -3    1    3    3    0  502  0.10868393695E+03  0.32406424487E+03  0.29635103939E+03  0.45238676119E+03  0.10100000352E+00 0.  1.
</event>
<event>
 5   0  0.2295158E-03  0.8917251E+03  0.7818609E-02  0.9435985E-01
       -1   -1    0    0    0  501  0.00000000000E+00  0.00000000000E+00  0.12036508260E+03  0.12036508271E+03  0.50400001928E-02 0. -1.
        1   -1    0    0  501    0  0.00000000000E+00  0.00000000000E+00 -0.16515869486E+04  0.16515869486E+04  0.50400001928E-02 0.  1.
    10030    2    1    2    0    0  0.00000000000E+00  0.00000000000E+00 -0.15312218660E+04  0.17719520314E+04  0.89172506884E+03 0.  0.
        4    1    3    3  502    0  0.11406972428E+03 -0.40913672385E+03 -0.10350600277E+04  0.11188188569E+04  0.12699999809E+01 0.  1.
       -4    1    3    3    0  502 -0.11406972428E+03  0.40913672385E+03 -0.49616183834E+03  0.65313317442E+03  0.12699999809E+01 0. -1.
</event>
<event>
 5   0  0.3815269E-03  0.8976665E+03  0.7818609E-02  0.9428503E-01
       -2   -1    0    0    0  501  0.00000000000E+00  0.00000000000E+00  0.35723062669E+03  0.35723062670E+03  0.25500000920E-02 0. -1.
        2   -1    0    0  501    0  0.00000000000E+00  0.00000000000E+00 -0.56392500211E+03  0.56392500212E+03  0.25500000920E-02 0.  1.
    10030    2    1    2    0    0  0.00000000000E+00  0.00000000000E+00 -0.20669437543E+03  0.92115562882E+03  0.89766649022E+03 0.  0.
        5    1    3    3  502    0  0.29045694120E+03 -0.15066902697E+03 -0.41857055939E+03  0.53130950826E+03  0.46999998093E+01 0.  1.
       -5    1    3    3    0  502 -0.29045694120E+03  0.15066902697E+03  0.21187618397E+03  0.38984612055E+03  0.46999998093E+01 0. -1.
</event>
<event>
 5   0  0.2295158E-03  0.9057990E+03  0.7818609E-02  0.9418361E-01
        1   -1    0    0  501    0  0.00000000000E+00  0.00000000000E+00  0.61199371468E+03  0.61199371470E+03  0.50400001928E-02 0.  1.
       -1   -1    0    0    0  501  0.00000000000E+00  0.00000000000E+00 -0.33516349520E+03  0.33516349524E+03  0.50400001928E-02 0. -1.
    10030    2    1    2    0    0  0.00000000000E+00  0.00000000000E+00  0.27683021948E+03  0.94715720994E+03  0.90579898980E+03 0.  0.
        4    1    3    3  502    0 -0.15591540085E+03  0.63773352211E+01  0.58299383881E+03  0.60351778070E+03  0.12699999809E+01 0.  1.
       -4    1    3    3    0  502  0.15591540085E+03 -0.63773352211E+01 -0.30616361933E+03  0.34363942924E+03  0.12699999809E+01 0. -1.
</event>
<event>
 5   0  0.2129280E-03  0.8805970E+03  0.7818609E-02  0.9450166E-01
       -1   -1    0    0    0  501  0.00000000000E+00  0.00000000000E+00  0.19997309977E+03  0.19997309984E+03  0.50400001928E-02 0. -1.
        1   -1    0    0  501    0  0.00000000000E+00  0.00000000000E+00 -0.96944428961E+03  0.96944428962E+03  0.50400001928E-02 0.  1.
    10030    2    1    2    0    0  0.00000000000E+00  0.00000000000E+00 -0.76947118983E+03  0.11694173895E+04  0.88059702405E+03 0.  0.
        3    1    3    3  502    0 -0.35651220363E+03  0.25189611730E+03 -0.30833141725E+03  0.53443510206E+03  0.10100000352E+00 0.  1.
       -3    1    3    3    0  502  0.35651220363E+03 -0.25189611730E+03 -0.46113977258E+03  0.63498228740E+03  0.10100000352E+00 0. -1.
</event>
<event>
 5   0  0.3685879E-03  0.9029499E+03  0.7818609E-02  0.9421901E-01
        2   -1    0    0  501    0  0.00000000000E+00  0.00000000000E+00  0.22399784623E+04  0.22399784623E+04  0.25500000920E-02 0. -1.
       -2   -1    0    0    0  501  0.00000000000E+00  0.00000000000E+00 -0.90996255389E+02  0.90996255424E+02  0.25500000920E-02 0.  1.
    10030    2    1    2    0    0  0.00000000000E+00  0.00000000000E+00  0.21489822069E+04  0.23309747177E+04  0.90294994826E+03 0.  0.
        1    1    3    3  502    0  0.39585366458E+03  0.16050165078E+03  0.14518576785E+04  0.15133907699E+04  0.50400001928E-02 0. -1.
       -1    1    3    3    0  502 -0.39585366458E+03 -0.16050165078E+03  0.69712452842E+03  0.81758394787E+03  0.50400001928E-02 0.  1.
</event>
<event>
 5   0  0.3663255E-03  0.9014021E+03  0.7818609E-02  0.9423830E-01
       -2   -1    0    0    0  501  0.00000000000E+00  0.00000000000E+00  0.24128042063E+03  0.24128042064E+03  0.25500000920E-02 0. -1.
        2   -1    0    0  501    0  0.00000000000E+00  0.00000000000E+00 -0.84188939141E+03  0.84188939142E+03  0.25500000920E-02 0.  1.
    10030    2    1    2    0    0  0.00000000000E+00  0.00000000000E+00 -0.60060897078E+03  0.10831698121E+04  0.90140207786E+03 0.  0.
        4    1    3    3  502    0 -0.36857387293E+03 -0.11988175157E+03 -0.57671397259E+03  0.69485174912E+03  0.12699999809E+01 0.  1.
       -4    1    3    3    0  502  0.36857387293E+03  0.11988175157E+03 -0.23894998192E+02  0.38831806294E+03  0.12699999809E+01 0. -1.
</event>
<event>
 5   0  0.3626546E-03  0.8990085E+03  0.7818609E-02  0.9426822E-01
        2   -1    0    0  501    0  0.00000000000E+00  0.00000000000E+00  0.26766531717E+04  0.26766531717E+04  0.25500000920E-02 0.  1.
       -2   -1    0    0    0  501  0.00000000000E+00  0.00000000000E+00 -0.75487585573E+02  0.75487585616E+02  0.25500000920E-02 0. -1.
    10030    2    1    2    0    0  0.00000000000E+00  0.00000000000E+00  0.26011655862E+04  0.27521407574E+04  0.89900853257E+03 0.  0.
        3    1    3    3  502    0  0.40696740674E+03  0.11705469344E+03  0.17621178260E+04  0.18122868190E+04  0.10100000352E+00 0.  1.
       -3    1    3    3    0  502 -0.40696740674E+03 -0.11705469344E+03  0.83904776017E+03  0.93985393836E+03  0.10100000352E+00 0. -1.
</event>
<event>
 5   0  0.2074970E-03  0.9003306E+03  0.7818609E-02  0.9425168E-01
       -1   -1    0    0    0  501  0.00000000000E+00  0.00000000000E+00  0.27967684376E+03  0.27967684381E+03  0.50400001928E-02 0. -1.
        1   -1    0    0  501    0  0.00000000000E+00  0.00000000000E+00 -0.72458197286E+03  0.72458197288E+03  0.50400001928E-02 0.  1.
    10030    2    1    2    0    0  0.00000000000E+00  0.00000000000E+00 -0.44490512910E+03  0.10042588167E+04  0.90033060427E+03 0.  0.
        2    1    3    3  502    0 -0.44188944614E+03 -0.70747653172E+01 -0.12693821567E+03  0.45981479480E+03  0.25500000920E-02 0.  1.
       -2    1    3    3    0  502  0.44188944614E+03  0.70747653172E+01 -0.31796691343E+03  0.54444402188E+03  0.25500000920E-02 0. -1.
</event>
<event>
 5   0  0.2074970E-03  0.8989752E+03  0.7818609E-02  0.9426863E-01
       -1   -1    0    0    0  501  0.00000000000E+00  0.00000000000E+00  0.15320242578E+03  0.15320242586E+03  0.50400001928E-02 0. -1.
        1   -1    0    0  501    0  0.00000000000E+00  0.00000000000E+00 -0.13187721234E+04  0.13187721234E+04  0.50400001928E-02 0.  1.
    10030    2    1    2    0    0  0.00000000000E+00  0.00000000000E+00 -0.11655696976E+04  0.14719745493E+04  0.89897516856E+03 0.  0.
        2    1    3    3  502    0  0.26237037373E+03 -0.34712480440E+03 -0.76734763472E+03  0.88213164288E+03  0.25500000920E-02 0.  1.
       -2    1    3    3    0  502 -0.26237037373E+03  0.34712480440E+03 -0.39822206289E+03  0.58984290639E+03  0.25500000920E-02 0. -1.
</event>
<event>
 5   0  0.3815269E-03  0.9010162E+03  0.7818609E-02  0.9424312E-01
       -2   -1    0    0    0  501  0.00000000000E+00  0.00000000000E+00  0.28767249711E+03  0.28767249712E+03  0.25500000920E-02 0.  1.
        2   -1    0    0  501    0  0.00000000000E+00  0.00000000000E+00 -0.70551601939E+03  0.70551601939E+03  0.25500000920E-02 0. -1.
    10030    2    1    2    0    0  0.00000000000E+00  0.00000000000E+00 -0.41784352228E+03  0.99318851651E+03  0.90101621529E+03 0.  0.
        5    1    3    3  502    0  0.19826982376E+03  0.83081838690E+02  0.22745739297E+03  0.31300554396E+03  0.46999998093E+01 0.  1.
       -5    1    3    3    0  502 -0.19826982376E+03 -0.83081838690E+02 -0.64530091525E+03  0.68018297255E+03  0.46999998093E+01 0. -1.
</event>
<event>
 5   0  0.2134145E-03  0.9051667E+03  0.7818609E-02  0.9419146E-01
        1   -1    0    0  501    0  0.00000000000E+00  0.00000000000E+00  0.16410138127E+04  0.16410138127E+04  0.50400001928E-02 0. -1.
       -1   -1    0    0    0  501  0.00000000000E+00  0.00000000000E+00 -0.12482021719E+03  0.12482021729E+03  0.50400001928E-02 0.  1.
    10030    2    1    2    0    0  0.00000000000E+00  0.00000000000E+00  0.15161935955E+04  0.17658340300E+04  0.90516672634E+03 0.  0.
        1    1    3    3  502    0  0.25173868956E+03  0.32829017484E+03  0.11161428525E+04  0.11903451911E+04  0.50400001928E-02 0. -1.
       -1    1    3    3    0  502 -0.25173868956E+03 -0.32829017484E+03  0.40005074302E+03  0.57548883894E+03  0.50400001928E-02 0.  1.
</event>
<event>
 5   0  0.3626546E-03  0.9005193E+03  0.7818609E-02  0.9424933E-01
        2   -1    0    0  501    0  0.00000000000E+00  0.00000000000E+00  0.16725945493E+04  0.16725945493E+04  0.25500000920E-02 0.  1.
       -2   -1    0    0    0  501  0.00000000000E+00  0.00000000000E+00 -0.12120913135E+03  0.12120913138E+03  0.25500000920E-02 0. -1.
    10030    2    1    2    0    0  0.00000000000E+00  0.00000000000E+00  0.15513854179E+04  0.17938036807E+04  0.90051925566E+03 0.  0.
        3    1    3    3  502    0  0.50788962003E+02  0.30531555585E+03  0.12429665503E+03  0.33353676852E+03  0.10100000352E+00 0. -1.
       -3    1    3    3    0  502 -0.50788962003E+02 -0.30531555585E+03  0.14270887629E+04  0.14602669122E+04  0.10100000352E+00 0.  1.
</event>
<event>
 5   0  0.2074970E-03  0.8983972E+03  0.7818609E-02  0.9427587E-01
       -1   -1    0    0    0  501  0.00000000000E+00  0.00000000000E+00  0.27324647648E+03  0.27324647653E+03  0.50400001928E-02 0.  1.
        1   -1    0    0  501    0  0.00000000000E+00  0.00000000000E+00 -0.73845196966E+03  0.73845196968E+03  0.50400001928E-02 0. -1.
    10030    2    1    2    0    0  0.00000000000E+00  0.00000000000E+00 -0.46520549318E+03  0.10116984462E+04  0.89839723684E+03 0.  0.
        2    1    3    3  502    0  0.11609649784E+03 -0.11038281184E+03  0.23998544647E+03  0.28854077092E+03  0.25500000920E-02 0.  1.
       -2    1    3    3    0  502 -0.11609649784E+03  0.11038281184E+03 -0.70519093965E+03  0.72315767529E+03  0.25500000920E-02 0. -1.
</event>
<event>
 5   0  0.2295158E-03  0.9019546E+03  0.7818609E-02  0.9423141E-01
       -1   -1    0    0    0  501  0.00000000000E+00  0.00000000000E+00  0.74720382497E+03  0.74720382498E+03  0.50400001928E-02 0.  1.
        1   -1    0    0  501    0  0.00000000000E+00  0.00000000000E+00 -0.27218880343E+03  0.27218880347E+03  0.50400001928E-02 0. -1.
    10030    2    1    2    0    0  0.00000000000E+00  0.00000000000E+00  0.47501502154E+03  0.10193926285E+04  0.90195457772E+03 0.  0.
        4    1    3    3  502    0  0.73708741357E+02  0.20581817861E+03  0.68330786165E+03  0.71742968149E+03  0.12699999809E+01 0.  1.
       -4    1    3    3    0  502 -0.73708741357E+02 -0.20581817861E+03 -0.20829284011E+03  0.30196294696E+03  0.12699999809E+01 0. -1.
</event>
<event>
 5   0  0.2130975E-03  0.8955590E+03  0.7818609E-02  0.9431150E-01
       -1   -1    0    0    0  501  0.00000000000E+00  0.00000000000E+00  0.43309747644E+03  0.43309747647E+03  0.50400001928E-02 0.  1.
        1   -1    0    0  501    0  0.00000000000E+00  0.00000000000E+00 -0.46295928036E+03  0.46295928039E+03  0.50400001928E-02 0. -1.
    10030    2    1    2    0    0  0.00000000000E+00  0.00000000000E+00 -0.29861803921E+02  0.89605675686E+03  0.89555903444E+03 0.  0.
        5    1    3    3  502    0  0.25342493709E+03  0.27851108612E+03  0.22746760936E+03  0.43995025530E+03  0.46999998093E+01 0.  1.
       -5    1    3    3    0  502 -0.25342493709E+03 -0.27851108612E+03 -0.25732941328E+03  0.45610650156E+03  0.46999998093E+01 0. -1.
</event>
<event>
 5   0  0.3663255E-03  0.8830233E+03  0.7818609E-02  0.9447056E-01
        2   -1    0    0  501    0  0.00000000000E+00  0.00000000000E+00  0.11795736160E+04  0.11795736161E+04  0.25500000920E-02 0.  1.
       -2   -1    0    0    0  501  0.00000000000E+00  0.00000000000E+00 -0.16525676256E+03  0.16525676258E+03  0.25500000920E-02 0. -1.
    10030    2    1    2    0    0  0.00000000000E+00  0.00000000000E+00  0.10143168535E+04  0.13448303786E+04  0.88302325451E+03 0.  0.
        4    1    3    3  502    0  0.13373669968E+03 -0.17240393495E+03  0.10917190931E+04  0.11133107440E+04  0.12699999809E+01 0.  1.
       -4    1    3    3    0  502 -0.13373669968E+03  0.17240393495E+03 -0.77402239581E+02  0.23151963463E+03  0.12699999809E+01 0. -1.
</event>
<event>
 5   0  0.2130975E-03  0.8788233E+03  0.7818609E-02  0.9452447E-01
       -1   -1    0    0    0  501  0.00000000000E+00  0.00000000000E+00  0.13847106026E+03  0.13847106035E+03  0.50400001928E-02 0. -1.
        1   -1    0    0  501    0  0.00000000000E+00  0.00000000000E+00 -0.13943894924E+04  0.13943894924E+04  0.50400001928E-02 0.  1.
    10030    2    1    2    0    0  0.00000000000E+00  0.00000000000E+00 -0.12559184321E+04  0.15328605527E+04  0.87882328486E+03 0.  0.
        5    1    3    3  502    0  0.48219441887E+02 -0.28399949752E+03 -0.49257651002E+02  0.29228280030E+03  0.46999998093E+01 0. -1.
       -5    1    3    3    0  502 -0.48219441887E+02  0.28399949752E+03 -0.12066607811E+04  0.12405777524E+04  0.46999998093E+01 0.  1.
</event>
<event>
 5   0  0.3806019E-03  0.9002438E+03  0.7818609E-02  0.9425277E-01
        2   -1    0    0  501    0  0.00000000000E+00  0.00000000000E+00  0.12729078185E+04  0.12729078185E+04  0.25500000920E-02 0. -1.
       -2   -1    0    0    0  501  0.00000000000E+00  0.00000000000E+00 -0.15917076969E+03  0.15917076971E+03  0.25500000920E-02 0.  1.
    10030    2    1    2    0    0  0.00000000000E+00  0.00000000000E+00  0.11137370488E+04  0.14320785882E+04  0.90024378306E+03 0.  0.
        2    1    3    3  502    0  0.34742983036E+03 -0.24484859615E+03  0.32118035433E+03  0.53274303569E+03  0.25500000920E-02 0.  1.
       -2    1    3    3    0  502 -0.34742983036E+03  0.24484859615E+03  0.79255669448E+03  0.89933555252E+03  0.25500000920E-02 0. -1.
</event>
<event>
 5   0  0.2074970E-03  0.9115363E+03  0.7818609E-02  0.9411274E-01
        1   -1    0    0  501    0  0.00000000000E+00  0.00000000000E+00  0.59020334599E+03  0.59020334601E+03  0.50400001928E-02 0.  1.
       -1   -1    0    0    0  501  0.00000000000E+00  0.00000000000E+00 -0.35195429111E+03  0.35195429114E+03  0.50400001928E-02 0. -1.
    10030    2    1    2    0    0  0.00000000000E+00  0.00000000000E+00  0.23824905488E+03  0.94215763715E+03  0.91153628622E+03 0.  0.
        2    1    3    3  502    0 -0.33103643633E+03  0.21258942371E+03  0.35695251961E+03  0.53121980998E+03  0.25500000920E-02 0.  1.
       -2    1    3    3    0  502  0.33103643633E+03 -0.21258942371E+03 -0.11870346473E+03  0.41093782717E+03  0.25500000920E-02 0. -1.
</event>
<event>
 5   0  0.2134145E-03  0.9017762E+03  0.7818609E-02  0.9423364E-01
        1   -1    0    0  501    0  0.00000000000E+00  0.00000000000E+00  0.47665052932E+03  0.47665052934E+03  0.50400001928E-02 0. -1.
       -1   -1    0    0    0  501  0.00000000000E+00  0.00000000000E+00 -0.42651806235E+03  0.42651806238E+03  0.50400001928E-02 0.  1.
    10030    2    1    2    0    0  0.00000000000E+00  0.00000000000E+00  0.50132466967E+02  0.90316859173E+03  0.90177615894E+03 0.  0.
        1    1    3    3  502    0  0.42549379586E+03 -0.44317570677E+02 -0.11760034979E+03  0.44366525634E+03  0.50400001928E-02 0.  1.
       -1    1    3    3    0  502 -0.42549379586E+03  0.44317570677E+02  0.16773281675E+03  0.45950333538E+03  0.50400001928E-02 0. -1.
</event>
<event>
 5   0  0.3806019E-03  0.9038180E+03  0.7818609E-02  0.9420821E-01
       -2   -1    0    0    0  501  0.00000000000E+00  0.00000000000E+00  0.11212137412E+03  0.11212137415E+03  0.25500000920E-02 0.  1.
        2   -1    0    0  501    0  0.00000000000E+00  0.00000000000E+00 -0.18214344372E+04  0.18214344372E+04  0.25500000920E-02 0. -1.
    10030    2    1    2    0    0  0.00000000000E+00  0.00000000000E+00 -0.17093130631E+04  0.19335558114E+04  0.90381797282E+03 0.  0.
        2    1    3    3  502    0 -0.99165047720E+02 -0.25821143099E+03 -0.90123079417E+02  0.29091067226E+03  0.25500000920E-02 0.  1.
       -2    1    3    3    0  502  0.99165047720E+02  0.25821143099E+03 -0.16191899837E+04  0.16426451391E+04  0.25500000920E-02 0. -1.
</event>
<event>
 5   0  0.3685879E-03  0.8992025E+03  0.7818609E-02  0.9426579E-01
       -2   -1    0    0    0  501  0.00000000000E+00  0.00000000000E+00  0.13755421821E+03  0.13755421823E+03  0.25500000920E-02 0. -1.
        2   -1    0    0  501    0  0.00000000000E+00  0.00000000000E+00 -0.14695388697E+04  0.14695388697E+04  0.25500000920E-02 0.  1.
    10030    2    1    2    0    0  0.00000000000E+00  0.00000000000E+00 -0.13319846515E+04  0.16070930879E+04  0.89920246968E+03 0.  0.
        1    1    3    3  502    0 -0.19812572150E+01 -0.36116176482E+03 -0.11445581490E+04  0.12001896109E+04  0.50400001928E-02 0.  1.
       -1    1    3    3    0  502  0.19812572150E+01  0.36116176482E+03 -0.18742650255E+03  0.40690347704E+03  0.50400001928E-02 0. -1.
</event>
<event>
 5   0  0.2074970E-03  0.8970008E+03  0.7818609E-02  0.9429338E-01
       -1   -1    0    0    0  501  0.00000000000E+00  0.00000000000E+00  0.27782007638E+03  0.27782007643E+03  0.50400001928E-02 0.  1.
        1   -1    0    0  501    0  0.00000000000E+00  0.00000000000E+00 -0.72403911192E+03  0.72403911194E+03  0.50400001928E-02 0. -1.
    10030    2    1    2    0    0  0.00000000000E+00  0.00000000000E+00 -0.44621903554E+03  0.10018591884E+04  0.89700078352E+03 0.  0.
        2    1    3    3  502    0  0.37429845929E+03 -0.14156318082E+03 -0.44930051939E+03  0.60167302376E+03  0.25500000920E-02 0. -1.
       -2    1    3    3    0  502 -0.37429845929E+03  0.14156318082E+03  0.30814838474E+01  0.40018616461E+03  0.25500000920E-02 0.  1.
</event>
<event>
 5   0  0.2134145E-03  0.8984522E+03  0.7818609E-02  0.9427518E-01
        1   -1    0    0  501    0  0.00000000000E+00  0.00000000000E+00  0.10116435164E+04  0.10116435164E+04  0.50400001928E-02 0. -1.
       -1   -1    0    0    0  501  0.00000000000E+00  0.00000000000E+00 -0.19948144552E+03  0.19948144559E+03  0.50400001928E-02 0.  1.
    10030    2    1    2    0    0  0.00000000000E+00  0.00000000000E+00  0.81216207090E+03  0.12111249620E+04  0.89845224927E+03 0.  0.
        1    1    3    3  502    0 -0.12226657491E+03  0.25293434089E+03 -0.66453080323E+02  0.28868825409E+03  0.50400001928E-02 0.  1.
       -1    1    3    3    0  502  0.12226657491E+03 -0.25293434089E+03  0.87861515122E+03  0.92243670793E+03  0.50400001928E-02 0. -1.
</event>
<event>
 5   0  0.2295158E-03  0.9001689E+03  0.7818609E-02  0.9425370E-01
        1   -1    0    0  501    0  0.00000000000E+00  0.00000000000E+00  0.90380612453E+03  0.90380612454E+03  0.50400001928E-02 0. -1.
       -1   -1    0    0    0  501  0.00000000000E+00  0.00000000000E+00 -0.22413658495E+03  0.22413658501E+03  0.50400001928E-02 0.  1.
    10030    2    1    2    0    0  0.00000000000E+00  0.00000000000E+00  0.67966953957E+03  0.11279427095E+04  0.90016891359E+03 0.  0.
        4    1    3    3  502    0  0.10765602647E+03  0.17585525804E+03 -0.16147223940E+03  0.26189652310E+03  0.12699999809E+01 0.  1.
       -4    1    3    3    0  502 -0.10765602647E+03 -0.17585525804E+03  0.84114177898E+03  0.86604618645E+03  0.12699999809E+01 0. -1.
</event>
<event>
 5   0  0.3663255E-03  0.8940900E+03  0.7818609E-02  0.9432999E-01
       -2   -1    0    0    0  501  0.00000000000E+00  0.00000000000E+00  0.35678728572E+03  0.35678728573E+03  0.25500000920E-02 0. -1.
        2   -1    0    0  501    0  0.00000000000E+00  0.00000000000E+00 -0.56013552899E+03  0.56013552899E+03  0.25500000920E-02 0.  1.
    10030    2    1    2    0    0  0.00000000000E+00  0.00000000000E+00 -0.20334824326E+03  0.91692281472E+03  0.89409000672E+03 0.  0.
        4    1    3    3  502    0  0.72539882643E+02 -0.42506826967E+03  0.19246070456E+02  0.43164463692E+03  0.12699999809E+01 0. -1.
       -4    1    3    3    0  502 -0.72539882643E+02  0.42506826967E+03 -0.22259431372E+03  0.48527817780E+03  0.12699999809E+01 0.  1.
</event>
<event>
 5   0  0.2129280E-03  0.9025233E+03  0.7818609E-02  0.9422433E-01
        1   -1    0    0  501    0  0.00000000000E+00  0.00000000000E+00  0.19683602715E+04  0.19683602715E+04  0.50400001928E-02 0.  1.
       -1   -1    0    0    0  501  0.00000000000E+00  0.00000000000E+00 -0.10345519507E+03  0.10345519519E+03  0.50400001928E-02 0. -1.
    10030    2    1    2    0    0  0.00000000000E+00  0.00000000000E+00  0.18649050765E+04  0.20718154667E+04  0.90252334262E+03 0.  0.
        3    1    3    3  502    0 -0.36216222752E+03  0.26639003507E+03  0.84319144548E+03  0.95556106752E+03  0.10100000352E+00 0. -1.
       -3    1    3    3    0  502  0.36216222752E+03 -0.26639003507E+03  0.10217136310E+04  0.11162543992E+04  0.10100000352E+00 0.  1.
</event>
<event>
 5   0  0.2134145E-03  0.8883148E+03  0.7818609E-02  0.9440307E-01
       -1   -1    0    0    0  501  0.00000000000E+00  0.00000000000E+00  0.36123536763E+03  0.36123536767E+03  0.50400001928E-02 0.  1.
        1   -1    0    0  501    0  0.00000000000E+00  0.00000000000E+00 -0.54611433040E+03  0.54611433043E+03  0.50400001928E-02 0. -1.
    10030    2    1    2    0    0  0.00000000000E+00  0.00000000000E+00 -0.18487896277E+03  0.90734969809E+03  0.88831483369E+03 0.  0.
        1    1    3    3  502    0  0.42778553707E+03  0.44941748944E+02  0.20637653796E+02  0.43063457746E+03  0.50400001928E-02 0.  1.
       -1    1    3    3    0  502 -0.42778553707E+03 -0.44941748944E+02 -0.20551661657E+03  0.47671512063E+03  0.50400001928E-02 0. -1.
</event>
<event>
 5   0  0.2134145E-03  0.9069435E+03  0.7818609E-02  0.9416943E-01
        1   -1    0    0  501    0  0.00000000000E+00  0.00000000000E+00  0.31783633174E+03  0.31783633178E+03  0.50400001928E-02 0.  1.
       -1   -1    0    0    0  501  0.00000000000E+00  0.00000000000E+00 -0.64698906618E+03  0.64698906620E+03  0.50400001928E-02 0. -1.
    10030    2    1    2    0    0  0.00000000000E+00  0.00000000000E+00 -0.32915273444E+03  0.96482539798E+03  0.90694350761E+03 0.  0.
        1    1    3    3  502    0  0.28728416967E+03 -0.30788599624E+03  0.14419670036E+02  0.42134772781E+03  0.50400001928E-02 0.  1.
       -1    1    3    3    0  502 -0.28728416967E+03  0.30788599624E+03 -0.34357240448E+03  0.54347767017E+03  0.50400001928E-02 0. -1.
</event>
<event>
 5   0  0.3663255E-03  0.9005184E+03  0.7818609E-02  0.9424934E-01
       -2   -1    0    0    0  501  0.00000000000E+00  0.00000000000E+00  0.75120853569E+03  0.75120853569E+03  0.25500000920E-02 0. -1.
        2   -1    0    0  501    0  0.00000000000E+00  0.00000000000E+00 -0.26987627785E+03  0.26987627786E+03  0.25500000920E-02 0.  1.
    10030    2    1    2    0    0  0.00000000000E+00  0.00000000000E+00  0.48133225784E+03  0.10210848135E+04  0.90051843625E+03 0.  0.
        4    1    3    3  502    0  0.94212733034E+02 -0.44025442758E+03  0.23427695438E+03  0.50753059447E+03  0.12699999809E+01 0. -1.
       -4    1    3    3    0  502 -0.94212733034E+02  0.44025442758E+03  0.24705530346E+03  0.51355421908E+03  0.12699999809E+01 0.  1.
</event>
<event>
 5   0  0.3626546E-03  0.9126330E+03  0.7818609E-02  0.9409926E-01
       -2   -1    0    0    0  501  0.00000000000E+00  0.00000000000E+00  0.24810899949E+03  0.24810899950E+03  0.25500000920E-02 0.  1.
        2   -1    0    0  501    0  0.00000000000E+00  0.00000000000E+00 -0.83924714840E+03  0.83924714840E+03  0.25500000920E-02 0. -1.
    10030    2    1    2    0    0  0.00000000000E+00  0.00000000000E+00 -0.59113814890E+03  0.10873561479E+04  0.91263304854E+03 0.  0.
        3    1    3    3  502    0  0.24016056505E+03  0.29367786671E+03 -0.59769249819E+03  0.70792663390E+03  0.10100000352E+00 0. -1.
       -3    1    3    3    0  502 -0.24016056505E+03 -0.29367786671E+03  0.65543492817E+01  0.37942951400E+03  0.10100000352E+00 0.  1.
</event>
<event>
 5   0  0.1436000E-03  0.8971155E+03  0.7818609E-02  0.9429194E-01
       -3   -1    0    0    0  501  0.00000000000E+00  0.00000000000E+00  0.18919308148E+03  0.18919310844E+03  0.10100000352E+00 0. -1.
        3   -1    0    0  501    0  0.00000000000E+00  0.00000000000E+00 -0.10634852325E+04  0.10634852373E+04  0.10100000352E+00 0.  1.
    10030    2    1    2    0    0  0.00000000000E+00  0.00000000000E+00 -0.87429215105E+03  0.12526783458E+04  0.89711552911E+03 0.  0.
        5    1    3    3  502    0  0.41884965240E+03 -0.92735055462E+02 -0.25429932392E+03  0.49872342834E+03  0.46999998093E+01 0.  1.
       -5    1    3    3    0  502 -0.41884965240E+03  0.92735055462E+02 -0.61999282713E+03  0.75395491743E+03  0.46999998093E+01 0. -1.
</event>
<event>
 5   0  0.3815269E-03  0.9030010E+03  0.7818609E-02  0.9421838E-01
       -2   -1    0    0    0  501  0.00000000000E+00  0.00000000000E+00  0.87336614009E+02  0.87336614046E+02  0.25500000920E-02 0.  1.
        2   -1    0    0  501    0  0.00000000000E+00  0.00000000000E+00 -0.23341033730E+04  0.23341033730E+04  0.25500000920E-02 0. -1.
    10030    2    1    2    0    0  0.00000000000E+00  0.00000000000E+00 -0.22467667590E+04  0.24214399870E+04  0.90300096431E+03 0.  0.
        5    1    3    3  502    0 -0.32855953145E+03 -0.30877269015E+03 -0.10611474694E+04  0.11529735390E+04  0.46999998093E+01 0. -1.
       -5    1    3    3    0  502  0.32855953145E+03  0.30877269015E+03 -0.11856192896E+04  0.12684664480E+04  0.46999998093E+01 0.  1.
</event>
<event>
 5   0  0.3626546E-03  0.9006752E+03  0.7818609E-02  0.9424738E-01
        2   -1    0    0  501    0  0.00000000000E+00  0.00000000000E+00  0.58189437264E+03  0.58189437264E+03  0.25500000920E-02 0.  1.
       -2   -1    0    0    0  501  0.00000000000E+00  0.00000000000E+00 -0.34852365346E+03  0.34852365347E+03  0.25500000920E-02 0. -1.
    10030    2    1    2    0    0  0.00000000000E+00  0.00000000000E+00  0.23337071918E+03  0.93041802611E+03  0.90067519714E+03 0.  0.
        3    1    3    3  502    0  0.38256373528E+03 -0.21444140759E+03  0.22235613904E+03  0.49171372933E+03  0.10100000352E+00 0.  1.
       -3    1    3    3    0  502 -0.38256373528E+03  0.21444140759E+03  0.11014580142E+02  0.43870429678E+03  0.10100000352E+00 0. -1.
</event>
<event>
 5   0  0.2130975E-03  0.9031392E+03  0.7818609E-02  0.9421666E-01
        1   -1    0    0  501    0  0.00000000000E+00  0.00000000000E+00  0.16303930194E+04  0.16303930194E+04  0.50400001928E-02 0. -1.
       -1   -1    0    0    0  501  0.00000000000E+00  0.00000000000E+00 -0.12507112600E+03  0.12507112610E+03  0.50400001928E-02 0.  1.
    10030    2    1    2    0    0  0.00000000000E+00  0.00000000000E+00  0.15053218934E+04  0.17554641455E+04  0.90313917167E+03 0.  0.
        5    1    3    3  502    0  0.11188821660E+03  0.42755485483E+03  0.93261011278E+03  0.10320396501E+04  0.46999998093E+01 0. -1.
       -5    1    3    3    0  502 -0.11188821660E+03 -0.42755485483E+03  0.57271178060E+03  0.72342449540E+03  0.46999998093E+01 0.  1.
</event>
<event>
 5   0  0.3815269E-03  0.8910563E+03  0.7818609E-02  0.9436831E-01
       -2   -1    0    0    0  501  0.00000000000E+00  0.00000000000E+00  0.17288765102E+03  0.17288765104E+03  0.25500000920E-02 0.  1.
        2   -1    0    0  501    0  0.00000000000E+00  0.00000000000E+00 -0.11481175655E+04  0.11481175655E+04  0.25500000920E-02 0. -1.
    10030    2    1    2    0    0  0.00000000000E+00  0.00000000000E+00 -0.97522991449E+03  0.13210052165E+04  0.89105633718E+03 0.  0.
        5    1    3    3  502    0 -0.10193125490E+03  0.41086034297E+03 -0.28177971564E+03  0.50854508187E+03  0.46999998093E+01 0. -1.
       -5    1    3    3    0  502  0.10193125490E+03 -0.41086034297E+03 -0.69345019885E+03  0.81246013467E+03  0.46999998093E+01 0.  1.
</event>
<event>
 5   0  0.3806019E-03  0.9080998E+03  0.7818609E-02  0.9415513E-01
       -2   -1    0    0    0  501  0.00000000000E+00  0.00000000000E+00  0.13584851102E+03  0.13584851105E+03  0.25500000920E-02 0.  1.
        2   -1    0    0  501    0  0.00000000000E+00  0.00000000000E+00 -0.15175823096E+04  0.15175823096E+04  0.25500000920E-02 0. -1.
    10030    2    1    2    0    0  0.00000000000E+00  0.00000000000E+00 -0.13817337985E+04  0.16534308206E+04  0.90809976794E+03 0.  0.
        2    1    3    3  502    0  0.22933330322E+03 -0.14603245730E+03 -0.13529877404E+04  0.13800344446E+04  0.25500000920E-02 0. -1.
       -2    1    3    3    0  502 -0.22933330322E+03  0.14603245730E+03 -0.28746058110E+02  0.27339637600E+03  0.25500000920E-02 0.  1.
</event>
<event>
 5   0  0.3815269E-03  0.8976332E+03  0.7818609E-02  0.9428545E-01
       -2   -1    0    0    0  501  0.00000000000E+00  0.00000000000E+00  0.15186590869E+03  0.15186590871E+03  0.25500000920E-02 0.  1.
        2   -1    0    0  501    0  0.00000000000E+00  0.00000000000E+00 -0.13264093441E+04  0.13264093441E+04  0.25500000920E-02 0. -1.
    10030    2    1    2    0    0  0.00000000000E+00  0.00000000000E+00 -0.11745434355E+04  0.14782752529E+04  0.89763324440E+03 0.  0.
        5    1    3    3  502    0  0.23139463082E+03  0.16059916820E+03 -0.11863141988E+02  0.28195459233E+03  0.46999998093E+01 0. -1.
       -5    1    3    3    0  502 -0.23139463082E+03 -0.16059916820E+03 -0.11626802935E+04  0.11963206605E+04  0.46999998093E+01 0.  1.
</event>
<event>
 5   0  0.2134145E-03  0.9033395E+03  0.7818609E-02  0.9421417E-01
        1   -1    0    0  501    0  0.00000000000E+00  0.00000000000E+00  0.64236783841E+03  0.64236783843E+03  0.50400001928E-02 0. -1.
       -1   -1    0    0    0  501  0.00000000000E+00  0.00000000000E+00 -0.31758369081E+03  0.31758369085E+03  0.50400001928E-02 0.  1.
    10030    2    1    2    0    0  0.00000000000E+00  0.00000000000E+00  0.32478414759E+03  0.95995152928E+03  0.90333946888E+03 0.  0.
        1    1    3    3  502    0 -0.22779320584E+03 -0.23911577507E+03  0.48982449212E+03  0.59075725270E+03  0.50400001928E-02 0. -1.
       -1    1    3    3    0  502  0.22779320584E+03  0.23911577507E+03 -0.16504034453E+03  0.36919427658E+03  0.50400001928E-02 0.  1.
</event>
<event>
 5   0  0.3806019E-03  0.8991453E+03  0.7818609E-02  0.9426651E-01
        2   -1    0    0  501    0  0.00000000000E+00  0.00000000000E+00  0.69229203534E+03  0.69229203534E+03  0.25500000920E-02 0. -1.
       -2   -1    0    0    0  501  0.00000000000E+00  0.00000000000E+00 -0.29195128068E+03  0.29195128069E+03  0.25500000920E-02 0.  1.
    10030    2    1    2    0    0  0.00000000000E+00  0.00000000000E+00  0.40034075466E+03  0.98424331603E+03  0.89914525262E+03 0.  0.
        2    1    3    3  502    0  0.14540706754E+03  0.23973170111E+03 -0.18451699493E+03  0.33565015304E+03  0.25500000920E-02 0.  1.
       -2    1    3    3    0  502 -0.14540706754E+03 -0.23973170111E+03  0.58485774959E+03  0.64859316299E+03  0.25500000920E-02 0. -1.
</event>
<event>
 5   0  0.2130975E-03  0.8984398E+03  0.7818609E-02  0.9427534E-01
       -1   -1    0    0    0  501  0.00000000000E+00  0.00000000000E+00  0.38304112814E+03  0.38304112817E+03  0.50400001928E-02 0.  1.
        1   -1    0    0  501    0  0.00000000000E+00  0.00000000000E+00 -0.52683253907E+03  0.52683253909E+03  0.50400001928E-02 0. -1.
    10030    2    1    2    0    0  0.00000000000E+00  0.00000000000E+00 -0.14379141093E+03  0.90987366726E+03  0.89843982576E+03 0.  0.
        5    1    3    3  502    0 -0.43218766877E+03  0.11614746848E+03 -0.32672660956E+02  0.44873824023E+03  0.46999998093E+01 0. -1.
       -5    1    3    3    0  502  0.43218766877E+03 -0.11614746848E+03 -0.11111874998E+03  0.46113542703E+03  0.46999998093E+01 0.  1.
</event>
<event>
 5   0  0.2129280E-03  0.9138530E+03  0.7818609E-02  0.9408428E-01
       -1   -1    0    0    0  501  0.00000000000E+00  0.00000000000E+00  0.31202454392E+03  0.31202454396E+03  0.50400001928E-02 0. -1.
        1   -1    0    0  501    0  0.00000000000E+00  0.00000000000E+00 -0.66911991852E+03  0.66911991854E+03  0.50400001928E-02 0.  1.
    10030    2    1    2    0    0  0.00000000000E+00  0.00000000000E+00 -0.35709537460E+03  0.98114446250E+03  0.91385302414E+03 0.  0.
        3    1    3    3  502    0  0.39053412368E+02  0.33388512393E+03 -0.51081535662E+03  0.61150370707E+03  0.10100000352E+00 0.  1.
       -3    1    3    3    0  502 -0.39053412368E+02 -0.33388512393E+03  0.15371998202E+03  0.36964075543E+03  0.10100000352E+00 0. -1.
</event>
<event>
 5   0  0.3663255E-03  0.9027689E+03  0.7818609E-02  0.9422127E-01
       -2   -1    0    0    0  501  0.00000000000E+00  0.00000000000E+00  0.23846242855E+03  0.23846242856E+03  0.25500000920E-02 0. -1.
        2   -1    0    0  501    0  0.00000000000E+00  0.00000000000E+00 -0.85442355974E+03  0.85442355974E+03  0.25500000920E-02 0.  1.
    10030    2    1    2    0    0  0.00000000000E+00  0.00000000000E+00 -0.61596113119E+03  0.10928859883E+04  0.90276888975E+03 0.  0.
        4    1    3    3  502    0 -0.14898516410E+03 -0.25551094714E+03 -0.72076249951E+03  0.77909089125E+03  0.12699999809E+01 0.  1.
       -4    1    3    3    0  502  0.14898516410E+03  0.25551094714E+03  0.10480136832E+03  0.31379509705E+03  0.12699999809E+01 0. -1.
</event>
<event>
 5   0  0.2129280E-03  0.8976131E+03  0.7818609E-02  0.9428570E-01
       -1   -1    0    0    0  501  0.00000000000E+00  0.00000000000E+00  0.11538781485E+03  0.11538781496E+03  0.50400001928E-02 0. -1.
        1   -1    0    0  501    0  0.00000000000E+00  0.00000000000E+00 -0.17456550625E+04  0.17456550625E+04  0.50400001928E-02 0.  1.
    10030    2    1    2    0    0  0.00000000000E+00  0.00000000000E+00 -0.16302672476E+04  0.18610428775E+04  0.89761310876E+03 0.  0.
        3    1    3    3  502    0 -0.29484963963E+03 -0.28389150381E+03 -0.11968540251E+04  0.12649072154E+04  0.10100000352E+00 0.  1.
       -3    1    3    3    0  502  0.29484963963E+03  0.28389150381E+03 -0.43341322255E+03  0.59613566209E+03  0.10100000352E+00 0. -1.
</event>
<event>
 5   0  0.2295158E-03  0.8988750E+03  0.7818609E-02  0.9426989E-01
       -1   -1    0    0    0  501  0.00000000000E+00  0.00000000000E+00  0.10612125755E+03  0.10612125767E+03  0.50400001928E-02 0. -1.
        1   -1    0    0  501    0  0.00000000000E+00  0.00000000000E+00 -0.19034268404E+04  0.19034268404E+04  0.50400001928E-02 0.  1.
    10030    2    1    2    0    0  0.00000000000E+00  0.00000000000E+00 -0.17973055828E+04  0.20095480981E+04  0.89887496369E+03 0.  0.
        4    1    3    3  502    0 -0.28005001223E+03  0.21604624001E+03 -0.15185642645E+04  0.15592123093E+04  0.12699999809E+01 0.  1.
       -4    1    3    3    0  502  0.28005001223E+03 -0.21604624001E+03 -0.27874131827E+03  0.45033578870E+03  0.12699999809E+01 0. -1.
</event>
<event>
 5   0  0.2129280E-03  0.8755841E+03  0.7818609E-02  0.9456628E-01
       -1   -1    0    0    0  501  0.00000000000E+00  0.00000000000E+00  0.11624545160E+03  0.11624545171E+03  0.50400001928E-02 0. -1.
        1   -1    0    0  501    0  0.00000000000E+00  0.00000000000E+00 -0.16487688391E+04  0.16487688391E+04  0.50400001928E-02 0.  1.
    10030    2    1    2    0    0  0.00000000000E+00  0.00000000000E+00 -0.15325233875E+04  0.17650142908E+04  0.87558409850E+03 0.  0.
        3    1    3    3  502    0  0.10716727268E+03  0.36471266466E+03 -0.32849253673E+03  0.50240174063E+03  0.10100000352E+00 0. -1.
       -3    1    3    3    0  502 -0.10716727268E+03 -0.36471266466E+03 -0.12040308507E+04  0.12626125501E+04  0.10100000352E+00 0.  1.
</event>
<event>
 5   0  0.3815269E-03  0.8999283E+03  0.7818609E-02  0.9425671E-01
       -2   -1    0    0    0  501  0.00000000000E+00  0.00000000000E+00  0.54830701119E+03  0.54830701120E+03  0.25500000920E-02 0.  1.
        2   -1    0    0  501    0  0.00000000000E+00  0.00000000000E+00 -0.36925977748E+03  0.36925977749E+03  0.25500000920E-02 0. -1.
    10030    2    1    2    0    0  0.00000000000E+00  0.00000000000E+00  0.17904723371E+03  0.91756678869E+03  0.89992827481E+03 0.  0.
        5    1    3    3  502    0  0.11447681311E+03 -0.20932229481E+03 -0.29943052492E+03  0.38288574418E+03  0.46999998093E+01 0. -1.
       -5    1    3    3    0  502 -0.11447681311E+03  0.20932229481E+03  0.47847775864E+03  0.53468104451E+03  0.46999998093E+01 0.  1.
</event>
<event>
 5   0  0.2295158E-03  0.9031486E+03  0.7818609E-02  0.9421654E-01
       -1   -1    0    0    0  501  0.00000000000E+00  0.00000000000E+00  0.47476545950E+03  0.47476545953E+03  0.50400001928E-02 0.  1.
        1   -1    0    0  501    0  0.00000000000E+00  0.00000000000E+00 -0.42951595660E+03  0.42951595663E+03  0.50400001928E-02 0. -1.
    10030    2    1    2    0    0  0.00000000000E+00  0.00000000000E+00  0.45249502904E+02  0.90428141615E+03  0.90314858251E+03 0.  0.
        4    1    3    3  502    0 -0.25885413644E+02 -0.86440749616E+02 -0.42039568474E+03  0.42997232757E+03  0.12699999809E+01 0. -1.
       -4    1    3    3    0  502  0.25885413644E+02  0.86440749616E+02  0.46564518764E+03  0.47430908858E+03  0.12699999809E+01 0.  1.
</event>
<event>
 5   0  0.2130975E-03  0.8976271E+03  0.7818609E-02  0.9428553E-01
        1   -1    0    0  501    0  0.00000000000E+00  0.00000000000E+00  0.64286985718E+03  0.64286985720E+03  0.50400001928E-02 0.  1.
       -1   -1    0    0    0  501  0.00000000000E+00  0.00000000000E+00 -0.31333496905E+03  0.31333496909E+03  0.50400001928E-02 0. -1.
    10030    2    1    2    0    0  0.00000000000E+00  0.00000000000E+00  0.32953488813E+03  0.95620482629E+03  0.89762710929E+03 0.  0.
        5    1    3    3  502    0  0.29220010206E+03  0.33918128791E+03  0.13130626964E+03  0.46657075793E+03  0.46999998093E+01 0. -1.
       -5    1    3    3    0  502 -0.29220010206E+03 -0.33918128791E+03  0.19822861849E+03  0.48963406836E+03  0.46999998093E+01 0.  1.
</event>
<event>
 5   0  0.3815269E-03  0.9003648E+03  0.7818609E-02  0.9425125E-01
       -2   -1    0    0    0  501  0.00000000000E+00  0.00000000000E+00  0.24480103877E+03  0.24480103879E+03  0.25500000920E-02 0.  1.
        2   -1    0    0  501    0  0.00000000000E+00  0.00000000000E+00 -0.82787314742E+03  0.82787314742E+03  0.25500000920E-02 0. -1.
    10030    2    1    2    0    0  0.00000000000E+00  0.00000000000E+00 -0.58307210864E+03  0.10726741862E+04  0.90036482932E+03 0.  0.
        5    1    3    3  502    0  0.10515204729E+03 -0.40926938501E+03 -0.10664699294E+03  0.43583718710E+03  0.46999998093E+01 0.  1.
       -5    1    3    3    0  502 -0.10515204729E+03  0.40926938501E+03 -0.47642511570E+03  0.63683699911E+03  0.46999998093E+01 0. -1.
</event>
<event>
 5   0  0.2130975E-03  0.8988174E+03  0.7818609E-02  0.9427061E-01
        1   -1    0    0  501    0  0.00000000000E+00  0.00000000000E+00  0.32785531536E+03  0.32785531540E+03  0.50400001928E-02 0. -1.
       -1   -1    0    0    0  501  0.00000000000E+00  0.00000000000E+00 -0.61602834876E+03  0.61602834878E+03  0.50400001928E-02 0.  1.
    10030    2    1    2    0    0  0.00000000000E+00  0.00000000000E+00 -0.28817303340E+03  0.94388366418E+03  0.89881737540E+03 0.  0.
        5    1    3    3  502    0  0.13210450828E+03 -0.14054968734E+03 -0.57031933704E+03  0.60207312839E+03  0.46999998093E+01 0.  1.
       -5    1    3    3    0  502 -0.13210450828E+03  0.14054968734E+03  0.28214630364E+03  0.34181053579E+03  0.46999998093E+01 0. -1.
</event>
<event>
 5   0  0.3663255E-03  0.9007161E+03  0.7818609E-02  0.9424687E-01
        2   -1    0    0  501    0  0.00000000000E+00  0.00000000000E+00  0.13391915400E+04  0.13391915400E+04  0.25500000920E-02 0. -1.
       -2   -1    0    0    0  501  0.00000000000E+00  0.00000000000E+00 -0.15145134430E+03  0.15145134432E+03  0.25500000920E-02 0.  1.
    10030    2    1    2    0    0  0.00000000000E+00  0.00000000000E+00  0.11877401957E+04  0.14906428843E+04  0.90071606853E+03 0.  0.
        4    1    3    3  502    0  0.67526419924E+02  0.87858849808E+00 -0.14302119257E+03  0.15816846629E+03  0.12699999809E+01 0.  1.
       -4    1    3    3    0  502 -0.67526419924E+02 -0.87858849808E+00  0.13307613883E+04  0.13324744180E+04  0.12699999809E+01 0. -1.
</event>
<event>
 5   0  0.2074970E-03  0.9000831E+03  0.7818609E-02  0.9425477E-01
       -1   -1    0    0    0  501  0.00000000000E+00  0.00000000000E+00  0.69155391189E+03  0.69155391191E+03  0.50400001928E-02 0.  1.
        1   -1    0    0  501    0  0.00000000000E+00  0.00000000000E+00 -0.29287292793E+03  0.29287292797E+03  0.50400001928E-02 0. -1.
    10030    2    1    2    0    0  0.00000000000E+00  0.00000000000E+00  0.39868098397E+03  0.98442683988E+03  0.90008314955E+03 0.  0.
        2    1    3    3  502    0 -0.22083806896E+03 -0.20073769343E+03 -0.16908173992E+03  0.34300686443E+03  0.25500000920E-02 0. -1.
       -2    1    3    3    0  502  0.22083806896E+03  0.20073769343E+03  0.56776272388E+03  0.64141997545E+03  0.25500000920E-02 0.  1.
</event>
<event>
 5   0  0.2074970E-03  0.8900474E+03  0.7818609E-02  0.9438109E-01
       -1   -1    0    0    0  501  0.00000000000E+00  0.00000000000E+00  0.12578457744E+03  0.12578457754E+03  0.50400001928E-02 0. -1.
        1   -1    0    0  501    0  0.00000000000E+00  0.00000000000E+00 -0.15744863354E+04  0.15744863354E+04  0.50400001928E-02 0.  1.
    10030    2    1    2    0    0  0.00000000000E+00  0.00000000000E+00 -0.14487017579E+04  0.17002709129E+04  0.89004741105E+03 0.  0.
        2    1    3    3  502    0 -0.58705896016E+01  0.40544184598E+03 -0.37403565014E+03  0.55165226536E+03  0.25500000920E-02 0. -1.
       -2    1    3    3    0  502  0.58705896016E+01 -0.40544184598E+03 -0.10746661078E+04  0.11486186476E+04  0.25500000920E-02 0.  1.
</event>
<event>
 5   0  0.2129280E-03  0.8996908E+03  0.7818609E-02  0.9425968E-01
        1   -1    0    0  501    0  0.00000000000E+00  0.00000000000E+00  0.33054062505E+03  0.33054062509E+03  0.50400001928E-02 0. -1.
       -1   -1    0    0    0  501  0.00000000000E+00  0.00000000000E+00 -0.61221186846E+03  0.61221186848E+03  0.50400001928E-02 0.  1.
    10030    2    1    2    0    0  0.00000000000E+00  0.00000000000E+00 -0.28167124342E+03  0.94275249357E+03  0.89969082176E+03 0.  0.
        3    1    3    3  502    0  0.17675417033E+03  0.41296110708E+03 -0.16611433685E+03  0.47892890474E+03  0.10100000352E+00 0.  1.
       -3    1    3    3    0  502 -0.17675417033E+03 -0.41296110708E+03 -0.11555690657E+03  0.46382358883E+03  0.10100000352E+00 0. -1.
</event>
<event>
 5   0  0.3626546E-03  0.8937750E+03  0.7818609E-02  0.9433397E-01
        2   -1    0    0  501    0  0.00000000000E+00  0.00000000000E+00  0.13212644714E+04  0.13212644714E+04  0.25500000920E-02 0. -1.
       -2   -1    0    0    0  501  0.00000000000E+00  0.00000000000E+00 -0.15114948493E+03  0.15114948496E+03  0.25500000920E-02 0.  1.
    10030    2    1    2    0    0  0.00000000000E+00  0.00000000000E+00  0.11701149864E+04  0.14724139563E+04  0.89377501492E+03 0.  0.
        3    1    3    3  502    0 -0.26182499231E+03 -0.50041856859E+02 -0.58368759082E+01  0.26662819311E+03  0.10100000352E+00 0.  1.
       -3    1    3    3    0  502  0.26182499231E+03  0.50041856859E+02  0.11759518623E+04  0.12057857632E+04  0.10100000352E+00 0. -1.
</event>
<event>
 5   0  0.2074970E-03  0.9021732E+03  0.7818609E-02  0.9422869E-01
        1   -1    0    0  501    0  0.00000000000E+00  0.00000000000E+00  0.92128124177E+03  0.92128124178E+03  0.50400001928E-02 0.  1.
       -1   -1    0    0    0  501  0.00000000000E+00  0.00000000000E+00 -0.22086535189E+03  0.22086535195E+03  0.50400001928E-02 0. -1.
    10030    2    1    2    0    0  0.00000000000E+00  0.00000000000E+00  0.70041588988E+03  0.11421465937E+04  0.90217316673E+03 0.  0.
        2    1    3    3  502    0 -0.12279218966E+03  0.46933830264E+01 -0.19926759761E+03  0.23411007059E+03  0.25500000920E-02 0. -1.
       -2    1    3    3    0  502  0.12279218966E+03 -0.46933830264E+01  0.89968348749E+03  0.90803652314E+03  0.25500000920E-02 0.  1.
</event>
<event>
 5   0  0.1436000E-03  0.9014422E+03  0.7818609E-02  0.9423780E-01
       -3   -1    0    0    0  501  0.00000000000E+00  0.00000000000E+00  0.80968946223E+03  0.80968946852E+03  0.10100000352E+00 0. -1.
        3   -1    0    0  501    0  0.00000000000E+00  0.00000000000E+00 -0.25089801720E+03  0.25089803752E+03  0.10100000352E+00 0.  1.
    10030    2    1    2    0    0  0.00000000000E+00  0.00000000000E+00  0.55879144503E+03  0.10605875060E+04  0.90144216617E+03 0.  0.
        3    1    3    3  502    0  0.28880365478E+03  0.10159958001E+03  0.66858056643E+03  0.73534346375E+03  0.10100000352E+00 0. -1.
       -3    1    3    3    0  502 -0.28880365478E+03 -0.10159958001E+03 -0.10978912140E+03  0.32524404230E+03  0.10100000352E+00 0.  1.
</event>
<event>
 5   0  0.2074970E-03  0.8969969E+03  0.7818609E-02  0.9429343E-01
       -1   -1    0    0    0  501  0.00000000000E+00  0.00000000000E+00  0.42682380854E+03  0.42682380857E+03  0.50400001928E-02 0.  1.
        1   -1    0    0  501    0  0.00000000000E+00  0.00000000000E+00 -0.47127376512E+03  0.47127376515E+03  0.50400001928E-02 0. -1.
    10030    2    1    2    0    0  0.00000000000E+00  0.00000000000E+00 -0.44449956585E+02  0.89809757372E+03  0.89699690818E+03 0.  0.
        2    1    3    3  502    0 -0.94274853329E+02 -0.10046549172E+03  0.40511228867E+03  0.42789838681E+03  0.25500000920E-02 0.  1.
       -2    1    3    3    0  502  0.94274853329E+02  0.10046549172E+03 -0.44956224526E+03  0.47019918690E+03  0.25500000920E-02 0. -1.
</event>
<event>
 5   0  0.3815269E-03  0.8853703E+03  0.7818609E-02  0.9444056E-01
        2   -1    0    0  501    0  0.00000000000E+00  0.00000000000E+00  0.94784392996E+03  0.94784392996E+03  0.25500000920E-02 0. -1.
       -2   -1    0    0    0  501  0.00000000000E+00  0.00000000000E+00 -0.20675361569E+03  0.20675361570E+03  0.25500000920E-02 0.  1.
    10030    2    1    2    0    0  0.00000000000E+00  0.00000000000E+00  0.74109031427E+03  0.11545975457E+04  0.88537033977E+03 0.  0.
        5    1    3    3  502    0  0.35916074524E+03 -0.66930518854E+02  0.44597294255E+02  0.36808578338E+03  0.46999998093E+01 0.  1.
       -5    1    3    3    0  502 -0.35916074524E+03  0.66930518854E+02  0.69649302002E+03  0.78651176228E+03  0.46999998093E+01 0. -1.
</event>
<event>
 5   0  0.3663255E-03  0.8960670E+03  0.7818609E-02  0.9430511E-01
        2   -1    0    0  501    0  0.00000000000E+00  0.00000000000E+00  0.88723496136E+03  0.88723496137E+03  0.25500000920E-02 0. -1.
       -2   -1    0    0    0  501  0.00000000000E+00  0.00000000000E+00 -0.22624672407E+03  0.22624672409E+03  0.25500000920E-02 0.  1.
    10030    2    1    2    0    0  0.00000000000E+00  0.00000000000E+00  0.66098823729E+03  0.11134816855E+04  0.89606696960E+03 0.  0.
        4    1    3    3  502    0  0.33834374295E+02 -0.44179275900E+03  0.24800370490E+03  0.50777264335E+03  0.12699999809E+01 0. -1.
       -4    1    3    3    0  502 -0.33834374295E+02  0.44179275900E+03  0.41298453238E+03  0.60570904210E+03  0.12699999809E+01 0.  1.
</event>
<event>
 5   0  0.2074970E-03  0.8957862E+03  0.7818609E-02  0.9430864E-01
        1   -1    0    0  501    0  0.00000000000E+00  0.00000000000E+00  0.50704983929E+03  0.50704983932E+03  0.50400001928E-02 0. -1.
       -1   -1    0    0    0  501  0.00000000000E+00  0.00000000000E+00 -0.39563806753E+03  0.39563806757E+03  0.50400001928E-02 0.  1.
    10030    2    1    2    0    0  0.00000000000E+00  0.00000000000E+00  0.11141177176E+03  0.90268790688E+03  0.89578617669E+03 0.  0.
        2    1    3    3  502    0 -0.32292482825E+03 -0.23422371176E+03  0.26090936339E+03  0.47667062817E+03  0.25500000920E-02 0. -1.
       -2    1    3    3    0  502  0.32292482825E+03  0.23422371176E+03 -0.14949759163E+03  0.42601727871E+03  0.25500000920E-02 0.  1.
</event>
<event>
 5   0  0.2134145E-03  0.9030722E+03  0.7818609E-02  0.9421749E-01
       -1   -1    0    0    0  501  0.00000000000E+00  0.00000000000E+00  0.76906090660E+03  0.76906090661E+03  0.50400001928E-02 0. -1.
        1   -1    0    0  501    0  0.00000000000E+00  0.00000000000E+00 -0.26510885679E+03  0.26510885684E+03  0.50400001928E-02 0.  1.
    10030    2    1    2    0    0  0.00000000000E+00  0.00000000000E+00  0.50395204980E+03  0.10341697635E+04  0.90307221812E+03 0.  0.
        1    1    3    3  502    0 -0.24750525089E+03 -0.28339692656E+03 -0.33885603585E+02  0.37778419945E+03  0.50400001928E-02 0.  1.
       -1    1    3    3    0  502  0.24750525089E+03  0.28339692656E+03  0.53783765339E+03  0.65638556400E+03  0.50400001928E-02 0. -1.
</event>
<event>
 5   0  0.2129280E-03  0.9003168E+03  0.7818609E-02  0.9425186E-01
        1   -1    0    0  501    0  0.00000000000E+00  0.00000000000E+00  0.11070237989E+04  0.11070237989E+04  0.50400001928E-02 0.  1.
       -1   -1    0    0    0  501  0.00000000000E+00  0.00000000000E+00 -0.18305169181E+03  0.18305169188E+03  0.50400001928E-02 0. -1.
    10030    2    1    2    0    0  0.00000000000E+00  0.00000000000E+00  0.92397210710E+03  0.12900754908E+04  0.90031678717E+03 0.  0.
        3    1    3    3  502    0 -0.24845837218E+03  0.33297648665E+03  0.21364251407E+03  0.46717024455E+03  0.10100000352E+00 0. -1.
       -3    1    3    3    0  502  0.24845837218E+03 -0.33297648665E+03  0.71032959303E+03  0.82290524626E+03  0.10100000352E+00 0.  1.
</event>
<event>
 5   0  0.3806019E-03  0.8997614E+03  0.7818609E-02  0.9425880E-01
       -2   -1    0    0    0  501  0.00000000000E+00  0.00000000000E+00  0.31515190943E+03  0.31515190944E+03  0.25500000920E-02 0.  1.
        2   -1    0    0  501    0  0.00000000000E+00  0.00000000000E+00 -0.64220660597E+03  0.64220660597E+03  0.25500000920E-02 0. -1.
    10030    2    1    2    0    0  0.00000000000E+00  0.00000000000E+00 -0.32705469654E+03  0.95735851541E+03  0.89976138643E+03 0.  0.
        2    1    3    3  502    0 -0.36949372728E+03  0.25652316375E+03 -0.17196532516E+03  0.48156185595E+03  0.25500000920E-02 0. -1.
       -2    1    3    3    0  502  0.36949372728E+03 -0.25652316375E+03 -0.15508937138E+03  0.47579665947E+03  0.25500000920E-02 0.  1.
</event>
<event>
 5   0  0.2134145E-03  0.8990684E+03  0.7818609E-02  0.9426747E-01
        1   -1    0    0  501    0  0.00000000000E+00  0.00000000000E+00  0.52201823207E+03  0.52201823209E+03  0.50400001928E-02 0. -1.
       -1   -1    0    0    0  501  0.00000000000E+00  0.00000000000E+00 -0.38711483492E+03  0.38711483495E+03  0.50400001928E-02 0.  1.
    10030    2    1    2    0    0  0.00000000000E+00  0.00000000000E+00  0.13490339715E+03  0.90913306705E+03  0.89906841065E+03 0.  0.
        1    1    3    3  502    0  0.31543108240E+03 -0.22236988215E+02  0.39054338739E+03  0.50250909330E+03  0.50400001928E-02 0. -1.
       -1    1    3    3    0  502 -0.31543108240E+03  0.22236988215E+02 -0.25563999024E+03  0.40662397375E+03  0.50400001928E-02 0.  1.
</event>
<event>
 5   0  0.3815269E-03  0.9022930E+03  0.7818609E-02  0.9422720E-01
       -2   -1    0    0    0  501  0.00000000000E+00  0.00000000000E+00  0.25987011439E+03  0.25987011441E+03  0.25500000920E-02 0.  1.
        2   -1    0    0  501    0  0.00000000000E+00  0.00000000000E+00 -0.78321117169E+03  0.78321117170E+03  0.25500000920E-02 0. -1.
    10030    2    1    2    0    0  0.00000000000E+00  0.00000000000E+00 -0.52334105730E+03  0.10430812861E+04  0.90229302733E+03 0.  0.
        5    1    3    3  502    0 -0.26803962801E+03 -0.35875014133E+03 -0.19873108634E+03  0.48996228504E+03  0.46999998093E+01 0. -1.
       -5    1    3    3    0  502  0.26803962801E+03  0.35875014133E+03 -0.32460997096E+03  0.55311900106E+03  0.46999998093E+01 0.  1.
</event>
<event>
 5   0  0.2129280E-03  0.9015618E+03  0.7818609E-02  0.9423631E-01
        1   -1    0    0  501    0  0.00000000000E+00  0.00000000000E+00  0.51441764697E+03  0.51441764700E+03  0.50400001928E-02 0.  1.
       -1   -1    0    0    0  501  0.00000000000E+00  0.00000000000E+00 -0.39501639527E+03  0.39501639530E+03  0.50400001928E-02 0. -1.
    10030    2    1    2    0    0  0.00000000000E+00  0.00000000000E+00  0.11940125171E+03  0.90943404230E+03  0.90156176626E+03 0.  0.
        3    1    3    3  502    0  0.21317960131E+03 -0.31985248806E+03 -0.17783855794E+03  0.42353006909E+03  0.10100000352E+00 0. -1.
       -3    1    3    3    0  502 -0.21317960131E+03  0.31985248806E+03  0.29723980965E+03  0.48590397320E+03  0.10100000352E+00 0.  1.
</event>
<event>
 5   0  0.3806019E-03  0.9047195E+03  0.7818609E-02  0.9419701E-01
       -2   -1    0    0    0  501  0.00000000000E+00  0.00000000000E+00  0.34587522196E+03  0.34587522197E+03  0.25500000920E-02 0.  1.
        2   -1    0    0  501    0  0.00000000000E+00  0.00000000000E+00 -0.59162767147E+03  0.59162767148E+03  0.25500000920E-02 0. -1.
    10030    2    1    2    0    0  0.00000000000E+00  0.00000000000E+00 -0.24575244951E+03  0.93750289345E+03  0.90471951940E+03 0.  0.
        2    1    3    3  502    0 -0.27652537670E+03 -0.16509978934E+03  0.20629000627E+03  0.38246541162E+03  0.25500000920E-02 0.  1.
       -2    1    3    3    0  502  0.27652537670E+03  0.16509978934E+03 -0.45204245578E+03  0.55503748182E+03  0.25500000920E-02 0. -1.
</event>
<event>
 5   0  0.1436000E-03  0.8991364E+03  0.7818609E-02  0.9426662E-01
       -3   -1    0    0    0  501  0.00000000000E+00  0.00000000000E+00  0.19143504628E+03  0.19143507292E+03  0.10100000352E+00 0.  1.
        3   -1    0    0  501    0  0.00000000000E+00  0.00000000000E+00 -0.10557709501E+04  0.10557709549E+04  0.10100000352E+00 0. -1.
    10030    2    1    2    0    0  0.00000000000E+00  0.00000000000E+00 -0.86433590382E+03  0.12472060278E+04  0.89913643084E+03 0.  0.
        2    1    3    3  502    0 -0.38768689223E+03  0.22590156872E+03 -0.47088152510E+03  0.65043220696E+03  0.25500000920E-02 0. -1.
       -2    1    3    3    0  502  0.38768689223E+03 -0.22590156872E+03 -0.39345437871E+03  0.59677382088E+03  0.25500000920E-02 0.  1.
</event>
<event>
 5   0  0.3815269E-03  0.9036100E+03  0.7818609E-02  0.9421080E-01
       -2   -1    0    0    0  501  0.00000000000E+00  0.00000000000E+00  0.22397522547E+03  0.22397522548E+03  0.25500000920E-02 0.  1.
        2   -1    0    0  501    0  0.00000000000E+00  0.00000000000E+00 -0.91138550769E+03  0.91138550769E+03  0.25500000920E-02 0. -1.
    10030    2    1    2    0    0  0.00000000000E+00  0.00000000000E+00 -0.68741028222E+03  0.11353607332E+04  0.90361003665E+03 0.  0.
        5    1    3    3  502    0  0.39000244035E+03 -0.10099892568E+03 -0.60060066609E+03  0.72321914837E+03  0.46999998093E+01 0. -1.
       -5    1    3    3    0  502 -0.39000244035E+03  0.10099892568E+03 -0.86809616136E+02  0.41214158480E+03  0.46999998093E+01 0.  1.
</event>
<event>
 5   0  0.2134145E-03  0.9028252E+03  0.7818609E-02  0.9422057E-01
        1   -1    0    0  501    0  0.00000000000E+00  0.00000000000E+00  0.22459416308E+04  0.22459416308E+04  0.50400001928E-02 0.  1.
       -1   -1    0    0    0  501  0.00000000000E+00  0.00000000000E+00 -0.90729577321E+02  0.90729577461E+02  0.50400001928E-02 0. -1.
    10030    2    1    2    0    0  0.00000000000E+00  0.00000000000E+00  0.21552120535E+04  0.23366712083E+04  0.90282519907E+03 0.  0.
        1    1    3    3  502    0  0.31736554886E+03 -0.24114602684E+03  0.16260371859E+04  0.16741771793E+04  0.50400001928E-02 0.  1.
       -1    1    3    3    0  502 -0.31736554886E+03  0.24114602684E+03  0.52917486758E+03  0.66249402893E+03  0.50400001928E-02 0. -1.
</event>
<event>
 5   0  0.2074970E-03  0.9016208E+03  0.7818609E-02  0.9423558E-01
        1   -1    0    0  501    0  0.00000000000E+00  0.00000000000E+00  0.45951751662E+03  0.45951751664E+03  0.50400001928E-02 0.  1.
       -1   -1    0    0    0  501  0.00000000000E+00  0.00000000000E+00 -0.44226822415E+03  0.44226822418E+03  0.50400001928E-02 0. -1.
    10030    2    1    2    0    0  0.00000000000E+00  0.00000000000E+00  0.17249292468E+02  0.90178574082E+03  0.90162075412E+03 0.  0.
        2    1    3    3  502    0  0.75362594817E+02  0.33492751511E+03 -0.28361717635E+03  0.44530288995E+03  0.25500000920E-02 0. -1.
       -2    1    3    3    0  502 -0.75362594817E+02 -0.33492751511E+03  0.30086646882E+03  0.45648285087E+03  0.25500000920E-02 0.  1.
</event>
<event>
 5   0  0.3626546E-03  0.9003323E+03  0.7818609E-02  0.9425166E-01
       -2   -1    0    0    0  501  0.00000000000E+00  0.00000000000E+00  0.17683191142E+03  0.17683191144E+03  0.25500000920E-02 0. -1.
        2   -1    0    0  501    0  0.00000000000E+00  0.00000000000E+00 -0.11460010522E+04  0.11460010522E+04  0.25500000920E-02 0.  1.
    10030    2    1    2    0    0  0.00000000000E+00  0.00000000000E+00 -0.96916914077E+03  0.13228329636E+04  0.90033228657E+03 0.  0.
        3    1    3    3  502    0 -0.20862544638E+03 -0.14739640351E+03  0.60036445876E+02  0.26240171813E+03  0.10100000352E+00 0. -1.
       -3    1    3    3    0  502  0.20862544638E+03  0.14739640351E+03 -0.10292055866E+04  0.10604312455E+04  0.10100000352E+00 0.  1.
</event>
<event>
 5   0  0.2130975E-03  0.9041472E+03  0.7818609E-02  0.9420412E-01
       -1   -1    0    0    0  501  0.00000000000E+00  0.00000000000E+00  0.21951962466E+03  0.21951962472E+03  0.50400001928E-02 0. -1.
        1   -1    0    0  501    0  0.00000000000E+00  0.00000000000E+00 -0.93098985254E+03  0.93098985256E+03  0.50400001928E-02 0.  1.
    10030    2    1    2    0    0  0.00000000000E+00  0.00000000000E+00 -0.71147022788E+03  0.11505094773E+04  0.90414720712E+03 0.  0.
        5    1    3    3  502    0  0.37541482619E+03 -0.22620546248E+03 -0.21493616419E+03  0.48818525956E+03  0.46999998093E+01 0.  1.
       -5    1    3    3    0  502 -0.37541482619E+03  0.22620546248E+03 -0.49653406369E+03  0.66232421772E+03  0.46999998093E+01 0. -1.
</event>
<event>
 5   0  0.3685879E-03  0.9023199E+03  0.7818609E-02  0.9422686E-01
       -2   -1    0    0    0  501  0.00000000000E+00  0.00000000000E+00  0.14064801743E+03  0.14064801745E+03  0.25500000920E-02 0. -1.
        2   -1    0    0  501    0  0.00000000000E+00  0.00000000000E+00 -0.14471963103E+04  0.14471963103E+04  0.25500000920E-02 0.  1.
    10030    2    1    2    0    0  0.00000000000E+00  0.00000000000E+00 -0.13065482928E+04  0.15878443277E+04  0.90231988096E+03 0.  0.
        1    1    3    3  502    0  0.47234687423E+02 -0.42406299435E+03 -0.39533777966E+03  0.58168075344E+03  0.50400001928E-02 0. -1.
       -1    1    3    3    0  502 -0.47234687423E+02  0.42406299435E+03 -0.91121051317E+03  0.10061635743E+04  0.50400001928E-02 0.  1.
</event>
<event>
 5   0  0.2134145E-03  0.9012277E+03  0.7818609E-02  0.9424048E-01
       -1   -1    0    0    0  501  0.00000000000E+00  0.00000000000E+00  0.12450052915E+04  0.12450052915E+04  0.50400001928E-02 0.  1.
        1   -1    0    0  501    0  0.00000000000E+00  0.00000000000E+00 -0.16309396810E+03  0.16309396818E+03  0.50400001928E-02 0. -1.
    10030    2    1    2    0    0  0.00000000000E+00  0.00000000000E+00  0.10819113234E+04  0.14080992597E+04  0.90122772563E+03 0.  0.
        1    1    3    3  502    0 -0.17976051088E+02  0.43931718175E+03  0.69507531363E+03  0.82246727366E+03  0.50400001928E-02 0.  1.
       -1    1    3    3    0  502  0.17976051088E+02 -0.43931718175E+03  0.38683600980E+03  0.58563198606E+03  0.50400001928E-02 0. -1.
</event>
<event>
 5   0  0.3806019E-03  0.9009885E+03  0.7818609E-02  0.9424347E-01
        2   -1    0    0  501    0  0.00000000000E+00  0.00000000000E+00  0.61235272171E+03  0.61235272172E+03  0.25500000920E-02 0.  1.
       -2   -1    0    0    0  501  0.00000000000E+00  0.00000000000E+00 -0.33141856135E+03  0.33141856136E+03  0.25500000920E-02 0. -1.
    10030    2    1    2    0    0  0.00000000000E+00  0.00000000000E+00  0.28093416037E+03  0.94377128307E+03  0.90098847512E+03 0.  0.
        2    1    3    3  502    0 -0.25342790372E+02 -0.14313997338E+03 -0.30617628179E+03  0.33893247785E+03  0.25500000920E-02 0. -1.
       -2    1    3    3    0  502  0.25342790372E+02  0.14313997338E+03  0.58711044216E+03  0.60483880522E+03  0.25500000920E-02 0.  1.
</event>
<event>
 5   0  0.2129280E-03  0.8971350E+03  0.7818609E-02  0.9429170E-01
        1   -1    0    0  501    0  0.00000000000E+00  0.00000000000E+00  0.15069733147E+04  0.15069733147E+04  0.50400001928E-02 0. -1.
       -1   -1    0    0    0  501  0.00000000000E+00  0.00000000000E+00 -0.13352113889E+03  0.13352113898E+03  0.50400001928E-02 0.  1.
    10030    2    1    2    0    0  0.00000000000E+00  0.00000000000E+00  0.13734521758E+04  0.16404944537E+04  0.89713498056E+03 0.  0.
        3    1    3    3  502    0 -0.29576501976E+03 -0.33611438161E+03  0.63621723686E+03  0.77796028634E+03  0.10100000352E+00 0.  1.
       -3    1    3    3    0  502  0.29576501976E+03  0.33611438161E+03  0.73723493892E+03  0.86253416733E+03  0.10100000352E+00 0. -1.
</event>
<event>
 5   0  0.3663255E-03  0.9013027E+03  0.7818609E-02  0.9423954E-01
        2   -1    0    0  501    0  0.00000000000E+00  0.00000000000E+00  0.10071390042E+04  0.10071390042E+04  0.25500000920E-02 0.  1.
       -2   -1    0    0    0  501  0.00000000000E+00  0.00000000000E+00 -0.20164706287E+03  0.20164706288E+03  0.25500000920E-02 0. -1.
    10030    2    1    2    0    0  0.00000000000E+00  0.00000000000E+00  0.80549194134E+03  0.12087860671E+04  0.90130266195E+03 0.  0.
        4    1    3    3  502    0 -0.35711971980E+03  0.22754440527E+03  0.19595553133E+03  0.46659525694E+03  0.12699999809E+01 0. -1.
       -4    1    3    3    0  502  0.35711971980E+03 -0.22754440527E+03  0.60953641001E+03  0.74219081015E+03  0.12699999809E+01 0.  1.
</event>
<event>
 5   0  0.3685879E-03  0.8868845E+03  0.7818609E-02  0.9442127E-01
        2   -1    0    0  501    0  0.00000000000E+00  0.00000000000E+00  0.75980186868E+03  0.75980186869E+03  0.25500000920E-02 0.  1.
       -2   -1    0    0    0  501  0.00000000000E+00  0.00000000000E+00 -0.25880564536E+03  0.25880564538E+03  0.25500000920E-02 0. -1.
    10030    2    1    2    0    0  0.00000000000E+00  0.00000000000E+00  0.50099622332E+03  0.10186075141E+04  0.88688446369E+03 0.  0.
        1    1    3    3  502    0 -0.41173453555E+03  0.27184080587E+02  0.43702873802E+03  0.60104776839E+03  0.50400001928E-02 0.  1.
       -1    1    3    3    0  502  0.41173453555E+03 -0.27184080587E+02  0.63967485293E+02  0.41755974567E+03  0.50400001928E-02 0. -1.
</event>
<event>
 5   0  0.2129280E-03  0.8980154E+03  0.7818609E-02  0.9428066E-01
       -1   -1    0    0    0  501  0.00000000000E+00  0.00000000000E+00  0.60220521243E+03  0.60220521245E+03  0.50400001928E-02 0.  1.
        1   -1    0    0  501    0  0.00000000000E+00  0.00000000000E+00 -0.33478271406E+03  0.33478271410E+03  0.50400001928E-02 0. -1.
    10030    2    1    2    0    0  0.00000000000E+00  0.00000000000E+00  0.26742249837E+03  0.93698792655E+03  0.89801535726E+03 0.  0.
        3    1    3    3  502    0  0.66034899810E+02  0.36327534225E+03 -0.13287310615E+03  0.39240904018E+03  0.10100000352E+00 0.  1.
       -3    1    3    3    0  502 -0.66034899810E+02 -0.36327534225E+03  0.40029560452E+03  0.54457888637E+03  0.10100000352E+00 0. -1.
</event>
<event>
 5   0  0.2130975E-03  0.8996996E+03  0.7818609E-02  0.9425957E-01
       -1   -1    0    0    0  501  0.00000000000E+00  0.00000000000E+00  0.15276120854E+03  0.15276120863E+03  0.50400001928E-02 0. -1.
        1   -1    0    0  501    0  0.00000000000E+00  0.00000000000E+00 -0.13247134683E+04  0.13247134683E+04  0.50400001928E-02 0.  1.
    10030    2    1    2    0    0  0.00000000000E+00  0.00000000000E+00 -0.11719522597E+04  0.14774746769E+04  0.89969957309E+03 0.  0.
        5    1    3    3  502    0 -0.26823982737E+03 -0.25121861243E+02  0.55736849453E+01  0.26951227961E+03  0.46999998093E+01 0. -1.
       -5    1    3    3    0  502  0.26823982737E+03  0.25121861243E+02 -0.11775259447E+04  0.12079623973E+04  0.46999998093E+01 0.  1.
</event>
<event>
 5   0  0.2129280E-03  0.8724574E+03  0.7818609E-02  0.9460681E-01
       -1   -1    0    0    0  501  0.00000000000E+00  0.00000000000E+00  0.18646448286E+03  0.18646448292E+03  0.50400001928E-02 0.  1.
        1   -1    0    0  501    0  0.00000000000E+00  0.00000000000E+00 -0.10205453460E+04  0.10205453460E+04  0.50400001928E-02 0. -1.
    10030    2    1    2    0    0  0.00000000000E+00  0.00000000000E+00 -0.83408086318E+03  0.12070098290E+04  0.87245735765E+03 0.  0.
        3    1    3    3  502    0 -0.13290143947E+03  0.29107848155E+03 -0.82722167264E+03  0.88695275011E+03  0.10100000352E+00 0. -1.
       -3    1    3    3    0  502  0.13290143947E+03 -0.29107848155E+03 -0.68591905402E+01  0.32005707887E+03  0.10100000352E+00 0.  1.
</event>
<event>
 5   0  0.2130975E-03  0.9026336E+03  0.7818609E-02  0.9422295E-01
        1   -1    0    0  501    0  0.00000000000E+00  0.00000000000E+00  0.50035830855E+03  0.50035830858E+03  0.50400001928E-02 0.  1.
       -1   -1    0    0    0  501  0.00000000000E+00  0.00000000000E+00 -0.40708198531E+03  0.40708198534E+03  0.50400001928E-02 0. -1.
    10030    2    1    2    0    0  0.00000000000E+00  0.00000000000E+00  0.93276323242E+02  0.90744029392E+03  0.90263359928E+03 0.  0.
        5    1    3    3  502    0  0.68084421506E+01 -0.10667848339E+02 -0.40687895791E+03  0.40710285465E+03  0.46999998093E+01 0. -1.
       -5    1    3    3    0  502 -0.68084421506E+01  0.10667848339E+02  0.50015528115E+03  0.50033743927E+03  0.46999998093E+01 0.  1.
</event>
<event>
 5   0  0.3806019E-03  0.8992644E+03  0.7818609E-02  0.9426501E-01
       -2   -1    0    0    0  501  0.00000000000E+00  0.00000000000E+00  0.19833683235E+03  0.19833683236E+03  0.25500000920E-02 0.  1.
        2   -1    0    0  501    0  0.00000000000E+00  0.00000000000E+00 -0.10193220820E+04  0.10193220820E+04  0.25500000920E-02 0. -1.
    10030    2    1    2    0    0  0.00000000000E+00  0.00000000000E+00 -0.82098524969E+03  0.12176589144E+04  0.89926439472E+03 0.  0.
        2    1    3    3  502    0 -0.10565704563E+03 -0.42843975005E+03 -0.52732763545E+03  0.68760342191E+03  0.25500000920E-02 0. -1.
       -2    1    3    3    0  502  0.10565704563E+03  0.42843975005E+03 -0.29365761424E+03  0.53005549249E+03  0.25500000920E-02 0.  1.
</event>
<event>
 5   0  0.2129280E-03  0.9019968E+03  0.7818609E-02  0.9423089E-01
       -1   -1    0    0    0  501  0.00000000000E+00  0.00000000000E+00  0.27849655683E+03  0.27849655688E+03  0.50400001928E-02 0. -1.
        1   -1    0    0  501    0  0.00000000000E+00  0.00000000000E+00 -0.73034859961E+03  0.73034859962E+03  0.50400001928E-02 0.  1.
    10030    2    1    2    0    0  0.00000000000E+00  0.00000000000E+00 -0.45185204277E+03  0.10088451565E+04  0.90199682995E+03 0.  0.
        3    1    3    3  502    0 -0.31087545796E+03  0.28386439774E+03 -0.40688475571E+03  0.58547225494E+03  0.10100000352E+00 0. -1.
       -3    1    3    3    0  502  0.31087545796E+03 -0.28386439774E+03 -0.44967287061E+02  0.42337290156E+03  0.10100000352E+00 0.  1.
</event>
<event>
 5   0  0.3685879E-03  0.8985500E+03  0.7818609E-02  0.9427396E-01
       -2   -1    0    0    0  501  0.00000000000E+00  0.00000000000E+00  0.20088205242E+03  0.20088205244E+03  0.25500000920E-02 0. -1.
        2   -1    0    0  501    0  0.00000000000E+00  0.00000000000E+00 -0.10048085608E+04  0.10048085608E+04  0.25500000920E-02 0.  1.
    10030    2    1    2    0    0  0.00000000000E+00  0.00000000000E+00 -0.80392650840E+03  0.12056906133E+04  0.89854995632E+03 0.  0.
        1    1    3    3  502    0  0.20236604537E+02 -0.36438330079E+03 -0.50357498716E+02  0.36840275211E+03  0.50400001928E-02 0. -1.
       -1    1    3    3    0  502 -0.20236604537E+02  0.36438330079E+03 -0.75356900968E+03  0.83728786115E+03  0.50400001928E-02 0.  1.
</event>
<event>
 5   0  0.3663255E-03  0.9005201E+03  0.7818609E-02  0.9424932E-01
        2   -1    0    0  501    0  0.00000000000E+00  0.00000000000E+00  0.20999952700E+04  0.20999952700E+04  0.25500000920E-02 0. -1.
       -2   -1    0    0    0  501  0.00000000000E+00  0.00000000000E+00 -0.96540264895E+02  0.96540264929E+02  0.25500000920E-02 0.  1.
    10030    2    1    2    0    0  0.00000000000E+00  0.00000000000E+00  0.20034550051E+04  0.21965355350E+04  0.90052007126E+03 0.  0.
        4    1    3    3  502    0 -0.15811221036E+03  0.19746520842E+03  0.19102725711E+04  0.19269496330E+04  0.12699999809E+01 0. -1.
       -4    1    3    3    0  502  0.15811221036E+03 -0.19746520842E+03  0.93182434084E+02  0.26958590194E+03  0.12699999809E+01 0.  1.
</event>
<event>
 5   0  0.2129280E-03  0.9046136E+03  0.7818609E-02  0.9419832E-01
       -1   -1    0    0    0  501  0.00000000000E+00  0.00000000000E+00  0.16841706272E+03  0.16841706280E+03  0.50400001928E-02 0. -1.
        1   -1    0    0  501    0  0.00000000000E+00  0.00000000000E+00 -0.12147311672E+04  0.12147311672E+04  0.50400001928E-02 0.  1.
    10030    2    1    2    0    0  0.00000000000E+00  0.00000000000E+00 -0.10463141045E+04  0.13831482300E+04  0.90461363076E+03 0.  0.
        3    1    3    3  502    0 -0.37776753270E+03 -0.20138282575E+03 -0.29991305920E+03  0.52269609196E+03  0.10100000352E+00 0. -1.
       -3    1    3    3    0  502  0.37776753270E+03  0.20138282575E+03 -0.74640104531E+03  0.86045213807E+03  0.10100000352E+00 0.  1.
</event>
<event>
 5   0  0.3626546E-03  0.9005922E+03  0.7818609E-02  0.9424841E-01
       -2   -1    0    0    0  501  0.00000000000E+00  0.00000000000E+00  0.15448762265E+03  0.15448762267E+03  0.25500000920E-02 0.  1.
        2   -1    0    0  501    0  0.00000000000E+00  0.00000000000E+00 -0.13125101565E+04  0.13125101565E+04  0.25500000920E-02 0. -1.
    10030    2    1    2    0    0  0.00000000000E+00  0.00000000000E+00 -0.11580225338E+04  0.14669977792E+04  0.90059219140E+03 0.  0.
        3    1    3    3  502    0  0.35331721829E+03  0.63616862086E+02 -0.13623581221E+03  0.38397964609E+03  0.10100000352E+00 0.  1.
       -3    1    3    3    0  502 -0.35331721829E+03 -0.63616862086E+02 -0.10217867216E+04  0.10830181331E+04  0.10100000352E+00 0. -1.
</event>
<event>
 5   0  0.3626546E-03  0.9004059E+03  0.7818609E-02  0.9425074E-01
       -2   -1    0    0    0  501  0.00000000000E+00  0.00000000000E+00  0.30777475312E+03  0.30777475313E+03  0.25500000920E-02 0. -1.
        2   -1    0    0  501    0  0.00000000000E+00  0.00000000000E+00 -0.65854237678E+03  0.65854237678E+03  0.25500000920E-02 0.  1.
    10030    2    1    2    0    0  0.00000000000E+00  0.00000000000E+00 -0.35076762366E+03  0.96631712991E+03  0.90040594720E+03 0.  0.
        3    1    3    3  502    0 -0.77836103691E+02  0.27826417298E+03  0.19513242307E+03  0.34866327845E+03  0.10100000352E+00 0. -1.
       -3    1    3    3    0  502  0.77836103691E+02 -0.27826417298E+03 -0.54590004673E+03  0.61765385146E+03  0.10100000352E+00 0.  1.
</event>
<event>
 5   0  0.2074970E-03  0.8998284E+03  0.7818609E-02  0.9425796E-01
       -1   -1    0    0    0  501  0.00000000000E+00  0.00000000000E+00  0.29482430454E+03  0.29482430458E+03  0.50400001928E-02 0. -1.
        1   -1    0    0  501    0  0.00000000000E+00  0.00000000000E+00 -0.68658789531E+03  0.68658789533E+03  0.50400001928E-02 0.  1.
    10030    2    1    2    0    0  0.00000000000E+00  0.00000000000E+00 -0.39176359078E+03  0.98141219991E+03  0.89982842536E+03 0.  0.
        2    1    3    3  502    0  0.33849847952E+03 -0.72209328689E+02 -0.50939350333E+03  0.61585481164E+03  0.25500000920E-02 0.  1.
       -2    1    3    3    0  502 -0.33849847952E+03  0.72209328689E+02  0.11762991255E+03  0.36555738827E+03  0.25500000920E-02 0. -1.
</event>
<event>
 5   0  0.2130975E-03  0.8962584E+03  0.7818609E-02  0.9430271E-01
        1   -1    0    0  501    0  0.00000000000E+00  0.00000000000E+00  0.94226779018E+03  0.94226779019E+03  0.50400001928E-02 0. -1.
       -1   -1    0    0    0  501  0.00000000000E+00  0.00000000000E+00 -0.21312388663E+03  0.21312388669E+03  0.50400001928E-02 0.  1.
    10030    2    1    2    0    0  0.00000000000E+00  0.00000000000E+00  0.72914390355E+03  0.11553916769E+04  0.89625838625E+03 0.  0.
        5    1    3    3  502    0 -0.78208651010E+01 -0.12838773790E+03  0.91792640807E+03  0.92690644501E+03  0.46999998093E+01 0. -1.
       -5    1    3    3    0  502  0.78208651010E+01  0.12838773790E+03 -0.18878250452E+03  0.22848523187E+03  0.46999998093E+01 0.  1.
</event>
<event>
 5   0  0.2134145E-03  0.8988829E+03  0.7818609E-02  0.9426979E-01
       -1   -1    0    0    0  501  0.00000000000E+00  0.00000000000E+00  0.22779599743E+03  0.22779599749E+03  0.50400001928E-02 0.  1.
        1   -1    0    0  501    0  0.00000000000E+00  0.00000000000E+00 -0.88674791871E+03  0.88674791872E+03  0.50400001928E-02 0. -1.
    10030    2    1    2    0    0  0.00000000000E+00  0.00000000000E+00 -0.65895192128E+03  0.11145439162E+04  0.89888292152E+03 0.  0.
        1    1    3    3  502    0 -0.11635279100E+03 -0.29092902628E+03  0.70040315909E+02  0.32106590630E+03  0.50400001928E-02 0.  1.
       -1    1    3    3    0  502  0.11635279100E+03  0.29092902628E+03 -0.72899223719E+03  0.79347800991E+03  0.50400001928E-02 0. -1.
</event>
<event>
 5   0  0.3815269E-03  0.8985057E+03  0.7818609E-02  0.9427451E-01
       -2   -1    0    0    0  501  0.00000000000E+00  0.00000000000E+00  0.37465077044E+03  0.37465077045E+03  0.25500000920E-02 0.  1.
        2   -1    0    0  501    0  0.00000000000E+00  0.00000000000E+00 -0.53871001181E+03  0.53871001182E+03  0.25500000920E-02 0. -1.
    10030    2    1    2    0    0  0.00000000000E+00  0.00000000000E+00 -0.16405924137E+03  0.91336078227E+03  0.89850569498E+03 0.  0.
        5    1    3    3  502    0  0.32955698409E+03  0.23914490125E+03  0.11086524698E+03  0.42203232405E+03  0.46999998093E+01 0.  1.
       -5    1    3    3    0  502 -0.32955698409E+03 -0.23914490125E+03 -0.27492448834E+03  0.49132845821E+03  0.46999998093E+01 0. -1.
</event>
<event>
 5   0  0.3626546E-03  0.8975958E+03  0.7818609E-02  0.9428592E-01
       -2   -1    0    0    0  501  0.00000000000E+00  0.00000000000E+00  0.30818129054E+03  0.30818129055E+03  0.25500000920E-02 0. -1.
        2   -1    0    0  501    0  0.00000000000E+00  0.00000000000E+00 -0.65357487191E+03  0.65357487192E+03  0.25500000920E-02 0.  1.
    10030    2    1    2    0    0  0.00000000000E+00  0.00000000000E+00 -0.34539358137E+03  0.96175616247E+03  0.89759578319E+03 0.  0.
        3    1    3    3  502    0  0.14096093390E+03  0.42330328613E+03 -0.12060168533E+03  0.46216926947E+03  0.10100000352E+00 0. -1.
       -3    1    3    3    0  502 -0.14096093390E+03 -0.42330328613E+03 -0.22479189604E+03  0.49958689300E+03  0.10100000352E+00 0.  1.
</event>
<event>
 5   0  0.3663255E-03  0.8998360E+03  0.7818609E-02  0.9425786E-01
       -2   -1    0    0    0  501  0.00000000000E+00  0.00000000000E+00  0.44901848734E+03  0.44901848734E+03  0.25500000920E-02 0.  1.
        2   -1    0    0  501    0  0.00000000000E+00  0.00000000000E+00 -0.45081928244E+03  0.45081928244E+03  0.25500000920E-02 0. -1.
    10030    2    1    2    0    0  0.00000000000E+00  0.00000000000E+00 -0.18007950990E+01  0.89983776979E+03  0.89983596787E+03 0.  0.
        4    1    3    3  502    0  0.31773014749E+03  0.29528599893E+03 -0.12039252601E+03  0.45015801782E+03  0.12699999809E+01 0. -1.
       -4    1    3    3    0  502 -0.31773014749E+03 -0.29528599893E+03  0.11859173091E+03  0.44967975197E+03  0.12699999809E+01 0.  1.
</event>
<event>
 5   0  0.3626546E-03  0.8969931E+03  0.7818609E-02  0.9429348E-01
        2   -1    0    0  501    0  0.00000000000E+00  0.00000000000E+00  0.37634694529E+03  0.37634694530E+03  0.25500000920E-02 0.  1.
       -2   -1    0    0    0  501  0.00000000000E+00  0.00000000000E+00 -0.53447802919E+03  0.53447802920E+03  0.25500000920E-02 0. -1.
    10030    2    1    2    0    0  0.00000000000E+00  0.00000000000E+00 -0.15813108390E+03  0.91082497450E+03  0.89699314071E+03 0.  0.
        3    1    3    3  502    0  0.21374471736E+03  0.26570756326E+03 -0.37486818898E+03  0.50676768117E+03  0.10100000352E+00 0. -1.
       -3    1    3    3    0  502 -0.21374471736E+03 -0.26570756326E+03  0.21673710508E+03  0.40405729333E+03  0.10100000352E+00 0.  1.
</event>
<event>
 5   0  0.2130975E-03  0.9055710E+03  0.7818609E-02  0.9418644E-01
        1   -1    0    0  501    0  0.00000000000E+00  0.00000000000E+00  0.27184648632E+03  0.27184648637E+03  0.50400001928E-02 0. -1.
       -1   -1    0    0    0  501  0.00000000000E+00  0.00000000000E+00 -0.75415626148E+03  0.75415626149E+03  0.50400001928E-02 0.  1.
    10030    2    1    2    0    0  0.00000000000E+00  0.00000000000E+00 -0.48230977516E+03  0.10260027479E+04  0.90557104603E+03 0.  0.
        5    1    3    3  502    0  0.44602552598E+03  0.12839344162E+02 -0.15420929796E+03  0.47212944852E+03  0.46999998093E+01 0.  1.
       -5    1    3    3    0  502 -0.44602552598E+03 -0.12839344162E+02 -0.32810047719E+03  0.55387329934E+03  0.46999998093E+01 0. -1.
</event>
<event>
 5   0  0.2295158E-03  0.8905454E+03  0.7818609E-02  0.9437478E-01
       -1   -1    0    0    0  501  0.00000000000E+00  0.00000000000E+00  0.82265643918E+03  0.82265643919E+03  0.50400001928E-02 0.  1.
        1   -1    0    0  501    0  0.00000000000E+00  0.00000000000E+00 -0.24100920098E+03  0.24100920104E+03  0.50400001928E-02 0. -1.
    10030    2    1    2    0    0  0.00000000000E+00  0.00000000000E+00  0.58164723819E+03  0.10636656402E+04  0.89054538599E+03 0.  0.
        4    1    3    3  502    0  0.34055427504E+02 -0.34770828819E+03 -0.38893695037E+02  0.35153258488E+03  0.12699999809E+01 0.  1.
       -4    1    3    3    0  502 -0.34055427504E+02  0.34770828819E+03  0.62054093323E+03  0.71213305536E+03  0.12699999809E+01 0. -1.
</event>
<event>
 5   0  0.2130975E-03  0.8942638E+03  0.7818609E-02  0.9432781E-01
        1   -1    0    0  501    0  0.00000000000E+00  0.00000000000E+00  0.12013322388E+04  0.12013322389E+04  0.50400001928E-02 0. -1.
       -1   -1    0    0    0  501  0.00000000000E+00  0.00000000000E+00 -0.16642101403E+03  0.16642101411E+03  0.50400001928E-02 0.  1.
    10030    2    1    2    0    0  0.00000000000E+00  0.00000000000E+00  0.10349112248E+04  0.13677532530E+04  0.89426378533E+03 0.  0.
        5    1    3    3  502    0  0.40845267370E+03  0.79655202664E+02  0.76749679497E+03  0.87307041999E+03  0.46999998093E+01 0. -1.
       -5    1    3    3    0  502 -0.40845267370E+03 -0.79655202664E+02  0.26741442984E+03  0.49468283298E+03  0.46999998093E+01 0.  1.
</event>
<event>
 5   0  0.2295158E-03  0.9299615E+03  0.7818609E-02  0.9388884E-01
       -1   -1    0    0    0  501  0.00000000000E+00  0.00000000000E+00  0.60913033163E+03  0.60913033165E+03  0.50400001928E-02 0.  1.
        1   -1    0    0  501    0  0.00000000000E+00  0.00000000000E+00 -0.35494388637E+03  0.35494388641E+03  0.50400001928E-02 0. -1.
    10030    2    1    2    0    0  0.00000000000E+00  0.00000000000E+00  0.25418644526E+03  0.96407421806E+03  0.92996147714E+03 0.  0.
        4    1    3    3  502    0  0.19535299583E+03 -0.41996998802E+03  0.84755325785E+02  0.47087435901E+03  0.12699999809E+01 0. -1.
       -4    1    3    3    0  502 -0.19535299583E+03  0.41996998802E+03  0.16943111947E+03  0.49319985905E+03  0.12699999809E+01 0.  1.
</event>
<event>
 5   0  0.3626546E-03  0.8934528E+03  0.7818609E-02  0.9433803E-01
       -2   -1    0    0    0  501  0.00000000000E+00  0.00000000000E+00  0.52327529434E+03  0.52327529434E+03  0.25500000920E-02 0.  1.
        2   -1    0    0  501    0  0.00000000000E+00  0.00000000000E+00 -0.38137573056E+03  0.38137573057E+03  0.25500000920E-02 0. -1.
    10030    2    1    2    0    0  0.00000000000E+00  0.00000000000E+00  0.14189956378E+03  0.90465102491E+03  0.89345284748E+03 0.  0.
        3    1    3    3  502    0  0.27127062653E+03  0.35266172484E+03  0.30366979564E+02  0.44595987334E+03  0.10100000352E+00 0. -1.
       -3    1    3    3    0  502 -0.27127062653E+03 -0.35266172484E+03  0.11153258421E+03  0.45869115157E+03  0.10100000352E+00 0.  1.
</event>
<event>
 5   0  0.2129280E-03  0.8981835E+03  0.7818609E-02  0.9427855E-01
       -1   -1    0    0    0  501  0.00000000000E+00  0.00000000000E+00  0.30946840762E+03  0.30946840766E+03  0.50400001928E-02 0.  1.
        1   -1    0    0  501    0  0.00000000000E+00  0.00000000000E+00 -0.65170913482E+03  0.65170913484E+03  0.50400001928E-02 0. -1.
    10030    2    1    2    0    0  0.00000000000E+00  0.00000000000E+00 -0.34224072721E+03  0.96117754250E+03  0.89818347393E+03 0.  0.
        3    1    3    3  502    0  0.28361810087E+03 -0.87264746605E+02  0.18961039564E+03  0.35214553167E+03  0.10100000352E+00 0.  1.
       -3    1    3    3    0  502 -0.28361810087E+03  0.87264746605E+02 -0.53185112284E+03  0.60903201083E+03  0.10100000352E+00 0. -1.
</event>
<event>
 5   0  0.1436000E-03  0.8965086E+03  0.7818609E-02  0.9429956E-01
        4   -1    0    0  501    0  0.00000000000E+00  0.00000000000E+00  0.12442313720E+04  0.12442320202E+04  0.12699999809E+01 0. -1.
       -4   -1    0    0    0  501  0.00000000000E+00  0.00000000000E+00 -0.16148759565E+03  0.16149258946E+03  0.12699999809E+01 0.  1.
    10030    2    1    2    0    0  0.00000000000E+00  0.00000000000E+00  0.10827437764E+04  0.14057246096E+04  0.89650855705E+03 0.  0.
        2    1    3    3  502    0  0.93159168471E+02  0.91780096573E+02 -0.13091342860E+03  0.18504200224E+03  0.25500000920E-02 0.  1.
       -2    1    3    3    0  502 -0.93159168471E+02 -0.91780096573E+02  0.12136572050E+04  0.12206826074E+04  0.25500000920E-02 0. -1.
</event>
<event>
 5   0  0.3626546E-03  0.8997806E+03  0.7818609E-02  0.9425856E-01
       -2   -1    0    0    0  501  0.00000000000E+00  0.00000000000E+00  0.19718301501E+03  0.19718301503E+03  0.25500000920E-02 0. -1.
        2   -1    0    0  501    0  0.00000000000E+00  0.00000000000E+00 -0.10264641220E+04  0.10264641220E+04  0.25500000920E-02 0.  1.
    10030    2    1    2    0    0  0.00000000000E+00  0.00000000000E+00 -0.82928110697E+03  0.12236471370E+04  0.89978061856E+03 0.  0.
        3    1    3    3  502    0  0.13025497043E+03  0.23100472150E+02 -0.99941654779E+03  0.10081336396E+04  0.10100000352E+00 0.  1.
       -3    1    3    3    0  502 -0.13025497043E+03 -0.23100472150E+02  0.17013544082E+03  0.21551349739E+03  0.10100000352E+00 0. -1.
</event>
<event>
 5   0  0.2129280E-03  0.8999679E+03  0.7818609E-02  0.9425622E-01
       -1   -1    0    0    0  501  0.00000000000E+00  0.00000000000E+00  0.10471410579E+03  0.10471410591E+03  0.50400001928E-02 0. -1.
        1   -1    0    0  501    0  0.00000000000E+00  0.00000000000E+00 -0.19336990597E+04  0.19336990597E+04  0.50400001928E-02 0.  1.
    10030    2    1    2    0    0  0.00000000000E+00  0.00000000000E+00 -0.18289849539E+04  0.20384131656E+04  0.89996792839E+03 0.  0.
        3    1    3    3  502    0 -0.42501623368E+03 -0.56896691851E+02 -0.60551072498E+03  0.74196986509E+03  0.10100000352E+00 0.  1.
       -3    1    3    3    0  502  0.42501623368E+03  0.56896691851E+02 -0.12234742289E+04  0.12964433005E+04  0.10100000352E+00 0. -1.
</event>
<event>
 5   0  0.3663255E-03  0.9280479E+03  0.7818609E-02  0.9391184E-01
        2   -1    0    0  501    0  0.00000000000E+00  0.00000000000E+00  0.93890602265E+03  0.93890602266E+03  0.25500000920E-02 0.  1.
       -2   -1    0    0    0  501  0.00000000000E+00  0.00000000000E+00 -0.22932882166E+03  0.22932882167E+03  0.25500000920E-02 0. -1.
    10030    2    1    2    0    0  0.00000000000E+00  0.00000000000E+00  0.70957720100E+03  0.11682348443E+04  0.92804786910E+03 0.  0.
        4    1    3    3  502    0  0.84119372390E+02 -0.11145680423E+03 -0.20225088902E+03  0.24577575761E+03  0.12699999809E+01 0. -1.
       -4    1    3    3    0  502 -0.84119372390E+02  0.11145680423E+03  0.91182809002E+03  0.92245908672E+03  0.12699999809E+01 0.  1.
</event>
<event>
 5   0  0.1436000E-03  0.9015956E+03  0.7818609E-02  0.9423589E-01
       -4   -1    0    0    0  501  0.00000000000E+00  0.00000000000E+00  0.72913596102E+03  0.72913706705E+03  0.12699999809E+01 0.  1.
        4   -1    0    0  501    0  0.00000000000E+00  0.00000000000E+00 -0.27870885771E+03  0.27871175121E+03  0.12699999809E+01 0. -1.
    10030    2    1    2    0    0  0.00000000000E+00  0.00000000000E+00  0.45042710331E+03  0.10078488183E+04  0.90159562171E+03 0.  0.
        4    1    3    3  502    0  0.76044707358E+02  0.55524826269E+02  0.71802100258E+03  0.72416957744E+03  0.12699999809E+01 0.  1.
       -4    1    3    3    0  502 -0.76044707358E+02 -0.55524826269E+02 -0.26759389927E+03  0.28367924082E+03  0.12699999809E+01 0. -1.
</event>
<event>
 5   0  0.2074970E-03  0.8993430E+03  0.7818609E-02  0.9426403E-01
        1   -1    0    0  501    0  0.00000000000E+00  0.00000000000E+00  0.71751291573E+03  0.71751291575E+03  0.50400001928E-02 0. -1.
       -1   -1    0    0    0  501  0.00000000000E+00  0.00000000000E+00 -0.28181299516E+03  0.28181299520E+03  0.50400001928E-02 0.  1.
    10030    2    1    2    0    0  0.00000000000E+00  0.00000000000E+00  0.43569992058E+03  0.99932591095E+03  0.89934301326E+03 0.  0.
        2    1    3    3  502    0 -0.15030111395E+03 -0.16267676725E+03  0.65270120837E+03  0.68925541193E+03  0.25500000920E-02 0. -1.
       -2    1    3    3    0  502  0.15030111395E+03  0.16267676725E+03 -0.21700128779E+03  0.31007049902E+03  0.25500000920E-02 0.  1.
</event>
<event>
 5   0  0.2295158E-03  0.9031218E+03  0.7818609E-02  0.9421687E-01
       -1   -1    0    0    0  501  0.00000000000E+00  0.00000000000E+00  0.19018483065E+03  0.19018483072E+03  0.50400001928E-02 0. -1.
        1   -1    0    0  501    0  0.00000000000E+00  0.00000000000E+00 -0.10721529637E+04  0.10721529637E+04  0.50400001928E-02 0.  1.
    10030    2    1    2    0    0  0.00000000000E+00  0.00000000000E+00 -0.88196813301E+03  0.12623377944E+04  0.90312176339E+03 0.  0.
        4    1    3    3  502    0  0.17329366311E+03 -0.39826380491E+03 -0.26831328584E+03  0.51052755482E+03  0.12699999809E+01 0.  1.
       -4    1    3    3    0  502 -0.17329366311E+03  0.39826380491E+03 -0.61365484717E+03  0.75181023957E+03  0.12699999809E+01 0. -1.
</event>
<event>
 5   0  0.2129280E-03  0.8969920E+03  0.7818609E-02  0.9429349E-01
        1   -1    0    0  501    0  0.00000000000E+00  0.00000000000E+00  0.43318981759E+03  0.43318981762E+03  0.50400001928E-02 0. -1.
       -1   -1    0    0    0  501  0.00000000000E+00  0.00000000000E+00 -0.46434301456E+03  0.46434301459E+03  0.50400001928E-02 0.  1.
    10030    2    1    2    0    0  0.00000000000E+00  0.00000000000E+00 -0.31153196971E+02  0.89753283221E+03  0.89699200844E+03 0.  0.
        3    1    3    3  502    0 -0.34227274243E+03 -0.17924948989E+03 -0.24345860696E+03  0.45667615806E+03  0.10100000352E+00 0.  1.
       -3    1    3    3    0  502  0.34227274243E+03  0.17924948989E+03  0.21230540999E+03  0.44085667415E+03  0.10100000352E+00 0. -1.
</event>
<event>
 5   0  0.2130975E-03  0.9045775E+03  0.7818609E-02  0.9419877E-01
       -1   -1    0    0    0  501  0.00000000000E+00  0.00000000000E+00  0.20778325918E+04  0.20778325918E+04  0.50400001928E-02 0. -1.
        1   -1    0    0  501    0  0.00000000000E+00  0.00000000000E+00 -0.98451209218E+02  0.98451209347E+02  0.50400001928E-02 0.  1.
    10030    2    1    2    0    0  0.00000000000E+00  0.00000000000E+00  0.19793813825E+04  0.21762838011E+04  0.90457753975E+03 0.  0.
        5    1    3    3  502    0 -0.10897232795E+03  0.43516843215E+03  0.85155788137E+03  0.96250685604E+03  0.46999998093E+01 0.  1.
       -5    1    3    3    0  502  0.10897232795E+03 -0.43516843215E+03  0.11278235012E+04  0.12137769451E+04  0.46999998093E+01 0. -1.
</event>
<event>
 5   0  0.3626546E-03  0.8988709E+03  0.7818609E-02  0.9426994E-01
        2   -1    0    0  501    0  0.00000000000E+00  0.00000000000E+00  0.19045692338E+04  0.19045692338E+04  0.25500000920E-02 0.  1.
       -2   -1    0    0    0  501  0.00000000000E+00  0.00000000000E+00 -0.10605665686E+03  0.10605665689E+03  0.25500000920E-02 0. -1.
    10030    2    1    2    0    0  0.00000000000E+00  0.00000000000E+00  0.17985125769E+04  0.20106258907E+04  0.89887094895E+03 0.  0.
        3    1    3    3  502    0 -0.11627279046E+03  0.42630548843E+03  0.10828472177E+04  0.11695357363E+04  0.10100000352E+00 0. -1.
       -3    1    3    3    0  502  0.11627279046E+03 -0.42630548843E+03  0.71566535919E+03  0.84109015439E+03  0.10100000352E+00 0.  1.
</event>
<event>
 5   0  0.2134145E-03  0.9040398E+03  0.7818609E-02  0.9420546E-01
        1   -1    0    0  501    0  0.00000000000E+00  0.00000000000E+00  0.25482063818E+03  0.25482063823E+03  0.50400001928E-02 0.  1.
       -1   -1    0    0    0  501  0.00000000000E+00  0.00000000000E+00 -0.80182665731E+03  0.80182665733E+03  0.50400001928E-02 0. -1.
    10030    2    1    2    0    0  0.00000000000E+00  0.00000000000E+00 -0.54700601913E+03  0.10566472956E+04  0.90403977913E+03 0.  0.
        1    1    3    3  502    0  0.14672070655E+03 -0.27682418311E+03 -0.65433189965E+03  0.72547145293E+03  0.50400001928E-02 0. -1.
       -1    1    3    3    0  502 -0.14672070655E+03  0.27682418311E+03  0.10732588052E+03  0.33117584263E+03  0.50400001928E-02 0.  1.
</event>
<event>
 5   0  0.3685879E-03  0.9006935E+03  0.7818609E-02  0.9424715E-01
       -2   -1    0    0    0  501  0.00000000000E+00  0.00000000000E+00  0.10329163203E+03  0.10329163206E+03  0.25500000920E-02 0.  1.
        2   -1    0    0  501    0  0.00000000000E+00  0.00000000000E+00 -0.19634908551E+04  0.19634908551E+04  0.25500000920E-02 0. -1.
    10030    2    1    2    0    0  0.00000000000E+00  0.00000000000E+00 -0.18601992231E+04  0.20667824872E+04  0.90069345490E+03 0.  0.
        1    1    3    3  502    0 -0.29270414548E+02 -0.21524723801E+03 -0.18353237260E+04  0.18481345486E+04  0.50400001928E-02 0. -1.
       -1    1    3    3    0  502  0.29270414548E+02  0.21524723801E+03 -0.24875497077E+02  0.21864793852E+03  0.50400001928E-02 0.  1.
</event>
<event>
 5   0  0.2129280E-03  0.8996840E+03  0.7818609E-02  0.9425976E-01
       -1   -1    0    0    0  501  0.00000000000E+00  0.00000000000E+00  0.18762375492E+03  0.18762375499E+03  0.50400001928E-02 0.  1.
        1   -1    0    0  501    0  0.00000000000E+00  0.00000000000E+00 -0.10785299372E+04  0.10785299372E+04  0.50400001928E-02 0. -1.
    10030    2    1    2    0    0  0.00000000000E+00  0.00000000000E+00 -0.89090618225E+03  0.12661536922E+04  0.89968402600E+03 0.  0.
        3    1    3    3  502    0  0.37057827631E+03  0.66635613954E+02 -0.99040037052E+02  0.38932955586E+03  0.10100000352E+00 0.  1.
       -3    1    3    3    0  502 -0.37057827631E+03 -0.66635613954E+02 -0.79186614520E+03  0.87682413632E+03  0.10100000352E+00 0. -1.
</event>
<event>
 5   0  0.2074970E-03  0.8997866E+03  0.7818609E-02  0.9425848E-01
        1   -1    0    0  501    0  0.00000000000E+00  0.00000000000E+00  0.96608114190E+03  0.96608114191E+03  0.50400001928E-02 0. -1.
       -1   -1    0    0    0  501  0.00000000000E+00  0.00000000000E+00 -0.20951031231E+03  0.20951031237E+03  0.50400001928E-02 0.  1.
    10030    2    1    2    0    0  0.00000000000E+00  0.00000000000E+00  0.75657082959E+03  0.11755914543E+04  0.89978655646E+03 0.  0.
        2    1    3    3  502    0 -0.18459616172E+03  0.11548756072E+03 -0.13607784416E+03  0.25676896089E+03  0.25500000920E-02 0.  1.
       -2    1    3    3    0  502  0.18459616172E+03 -0.11548756072E+03  0.89264867375E+03  0.91882249339E+03  0.25500000920E-02 0. -1.
</event>
<event>
 5   0  0.2130975E-03  0.9029810E+03  0.7818609E-02  0.9421863E-01
        1   -1    0    0  501    0  0.00000000000E+00  0.00000000000E+00  0.49556096958E+03  0.49556096961E+03  0.50400001928E-02 0. -1.
       -1   -1    0    0    0  501  0.00000000000E+00  0.00000000000E+00 -0.41133926381E+03  0.41133926385E+03  0.50400001928E-02 0.  1.
    10030    2    1    2    0    0  0.00000000000E+00  0.00000000000E+00  0.84221705766E+02  0.90690023345E+03  0.90298102843E+03 0.  0.
        5    1    3    3  502    0  0.99303071847E+02  0.29621161009E+03 -0.28521654091E+03  0.42305198644E+03  0.46999998093E+01 0.  1.
       -5    1    3    3    0  502 -0.99303071847E+02 -0.29621161009E+03  0.36943824667E+03  0.48384824701E+03  0.46999998093E+01 0. -1.
</event>
<event>
 5   0  0.3815269E-03  0.9020649E+03  0.7818609E-02  0.9423004E-01
        2   -1    0    0  501    0  0.00000000000E+00  0.00000000000E+00  0.11263244426E+04  0.11263244426E+04  0.25500000920E-02 0. -1.
       -2   -1    0    0    0  501  0.00000000000E+00  0.00000000000E+00 -0.18061426099E+03  0.18061426101E+03  0.25500000920E-02 0.  1.
    10030    2    1    2    0    0  0.00000000000E+00  0.00000000000E+00  0.94571018157E+03  0.13069387036E+04  0.90206486872E+03 0.  0.
        5    1    3    3  502    0  0.31905129834E+03 -0.16740568698E+03  0.79824659288E+02  0.36906972408E+03  0.46999998093E+01 0.  1.
       -5    1    3    3    0  502 -0.31905129834E+03  0.16740568698E+03  0.86588552228E+03  0.93786897949E+03  0.46999998093E+01 0. -1.
</event>
<event>
 5   0  0.3815269E-03  0.9058403E+03  0.7818609E-02  0.9418310E-01
       -2   -1    0    0    0  501  0.00000000000E+00  0.00000000000E+00  0.11072016028E+03  0.11072016031E+03  0.25500000920E-02 0. -1.
        2   -1    0    0  501    0  0.00000000000E+00  0.00000000000E+00 -0.18527487970E+04  0.18527487971E+04  0.25500000920E-02 0.  1.
    10030    2    1    2    0    0  0.00000000000E+00  0.00000000000E+00 -0.17420286368E+04  0.19634689574E+04  0.90584025919E+03 0.  0.
        5    1    3    3  502    0 -0.31650750568E+03  0.30260941620E+03 -0.11216012553E+04  0.12040601837E+04  0.46999998093E+01 0. -1.
       -5    1    3    3    0  502  0.31650750568E+03 -0.30260941620E+03 -0.62042738144E+03  0.75940877370E+03  0.46999998093E+01 0.  1.
</event>
<event>
 5   0  0.3815269E-03  0.8983788E+03  0.7818609E-02  0.9427610E-01
        2   -1    0    0  501    0  0.00000000000E+00  0.00000000000E+00  0.92354247771E+03  0.92354247771E+03  0.25500000920E-02 0. -1.
       -2   -1    0    0    0  501  0.00000000000E+00  0.00000000000E+00 -0.21847520280E+03  0.21847520281E+03  0.25500000920E-02 0.  1.
    10030    2    1    2    0    0  0.00000000000E+00  0.00000000000E+00  0.70506727491E+03  0.11420176805E+04  0.89837882904E+03 0.  0.
        5    1    3    3  502    0 -0.13632540044E+03  0.27088814789E+03  0.77372835556E+03  0.83104913313E+03  0.46999998093E+01 0. -1.
       -5    1    3    3    0  502  0.13632540044E+03 -0.27088814789E+03 -0.68661080649E+02  0.31096854739E+03  0.46999998093E+01 0.  1.
</event>
<event>
 5   0  0.2295158E-03  0.8988191E+03  0.7818609E-02  0.9427059E-01
        1   -1    0    0  501    0  0.00000000000E+00  0.00000000000E+00  0.24279464789E+04  0.24279464789E+04  0.50400001928E-02 0. -1.
       -1   -1    0    0    0  501  0.00000000000E+00  0.00000000000E+00 -0.83185088581E+02  0.83185088734E+02  0.50400001928E-02 0.  1.
    10030    2    1    2    0    0  0.00000000000E+00  0.00000000000E+00  0.23447613903E+04  0.25111315676E+04  0.89881909885E+03 0.  0.
        4    1    3    3  502    0  0.35175013651E+02 -0.38911416417E+03  0.17928347968E+04  0.18349128960E+04  0.12699999809E+01 0. -1.
       -4    1    3    3    0  502 -0.35175013651E+02  0.38911416417E+03  0.55192659345E+03  0.67621867159E+03  0.12699999809E+01 0.  1.
</event>
<event>
 5   0  0.3806019E-03  0.8930758E+03  0.7818609E-02  0.9434279E-01
       -2   -1    0    0    0  501  0.00000000000E+00  0.00000000000E+00  0.82104970320E+03  0.82104970320E+03  0.25500000920E-02 0.  1.
        2   -1    0    0  501    0  0.00000000000E+00  0.00000000000E+00 -0.24285507240E+03  0.24285507241E+03  0.25500000920E-02 0. -1.
    10030    2    1    2    0    0  0.00000000000E+00  0.00000000000E+00  0.57819463080E+03  0.10639047756E+04  0.89307577533E+03 0.  0.
        2    1    3    3  502    0  0.23275234255E+03  0.37420518361E+03  0.20325133590E+03  0.48529813306E+03  0.25500000920E-02 0.  1.
       -2    1    3    3    0  502 -0.23275234255E+03 -0.37420518361E+03  0.37494329491E+03  0.57860664255E+03  0.25500000920E-02 0. -1.
</event>
<event>
 5   0  0.3626546E-03  0.8993969E+03  0.7818609E-02  0.9426336E-01
       -2   -1    0    0    0  501  0.00000000000E+00  0.00000000000E+00  0.10631430305E+03  0.10631430308E+03  0.25500000920E-02 0. -1.
        2   -1    0    0  501    0  0.00000000000E+00  0.00000000000E+00 -0.19021778174E+04  0.19021778174E+04  0.25500000920E-02 0.  1.
    10030    2    1    2    0    0  0.00000000000E+00  0.00000000000E+00 -0.17958635143E+04  0.20084921205E+04  0.89939692898E+03 0.  0.
        3    1    3    3  502    0  0.15639745597E+03  0.33410198240E+03 -0.14722667429E+04  0.15177791906E+04  0.10100000352E+00 0.  1.
       -3    1    3    3    0  502 -0.15639745597E+03 -0.33410198240E+03 -0.32359677142E+03  0.49071292988E+03  0.10100000352E+00 0. -1.
</event>
<event>
 5   0  0.2134145E-03  0.8994296E+03  0.7818609E-02  0.9426295E-01
       -1   -1    0    0    0  501  0.00000000000E+00  0.00000000000E+00  0.18805708272E+03  0.18805708279E+03  0.50400001928E-02 0.  1.
        1   -1    0    0  501    0  0.00000000000E+00  0.00000000000E+00 -0.10754363228E+04  0.10754363228E+04  0.50400001928E-02 0. -1.
    10030    2    1    2    0    0  0.00000000000E+00  0.00000000000E+00 -0.88737924006E+03  0.12634934056E+04  0.89942963607E+03 0.  0.
        1    1    3    3  502    0 -0.12743334067E+03 -0.13940164558E+03  0.12964204583E+03  0.22908324945E+03  0.50400001928E-02 0.  1.
       -1    1    3    3    0  502  0.12743334067E+03  0.13940164558E+03 -0.10170212859E+04  0.10344101561E+04  0.50400001928E-02 0. -1.
</event>
<event>
 5   0  0.3626546E-03  0.8994820E+03  0.7818609E-02  0.9426229E-01
        2   -1    0    0  501    0  0.00000000000E+00  0.00000000000E+00  0.78813772948E+03  0.78813772948E+03  0.25500000920E-02 0.  1.
       -2   -1    0    0    0  501  0.00000000000E+00  0.00000000000E+00 -0.25663908986E+03  0.25663908987E+03  0.25500000920E-02 0. -1.
    10030    2    1    2    0    0  0.00000000000E+00  0.00000000000E+00  0.53149863962E+03  0.10447768193E+04  0.89948196109E+03 0.  0.
        3    1    3    3  502    0  0.34868332773E+02 -0.44809979407E+03  0.24710272670E+03  0.51290251882E+03  0.10100000352E+00 0.  1.
       -3    1    3    3    0  502 -0.34868332773E+02  0.44809979407E+03  0.28439591293E+03  0.53187430053E+03  0.10100000352E+00 0. -1.
</event>
<event>
 5   0  0.2295158E-03  0.9014488E+03  0.7818609E-02  0.9423772E-01
       -1   -1    0    0    0  501  0.00000000000E+00  0.00000000000E+00  0.22724923380E+03  0.22724923385E+03  0.50400001928E-02 0.  1.
        1   -1    0    0  501    0  0.00000000000E+00  0.00000000000E+00 -0.89396325095E+03  0.89396325097E+03  0.50400001928E-02 0. -1.
    10030    2    1    2    0    0  0.00000000000E+00  0.00000000000E+00 -0.66671401716E+03  0.11212124848E+04  0.90144875364E+03 0.  0.
        4    1    3    3  502    0 -0.31904577126E+03  0.28595779670E+03 -0.50743771310E+03  0.66412100646E+03  0.12699999809E+01 0. -1.
       -4    1    3    3    0  502  0.31904577126E+03 -0.28595779670E+03 -0.15927630406E+03  0.45709147835E+03  0.12699999809E+01 0.  1.
</event>
<event>
 5   0  0.3815269E-03  0.9006961E+03  0.7818609E-02  0.9424712E-01
       -2   -1    0    0    0  501  0.00000000000E+00  0.00000000000E+00  0.17425915141E+03  0.17425915143E+03  0.25500000920E-02 0.  1.
        2   -1    0    0  501    0  0.00000000000E+00  0.00000000000E+00 -0.11638605862E+04  0.11638605862E+04  0.25500000920E-02 0. -1.
    10030    2    1    2    0    0  0.00000000000E+00  0.00000000000E+00 -0.98960143475E+03  0.13381197376E+04  0.90069608220E+03 0.  0.
        5    1    3    3  502    0 -0.82146121102E+02 -0.92359811620E+02  0.14852710498E+03  0.19328918989E+03  0.46999998093E+01 0.  1.
       -5    1    3    3    0  502  0.82146121102E+02  0.92359811620E+02 -0.11381285397E+04  0.11448305477E+04  0.46999998093E+01 0. -1.
</event>
<event>
 5   0  0.2129280E-03  0.8955860E+03  0.7818609E-02  0.9431116E-01
        1   -1    0    0  501    0  0.00000000000E+00  0.00000000000E+00  0.64535484534E+03  0.64535484536E+03  0.50400001928E-02 0. -1.
       -1   -1    0    0    0  501  0.00000000000E+00  0.00000000000E+00 -0.31071055939E+03  0.31071055944E+03  0.50400001928E-02 0.  1.
    10030    2    1    2    0    0  0.00000000000E+00  0.00000000000E+00  0.33464428594E+03  0.95606540479E+03  0.89558598701E+03 0.  0.
        3    1    3    3  502    0 -0.33707928415E+03 -0.28976023896E+03  0.22515742673E+03  0.49827634591E+03  0.10100000352E+00 0.  1.
       -3    1    3    3    0  502  0.33707928415E+03  0.28976023896E+03  0.10948685922E+03  0.45778905888E+03  0.10100000352E+00 0. -1.
</event>
<event>
 5   0  0.3806019E-03  0.9012510E+03  0.7818609E-02  0.9424019E-01
       -2   -1    0    0    0  501  0.00000000000E+00  0.00000000000E+00  0.14857497964E+03  0.14857497966E+03  0.25500000920E-02 0.  1.
        2   -1    0    0  501    0  0.00000000000E+00  0.00000000000E+00 -0.13667397422E+04  0.13667397422E+04  0.25500000920E-02 0. -1.
    10030    2    1    2    0    0  0.00000000000E+00  0.00000000000E+00 -0.12181647625E+04  0.15153147218E+04  0.90125097366E+03 0.  0.
        2    1    3    3  502    0  0.15803294626E+03 -0.12705490028E+03  0.67533469641E+02  0.21372442377E+03  0.25500000920E-02 0.  1.
       -2    1    3    3    0  502 -0.15803294626E+03  0.12705490028E+03 -0.12856982322E+04  0.13015902981E+04  0.25500000920E-02 0. -1.
</event>
<event>
 5   0  0.2130975E-03  0.8985758E+03  0.7818609E-02  0.9427364E-01
       -1   -1    0    0    0  501  0.00000000000E+00  0.00000000000E+00  0.10480164126E+03  0.10480164138E+03  0.50400001928E-02 0.  1.
        1   -1    0    0  501    0  0.00000000000E+00  0.00000000000E+00 -0.19261110115E+04  0.19261110115E+04  0.50400001928E-02 0. -1.
    10030    2    1    2    0    0  0.00000000000E+00  0.00000000000E+00 -0.18213093703E+04  0.20309126529E+04  0.89857575169E+03 0.  0.
        5    1    3    3  502    0  0.15948084844E+03  0.70000874110E+02 -0.18466479367E+04  0.18548490384E+04  0.46999998093E+01 0. -1.
       -5    1    3    3    0  502 -0.15948084844E+03 -0.70000874110E+02  0.25338566398E+02  0.17606361447E+03  0.46999998093E+01 0.  1.
</event>
<event>
 5   0  0.2074970E-03  0.9006708E+03  0.7818609E-02  0.9424743E-01
        1   -1    0    0  501    0  0.00000000000E+00  0.00000000000E+00  0.16127645292E+03  0.16127645300E+03  0.50400001928E-02 0. -1.
       -1   -1    0    0    0  501  0.00000000000E+00  0.00000000000E+00 -0.12574803492E+04  0.12574803492E+04  0.50400001928E-02 0.  1.
    10030    2    1    2    0    0  0.00000000000E+00  0.00000000000E+00 -0.10962038963E+04  0.14187568022E+04  0.90067079535E+03 0.  0.
        2    1    3    3  502    0  0.86569370127E+01  0.39253065285E+03 -0.89553300124E+03  0.97782136011E+03  0.25500000920E-02 0.  1.
       -2    1    3    3    0  502 -0.86569370127E+01 -0.39253065285E+03 -0.20067089508E+03  0.44093544212E+03  0.25500000920E-02 0. -1.
</event>
<event>
 5   0  0.2130975E-03  0.8984869E+03  0.7818609E-02  0.9427475E-01
       -1   -1    0    0    0  501  0.00000000000E+00  0.00000000000E+00  0.95705002762E+03  0.95705002763E+03  0.50400001928E-02 0.  1.
        1   -1    0    0  501    0  0.00000000000E+00  0.00000000000E+00 -0.21087685363E+03  0.21087685369E+03  0.50400001928E-02 0. -1.
    10030    2    1    2    0    0  0.00000000000E+00  0.00000000000E+00  0.74617317399E+03  0.11679268813E+04  0.89848694733E+03 0.  0.
        5    1    3    3  502    0  0.82592854156E+02 -0.43069089036E+03  0.24651395920E+03  0.50309784801E+03  0.46999998093E+01 0. -1.
       -5    1    3    3    0  502 -0.82592854156E+02  0.43069089036E+03  0.49965921479E+03  0.66482903331E+03  0.46999998093E+01 0.  1.
</event>
<event>
 5   0  0.3815269E-03  0.8963955E+03  0.7818609E-02  0.9430098E-01
        2   -1    0    0  501    0  0.00000000000E+00  0.00000000000E+00  0.27817696929E+04  0.27817696929E+04  0.25500000920E-02 0.  1.
       -2   -1    0    0    0  501  0.00000000000E+00  0.00000000000E+00 -0.72213463660E+02  0.72213463705E+02  0.25500000920E-02 0. -1.
    10030    2    1    2    0    0  0.00000000000E+00  0.00000000000E+00  0.27095562292E+04  0.28539831566E+04  0.89639550354E+03 0.  0.
        5    1    3    3  502    0  0.89252338295E+02 -0.19626737284E+03  0.10383838469E+03  0.23935613981E+03  0.46999998093E+01 0. -1.
       -5    1    3    3    0  502 -0.89252338295E+02  0.19626737284E+03  0.26057178445E+04  0.26146270168E+04  0.46999998093E+01 0.  1.
</event>
<event>
 5   0  0.2130975E-03  0.8997987E+03  0.7818609E-02  0.9425833E-01
       -1   -1    0    0    0  501  0.00000000000E+00  0.00000000000E+00  0.62449669294E+03  0.62449669296E+03  0.50400001928E-02 0.  1.
        1   -1    0    0  501    0  0.00000000000E+00  0.00000000000E+00 -0.32411612119E+03  0.32411612123E+03  0.50400001928E-02 0. -1.
    10030    2    1    2    0    0  0.00000000000E+00  0.00000000000E+00  0.30038057175E+03  0.94861281419E+03  0.89979874603E+03 0.  0.
        5    1    3    3  502    0 -0.78118246241E+02 -0.39682064222E+03 -0.57521772895E+02  0.40853387478E+03  0.46999998093E+01 0.  1.
       -5    1    3    3    0  502  0.78118246241E+02  0.39682064222E+03  0.35790234465E+03  0.54007893941E+03  0.46999998093E+01 0. -1.
</event>
<event>
 5   0  0.3685879E-03  0.8927933E+03  0.7818609E-02  0.9434635E-01
       -2   -1    0    0    0  501  0.00000000000E+00  0.00000000000E+00  0.34012349926E+03  0.34012349926E+03  0.25500000920E-02 0.  1.
        2   -1    0    0  501    0  0.00000000000E+00  0.00000000000E+00 -0.58587533331E+03  0.58587533332E+03  0.25500000920E-02 0. -1.
    10030    2    1    2    0    0  0.00000000000E+00  0.00000000000E+00 -0.24575183406E+03  0.92599883258E+03  0.89279329859E+03 0.  0.
        1    1    3    3  502    0 -0.17651807891E+03 -0.18039147384E+03 -0.50476893627E+03  0.56435041868E+03  0.50400001928E-02 0. -1.
       -1    1    3    3    0  502  0.17651807891E+03  0.18039147384E+03  0.25901710221E+03  0.36164841390E+03  0.50400001928E-02 0.  1.
</event>
<event>
 5   0  0.3815269E-03  0.9096085E+03  0.7818609E-02  0.9413649E-01
       -2   -1    0    0    0  501  0.00000000000E+00  0.00000000000E+00  0.84455141489E+03  0.84455141489E+03  0.25500000920E-02 0. -1.
        2   -1    0    0  501    0  0.00000000000E+00  0.00000000000E+00 -0.24491927476E+03  0.24491927477E+03  0.25500000920E-02 0.  1.
    10030    2    1    2    0    0  0.00000000000E+00  0.00000000000E+00  0.59963214013E+03  0.10894706897E+04  0.90960853127E+03 0.  0.
        5    1    3    3  502    0 -0.18845807924E+03  0.64074555272E+02 -0.18994340035E+03  0.27517736390E+03  0.46999998093E+01 0.  1.
       -5    1    3    3    0  502  0.18845807924E+03 -0.64074555272E+02  0.78957554048E+03  0.81429332577E+03  0.46999998093E+01 0. -1.
</event>
<event>
 5   0  0.3815269E-03  0.9147618E+03  0.7818609E-02  0.9407314E-01
        2   -1    0    0  501    0  0.00000000000E+00  0.00000000000E+00  0.17971035880E+04  0.17971035880E+04  0.25500000920E-02 0.  1.
       -2   -1    0    0    0  501  0.00000000000E+00  0.00000000000E+00 -0.11640801700E+03  0.11640801703E+03  0.25500000920E-02 0. -1.
    10030    2    1    2    0    0  0.00000000000E+00  0.00000000000E+00  0.16806955710E+04  0.19135116051E+04  0.91476175054E+03 0.  0.
        5    1    3    3  502    0 -0.28970725044E+03  0.97795079502E+02  0.15518137566E+04  0.15816580521E+04  0.46999998093E+01 0.  1.
       -5    1    3    3    0  502  0.28970725044E+03 -0.97795079502E+02  0.12888181440E+03  0.33185355296E+03  0.46999998093E+01 0. -1.
</event>
<event>
 5   0  0.2130975E-03  0.8998324E+03  0.7818609E-02  0.9425791E-01
        1   -1    0    0  501    0  0.00000000000E+00  0.00000000000E+00  0.63312024672E+03  0.63312024674E+03  0.50400001928E-02 0.  1.
       -1   -1    0    0    0  501  0.00000000000E+00  0.00000000000E+00 -0.31972531312E+03  0.31972531316E+03  0.50400001928E-02 0. -1.
    10030    2    1    2    0    0  0.00000000000E+00  0.00000000000E+00  0.31339493361E+03  0.95284555990E+03  0.89983236028E+03 0.  0.
        5    1    3    3  502    0  0.17639421277E+03 -0.73363635326E+02 -0.27461408180E+03  0.33456258788E+03  0.46999998093E+01 0. -1.
       -5    1    3    3    0  502 -0.17639421277E+03  0.73363635326E+02  0.58800901541E+03  0.61828297202E+03  0.46999998093E+01 0.  1.
</event>
<event>
 5   0  0.2130975E-03  0.8983029E+03  0.7818609E-02  0.9427705E-01
        1   -1    0    0  501    0  0.00000000000E+00  0.00000000000E+00  0.26587462408E+03  0.26587462412E+03  0.50400001928E-02 0.  1.
       -1   -1    0    0    0  501  0.00000000000E+00  0.00000000000E+00 -0.75876756488E+03  0.75876756489E+03  0.50400001928E-02 0. -1.
    10030    2    1    2    0    0  0.00000000000E+00  0.00000000000E+00 -0.49289294080E+03  0.10246421890E+04  0.89830293578E+03 0.  0.
        5    1    3    3  502    0  0.14705409073E+03  0.10610791599E+02 -0.73034964337E+03  0.74509743394E+03  0.46999998093E+01 0. -1.
       -5    1    3    3    0  502 -0.14705409073E+03 -0.10610791599E+02  0.23745670257E+03  0.27954475508E+03  0.46999998093E+01 0.  1.
</event>
<event>
 5   0  0.3815269E-03  0.8997848E+03  0.7818609E-02  0.9425850E-01
       -2   -1    0    0    0  501  0.00000000000E+00  0.00000000000E+00  0.18171313357E+03  0.18171313359E+03  0.25500000920E-02 0. -1.
        2   -1    0    0  501    0  0.00000000000E+00  0.00000000000E+00 -0.11138610980E+04  0.11138610980E+04  0.25500000920E-02 0.  1.
    10030    2    1    2    0    0  0.00000000000E+00  0.00000000000E+00 -0.93214796441E+03  0.12955742316E+04  0.89978484205E+03 0.  0.
        5    1    3    3  502    0 -0.39023456240E+03  0.51361261528E+02 -0.77975481921E+03  0.87347619370E+03  0.46999998093E+01 0.  1.
       -5    1    3    3    0  502  0.39023456240E+03 -0.51361261528E+02 -0.15239314520E+03  0.42209803788E+03  0.46999998093E+01 0. -1.
</event>
<event>
 5   0  0.2074970E-03  0.8984395E+03  0.7818609E-02  0.9427534E-01
        1   -1    0    0  501    0  0.00000000000E+00  0.00000000000E+00  0.25494476165E+03  0.25494476170E+03  0.50400001928E-02 0.  1.
       -1   -1    0    0    0  501  0.00000000000E+00  0.00000000000E+00 -0.79153767764E+03  0.79153767765E+03  0.50400001928E-02 0. -1.
    10030    2    1    2    0    0  0.00000000000E+00  0.00000000000E+00 -0.53659291599E+03  0.10464824393E+04  0.89843950179E+03 0.  0.
        2    1    3    3  502    0  0.10322234978E+02 -0.42763791791E+03 -0.10851522512E+03  0.44131201146E+03  0.25500000920E-02 0.  1.
       -2    1    3    3    0  502 -0.10322234978E+02  0.42763791791E+03 -0.42807769087E+03  0.60517042789E+03  0.25500000920E-02 0. -1.
</event>
<event>
 5   0  0.3685879E-03  0.9053037E+03  0.7818609E-02  0.9418976E-01
       -2   -1    0    0    0  501  0.00000000000E+00  0.00000000000E+00  0.10680089354E+03  0.10680089357E+03  0.25500000920E-02 0.  1.
        2   -1    0    0  501    0  0.00000000000E+00  0.00000000000E+00 -0.19184644358E+04  0.19184644358E+04  0.25500000920E-02 0. -1.
    10030    2    1    2    0    0  0.00000000000E+00  0.00000000000E+00 -0.18116635423E+04  0.20252653294E+04  0.90530374129E+03 0.  0.
        1    1    3    3  502    0 -0.43156515728E+03  0.52598894074E+02 -0.11877307768E+04  0.12648001924E+04  0.50400001928E-02 0. -1.
       -1    1    3    3    0  502  0.43156515728E+03 -0.52598894074E+02 -0.62393276552E+03  0.76046513697E+03  0.50400001928E-02 0.  1.
</event>
<event>
 5   0  0.2130975E-03  0.9008481E+03  0.7818609E-02  0.9424522E-01
       -1   -1    0    0    0  501  0.00000000000E+00  0.00000000000E+00  0.29525715602E+03  0.29525715606E+03  0.50400001928E-02 0.  1.
        1   -1    0    0  501    0  0.00000000000E+00  0.00000000000E+00 -0.68713600854E+03  0.68713600856E+03  0.50400001928E-02 0. -1.
    10030    2    1    2    0    0  0.00000000000E+00  0.00000000000E+00 -0.39187885252E+03  0.98239316462E+03  0.90084809754E+03 0.  0.
        5    1    3    3  502    0  0.36400093301E+03  0.24552163740E+03 -0.30543863747E+03  0.53487606501E+03  0.46999998093E+01 0.  1.
       -5    1    3    3    0  502 -0.36400093301E+03 -0.24552163740E+03 -0.86440215046E+02  0.44751709961E+03  0.46999998093E+01 0. -1.
</event>
<event>
 5   0  0.2134145E-03  0.8983565E+03  0.7818609E-02  0.9427638E-01
       -1   -1    0    0    0  501  0.00000000000E+00  0.00000000000E+00  0.11600112432E+04  0.11600112432E+04  0.50400001928E-02 0.  1.
        1   -1    0    0  501    0  0.00000000000E+00  0.00000000000E+00 -0.17393031282E+03  0.17393031290E+03  0.50400001928E-02 0. -1.
    10030    2    1    2    0    0  0.00000000000E+00  0.00000000000E+00  0.98608093039E+03  0.13339415561E+04  0.89835654050E+03 0.  0.
        1    1    3    3  502    0 -0.26964143832E+03 -0.27912639160E+02  0.10248546569E+04  0.10601003200E+04  0.50400001928E-02 0.  1.
       -1    1    3    3    0  502  0.26964143832E+03  0.27912639160E+02 -0.38773726541E+02  0.27384123608E+03  0.50400001928E-02 0. -1.
</event>
<event>
 5   0  0.2134145E-03  0.9005424E+03  0.7818609E-02  0.9424904E-01
       -1   -1    0    0    0  501  0.00000000000E+00  0.00000000000E+00  0.17573104026E+03  0.17573104033E+03  0.50400001928E-02 0.  1.
        1   -1    0    0  501    0  0.00000000000E+00  0.00000000000E+00 -0.11537185488E+04  0.11537185489E+04  0.50400001928E-02 0. -1.
    10030    2    1    2    0    0  0.00000000000E+00  0.00000000000E+00 -0.97798750858E+03  0.13294495892E+04  0.90054241612E+03 0.  0.
        1    1    3    3  502    0  0.20318826233E+03  0.35702328970E+03 -0.76117791000E+03  0.86495254785E+03  0.50400001928E-02 0.  1.
       -1    1    3    3    0  502 -0.20318826233E+03 -0.35702328970E+03 -0.21680959859E+03  0.46449704133E+03  0.50400001928E-02 0. -1.
</event>
<event>
 5   0  0.2295158E-03  0.9014211E+03  0.7818609E-02  0.9423807E-01
        1   -1    0    0  501    0  0.00000000000E+00  0.00000000000E+00  0.21271375784E+03  0.21271375790E+03  0.50400001928E-02 0. -1.
       -1   -1    0    0    0  501  0.00000000000E+00  0.00000000000E+00 -0.95499229812E+03  0.95499229814E+03  0.50400001928E-02 0.  1.
    10030    2    1    2    0    0  0.00000000000E+00  0.00000000000E+00 -0.74227854028E+03  0.11677060560E+04  0.90142110134E+03 0.  0.
        4    1    3    3  502    0 -0.34956056933E+03 -0.28509463283E+02 -0.73783979442E+03  0.81695443952E+03  0.12699999809E+01 0.  1.
       -4    1    3    3    0  502  0.34956056933E+03  0.28509463283E+02 -0.44387458639E+01  0.35075161652E+03  0.12699999809E+01 0. -1.
</event>
<event>
 5   0  0.3663255E-03  0.9019000E+03  0.7818609E-02  0.9423209E-01
       -2   -1    0    0    0  501  0.00000000000E+00  0.00000000000E+00  0.12097170415E+03  0.12097170418E+03  0.25500000920E-02 0. -1.
        2   -1    0    0  501    0  0.00000000000E+00  0.00000000000E+00 -0.16810204462E+04  0.16810204462E+04  0.25500000920E-02 0.  1.
    10030    2    1    2    0    0  0.00000000000E+00  0.00000000000E+00 -0.15600487420E+04  0.18019921503E+04  0.90190001244E+03 0.  0.
        4    1    3    3  502    0  0.18520146492E+03 -0.30923847406E+03 -0.23862186549E+03  0.43228465626E+03  0.12699999809E+01 0.  1.
       -4    1    3    3    0  502 -0.18520146492E+03  0.30923847406E+03 -0.13214268765E+04  0.13697074941E+04  0.12699999809E+01 0. -1.
</event>
<event>
 5   0  0.3626546E-03  0.8931372E+03  0.7818609E-02  0.9434201E-01
        2   -1    0    0  501    0  0.00000000000E+00  0.00000000000E+00  0.31442927402E+03  0.31442927403E+03  0.25500000920E-02 0. -1.
       -2   -1    0    0    0  501  0.00000000000E+00  0.00000000000E+00 -0.63423958897E+03  0.63423958897E+03  0.25500000920E-02 0.  1.
    10030    2    1    2    0    0  0.00000000000E+00  0.00000000000E+00 -0.31981031494E+03  0.94866886301E+03  0.89313715302E+03 0.  0.
        3    1    3    3  502    0 -0.33631955913E+03  0.27537608200E+03 -0.26864548060E+03  0.51099240389E+03  0.10100000352E+00 0.  1.
       -3    1    3    3    0  502  0.33631955913E+03 -0.27537608200E+03 -0.51164834346E+02  0.43767645912E+03  0.10100000352E+00 0. -1.
</event>
<event>
 5   0  0.2295158E-03  0.9002302E+03  0.7818609E-02  0.9425294E-01
        1   -1    0    0  501    0  0.00000000000E+00  0.00000000000E+00  0.74324308675E+03  0.74324308677E+03  0.50400001928E-02 0.  1.
       -1   -1    0    0    0  501  0.00000000000E+00  0.00000000000E+00 -0.27259398659E+03  0.27259398663E+03  0.50400001928E-02 0. -1.
    10030    2    1    2    0    0  0.00000000000E+00  0.00000000000E+00  0.47064910017E+03  0.10158370734E+04  0.90023018402E+03 0.  0.
        4    1    3    3  502    0  0.14867753344E+03 -0.40109152097E+03  0.77254937995E+02  0.43468305176E+03  0.12699999809E+01 0. -1.
       -4    1    3    3    0  502 -0.14867753344E+03  0.40109152097E+03  0.39339416217E+03  0.58115402164E+03  0.12699999809E+01 0.  1.
</event>
<event>
 5   0  0.3815269E-03  0.9009361E+03  0.7818609E-02  0.9424412E-01
       -2   -1    0    0    0  501  0.00000000000E+00  0.00000000000E+00  0.43928385854E+03  0.43928385855E+03  0.25500000920E-02 0. -1.
        2   -1    0    0  501    0  0.00000000000E+00  0.00000000000E+00 -0.46193698708E+03  0.46193698709E+03  0.25500000920E-02 0.  1.
    10030    2    1    2    0    0  0.00000000000E+00  0.00000000000E+00 -0.22653128543E+02  0.90122084564E+03  0.90093609562E+03 0.  0.
        5    1    3    3  502    0 -0.11628020674E+03  0.42650137692E+03 -0.97811169053E+02  0.45278430382E+03  0.46999998093E+01 0.  1.
       -5    1    3    3    0  502  0.11628020674E+03 -0.42650137692E+03  0.75158040509E+02  0.44843654182E+03  0.46999998093E+01 0. -1.
</event>
<event>
 5   0  0.3626546E-03  0.9058178E+03  0.7818609E-02  0.9418338E-01
       -2   -1    0    0    0  501  0.00000000000E+00  0.00000000000E+00  0.14125816944E+03  0.14125816947E+03  0.25500000920E-02 0. -1.
        2   -1    0    0  501    0  0.00000000000E+00  0.00000000000E+00 -0.14521387223E+04  0.14521387223E+04  0.25500000920E-02 0.  1.
    10030    2    1    2    0    0  0.00000000000E+00  0.00000000000E+00 -0.13108805529E+04  0.15933968918E+04  0.90581776912E+03 0.  0.
        3    1    3    3  502    0 -0.18723270908E+03 -0.40448091146E+03 -0.79688473864E+03  0.91306417735E+03  0.10100000352E+00 0.  1.
       -3    1    3    3    0  502  0.18723270908E+03  0.40448091146E+03 -0.51399581425E+03  0.68033271445E+03  0.10100000352E+00 0. -1.
</event>
<event>
 5   0  0.3663255E-03  0.9027123E+03  0.7818609E-02  0.9422197E-01
        2   -1    0    0  501    0  0.00000000000E+00  0.00000000000E+00  0.16203597636E+04  0.16203597636E+04  0.25500000920E-02 0. -1.
       -2   -1    0    0    0  501  0.00000000000E+00  0.00000000000E+00 -0.12572663917E+03  0.12572663920E+03  0.25500000920E-02 0.  1.
    10030    2    1    2    0    0  0.00000000000E+00  0.00000000000E+00  0.14946331244E+04  0.17460864028E+04  0.90271232926E+03 0.  0.
        4    1    3    3  502    0  0.10409639898E+03  0.59740022215E+02  0.15889245275E+04  0.15934515046E+04  0.12699999809E+01 0. -1.
       -4    1    3    3    0  502 -0.10409639898E+03 -0.59740022215E+02 -0.94291403112E+02  0.15263489816E+03  0.12699999809E+01 0.  1.
</event>
<event>
 5   0  0.3806019E-03  0.9016986E+03  0.7818609E-02  0.9423461E-01
       -2   -1    0    0    0  501  0.00000000000E+00  0.00000000000E+00  0.62697848407E+03  0.62697848408E+03  0.25500000920E-02 0.  1.
        2   -1    0    0  501    0  0.00000000000E+00  0.00000000000E+00 -0.32419786194E+03  0.32419786195E+03  0.25500000920E-02 0. -1.
    10030    2    1    2    0    0  0.00000000000E+00  0.00000000000E+00  0.30278062213E+03  0.95117634603E+03  0.90169858384E+03 0.  0.
        2    1    3    3  502    0  0.16135880826E+03  0.17817039523E+03 -0.25096233945E+03  0.34751036037E+03  0.25500000920E-02 0. -1.
       -2    1    3    3    0  502 -0.16135880826E+03 -0.17817039523E+03  0.55374296158E+03  0.60366598566E+03  0.25500000920E-02 0.  1.
</event>
<event>
 5   0  0.3806019E-03  0.8957241E+03  0.7818609E-02  0.9430942E-01
       -2   -1    0    0    0  501  0.00000000000E+00  0.00000000000E+00  0.30693380915E+03  0.30693380916E+03  0.25500000920E-02 0.  1.
        2   -1    0    0  501    0  0.00000000000E+00  0.00000000000E+00 -0.65349725573E+03  0.65349725574E+03  0.25500000920E-02 0. -1.
    10030    2    1    2    0    0  0.00000000000E+00  0.00000000000E+00 -0.34656344659E+03  0.96043106490E+03  0.89572406907E+03 0.  0.
        2    1    3    3  502    0 -0.18264816384E+03  0.24160507619E+02  0.26441851956E+03  0.32227509270E+03  0.25500000920E-02 0.  1.
       -2    1    3    3    0  502  0.18264816384E+03 -0.24160507619E+02 -0.61098196615E+03  0.63815597219E+03  0.25500000920E-02 0. -1.
</event>
<event>
 5   0  0.3806019E-03  0.9010116E+03  0.7818609E-02  0.9424318E-01
       -2   -1    0    0    0  501  0.00000000000E+00  0.00000000000E+00  0.59669819179E+03  0.59669819179E+03  0.25500000920E-02 0.  1.
        2   -1    0    0  501    0  0.00000000000E+00  0.00000000000E+00 -0.34013086324E+03  0.34013086325E+03  0.25500000920E-02 0. -1.
    10030    2    1    2    0    0  0.00000000000E+00  0.00000000000E+00  0.25656732855E+03  0.93682905505E+03  0.90101158944E+03 0.  0.
        2    1    3    3  502    0 -0.25791364777E+03  0.18486358440E+03 -0.20421201334E+03  0.37735466201E+03  0.25500000920E-02 0. -1.
       -2    1    3    3    0  502  0.25791364777E+03 -0.18486358440E+03  0.46077934189E+03  0.55947439303E+03  0.25500000920E-02 0.  1.
</event>
<event>
 5   0  0.3626546E-03  0.8985124E+03  0.7818609E-02  0.9427443E-01
        2   -1    0    0  501    0  0.00000000000E+00  0.00000000000E+00  0.84444212534E+03  0.84444212534E+03  0.25500000920E-02 0. -1.
       -2   -1    0    0    0  501  0.00000000000E+00  0.00000000000E+00 -0.23901120309E+03  0.23901120311E+03  0.25500000920E-02 0.  1.
    10030    2    1    2    0    0  0.00000000000E+00  0.00000000000E+00  0.60543092224E+03  0.10834533284E+04  0.89851238907E+03 0.  0.
        3    1    3    3  502    0  0.14934283486E+03 -0.14080304753E+03 -0.17916772696E+03  0.27245158304E+03  0.10100000352E+00 0.  1.
       -3    1    3    3    0  502 -0.14934283486E+03  0.14080304753E+03  0.78459864920E+03  0.81100174541E+03  0.10100000352E+00 0. -1.
</event>
<event>
 5   0  0.3663255E-03  0.9061915E+03  0.7818609E-02  0.9417875E-01
        2   -1    0    0  501    0  0.00000000000E+00  0.00000000000E+00  0.13876553623E+03  0.13876553625E+03  0.25500000920E-02 0.  1.
       -2   -1    0    0    0  501  0.00000000000E+00  0.00000000000E+00 -0.14794433468E+04  0.14794433468E+04  0.25500000920E-02 0. -1.
    10030    2    1    2    0    0  0.00000000000E+00  0.00000000000E+00 -0.13406778106E+04  0.16182088831E+04  0.90619147946E+03 0.  0.
        4    1    3    3  502    0 -0.27423096377E+03  0.25412658733E+03 -0.21327980621E+03  0.43043330786E+03  0.12699999809E+01 0.  1.
       -4    1    3    3    0  502  0.27423096377E+03 -0.25412658733E+03 -0.11273980044E+04  0.11877755752E+04  0.12699999809E+01 0. -1.
</event>
<event>
 5   0  0.3685879E-03  0.9029175E+03  0.7818609E-02  0.9421942E-01
        2   -1    0    0  501    0  0.00000000000E+00  0.00000000000E+00  0.86311062911E+03  0.86311062911E+03  0.25500000920E-02 0.  1.
       -2   -1    0    0    0  501  0.00000000000E+00  0.00000000000E+00 -0.23614008600E+03  0.23614008602E+03  0.25500000920E-02 0. -1.
    10030    2    1    2    0    0  0.00000000000E+00  0.00000000000E+00  0.62697054310E+03  0.10992507151E+04  0.90291753377E+03 0.  0.
        1    1    3    3  502    0  0.42794470858E+03 -0.10265205375E+02  0.13886399132E+03  0.45002806152E+03  0.50400001928E-02 0. -1.
       -1    1    3    3    0  502 -0.42794470858E+03  0.10265205375E+02  0.48810655178E+03  0.64922265361E+03  0.50400001928E-02 0.  1.
</event>
<event>
 5   0  0.2134145E-03  0.9045517E+03  0.7818609E-02  0.9419909E-01
        1   -1    0    0  501    0  0.00000000000E+00  0.00000000000E+00  0.24774485056E+03  0.24774485061E+03  0.50400001928E-02 0. -1.
       -1   -1    0    0    0  501  0.00000000000E+00  0.00000000000E+00 -0.82566177834E+03  0.82566177835E+03  0.50400001928E-02 0.  1.
    10030    2    1    2    0    0  0.00000000000E+00  0.00000000000E+00 -0.57791692778E+03  0.10734066290E+04  0.90455172085E+03 0.  0.
        1    1    3    3  502    0 -0.37434320946E+03  0.25338118295E+03 -0.30650322922E+03  0.54614933112E+03  0.50400001928E-02 0. -1.
       -1    1    3    3    0  502  0.37434320946E+03 -0.25338118295E+03 -0.27141369856E+03  0.52725729784E+03  0.50400001928E-02 0.  1.
</event>
<event>
 5   0  0.2129280E-03  0.9563739E+03  0.7818609E-02  0.9357731E-01
        1   -1    0    0  501    0  0.00000000000E+00  0.00000000000E+00  0.10379383402E+04  0.10379383402E+04  0.50400001928E-02 0.  1.
       -1   -1    0    0    0  501  0.00000000000E+00  0.00000000000E+00 -0.22030475108E+03  0.22030475114E+03  0.50400001928E-02 0. -1.
    10030    2    1    2    0    0  0.00000000000E+00  0.00000000000E+00  0.81763358914E+03  0.12582430914E+04  0.95637387611E+03 0.  0.
        3    1    3    3  502    0  0.34853653740E+03  0.22889722165E+03  0.71677500448E+03  0.82923945470E+03  0.10100000352E+00 0.  1.
       -3    1    3    3    0  502 -0.34853653740E+03 -0.22889722165E+03  0.10085858466E+03  0.42900363668E+03  0.10100000352E+00 0. -1.
</event>
<event>
 5   0  0.2134145E-03  0.9034834E+03  0.7818609E-02  0.9421237E-01
       -1   -1    0    0    0  501  0.00000000000E+00  0.00000000000E+00  0.22958452929E+03  0.22958452935E+03  0.50400001928E-02 0.  1.
        1   -1    0    0  501    0  0.00000000000E+00  0.00000000000E+00 -0.88886894941E+03  0.88886894943E+03  0.50400001928E-02 0. -1.
    10030    2    1    2    0    0  0.00000000000E+00  0.00000000000E+00 -0.65928442012E+03  0.11184534788E+04  0.90348339086E+03 0.  0.
        1    1    3    3  502    0  0.21836061943E+03  0.28450810292E+03 -0.66966739018E+03  0.75965823516E+03  0.50400001928E-02 0. -1.
       -1    1    3    3    0  502 -0.21836061943E+03 -0.28450810292E+03  0.10382970061E+02  0.35879524361E+03  0.50400001928E-02 0.  1.
</event>
<event>
 5   0  0.3663255E-03  0.9008686E+03  0.7818609E-02  0.9424496E-01
       -2   -1    0    0    0  501  0.00000000000E+00  0.00000000000E+00  0.17347320147E+03  0.17347320149E+03  0.25500000920E-02 0. -1.
        2   -1    0    0  501    0  0.00000000000E+00  0.00000000000E+00 -0.11695816199E+04  0.11695816199E+04  0.25500000920E-02 0.  1.
    10030    2    1    2    0    0  0.00000000000E+00  0.00000000000E+00 -0.99610841845E+03  0.13430548214E+04  0.90086862083E+03 0.  0.
        4    1    3    3  502    0 -0.13098492902E+03 -0.15808724203E+03 -0.10957708957E+04  0.11148381481E+04  0.12699999809E+01 0.  1.
       -4    1    3    3    0  502  0.13098492902E+03  0.15808724203E+03  0.99662477212E+02  0.22821667333E+03  0.12699999809E+01 0. -1.
</event>
<event>
 5   0  0.3806019E-03  0.8982673E+03  0.7818609E-02  0.9427750E-01
        2   -1    0    0  501    0  0.00000000000E+00  0.00000000000E+00  0.82284527149E+03  0.82284527149E+03  0.25500000920E-02 0.  1.
       -2   -1    0    0    0  501  0.00000000000E+00  0.00000000000E+00 -0.24515060868E+03  0.24515060869E+03  0.25500000920E-02 0. -1.
    10030    2    1    2    0    0  0.00000000000E+00  0.00000000000E+00  0.57769466281E+03  0.10679958802E+04  0.89826726348E+03 0.  0.
        2    1    3    3  502    0 -0.10780134509E+02  0.25983431272E+03 -0.14652790063E+03  0.29849708045E+03  0.25500000920E-02 0.  1.
       -2    1    3    3    0  502  0.10780134509E+02 -0.25983431272E+03  0.72422256345E+03  0.76949879973E+03  0.25500000920E-02 0. -1.
</event>
<event>
 5   0  0.3806019E-03  0.8983936E+03  0.7818609E-02  0.9427592E-01
       -2   -1    0    0    0  501  0.00000000000E+00  0.00000000000E+00  0.30022518213E+03  0.30022518214E+03  0.25500000920E-02 0. -1.
        2   -1    0    0  501    0  0.00000000000E+00  0.00000000000E+00 -0.67208811776E+03  0.67208811777E+03  0.25500000920E-02 0.  1.
    10030    2    1    2    0    0  0.00000000000E+00  0.00000000000E+00 -0.37186293564E+03  0.97231329990E+03  0.89839362769E+03 0.  0.
        2    1    3    3  502    0 -0.76210150905E+02  0.25158802487E+03 -0.58014475435E+03  0.63692421634E+03  0.25500000920E-02 0.  1.
       -2    1    3    3    0  502  0.76210150905E+02 -0.25158802487E+03  0.20828181872E+03  0.33538908356E+03  0.25500000920E-02 0. -1.
</event>
<event>
 5   0  0.3685879E-03  0.8997008E+03  0.7818609E-02  0.9425956E-01
       -2   -1    0    0    0  501  0.00000000000E+00  0.00000000000E+00  0.35699842599E+03  0.35699842600E+03  0.25500000920E-02 0.  1.
        2   -1    0    0  501    0  0.00000000000E+00  0.00000000000E+00 -0.56685228770E+03  0.56685228771E+03  0.25500000920E-02 0. -1.
    10030    2    1    2    0    0  0.00000000000E+00  0.00000000000E+00 -0.20985386171E+03  0.92385071371E+03  0.89970078245E+03 0.  0.
        1    1    3    3  502    0 -0.41832138556E+01 -0.47642896380E+02  0.35438042565E+03  0.35759310810E+03  0.50400001928E-02 0.  1.
       -1    1    3    3    0  502  0.41832138556E+01  0.47642896380E+02 -0.56423428736E+03  0.56625760561E+03  0.50400001928E-02 0. -1.
</event>
<event>
 5   0  0.3815269E-03  0.9008907E+03  0.7818609E-02  0.9424469E-01
       -2   -1    0    0    0  501  0.00000000000E+00  0.00000000000E+00  0.21056402083E+03  0.21056402084E+03  0.25500000920E-02 0.  1.
        2   -1    0    0  501    0  0.00000000000E+00  0.00000000000E+00 -0.96360726196E+03  0.96360726196E+03  0.25500000920E-02 0. -1.
    10030    2    1    2    0    0  0.00000000000E+00  0.00000000000E+00 -0.75304324113E+03  0.11741712828E+04  0.90089071387E+03 0.  0.
        5    1    3    3  502    0  0.28487319896E+03 -0.60825666699E+02 -0.82428541747E+03  0.87425456285E+03  0.46999998093E+01 0. -1.
       -5    1    3    3    0  502 -0.28487319896E+03  0.60825666699E+02  0.71242176339E+02  0.29991671995E+03  0.46999998093E+01 0.  1.
</event>
<event>
 5   0  0.2074970E-03  0.8989088E+03  0.7818609E-02  0.9426946E-01
        1   -1    0    0  501    0  0.00000000000E+00  0.00000000000E+00  0.59055859897E+03  0.59055859899E+03  0.50400001928E-02 0. -1.
       -1   -1    0    0    0  501  0.00000000000E+00  0.00000000000E+00 -0.34206474518E+03  0.34206474522E+03  0.50400001928E-02 0.  1.
    10030    2    1    2    0    0  0.00000000000E+00  0.00000000000E+00  0.24849385379E+03  0.93262334421E+03  0.89890884231E+03 0.  0.
        2    1    3    3  502    0  0.18445133789E+03  0.13572339011E+03  0.52548974793E+03  0.57322125733E+03  0.25500000920E-02 0. -1.
       -2    1    3    3    0  502 -0.18445133789E+03 -0.13572339011E+03 -0.27699589414E+03  0.35940208687E+03  0.25500000920E-02 0.  1.
</event>
<event>
 5   0  0.2129280E-03  0.8990394E+03  0.7818609E-02  0.9426783E-01
       -1   -1    0    0    0  501  0.00000000000E+00  0.00000000000E+00  0.10660379475E+03  0.10660379487E+03  0.50400001928E-02 0. -1.
        1   -1    0    0  501    0  0.00000000000E+00  0.00000000000E+00 -0.18955041843E+04  0.18955041843E+04  0.50400001928E-02 0.  1.
    10030    2    1    2    0    0  0.00000000000E+00  0.00000000000E+00 -0.17889003896E+04  0.20021079792E+04  0.89903935205E+03 0.  0.
        3    1    3    3  502    0  0.40531916799E+03 -0.74678417594E+02 -0.12941066792E+04  0.13581504340E+04  0.10100000352E+00 0. -1.
       -3    1    3    3    0  502 -0.40531916799E+03  0.74678417594E+02 -0.49479371034E+03  0.64395754517E+03  0.10100000352E+00 0.  1.
</event>
<event>
 5   0  0.2134145E-03  0.9039195E+03  0.7818609E-02  0.9420695E-01
        1   -1    0    0  501    0  0.00000000000E+00  0.00000000000E+00  0.17495513847E+04  0.17495513847E+04  0.50400001928E-02 0.  1.
       -1   -1    0    0    0  501  0.00000000000E+00  0.00000000000E+00 -0.11675427890E+03  0.11675427901E+03  0.50400001928E-02 0. -1.
    10030    2    1    2    0    0  0.00000000000E+00  0.00000000000E+00  0.16327971058E+04  0.18663056637E+04  0.90391948851E+03 0.  0.
        1    1    3    3  502    0  0.39943972937E+02 -0.15019446488E+02 -0.11258530268E+03  0.12040164098E+03  0.50400001928E-02 0. -1.
       -1    1    3    3    0  502 -0.39943972937E+02  0.15019446488E+02  0.17453824085E+04  0.17459040227E+04  0.50400001928E-02 0.  1.
</event>
<event>
 5   0  0.2074970E-03  0.9022839E+03  0.7818609E-02  0.9422731E-01
       -1   -1    0    0    0  501  0.00000000000E+00  0.00000000000E+00  0.36458206766E+03  0.36458206770E+03  0.50400001928E-02 0. -1.
        1   -1    0    0  501    0  0.00000000000E+00  0.00000000000E+00 -0.55825303135E+03  0.55825303137E+03  0.50400001928E-02 0.  1.
    10030    2    1    2    0    0  0.00000000000E+00  0.00000000000E+00 -0.19367096369E+03  0.92283509907E+03  0.90228386769E+03 0.  0.
        2    1    3    3  502    0 -0.30921076014E+03 -0.22602470838E+03  0.14698599723E+03  0.41024790843E+03  0.25500000920E-02 0. -1.
       -2    1    3    3    0  502  0.30921076014E+03  0.22602470838E+03 -0.34065696091E+03  0.51258719064E+03  0.25500000920E-02 0.  1.
</event>
<event>
 5   0  0.3626546E-03  0.8937365E+03  0.7818609E-02  0.9433445E-01
        2   -1    0    0  501    0  0.00000000000E+00  0.00000000000E+00  0.20916301390E+04  0.20916301390E+04  0.25500000920E-02 0.  1.
       -2   -1    0    0    0  501  0.00000000000E+00  0.00000000000E+00 -0.95471575166E+02  0.95471575200E+02  0.25500000920E-02 0. -1.
    10030    2    1    2    0    0  0.00000000000E+00  0.00000000000E+00  0.19961585638E+04  0.21871017142E+04  0.89373648033E+03 0.  0.
        3    1    3    3  502    0 -0.16266232830E+03  0.41028473648E+03  0.11693551536E+04  0.12498736270E+04  0.10100000352E+00 0. -1.
       -3    1    3    3    0  502  0.16266232830E+03 -0.41028473648E+03  0.82680341020E+03  0.93722808715E+03  0.10100000352E+00 0.  1.
</event>
<event>
 5   0  0.2074970E-03  0.9009938E+03  0.7818609E-02  0.9424340E-01
       -1   -1    0    0    0  501  0.00000000000E+00  0.00000000000E+00  0.17149962636E+03  0.17149962644E+03  0.50400001928E-02 0.  1.
        1   -1    0    0  501    0  0.00000000000E+00  0.00000000000E+00 -0.11833695822E+04  0.11833695822E+04  0.50400001928E-02 0. -1.
    10030    2    1    2    0    0  0.00000000000E+00  0.00000000000E+00 -0.10118699559E+04  0.13548692087E+04  0.90099376525E+03 0.  0.
        2    1    3    3  502    0 -0.19107775256E+03  0.16687619904E+03 -0.10657442330E+04  0.10955223154E+04  0.25500000920E-02 0. -1.
       -2    1    3    3    0  502  0.19107775256E+03 -0.16687619904E+03  0.53874277115E+02  0.25934689331E+03  0.25500000920E-02 0.  1.
</event>
<event>
 5   0  0.3815269E-03  0.9017639E+03  0.7818609E-02  0.9423379E-01
       -2   -1    0    0    0  501  0.00000000000E+00  0.00000000000E+00  0.33544923315E+03  0.33544923316E+03  0.25500000920E-02 0.  1.
        2   -1    0    0  501    0  0.00000000000E+00  0.00000000000E+00 -0.60603671625E+03  0.60603671626E+03  0.25500000920E-02 0. -1.
    10030    2    1    2    0    0  0.00000000000E+00  0.00000000000E+00 -0.27058748311E+03  0.94148594942E+03  0.90176394191E+03 0.  0.
        5    1    3    3  502    0 -0.39425763742E+03 -0.13302977303E+02  0.92625835077E+02  0.40523781807E+03  0.46999998093E+01 0.  1.
       -5    1    3    3    0  502  0.39425763742E+03  0.13302977303E+02 -0.36321331818E+03  0.53624813135E+03  0.46999998093E+01 0. -1.
</event>
<event>
 5   0  0.3685879E-03  0.9050809E+03  0.7818609E-02  0.9419252E-01
       -2   -1    0    0    0  501  0.00000000000E+00  0.00000000000E+00  0.12020941523E+03  0.12020941526E+03  0.25500000920E-02 0. -1.
        2   -1    0    0  501    0  0.00000000000E+00  0.00000000000E+00 -0.17036341539E+04  0.17036341539E+04  0.25500000920E-02 0.  1.
    10030    2    1    2    0    0  0.00000000000E+00  0.00000000000E+00 -0.15834247387E+04  0.18238435692E+04  0.90508091448E+03 0.  0.
        1    1    3    3  502    0 -0.28945193555E+03  0.34633588908E+03 -0.72604632803E+03  0.85491183260E+03  0.50400001928E-02 0. -1.
       -1    1    3    3    0  502  0.28945193555E+03 -0.34633588908E+03 -0.85737841066E+03  0.96893173658E+03  0.50400001928E-02 0.  1.
</event>
<event>
 5   0  0.2130975E-03  0.9001671E+03  0.7818609E-02  0.9425373E-01
        1   -1    0    0  501    0  0.00000000000E+00  0.00000000000E+00  0.18756935768E+03  0.18756935775E+03  0.50400001928E-02 0. -1.
       -1   -1    0    0    0  501  0.00000000000E+00  0.00000000000E+00 -0.10800014701E+04  0.10800014701E+04  0.50400001928E-02 0.  1.
    10030    2    1    2    0    0  0.00000000000E+00  0.00000000000E+00 -0.89243211245E+03  0.12675708279E+04  0.90016705583E+03 0.  0.
        5    1    3    3  502    0  0.38221034187E+03 -0.23596101303E+03 -0.40661854435E+03  0.60590682098E+03  0.46999998093E+01 0. -1.
       -5    1    3    3    0  502 -0.38221034187E+03  0.23596101303E+03 -0.48581356811E+03  0.66166400692E+03  0.46999998093E+01 0.  1.
</event>
<event>
 5   0  0.2129280E-03  0.8971464E+03  0.7818609E-02  0.9429156E-01
        1   -1    0    0  501    0  0.00000000000E+00  0.00000000000E+00  0.93140258584E+03  0.93140258585E+03  0.50400001928E-02 0. -1.
       -1   -1    0    0    0  501  0.00000000000E+00  0.00000000000E+00 -0.21603750813E+03  0.21603750819E+03  0.50400001928E-02 0.  1.
    10030    2    1    2    0    0  0.00000000000E+00  0.00000000000E+00  0.71536507771E+03  0.11474400940E+04  0.89714635095E+03 0.  0.
        3    1    3    3  502    0  0.18876969272E+03 -0.13358258123E+03  0.84928625479E+03  0.88020762078E+03  0.10100000352E+00 0. -1.
       -3    1    3    3    0  502 -0.18876969272E+03  0.13358258123E+03 -0.13392117708E+03  0.26723247327E+03  0.10100000352E+00 0.  1.
</event>
<event>
 5   0  0.2295158E-03  0.8936251E+03  0.7818609E-02  0.9433586E-01
       -1   -1    0    0    0  501  0.00000000000E+00  0.00000000000E+00  0.55426083263E+03  0.55426083265E+03  0.50400001928E-02 0.  1.
        1   -1    0    0  501    0  0.00000000000E+00  0.00000000000E+00 -0.36019405576E+03  0.36019405580E+03  0.50400001928E-02 0. -1.
    10030    2    1    2    0    0  0.00000000000E+00  0.00000000000E+00  0.19406677687E+03  0.91445488845E+03  0.89362510547E+03 0.  0.
        4    1    3    3  502    0 -0.46671327996E+02 -0.40486539629E+03 -0.90390516112E+02  0.41745210536E+03  0.12699999809E+01 0. -1.
       -4    1    3    3    0  502  0.46671327996E+02  0.40486539629E+03  0.28445729298E+03  0.49700278309E+03  0.12699999809E+01 0.  1.
</event>
<event>
 5   0  0.2130975E-03  0.9149120E+03  0.7818609E-02  0.9407130E-01
        1   -1    0    0  501    0  0.00000000000E+00  0.00000000000E+00  0.13377759620E+04  0.13377759620E+04  0.50400001928E-02 0.  1.
       -1   -1    0    0    0  501  0.00000000000E+00  0.00000000000E+00 -0.15642829444E+03  0.15642829452E+03  0.50400001928E-02 0. -1.
    10030    2    1    2    0    0  0.00000000000E+00  0.00000000000E+00  0.11813476676E+04  0.14942042565E+04  0.91491204416E+03 0.  0.
        5    1    3    3  502    0  0.43858209116E+03  0.10207759641E+03  0.45930956501E+03  0.64324291903E+03  0.46999998093E+01 0. -1.
       -5    1    3    3    0  502 -0.43858209116E+03 -0.10207759641E+03  0.72203810255E+03  0.85096133749E+03  0.46999998093E+01 0.  1.
</event>
<event>
 5   0  0.3806019E-03  0.8952227E+03  0.7818609E-02  0.9431573E-01
       -2   -1    0    0    0  501  0.00000000000E+00  0.00000000000E+00  0.37621312414E+03  0.37621312415E+03  0.25500000920E-02 0. -1.
        2   -1    0    0  501    0  0.00000000000E+00  0.00000000000E+00 -0.53255962304E+03  0.53255962304E+03  0.25500000920E-02 0.  1.
    10030    2    1    2    0    0  0.00000000000E+00  0.00000000000E+00 -0.15634649890E+03  0.90877274719E+03  0.89522269761E+03 0.  0.
        2    1    3    3  502    0  0.11211567020E+03 -0.23578392056E+03  0.29091200612E+03  0.39088844446E+03  0.25500000920E-02 0. -1.
       -2    1    3    3    0  502 -0.11211567020E+03  0.23578392056E+03 -0.44725850502E+03  0.51788430273E+03  0.25500000920E-02 0.  1.
</event>
<event>
 5   0  0.2074970E-03  0.8675395E+03  0.7818609E-02  0.9467094E-01
        1   -1    0    0  501    0  0.00000000000E+00  0.00000000000E+00  0.18040018190E+04  0.18040018190E+04  0.50400001928E-02 0.  1.
       -1   -1    0    0    0  501  0.00000000000E+00  0.00000000000E+00 -0.10429932776E+03  0.10429932788E+03  0.50400001928E-02 0. -1.
    10030    2    1    2    0    0  0.00000000000E+00  0.00000000000E+00  0.16997024912E+04  0.19083011469E+04  0.86753945645E+03 0.  0.
        2    1    3    3  502    0  0.57164233976E+02  0.38238056001E+03  0.41727306498E+03  0.56885802542E+03  0.25500000920E-02 0. -1.
       -2    1    3    3    0  502 -0.57164233976E+02 -0.38238056001E+03  0.12824294262E+04  0.13394431214E+04  0.25500000920E-02 0.  1.
</event>
<event>
 5   0  0.3815269E-03  0.8938405E+03  0.7818609E-02  0.9433314E-01
       -2   -1    0    0    0  501  0.00000000000E+00  0.00000000000E+00  0.67371664674E+03  0.67371664674E+03  0.25500000920E-02 0. -1.
        2   -1    0    0  501    0  0.00000000000E+00  0.00000000000E+00 -0.29647139445E+03  0.29647139447E+03  0.25500000920E-02 0.  1.
    10030    2    1    2    0    0  0.00000000000E+00  0.00000000000E+00  0.37724525228E+03  0.97018804121E+03  0.89384050867E+03 0.  0.
        5    1    3    3  502    0  0.43307714054E+03 -0.71758300320E+02  0.97741802953E+02  0.44975617102E+03  0.46999998093E+01 0.  1.
       -5    1    3    3    0  502 -0.43307714054E+03  0.71758300320E+02  0.27950344933E+03  0.52043187019E+03  0.46999998093E+01 0. -1.
</event>
<event>
 5   0  0.2134145E-03  0.9060467E+03  0.7818609E-02  0.9418054E-01
        1   -1    0    0  501    0  0.00000000000E+00  0.00000000000E+00  0.10252312376E+04  0.10252312376E+04  0.50400001928E-02 0. -1.
       -1   -1    0    0    0  501  0.00000000000E+00  0.00000000000E+00 -0.20017937431E+03  0.20017937437E+03  0.50400001928E-02 0.  1.
    10030    2    1    2    0    0  0.00000000000E+00  0.00000000000E+00  0.82505186328E+03  0.12254106120E+04  0.90604668248E+03 0.  0.
        1    1    3    3  502    0  0.38057085448E+03  0.15567947046E+03  0.66971027235E+03  0.78586393334E+03  0.50400001928E-02 0. -1.
       -1    1    3    3    0  502 -0.38057085448E+03 -0.15567947046E+03  0.15534159093E+03  0.43954667863E+03  0.50400001928E-02 0.  1.
</event>
<event>
 5   0  0.3626546E-03  0.8976543E+03  0.7818609E-02  0.9428518E-01
        2   -1    0    0  501    0  0.00000000000E+00  0.00000000000E+00  0.10426633638E+04  0.10426633638E+04  0.25500000920E-02 0.  1.
       -2   -1    0    0    0  501  0.00000000000E+00  0.00000000000E+00 -0.19320311274E+03  0.19320311275E+03  0.25500000920E-02 0. -1.
    10030    2    1    2    0    0  0.00000000000E+00  0.00000000000E+00  0.84946025110E+03  0.12358664766E+04  0.89765429302E+03 0.  0.
        3    1    3    3  502    0  0.40598170270E+03  0.18174091952E+03  0.34218234649E+03  0.56119486206E+03  0.10100000352E+00 0. -1.
       -3    1    3    3    0  502 -0.40598170270E+03 -0.18174091952E+03  0.50727790461E+03  0.67467161454E+03  0.10100000352E+00 0.  1.
</event>
<event>
 5   0  0.3815269E-03  0.9198387E+03  0.7818609E-02  0.9401116E-01
       -2   -1    0    0    0  501  0.00000000000E+00  0.00000000000E+00  0.22516872591E+03  0.22516872593E+03  0.25500000920E-02 0. -1.
        2   -1    0    0  501    0  0.00000000000E+00  0.00000000000E+00 -0.93941021637E+03  0.93941021638E+03  0.25500000920E-02 0.  1.
    10030    2    1    2    0    0  0.00000000000E+00  0.00000000000E+00 -0.71424149046E+03  0.11645789423E+04  0.91983868485E+03 0.  0.
        5    1    3    3  502    0  0.38594817433E+03 -0.23328922248E+03 -0.24300688513E+03  0.51230292875E+03  0.46999998093E+01 0.  1.
       -5    1    3    3    0  502 -0.38594817433E+03  0.23328922248E+03 -0.47123460533E+03  0.65227601355E+03  0.46999998093E+01 0. -1.
</event>
<event>
 5   0  0.3815269E-03  0.9029642E+03  0.7818609E-02  0.9421884E-01
        2   -1    0    0  501    0  0.00000000000E+00  0.00000000000E+00  0.11356635069E+04  0.11356635069E+04  0.25500000920E-02 0.  1.
       -2   -1    0    0    0  501  0.00000000000E+00  0.00000000000E+00 -0.17948635737E+03  0.17948635738E+03  0.25500000920E-02 0. -1.
    10030    2    1    2    0    0  0.00000000000E+00  0.00000000000E+00  0.95617714952E+03  0.13151498643E+04  0.90296424305E+03 0.  0.
        5    1    3    3  502    0  0.36469107641E+03 -0.23529242765E+03  0.29703973198E+03  0.52594372331E+03  0.46999998093E+01 0. -1.
       -5    1    3    3    0  502 -0.36469107641E+03  0.23529242765E+03  0.65913741755E+03  0.78920614096E+03  0.46999998093E+01 0.  1.
</event>
<event>
 5   0  0.3626546E-03  0.9006224E+03  0.7818609E-02  0.9424804E-01
       -2   -1    0    0    0  501  0.00000000000E+00  0.00000000000E+00  0.16785210513E+03  0.16785210515E+03  0.25500000920E-02 0. -1.
        2   -1    0    0  501    0  0.00000000000E+00  0.00000000000E+00 -0.12080884170E+04  0.12080884170E+04  0.25500000920E-02 0.  1.
    10030    2    1    2    0    0  0.00000000000E+00  0.00000000000E+00 -0.10402363119E+04  0.13759405222E+04  0.90062241589E+03 0.  0.
        3    1    3    3  502    0 -0.33553016500E+03 -0.29815479076E+03 -0.57527459939E+03  0.72966954560E+03  0.10100000352E+00 0. -1.
       -3    1    3    3    0  502  0.33553016500E+03  0.29815479076E+03 -0.46496171252E+03  0.64627097660E+03  0.10100000352E+00 0.  1.
</event>
<event>
 5   0  0.2134145E-03  0.9031612E+03  0.7818609E-02  0.9421638E-01
       -1   -1    0    0    0  501  0.00000000000E+00  0.00000000000E+00  0.31135549844E+03  0.31135549848E+03  0.50400001928E-02 0. -1.
        1   -1    0    0  501    0  0.00000000000E+00  0.00000000000E+00 -0.65495891745E+03  0.65495891747E+03  0.50400001928E-02 0.  1.
    10030    2    1    2    0    0  0.00000000000E+00  0.00000000000E+00 -0.34360341902E+03  0.96631441595E+03  0.90316124857E+03 0.  0.
        1    1    3    3  502    0  0.27670176855E+03  0.76952547668E+02  0.20104742815E+03  0.35057899496E+03  0.50400001928E-02 0. -1.
       -1    1    3    3    0  502 -0.27670176855E+03 -0.76952547668E+02 -0.54465084717E+03  0.61573542099E+03  0.50400001928E-02 0.  1.
</event>
<event>
 5   0  0.2074970E-03  0.8501805E+03  0.7818609E-02  0.9490095E-01
       -1   -1    0    0    0  501  0.00000000000E+00  0.00000000000E+00  0.25794479199E+03  0.25794479204E+03  0.50400001928E-02 0.  1.
        1   -1    0    0  501    0  0.00000000000E+00  0.00000000000E+00 -0.70054419765E+03  0.70054419767E+03  0.50400001928E-02 0. -1.
    10030    2    1    2    0    0  0.00000000000E+00  0.00000000000E+00 -0.44259940566E+03  0.95848898970E+03  0.85018051583E+03 0.  0.
        2    1    3    3  502    0  0.58330670275E+02  0.42101418538E+03 -0.22897228280E+03  0.48278744565E+03  0.25500000920E-02 0. -1.
       -2    1    3    3    0  502 -0.58330670275E+02 -0.42101418538E+03 -0.21362712286E+03  0.47570154405E+03  0.25500000920E-02 0.  1.
</event>
<event>
 5   0  0.2130975E-03  0.9047739E+03  0.7818609E-02  0.9419633E-01
        1   -1    0    0  501    0  0.00000000000E+00  0.00000000000E+00  0.58560147925E+03  0.58560147927E+03  0.50400001928E-02 0. -1.
       -1   -1    0    0    0  501  0.00000000000E+00  0.00000000000E+00 -0.34947647038E+03  0.34947647042E+03  0.50400001928E-02 0.  1.
    10030    2    1    2    0    0  0.00000000000E+00  0.00000000000E+00  0.23612500886E+03  0.93507794969E+03  0.90477386798E+03 0.  0.
        5    1    3    3  502    0 -0.39427012389E+03  0.14996322814E+03 -0.50792590615E+02  0.42489984425E+03  0.46999998093E+01 0.  1.
       -5    1    3    3    0  502  0.39427012389E+03 -0.14996322814E+03  0.28691759948E+03  0.51017810544E+03  0.46999998093E+01 0. -1.
</event>
<event>
 5   0  0.3806019E-03  0.8999003E+03  0.7818609E-02  0.9425706E-01
       -2   -1    0    0    0  501  0.00000000000E+00  0.00000000000E+00  0.40872928356E+03  0.40872928357E+03  0.25500000920E-02 0. -1.
        2   -1    0    0  501    0  0.00000000000E+00  0.00000000000E+00 -0.49532818840E+03  0.49532818841E+03  0.25500000920E-02 0.  1.
    10030    2    1    2    0    0  0.00000000000E+00  0.00000000000E+00 -0.86598904841E+02  0.90405747197E+03  0.89990029576E+03 0.  0.
        2    1    3    3  502    0 -0.36483652414E+03 -0.15656466219E+03  0.16942611465E+03  0.43165193284E+03  0.25500000920E-02 0. -1.
       -2    1    3    3    0  502  0.36483652414E+03  0.15656466219E+03 -0.25602501949E+03  0.47240553913E+03  0.25500000920E-02 0.  1.
</event>
<event>
 5   0  0.2129280E-03  0.9013909E+03  0.7818609E-02  0.9423844E-01
       -1   -1    0    0    0  501  0.00000000000E+00  0.00000000000E+00  0.15575582110E+03  0.15575582118E+03  0.50400001928E-02 0. -1.
        1   -1    0    0  501    0  0.00000000000E+00  0.00000000000E+00 -0.13041334781E+04  0.13041334781E+04  0.50400001928E-02 0.  1.
    10030    2    1    2    0    0  0.00000000000E+00  0.00000000000E+00 -0.11483776570E+04  0.14598892993E+04  0.90139088253E+03 0.  0.
        3    1    3    3  502    0  0.19161853732E+03 -0.40039733581E+03 -0.44779098540E+03  0.63051761845E+03  0.10100000352E+00 0. -1.
       -3    1    3    3    0  502 -0.19161853732E+03  0.40039733581E+03 -0.70058667162E+03  0.82937168087E+03  0.10100000352E+00 0.  1.
</event>
<event>
 5   0  0.2295158E-03  0.9005711E+03  0.7818609E-02  0.9424868E-01
       -1   -1    0    0    0  501  0.00000000000E+00  0.00000000000E+00  0.16755893278E+03  0.16755893286E+03  0.50400001928E-02 0.  1.
        1   -1    0    0  501    0  0.00000000000E+00  0.00000000000E+00 -0.12100643412E+04  0.12100643412E+04  0.50400001928E-02 0. -1.
    10030    2    1    2    0    0  0.00000000000E+00  0.00000000000E+00 -0.10425054084E+04  0.13776232741E+04  0.90057112916E+03 0.  0.
        4    1    3    3  502    0  0.25031407163E+03 -0.21448477330E+03 -0.52012886317E+02  0.33371815306E+03  0.12699999809E+01 0.  1.
       -4    1    3    3    0  502 -0.25031407163E+03  0.21448477330E+03 -0.99049252211E+03  0.10439051210E+04  0.12699999809E+01 0. -1.
</event>
<event>
 5   0  0.3663255E-03  0.9053163E+03  0.7818609E-02  0.9418960E-01
        2   -1    0    0  501    0  0.00000000000E+00  0.00000000000E+00  0.32258485463E+03  0.32258485464E+03  0.25500000920E-02 0.  1.
       -2   -1    0    0    0  501  0.00000000000E+00  0.00000000000E+00 -0.63517980276E+03  0.63517980277E+03  0.25500000920E-02 0. -1.
    10030    2    1    2    0    0  0.00000000000E+00  0.00000000000E+00 -0.31259494813E+03  0.95776465741E+03  0.90531626373E+03 0.  0.
        4    1    3    3  502    0  0.38718614934E+03 -0.22544294803E+03 -0.88061693369E+02  0.45661155460E+03  0.12699999809E+01 0. -1.
       -4    1    3    3    0  502 -0.38718614934E+03  0.22544294803E+03 -0.22453325476E+03  0.50115310281E+03  0.12699999809E+01 0.  1.
</event>
<event>
 5   0  0.1436000E-03  0.9035528E+03  0.7818609E-02  0.9421151E-01
        3   -1    0    0  501    0  0.00000000000E+00  0.00000000000E+00  0.20985839474E+03  0.20985841904E+03  0.10100000352E+00 0.  1.
       -3   -1    0    0    0  501  0.00000000000E+00  0.00000000000E+00 -0.97256967112E+03  0.97256967636E+03  0.10100000352E+00 0. -1.
    10030    2    1    2    0    0  0.00000000000E+00  0.00000000000E+00 -0.76271127638E+03  0.11824280954E+04  0.90355282617E+03 0.  0.
        3    1    3    3  502    0  0.37333463642E+03 -0.20686525682E+03 -0.18756185807E+03  0.46620965888E+03  0.10100000352E+00 0.  1.
       -3    1    3    3    0  502 -0.37333463642E+03  0.20686525682E+03 -0.57514941831E+03  0.71621843652E+03  0.10100000352E+00 0. -1.
</event>
<event>
 5   0  0.2295158E-03  0.8960173E+03  0.7818609E-02  0.9430574E-01
        1   -1    0    0  501    0  0.00000000000E+00  0.00000000000E+00  0.76526495561E+03  0.76526495563E+03  0.50400001928E-02 0. -1.
       -1   -1    0    0    0  501  0.00000000000E+00  0.00000000000E+00 -0.26227745301E+03  0.26227745306E+03  0.50400001928E-02 0.  1.
    10030    2    1    2    0    0  0.00000000000E+00  0.00000000000E+00  0.50298750260E+03  0.10275424087E+04  0.89601728437E+03 0.  0.
        4    1    3    3  502    0  0.11222977615E+03 -0.31618669824E+03 -0.88970344309E+02  0.34711220932E+03  0.12699999809E+01 0.  1.
       -4    1    3    3    0  502 -0.11222977615E+03  0.31618669824E+03  0.59195784690E+03  0.68043019936E+03  0.12699999809E+01 0. -1.
</event>
<event>
 5   0  0.2295158E-03  0.9032283E+03  0.7818609E-02  0.9421555E-01
       -1   -1    0    0    0  501  0.00000000000E+00  0.00000000000E+00  0.12928216042E+03  0.12928216051E+03  0.50400001928E-02 0. -1.
        1   -1    0    0  501    0  0.00000000000E+00  0.00000000000E+00 -0.15775985107E+04  0.15775985107E+04  0.50400001928E-02 0.  1.
    10030    2    1    2    0    0  0.00000000000E+00  0.00000000000E+00 -0.14483163502E+04  0.17068806712E+04  0.90322830739E+03 0.  0.
        4    1    3    3  502    0 -0.58864418542E+02 -0.23442293522E+03 -0.32353986732E+01  0.24172549107E+03  0.12699999809E+01 0. -1.
       -4    1    3    3    0  502  0.58864418542E+02  0.23442293522E+03 -0.14450809516E+04  0.14651551801E+04  0.12699999809E+01 0.  1.
</event>
<event>
 5   0  0.2134145E-03  0.8960392E+03  0.7818609E-02  0.9430546E-01
       -1   -1    0    0    0  501  0.00000000000E+00  0.00000000000E+00  0.45760146450E+03  0.45760146452E+03  0.50400001928E-02 0. -1.
        1   -1    0    0  501    0  0.00000000000E+00  0.00000000000E+00 -0.43863836193E+03  0.43863836196E+03  0.50400001928E-02 0.  1.
    10030    2    1    2    0    0  0.00000000000E+00  0.00000000000E+00  0.18963102562E+02  0.89623982648E+03  0.89603918849E+03 0.  0.
        1    1    3    3  502    0 -0.78721683661E+02 -0.67411952780E+02 -0.42648309274E+03  0.43889554939E+03  0.50400001928E-02 0.  1.
       -1    1    3    3    0  502  0.78721683661E+02  0.67411952780E+02  0.44544619530E+03  0.45734427709E+03  0.50400001928E-02 0. -1.
</event>
<event>
 5   0  0.3685879E-03  0.8961978E+03  0.7818609E-02  0.9430347E-01
        2   -1    0    0  501    0  0.00000000000E+00  0.00000000000E+00  0.17844021795E+04  0.17844021795E+04  0.25500000920E-02 0. -1.
       -2   -1    0    0    0  501  0.00000000000E+00  0.00000000000E+00 -0.11252655755E+03  0.11252655758E+03  0.25500000920E-02 0.  1.
    10030    2    1    2    0    0  0.00000000000E+00  0.00000000000E+00  0.16718756219E+04  0.18969287370E+04  0.89619782318E+03 0.  0.
        1    1    3    3  502    0  0.84216602680E+02 -0.21697680852E+03  0.16464239821E+04  0.16627938238E+04  0.50400001928E-02 0. -1.
       -1    1    3    3    0  502 -0.84216602680E+02  0.21697680852E+03  0.25451639800E+02  0.23413491323E+03  0.50400001928E-02 0.  1.
</event>
<event>
 5   0  0.2129280E-03  0.9021835E+03  0.7818609E-02  0.9422856E-01
       -1   -1    0    0    0  501  0.00000000000E+00  0.00000000000E+00  0.41267283835E+03  0.41267283838E+03  0.50400001928E-02 0.  1.
        1   -1    0    0  501    0  0.00000000000E+00  0.00000000000E+00 -0.49308737805E+03  0.49308737807E+03  0.50400001928E-02 0. -1.
    10030    2    1    2    0    0  0.00000000000E+00  0.00000000000E+00 -0.80414539703E+02  0.90576021645E+03  0.90218350213E+03 0.  0.
        3    1    3    3  502    0 -0.27040086369E+03 -0.10094538038E+03 -0.38824740609E+03  0.48377955252E+03  0.10100000352E+00 0. -1.
       -3    1    3    3    0  502  0.27040086369E+03  0.10094538038E+03  0.30783286638E+03  0.42198066393E+03  0.10100000352E+00 0.  1.
</event>
<event>
 5   0  0.3806019E-03  0.9045509E+03  0.7818609E-02  0.9419910E-01
        2   -1    0    0  501    0  0.00000000000E+00  0.00000000000E+00  0.67551461451E+03  0.67551461451E+03  0.25500000920E-02 0. -1.
       -2   -1    0    0    0  501  0.00000000000E+00  0.00000000000E+00 -0.30281074906E+03  0.30281074907E+03  0.25500000920E-02 0.  1.
    10030    2    1    2    0    0  0.00000000000E+00  0.00000000000E+00  0.37270386545E+03  0.97832536358E+03  0.90455090830E+03 0.  0.
        2    1    3    3  502    0  0.37511924265E+03  0.19514298254E+03  0.35993412108E+03  0.55529073590E+03  0.25500000920E-02 0. -1.
       -2    1    3    3    0  502 -0.37511924265E+03 -0.19514298254E+03  0.12769744363E+02  0.42303462769E+03  0.25500000920E-02 0.  1.
</event>
<event>
 5   0  0.3626546E-03  0.9012014E+03  0.7818609E-02  0.9424081E-01
        2   -1    0    0  501    0  0.00000000000E+00  0.00000000000E+00  0.74122446155E+03  0.74122446156E+03  0.25500000920E-02 0. -1.
       -2   -1    0    0    0  501  0.00000000000E+00  0.00000000000E+00 -0.27392647790E+03  0.27392647791E+03  0.25500000920E-02 0.  1.
    10030    2    1    2    0    0  0.00000000000E+00  0.00000000000E+00  0.46729798365E+03  0.10151509395E+04  0.90120143385E+03 0.  0.
        3    1    3    3  502    0  0.31899352260E+03  0.22894387492E+03 -0.15365556037E+02  0.39294818467E+03  0.10100000352E+00 0.  1.
       -3    1    3    3    0  502 -0.31899352260E+03 -0.22894387492E+03  0.48266353969E+03  0.62220275480E+03  0.10100000352E+00 0. -1.
</event>
<event>
 5   0  0.1436000E-03  0.8974253E+03  0.7818609E-02  0.9428806E-01
        3   -1    0    0  501    0  0.00000000000E+00  0.00000000000E+00  0.62394950021E+03  0.62394950838E+03  0.10100000352E+00 0. -1.
       -3   -1    0    0    0  501  0.00000000000E+00  0.00000000000E+00 -0.32269124706E+03  0.32269126287E+03  0.10100000352E+00 0.  1.
    10030    2    1    2    0    0  0.00000000000E+00  0.00000000000E+00  0.30125825314E+03  0.94664077125E+03  0.89742532542E+03 0.  0.
        4    1    3    3  502    0 -0.36211924707E+03 -0.10597170224E+03 -0.10554972906E+03  0.39179421764E+03  0.12699999809E+01 0.  1.
       -4    1    3    3    0  502  0.36211924707E+03  0.10597170224E+03  0.40680798220E+03  0.55484655361E+03  0.12699999809E+01 0. -1.
</event>
<event>
 5   0  0.2130975E-03  0.9013068E+03  0.7818609E-02  0.9423949E-01
        1   -1    0    0  501    0  0.00000000000E+00  0.00000000000E+00  0.95483413107E+03  0.95483413108E+03  0.50400001928E-02 0.  1.
       -1   -1    0    0    0  501  0.00000000000E+00  0.00000000000E+00 -0.21269503291E+03  0.21269503297E+03  0.50400001928E-02 0. -1.
    10030    2    1    2    0    0  0.00000000000E+00  0.00000000000E+00  0.74213909815E+03  0.11675291641E+04  0.90130677791E+03 0.  0.
        5    1    3    3  502    0  0.27826890961E+03  0.22820802574E+03  0.72238556341E+03  0.80707836131E+03  0.46999998093E+01 0.  1.
       -5    1    3    3    0  502 -0.27826890961E+03 -0.22820802574E+03  0.19753534743E+02  0.36045080274E+03  0.46999998093E+01 0. -1.
</event>
<event>
 5   0  0.3663255E-03  0.9020511E+03  0.7818609E-02  0.9423021E-01
        2   -1    0    0  501    0  0.00000000000E+00  0.00000000000E+00  0.30955617344E+03  0.30955617345E+03  0.25500000920E-02 0. -1.
       -2   -1    0    0    0  501  0.00000000000E+00  0.00000000000E+00 -0.65714737357E+03  0.65714737357E+03  0.25500000920E-02 0.  1.
    10030    2    1    2    0    0  0.00000000000E+00  0.00000000000E+00 -0.34759120012E+03  0.96670354702E+03  0.90205105478E+03 0.  0.
        4    1    3    3  502    0  0.61844613003E+02  0.39895259702E+03 -0.38929106688E+03  0.56083605312E+03  0.12699999809E+01 0.  1.
       -4    1    3    3    0  502 -0.61844613003E+02 -0.39895259702E+03  0.41699866755E+02  0.40586749391E+03  0.12699999809E+01 0. -1.
</event>
<event>
 5   0  0.3663255E-03  0.9061115E+03  0.7818609E-02  0.9417974E-01
        2   -1    0    0  501    0  0.00000000000E+00  0.00000000000E+00  0.88239622476E+03  0.88239622476E+03  0.25500000920E-02 0. -1.
       -2   -1    0    0    0  501  0.00000000000E+00  0.00000000000E+00 -0.23261602630E+03  0.23261602631E+03  0.25500000920E-02 0.  1.
    10030    2    1    2    0    0  0.00000000000E+00  0.00000000000E+00  0.64978019846E+03  0.11150122511E+04  0.90611147974E+03 0.  0.
        4    1    3    3  502    0 -0.10317377958E+03 -0.24681428124E+03  0.77483241966E+03  0.81971276047E+03  0.12699999809E+01 0. -1.
       -4    1    3    3    0  502  0.10317377958E+03  0.24681428124E+03 -0.12505222120E+03  0.29529949060E+03  0.12699999809E+01 0.  1.
</event>
<event>
 5   0  0.3806019E-03  0.9025962E+03  0.7818609E-02  0.9422342E-01
        2   -1    0    0  501    0  0.00000000000E+00  0.00000000000E+00  0.13358940784E+03  0.13358940787E+03  0.25500000920E-02 0.  1.
       -2   -1    0    0    0  501  0.00000000000E+00  0.00000000000E+00 -0.15245968000E+04  0.15245968000E+04  0.25500000920E-02 0. -1.
    10030    2    1    2    0    0  0.00000000000E+00  0.00000000000E+00 -0.13910073922E+04  0.16581862079E+04  0.90259621922E+03 0.  0.
        2    1    3    3  502    0 -0.11196972623E+03 -0.40128286796E+03 -0.10142593046E+04  0.10964885301E+04  0.25500000920E-02 0. -1.
       -2    1    3    3    0  502  0.11196972623E+03  0.40128286796E+03 -0.37674808759E+03  0.56169767778E+03  0.25500000920E-02 0.  1.
</event>
<event>
 5   0  0.2130975E-03  0.8998678E+03  0.7818609E-02  0.9425747E-01
       -1   -1    0    0    0  501  0.00000000000E+00  0.00000000000E+00  0.51488756897E+03  0.51488756899E+03  0.50400001928E-02 0.  1.
        1   -1    0    0  501    0  0.00000000000E+00  0.00000000000E+00 -0.39317420916E+03  0.39317420919E+03  0.50400001928E-02 0. -1.
    10030    2    1    2    0    0  0.00000000000E+00  0.00000000000E+00  0.12171335981E+03  0.90806177818E+03  0.89986779643E+03 0.  0.
        5    1    3    3  502    0 -0.23661924869E+03  0.29982733774E+03  0.30078910126E+03  0.48619057451E+03  0.46999998093E+01 0.  1.
       -5    1    3    3    0  502  0.23661924869E+03 -0.29982733774E+03 -0.17907574146E+03  0.42187120367E+03  0.46999998093E+01 0. -1.
</event>
<event>
 5   0  0.3626546E-03  0.8996192E+03  0.7818609E-02  0.9426058E-01
        2   -1    0    0  501    0  0.00000000000E+00  0.00000000000E+00  0.38365062155E+03  0.38365062156E+03  0.25500000920E-02 0. -1.
       -2   -1    0    0    0  501  0.00000000000E+00  0.00000000000E+00 -0.52737746686E+03  0.52737746687E+03  0.25500000920E-02 0.  1.
    10030    2    1    2    0    0  0.00000000000E+00  0.00000000000E+00 -0.14372684531E+03  0.91102808842E+03  0.89961923714E+03 0.  0.
        3    1    3    3  502    0  0.37370090267E+03  0.12907786079E+03  0.14536857878E+03  0.42124279543E+03  0.10100000352E+00 0. -1.
       -3    1    3    3    0  502 -0.37370090267E+03 -0.12907786079E+03 -0.28909542410E+03  0.48978529300E+03  0.10100000352E+00 0.  1.
</event>
<event>
 5   0  0.2130975E-03  0.9029289E+03  0.7818609E-02  0.9421928E-01
        1   -1    0    0  501    0  0.00000000000E+00  0.00000000000E+00  0.12745158137E+04  0.12745158137E+04  0.50400001928E-02 0.  1.
       -1   -1    0    0    0  501  0.00000000000E+00  0.00000000000E+00 -0.15991965392E+03  0.15991965400E+03  0.50400001928E-02 0. -1.
    10030    2    1    2    0    0  0.00000000000E+00  0.00000000000E+00  0.11145961598E+04  0.14344354677E+04  0.90292885193E+03 0.  0.
        5    1    3    3  502    0  0.89541875996E+01 -0.44947301173E+03  0.49195324630E+03  0.66644298503E+03  0.46999998093E+01 0. -1.
       -5    1    3    3    0  502 -0.89541875996E+01  0.44947301173E+03  0.62264291352E+03  0.76799248272E+03  0.46999998093E+01 0.  1.
</event>
<event>
 5   0  0.2129280E-03  0.9002588E+03  0.7818609E-02  0.9425258E-01
        1   -1    0    0  501    0  0.00000000000E+00  0.00000000000E+00  0.36856532950E+03  0.36856532953E+03  0.50400001928E-02 0.  1.
       -1   -1    0    0    0  501  0.00000000000E+00  0.00000000000E+00 -0.54974370071E+03  0.54974370073E+03  0.50400001928E-02 0. -1.
    10030    2    1    2    0    0  0.00000000000E+00  0.00000000000E+00 -0.18117837120E+03  0.91830903026E+03  0.90025878106E+03 0.  0.
        3    1    3    3  502    0 -0.43610528168E+02 -0.30864165047E+02  0.36531954535E+03  0.36920570861E+03  0.10100000352E+00 0.  1.
       -3    1    3    3    0  502  0.43610528168E+02  0.30864165047E+02 -0.54649791656E+03  0.54910332166E+03  0.10100000352E+00 0. -1.
</event>
<event>
 5   0  0.1436000E-03  0.8965629E+03  0.7818609E-02  0.9429888E-01
        3   -1    0    0  501    0  0.00000000000E+00  0.00000000000E+00  0.35880216428E+03  0.35880217849E+03  0.10100000352E+00 0. -1.
       -3   -1    0    0    0  501  0.00000000000E+00  0.00000000000E+00 -0.56007534231E+03  0.56007535142E+03  0.10100000352E+00 0.  1.
    10030    2    1    2    0    0  0.00000000000E+00  0.00000000000E+00 -0.20127317803E+03  0.91887752991E+03  0.89656289393E+03 0.  0.
        2    1    3    3  502    0  0.17894839896E+03  0.23474833977E+03  0.24514304257E+03  0.38369835006E+03  0.25500000920E-02 0. -1.
       -2    1    3    3    0  502 -0.17894839896E+03 -0.23474833977E+03 -0.44641622061E+03  0.53517917984E+03  0.25500000920E-02 0.  1.
</event>
<event>
 5   0  0.3663255E-03  0.8951044E+03  0.7818609E-02  0.9431722E-01
       -2   -1    0    0    0  501  0.00000000000E+00  0.00000000000E+00  0.13717790156E+03  0.13717790158E+03  0.25500000920E-02 0.  1.
        2   -1    0    0  501    0  0.00000000000E+00  0.00000000000E+00 -0.14601692627E+04  0.14601692627E+04  0.25500000920E-02 0. -1.
    10030    2    1    2    0    0  0.00000000000E+00  0.00000000000E+00 -0.13229913611E+04  0.15973471642E+04  0.89510436351E+03 0.  0.
        4    1    3    3  502    0  0.29524960989E+01 -0.81669256346E+02  0.12374690006E+03  0.14830203249E+03  0.12699999809E+01 0.  1.
       -4    1    3    3    0  502 -0.29524960989E+01  0.81669256346E+02 -0.14467382612E+04  0.14490451318E+04  0.12699999809E+01 0. -1.
</event>
<event>
 5   0  0.2295158E-03  0.8870440E+03  0.7818609E-02  0.9441924E-01
       -1   -1    0    0    0  501  0.00000000000E+00  0.00000000000E+00  0.36468059515E+03  0.36468059518E+03  0.50400001928E-02 0. -1.
        1   -1    0    0  501    0  0.00000000000E+00  0.00000000000E+00 -0.53940830857E+03  0.53940830859E+03  0.50400001928E-02 0.  1.
    10030    2    1    2    0    0  0.00000000000E+00  0.00000000000E+00 -0.17472771342E+03  0.90408890378E+03  0.88704395161E+03 0.  0.
        4    1    3    3  502    0  0.14246488854E+03  0.96872512078E+02  0.32918190818E+03  0.37154120853E+03  0.12699999809E+01 0. -1.
       -4    1    3    3    0  502 -0.14246488854E+03 -0.96872512078E+02 -0.50390962160E+03  0.53254769524E+03  0.12699999809E+01 0.  1.
</event>
<event>
 5   0  0.2129280E-03  0.8966857E+03  0.7818609E-02  0.9429734E-01
        1   -1    0    0  501    0  0.00000000000E+00  0.00000000000E+00  0.54171348980E+03  0.54171348982E+03  0.50400001928E-02 0. -1.
       -1   -1    0    0    0  501  0.00000000000E+00  0.00000000000E+00 -0.37106574884E+03  0.37106574887E+03  0.50400001928E-02 0.  1.
    10030    2    1    2    0    0  0.00000000000E+00  0.00000000000E+00  0.17064774096E+03  0.91277923870E+03  0.89668572371E+03 0.  0.
        3    1    3    3  502    0  0.11880137777E+03  0.24569797239E+03  0.44741871292E+03  0.52408470295E+03  0.10100000352E+00 0. -1.
       -3    1    3    3    0  502 -0.11880137777E+03 -0.24569797239E+03 -0.27677097196E+03  0.38869453574E+03  0.10100000352E+00 0.  1.
</event>
<event>
 5   0  0.3806019E-03  0.9004651E+03  0.7818609E-02  0.9425000E-01
        2   -1    0    0  501    0  0.00000000000E+00  0.00000000000E+00  0.37843950188E+03  0.37843950189E+03  0.25500000920E-02 0.  1.
       -2   -1    0    0    0  501  0.00000000000E+00  0.00000000000E+00 -0.53564532010E+03  0.53564532011E+03  0.25500000920E-02 0. -1.
    10030    2    1    2    0    0  0.00000000000E+00  0.00000000000E+00 -0.15720581822E+03  0.91408482200E+03  0.90046509790E+03 0.  0.
        2    1    3    3  502    0 -0.36192732236E+02 -0.38427305788E+02 -0.53249305143E+03  0.53510318773E+03  0.25500000920E-02 0. -1.
       -2    1    3    3    0  502  0.36192732236E+02  0.38427305788E+02  0.37528723321E+03  0.37898163427E+03  0.25500000920E-02 0.  1.
</event>
<event>
 5   0  0.2129280E-03  0.9003228E+03  0.7818609E-02  0.9425178E-01
       -1   -1    0    0    0  501  0.00000000000E+00  0.00000000000E+00  0.33631963026E+03  0.33631963030E+03  0.50400001928E-02 0.  1.
        1   -1    0    0  501    0  0.00000000000E+00  0.00000000000E+00 -0.60253775243E+03  0.60253775245E+03  0.50400001928E-02 0. -1.
    10030    2    1    2    0    0  0.00000000000E+00  0.00000000000E+00 -0.26621812217E+03  0.93885738275E+03  0.90032277355E+03 0.  0.
        3    1    3    3  502    0 -0.32973973918E+03  0.14316606394E+02 -0.45233560832E+03  0.55994711677E+03  0.10100000352E+00 0. -1.
       -3    1    3    3    0  502  0.32973973918E+03 -0.14316606394E+02  0.18611748615E+03  0.37891026598E+03  0.10100000352E+00 0.  1.
</event>
<event>
 5   0  0.3663255E-03  0.8579701E+03  0.7818609E-02  0.9479702E-01
       -2   -1    0    0    0  501  0.00000000000E+00  0.00000000000E+00  0.20172169221E+03  0.20172169223E+03  0.25500000920E-02 0. -1.
        2   -1    0    0  501    0  0.00000000000E+00  0.00000000000E+00 -0.91228751510E+03  0.91228751510E+03  0.25500000920E-02 0.  1.
    10030    2    1    2    0    0  0.00000000000E+00  0.00000000000E+00 -0.71056582288E+03  0.11140092073E+04  0.85797011916E+03 0.  0.
        4    1    3    3  502    0  0.15600961975E+03  0.11230075343E+03  0.14266931853E+03  0.23938798639E+03  0.12699999809E+01 0. -1.
       -4    1    3    3    0  502 -0.15600961975E+03 -0.11230075343E+03 -0.85323514142E+03  0.87462122094E+03  0.12699999809E+01 0.  1.
</event>
<event>
 5   0  0.3685879E-03  0.9002837E+03  0.7818609E-02  0.9425227E-01
       -2   -1    0    0    0  501  0.00000000000E+00  0.00000000000E+00  0.59482853166E+03  0.59482853167E+03  0.25500000920E-02 0.  1.
        2   -1    0    0  501    0  0.00000000000E+00  0.00000000000E+00 -0.34064887697E+03  0.34064887698E+03  0.25500000920E-02 0. -1.
    10030    2    1    2    0    0  0.00000000000E+00  0.00000000000E+00  0.25417965469E+03  0.93547740864E+03  0.90028366931E+03 0.  0.
        1    1    3    3  502    0  0.56335562870E+02  0.43982091504E+03  0.20765488863E+03  0.48962913082E+03  0.50400001928E-02 0.  1.
       -1    1    3    3    0  502 -0.56335562870E+02 -0.43982091504E+03  0.46524766062E+02  0.44584827782E+03  0.50400001928E-02 0. -1.
</event>
<event>
 5   0  0.3626546E-03  0.9008341E+03  0.7818609E-02  0.9424539E-01
       -2   -1    0    0    0  501  0.00000000000E+00  0.00000000000E+00  0.51692474007E+03  0.51692474008E+03  0.25500000920E-02 0.  1.
        2   -1    0    0  501    0  0.00000000000E+00  0.00000000000E+00 -0.39246622153E+03  0.39246622154E+03  0.25500000920E-02 0. -1.
    10030    2    1    2    0    0  0.00000000000E+00  0.00000000000E+00  0.12445851854E+03  0.90939096161E+03  0.90083405699E+03 0.  0.
        3    1    3    3  502    0  0.70162550076E+02 -0.28530953866E+03 -0.28240953417E+03  0.40752849161E+03  0.10100000352E+00 0. -1.
       -3    1    3    3    0  502 -0.70162550076E+02  0.28530953866E+03  0.40686805271E+03  0.50186247000E+03  0.10100000352E+00 0.  1.
</event>
<event>
 5   0  0.3626546E-03  0.9003138E+03  0.7818609E-02  0.9425189E-01
        2   -1    0    0  501    0  0.00000000000E+00  0.00000000000E+00  0.13452885145E+04  0.13452885145E+04  0.25500000920E-02 0. -1.
       -2   -1    0    0    0  501  0.00000000000E+00  0.00000000000E+00 -0.15063030518E+03  0.15063030520E+03  0.25500000920E-02 0.  1.
    10030    2    1    2    0    0  0.00000000000E+00  0.00000000000E+00  0.11946582093E+04  0.14959188197E+04  0.90031376643E+03 0.  0.
        3    1    3    3  502    0 -0.24238390998E+03 -0.36636936736E+03  0.43398286691E+03  0.61750920004E+03  0.10100000352E+00 0.  1.
       -3    1    3    3    0  502  0.24238390998E+03  0.36636936736E+03  0.76067534241E+03  0.87840961965E+03  0.10100000352E+00 0. -1.
</event>
<event>
 5   0  0.3815269E-03  0.8973759E+03  0.7818609E-02  0.9428868E-01
        2   -1    0    0  501    0  0.00000000000E+00  0.00000000000E+00  0.13580502697E+04  0.13580502697E+04  0.25500000920E-02 0. -1.
       -2   -1    0    0    0  501  0.00000000000E+00  0.00000000000E+00 -0.14824258765E+03  0.14824258768E+03  0.25500000920E-02 0.  1.
    10030    2    1    2    0    0  0.00000000000E+00  0.00000000000E+00  0.12098076820E+04  0.15062928574E+04  0.89737592159E+03 0.  0.
        5    1    3    3  502    0  0.43647563881E+03  0.32834181759E+02  0.77030500740E+03  0.88599151305E+03  0.46999998093E+01 0.  1.
       -5    1    3    3    0  502 -0.43647563881E+03 -0.32834181759E+02  0.43950267464E+03  0.62030134433E+03  0.46999998093E+01 0. -1.
</event>
<event>
 5   0  0.2129280E-03  0.9006382E+03  0.7818609E-02  0.9424784E-01
        1   -1    0    0  501    0  0.00000000000E+00  0.00000000000E+00  0.10882601868E+04  0.10882601869E+04  0.50400001928E-02 0. -1.
       -1   -1    0    0    0  501  0.00000000000E+00  0.00000000000E+00 -0.18634080907E+03  0.18634080914E+03  0.50400001928E-02 0.  1.
    10030    2    1    2    0    0  0.00000000000E+00  0.00000000000E+00  0.90191937778E+03  0.12746009960E+04  0.90063818206E+03 0.  0.
        3    1    3    3  502    0 -0.31639094508E+03  0.22090738266E+03  0.77947354991E+03  0.86975992495E+03  0.10100000352E+00 0. -1.
       -3    1    3    3    0  502  0.31639094508E+03 -0.22090738266E+03  0.12244582787E+03  0.40484107104E+03  0.10100000352E+00 0.  1.
</event>
<event>
 5   0  0.2295158E-03  0.9057687E+03  0.7818609E-02  0.9418399E-01
       -1   -1    0    0    0  501  0.00000000000E+00  0.00000000000E+00  0.11914639717E+03  0.11914639728E+03  0.50400001928E-02 0. -1.
        1   -1    0    0  501    0  0.00000000000E+00  0.00000000000E+00 -0.17214471433E+04  0.17214471434E+04  0.50400001928E-02 0.  1.
    10030    2    1    2    0    0  0.00000000000E+00  0.00000000000E+00 -0.16023007462E+04  0.18405935406E+04  0.90576867942E+03 0.  0.
        4    1    3    3  502    0  0.72530932822E+02  0.14687098709E+03 -0.16591373344E+04  0.16672042857E+04  0.12699999809E+01 0.  1.
       -4    1    3    3    0  502 -0.72530932822E+02 -0.14687098709E+03  0.56836588201E+02  0.17338925492E+03  0.12699999809E+01 0. -1.
</event>
<event>
 5   0  0.3663255E-03  0.8909926E+03  0.7818609E-02  0.9436912E-01
        2   -1    0    0  501    0  0.00000000000E+00  0.00000000000E+00  0.32484007980E+03  0.32484007981E+03  0.25500000920E-02 0.  1.
       -2   -1    0    0    0  501  0.00000000000E+00  0.00000000000E+00 -0.61096814954E+03  0.61096814954E+03  0.25500000920E-02 0. -1.
    10030    2    1    2    0    0  0.00000000000E+00  0.00000000000E+00 -0.28612806974E+03  0.93580822935E+03  0.89099257563E+03 0.  0.
        4    1    3    3  502    0 -0.15412905876E+03  0.34980841567E+03  0.97230954371E+02  0.39443271393E+03  0.12699999809E+01 0.  1.
       -4    1    3    3    0  502  0.15412905876E+03 -0.34980841567E+03 -0.38335902411E+03  0.54137551542E+03  0.12699999809E+01 0. -1.
</event>
<event>
 5   0  0.2129280E-03  0.9083671E+03  0.7818609E-02  0.9415182E-01
        1   -1    0    0  501    0  0.00000000000E+00  0.00000000000E+00  0.17257772390E+04  0.17257772390E+04  0.50400001928E-02 0.  1.
       -1   -1    0    0    0  501  0.00000000000E+00  0.00000000000E+00 -0.11953031041E+03  0.11953031051E+03  0.50400001928E-02 0. -1.
    10030    2    1    2    0    0  0.00000000000E+00  0.00000000000E+00  0.16062469286E+04  0.18453075495E+04  0.90836708257E+03 0.  0.
        3    1    3    3  502    0  0.33264547300E+03 -0.12197384229E+03  0.22584660466E+03  0.42016345384E+03  0.10100000352E+00 0. -1.
       -3    1    3    3    0  502 -0.33264547300E+03  0.12197384229E+03  0.13804003239E+04  0.14251440957E+04  0.10100000352E+00 0.  1.
</event>
<event>
 5   0  0.2074970E-03  0.9067726E+03  0.7818609E-02  0.9417155E-01
       -1   -1    0    0    0  501  0.00000000000E+00  0.00000000000E+00  0.85907595989E+03  0.85907595990E+03  0.50400001928E-02 0. -1.
        1   -1    0    0  501    0  0.00000000000E+00  0.00000000000E+00 -0.23927932963E+03  0.23927932968E+03  0.50400001928E-02 0.  1.
    10030    2    1    2    0    0  0.00000000000E+00  0.00000000000E+00  0.61979663026E+03  0.10983552896E+04  0.90677256205E+03 0.  0.
        2    1    3    3  502    0  0.32368039140E+03 -0.26549978885E+03  0.99052157714E+02  0.43019816784E+03  0.25500000920E-02 0.  1.
       -2    1    3    3    0  502 -0.32368039140E+03  0.26549978885E+03  0.52074447254E+03  0.66815712175E+03  0.25500000920E-02 0. -1.
</event>
<event>
 5   0  0.2129280E-03  0.8994779E+03  0.7818609E-02  0.9426234E-01
        1   -1    0    0  501    0  0.00000000000E+00  0.00000000000E+00  0.11919820825E+04  0.11919820825E+04  0.50400001928E-02 0. -1.
       -1   -1    0    0    0  501  0.00000000000E+00  0.00000000000E+00 -0.16968805341E+03  0.16968805348E+03  0.50400001928E-02 0.  1.
    10030    2    1    2    0    0  0.00000000000E+00  0.00000000000E+00  0.10222940291E+04  0.13616701360E+04  0.89947789153E+03 0.  0.
        3    1    3    3  502    0 -0.35172606270E+03  0.10623879433E+03  0.11851734964E+03  0.38606252987E+03  0.10100000352E+00 0.  1.
       -3    1    3    3    0  502  0.35172606270E+03 -0.10623879433E+03  0.90377667949E+03  0.97560760615E+03  0.10100000352E+00 0. -1.
</event>
<event>
 5   0  0.2129280E-03  0.8993108E+03  0.7818609E-02  0.9426443E-01
        1   -1    0    0  501    0  0.00000000000E+00  0.00000000000E+00  0.74481506049E+03  0.74481506050E+03  0.50400001928E-02 0.  1.
       -1   -1    0    0    0  501  0.00000000000E+00  0.00000000000E+00 -0.27146335628E+03  0.27146335633E+03  0.50400001928E-02 0. -1.
    10030    2    1    2    0    0  0.00000000000E+00  0.00000000000E+00  0.47335170420E+03  0.10162784168E+04  0.89931083872E+03 0.  0.
        3    1    3    3  502    0 -0.46067687606E+02  0.25523014304E+03 -0.17842116857E+03  0.31479958918E+03  0.10100000352E+00 0. -1.
       -3    1    3    3    0  502  0.46067687606E+02 -0.25523014304E+03  0.65177287277E+03  0.70147882765E+03  0.10100000352E+00 0.  1.
</event>
<event>
 5   0  0.2130975E-03  0.8988557E+03  0.7818609E-02  0.9427013E-01
       -1   -1    0    0    0  501  0.00000000000E+00  0.00000000000E+00  0.15541732632E+03  0.15541732640E+03  0.50400001928E-02 0. -1.
        1   -1    0    0  501    0  0.00000000000E+00  0.00000000000E+00 -0.12996323433E+04  0.12996323433E+04  0.50400001928E-02 0.  1.
    10030    2    1    2    0    0  0.00000000000E+00  0.00000000000E+00 -0.11442150170E+04  0.14550496697E+04  0.89885568153E+03 0.  0.
        5    1    3    3  502    0  0.44874011184E+03  0.24131164618E+02 -0.56620551189E+03  0.72288365093E+03  0.46999998093E+01 0.  1.
       -5    1    3    3    0  502 -0.44874011184E+03 -0.24131164618E+02 -0.57800950509E+03  0.73216601877E+03  0.46999998093E+01 0. -1.
</event>
<event>
 5   0  0.2074970E-03  0.9021126E+03  0.7818609E-02  0.9422944E-01
       -1   -1    0    0    0  501  0.00000000000E+00  0.00000000000E+00  0.37874743699E+03  0.37874743703E+03  0.50400001928E-02 0. -1.
        1   -1    0    0  501    0  0.00000000000E+00  0.00000000000E+00 -0.53717008460E+03  0.53717008463E+03  0.50400001928E-02 0.  1.
    10030    2    1    2    0    0  0.00000000000E+00  0.00000000000E+00 -0.15842264761E+03  0.91591752165E+03  0.90211261559E+03 0.  0.
        2    1    3    3  502    0 -0.18093487010E+03 -0.36331125343E+03 -0.27899470192E+03  0.49251450516E+03  0.25500000920E-02 0. -1.
       -2    1    3    3    0  502  0.18093487010E+03  0.36331125343E+03  0.12057205431E+03  0.42340301649E+03  0.25500000920E-02 0.  1.
</event>
<event>
 5   0  0.1436000E-03  0.8999007E+03  0.7818609E-02  0.9425706E-01
        3   -1    0    0  501    0  0.00000000000E+00  0.00000000000E+00  0.10282445030E+04  0.10282445080E+04  0.10100000352E+00 0. -1.
       -3   -1    0    0    0  501  0.00000000000E+00  0.00000000000E+00 -0.19689410987E+03  0.19689413577E+03  0.10100000352E+00 0.  1.
    10030    2    1    2    0    0  0.00000000000E+00  0.00000000000E+00  0.83135039316E+03  0.12251386438E+04  0.89990067243E+03 0.  0.
        4    1    3    3  502    0  0.17666400034E+03  0.84683615303E+02 -0.13577738520E+03  0.23836651389E+03  0.12699999809E+01 0.  1.
       -4    1    3    3    0  502 -0.17666400034E+03 -0.84683615303E+02  0.96712777836E+03  0.98677212987E+03  0.12699999809E+01 0. -1.
</event>
<event>
 5   0  0.2074970E-03  0.9036477E+03  0.7818609E-02  0.9421033E-01
        1   -1    0    0  501    0  0.00000000000E+00  0.00000000000E+00  0.14824324739E+04  0.14824324739E+04  0.50400001928E-02 0.  1.
       -1   -1    0    0    0  501  0.00000000000E+00  0.00000000000E+00 -0.13770934966E+03  0.13770934976E+03  0.50400001928E-02 0. -1.
    10030    2    1    2    0    0  0.00000000000E+00  0.00000000000E+00  0.13447231242E+04  0.16201418236E+04  0.90364774548E+03 0.  0.
        2    1    3    3  502    0 -0.40374983389E+03 -0.36988538268E+02  0.10298746705E+04  0.11068079857E+04  0.25500000920E-02 0. -1.
       -2    1    3    3    0  502  0.40374983389E+03  0.36988538268E+02  0.31484845369E+03  0.51333383789E+03  0.25500000920E-02 0.  1.
</event>
<event>
 5   0  0.3815269E-03  0.8985992E+03  0.7818609E-02  0.9427334E-01
       -2   -1    0    0    0  501  0.00000000000E+00  0.00000000000E+00  0.33119544456E+03  0.33119544457E+03  0.25500000920E-02 0.  1.
        2   -1    0    0  501    0  0.00000000000E+00  0.00000000000E+00 -0.60951971508E+03  0.60951971509E+03  0.25500000920E-02 0. -1.
    10030    2    1    2    0    0  0.00000000000E+00  0.00000000000E+00 -0.27832427053E+03  0.94071515965E+03  0.89859924996E+03 0.  0.
        5    1    3    3  502    0 -0.38424583037E+03 -0.17252035924E+03 -0.30282195718E+03  0.51877871994E+03  0.46999998093E+01 0.  1.
       -5    1    3    3    0  502  0.38424583037E+03  0.17252035924E+03  0.24497686653E+02  0.42193643972E+03  0.46999998093E+01 0. -1.
</event>
<event>
 5   0  0.2129280E-03  0.8991717E+03  0.7818609E-02  0.9426617E-01
        1   -1    0    0  501    0  0.00000000000E+00  0.00000000000E+00  0.69253912774E+03  0.69253912776E+03  0.50400001928E-02 0. -1.
       -1   -1    0    0    0  501  0.00000000000E+00  0.00000000000E+00 -0.29186428525E+03  0.29186428529E+03  0.50400001928E-02 0.  1.
    10030    2    1    2    0    0  0.00000000000E+00  0.00000000000E+00  0.40067484249E+03  0.98440341305E+03  0.89917170230E+03 0.  0.
        3    1    3    3  502    0 -0.36800517320E+03  0.15684760355E+03 -0.24290391560E+02  0.40077301751E+03  0.10100000352E+00 0.  1.
       -3    1    3    3    0  502  0.36800517320E+03 -0.15684760355E+03  0.42496523405E+03  0.58363039554E+03  0.10100000352E+00 0. -1.
</event>
<event>
 5   0  0.3815269E-03  0.8964253E+03  0.7818609E-02  0.9430061E-01
       -2   -1    0    0    0  501  0.00000000000E+00  0.00000000000E+00  0.15282666389E+03  0.15282666391E+03  0.25500000920E-02 0.  1.
        2   -1    0    0  501    0  0.00000000000E+00  0.00000000000E+00 -0.13145258226E+04  0.13145258226E+04  0.25500000920E-02 0. -1.
    10030    2    1    2    0    0  0.00000000000E+00  0.00000000000E+00 -0.11616991587E+04  0.14673524865E+04  0.89642533672E+03 0.  0.
        5    1    3    3  502    0 -0.24386926308E+03  0.40120750927E+02 -0.11928607307E+04  0.12182038848E+04  0.46999998093E+01 0. -1.
       -5    1    3    3    0  502  0.24386926308E+03 -0.40120750927E+02  0.31161572042E+02  0.24914860165E+03  0.46999998093E+01 0.  1.
</event>
<event>
 5   0  0.2129280E-03  0.9017031E+03  0.7818609E-02  0.9423455E-01
        1   -1    0    0  501    0  0.00000000000E+00  0.00000000000E+00  0.75716307642E+03  0.75716307643E+03  0.50400001928E-02 0. -1.
       -1   -1    0    0    0  501  0.00000000000E+00  0.00000000000E+00 -0.26845883243E+03  0.26845883248E+03  0.50400001928E-02 0.  1.
    10030    2    1    2    0    0  0.00000000000E+00  0.00000000000E+00  0.48870424399E+03  0.10256219089E+04  0.90170308968E+03 0.  0.
        3    1    3    3  502    0  0.12324468032E+03  0.13124729004E+03 -0.22579498594E+03  0.28878796416E+03  0.10100000352E+00 0.  1.
       -3    1    3    3    0  502 -0.12324468032E+03 -0.13124729004E+03  0.71449922993E+03  0.73683394475E+03  0.10100000352E+00 0. -1.
</event>
<event>
 5   0  0.3663255E-03  0.8984399E+03  0.7818609E-02  0.9427534E-01
       -2   -1    0    0    0  501  0.00000000000E+00  0.00000000000E+00  0.15773158939E+03  0.15773158941E+03  0.25500000920E-02 0.  1.
        2   -1    0    0  501    0  0.00000000000E+00  0.00000000000E+00 -0.12793796276E+04  0.12793796276E+04  0.25500000920E-02 0. -1.
    10030    2    1    2    0    0  0.00000000000E+00  0.00000000000E+00 -0.11216480382E+04  0.14371112170E+04  0.89843994149E+03 0.  0.
        4    1    3    3  502    0 -0.38691719800E+02 -0.23864346124E+03  0.44794285398E+02  0.24587779826E+03  0.12699999809E+01 0.  1.
       -4    1    3    3    0  502  0.38691719800E+02  0.23864346124E+03 -0.11664423236E+04  0.11912334188E+04  0.12699999809E+01 0. -1.
</event>
<event>
 5   0  0.2295158E-03  0.9005125E+03  0.7818609E-02  0.9424941E-01
       -1   -1    0    0    0  501  0.00000000000E+00  0.00000000000E+00  0.26021067622E+03  0.26021067627E+03  0.50400001928E-02 0. -1.
        1   -1    0    0  501    0  0.00000000000E+00  0.00000000000E+00 -0.77910206627E+03  0.77910206628E+03  0.50400001928E-02 0.  1.
    10030    2    1    2    0    0  0.00000000000E+00  0.00000000000E+00 -0.51889139004E+03  0.10393127426E+04  0.90051246642E+03 0.  0.
        4    1    3    3  502    0 -0.22368842772E+03  0.15263458149E+03 -0.67460584822E+03  0.72693087121E+03  0.12699999809E+01 0.  1.
       -4    1    3    3    0  502  0.22368842772E+03 -0.15263458149E+03  0.15571445817E+03  0.31238187135E+03  0.12699999809E+01 0. -1.
</event>
<event>
 5   0  0.3663255E-03  0.8968342E+03  0.7818609E-02  0.9429547E-01
        2   -1    0    0  501    0  0.00000000000E+00  0.00000000000E+00  0.14181157230E+04  0.14181157230E+04  0.25500000920E-02 0. -1.
       -2   -1    0    0    0  501  0.00000000000E+00  0.00000000000E+00 -0.14179230869E+03  0.14179230871E+03  0.25500000920E-02 0.  1.
    10030    2    1    2    0    0  0.00000000000E+00  0.00000000000E+00  0.12763234143E+04  0.15599080317E+04  0.89683421516E+03 0.  0.
        4    1    3    3  502    0 -0.20338699098E+03  0.39380293301E+03  0.51981855215E+03  0.68312514096E+03  0.12699999809E+01 0.  1.
       -4    1    3    3    0  502  0.20338699098E+03 -0.39380293301E+03  0.75650486215E+03  0.87678289074E+03  0.12699999809E+01 0. -1.
</event>
<event>
 5   0  0.3806019E-03  0.9074226E+03  0.7818609E-02  0.9416350E-01
       -2   -1    0    0    0  501  0.00000000000E+00  0.00000000000E+00  0.45836000296E+03  0.45836000296E+03  0.25500000920E-02 0. -1.
        2   -1    0    0  501    0  0.00000000000E+00  0.00000000000E+00 -0.44910970560E+03  0.44910970561E+03  0.25500000920E-02 0.  1.
    10030    2    1    2    0    0  0.00000000000E+00  0.00000000000E+00  0.92502973572E+01  0.90746970857E+03  0.90742256087E+03 0.  0.
        2    1    3    3  502    0 -0.18868546602E+03 -0.36144334651E+03 -0.19440887960E+03  0.45170599985E+03  0.25500000920E-02 0.  1.
       -2    1    3    3    0  502  0.18868546602E+03  0.36144334651E+03  0.20365917695E+03  0.45576370872E+03  0.25500000920E-02 0. -1.
</event>
<event>
 5   0  0.2134145E-03  0.8880493E+03  0.7818609E-02  0.9440645E-01
       -1   -1    0    0    0  501  0.00000000000E+00  0.00000000000E+00  0.30825223796E+03  0.30825223800E+03  0.50400001928E-02 0. -1.
        1   -1    0    0  501    0  0.00000000000E+00  0.00000000000E+00 -0.63959925074E+03  0.63959925076E+03  0.50400001928E-02 0.  1.
    10030    2    1    2    0    0  0.00000000000E+00  0.00000000000E+00 -0.33134701277E+03  0.94785148876E+03  0.88804932401E+03 0.  0.
        1    1    3    3  502    0  0.14506420743E+03  0.16933485809E+03  0.24416319095E+03  0.33065629025E+03  0.50400001928E-02 0. -1.
       -1    1    3    3    0  502 -0.14506420743E+03 -0.16933485809E+03 -0.57551020373E+03  0.61719519851E+03  0.50400001928E-02 0.  1.
</event>
<event>
 5   0  0.1436000E-03  0.9001564E+03  0.7818609E-02  0.9425386E-01
        3   -1    0    0  501    0  0.00000000000E+00  0.00000000000E+00  0.12483442530E+03  0.12483446616E+03  0.10100000352E+00 0. -1.
       -3   -1    0    0    0  501  0.00000000000E+00  0.00000000000E+00 -0.16227122107E+04  0.16227122139E+04  0.10100000352E+00 0.  1.
    10030    2    1    2    0    0  0.00000000000E+00  0.00000000000E+00 -0.14978777854E+04  0.17475466800E+04  0.90015639685E+03 0.  0.
        2    1    3    3  502    0  0.23775774219E+03 -0.12998070470E+03 -0.51265118751E+02  0.27577498069E+03  0.25500000920E-02 0. -1.
       -2    1    3    3    0  502 -0.23775774219E+03  0.12998070470E+03 -0.14466126667E+04  0.14717716993E+04  0.25500000920E-02 0.  1.
</event>
<event>
 5   0  0.2134145E-03  0.9002109E+03  0.7818609E-02  0.9425318E-01
        1   -1    0    0  501    0  0.00000000000E+00  0.00000000000E+00  0.54249100216E+03  0.54249100218E+03  0.50400001928E-02 0. -1.
       -1   -1    0    0    0  501  0.00000000000E+00  0.00000000000E+00 -0.37345300725E+03  0.37345300729E+03  0.50400001928E-02 0.  1.
    10030    2    1    2    0    0  0.00000000000E+00  0.00000000000E+00  0.16903799490E+03  0.91594400947E+03  0.90021085572E+03 0.  0.
        1    1    3    3  502    0 -0.14003186115E+03 -0.36805941729E+03  0.30631558051E+03  0.49890469198E+03  0.50400001928E-02 0.  1.
       -1    1    3    3    0  502  0.14003186115E+03  0.36805941729E+03 -0.13727758560E+03  0.41703931749E+03  0.50400001928E-02 0. -1.
</event>
<event>
 5   0  0.3815269E-03  0.8939560E+03  0.7818609E-02  0.9433168E-01
        2   -1    0    0  501    0  0.00000000000E+00  0.00000000000E+00  0.22113771731E+03  0.22113771733E+03  0.25500000920E-02 0. -1.
       -2   -1    0    0    0  501  0.00000000000E+00  0.00000000000E+00 -0.90346111163E+03  0.90346111164E+03  0.25500000920E-02 0.  1.
    10030    2    1    2    0    0  0.00000000000E+00  0.00000000000E+00 -0.68232339432E+03  0.11245988290E+04  0.89395598978E+03 0.  0.
        5    1    3    3  502    0 -0.30196282751E+03  0.96022459106E+01 -0.75552693994E+03  0.81370559743E+03  0.46999998093E+01 0.  1.
       -5    1    3    3    0  502  0.30196282751E+03 -0.96022459106E+01  0.73203545620E+02  0.31089323153E+03  0.46999998093E+01 0. -1.
</event>
<event>
 5   0  0.3626546E-03  0.8902954E+03  0.7818609E-02  0.9437795E-01
        2   -1    0    0  501    0  0.00000000000E+00  0.00000000000E+00  0.87671978307E+03  0.87671978307E+03  0.25500000920E-02 0. -1.
       -2   -1    0    0    0  501  0.00000000000E+00  0.00000000000E+00 -0.22602030060E+03  0.22602030062E+03  0.25500000920E-02 0.  1.
    10030    2    1    2    0    0  0.00000000000E+00  0.00000000000E+00  0.65069948247E+03  0.11027400837E+04  0.89029538676E+03 0.  0.
        3    1    3    3  502    0 -0.12846423592E+03 -0.17343257578E+03  0.80757745771E+03  0.83592061744E+03  0.10100000352E+00 0. -1.
       -3    1    3    3    0  502  0.12846423592E+03  0.17343257578E+03 -0.15687797525E+03  0.26681946625E+03  0.10100000352E+00 0.  1.
</event>
<event>
 5   0  0.3815269E-03  0.9017503E+03  0.7818609E-02  0.9423396E-01
       -2   -1    0    0    0  501  0.00000000000E+00  0.00000000000E+00  0.16862351541E+03  0.16862351543E+03  0.25500000920E-02 0.  1.
        2   -1    0    0  501    0  0.00000000000E+00  0.00000000000E+00 -0.12055757100E+04  0.12055757100E+04  0.25500000920E-02 0. -1.
    10030    2    1    2    0    0  0.00000000000E+00  0.00000000000E+00 -0.10369521946E+04  0.13741992254E+04  0.90175032980E+03 0.  0.
        5    1    3    3  502    0  0.41209228472E+03  0.58139119264E+02 -0.78271822275E+03  0.88649315538E+03  0.46999998093E+01 0. -1.
       -5    1    3    3    0  502 -0.41209228472E+03 -0.58139119264E+02 -0.25423397183E+03  0.48770607003E+03  0.46999998093E+01 0.  1.
</event>
<event>
 5   0  0.2074970E-03  0.8973554E+03  0.7818609E-02  0.9428893E-01
       -1   -1    0    0    0  501  0.00000000000E+00  0.00000000000E+00  0.63887352873E+03  0.63887352875E+03  0.50400001928E-02 0. -1.
        1   -1    0    0  501    0  0.00000000000E+00  0.00000000000E+00 -0.31510409812E+03  0.31510409816E+03  0.50400001928E-02 0.  1.
    10030    2    1    2    0    0  0.00000000000E+00  0.00000000000E+00  0.32376943061E+03  0.95397762692E+03  0.89735537468E+03 0.  0.
        2    1    3    3  502    0  0.73622945850E+01 -0.16913010518E+03  0.60361799597E+03  0.62690819178E+03  0.25500000920E-02 0. -1.
       -2    1    3    3    0  502 -0.73622945850E+01  0.16913010518E+03 -0.27984856536E+03  0.32706943514E+03  0.25500000920E-02 0.  1.
</event>
<event>
 5   0  0.3663255E-03  0.8996995E+03  0.7818609E-02  0.9425957E-01
        2   -1    0    0  501    0  0.00000000000E+00  0.00000000000E+00  0.17822395942E+03  0.17822395944E+03  0.25500000920E-02 0. -1.
       -2   -1    0    0    0  501  0.00000000000E+00  0.00000000000E+00 -0.11354522115E+04  0.11354522115E+04  0.25500000920E-02 0.  1.
    10030    2    1    2    0    0  0.00000000000E+00  0.00000000000E+00 -0.95722825204E+03  0.13136761709E+04  0.89969948066E+03 0.  0.
        4    1    3    3  502    0 -0.77410750899E+02  0.70270233557E+02 -0.11174643925E+04  0.11223451392E+04  0.12699999809E+01 0.  1.
       -4    1    3    3    0  502  0.77410750899E+02 -0.70270233557E+02  0.16023614047E+03  0.19133103170E+03  0.12699999809E+01 0. -1.
</event>
<event>
 5   0  0.2134145E-03  0.9042634E+03  0.7818609E-02  0.9420268E-01
        1   -1    0    0  501    0  0.00000000000E+00  0.00000000000E+00  0.66919729760E+03  0.66919729762E+03  0.50400001928E-02 0.  1.
       -1   -1    0    0    0  501  0.00000000000E+00  0.00000000000E+00 -0.30547507634E+03  0.30547507639E+03  0.50400001928E-02 0. -1.
    10030    2    1    2    0    0  0.00000000000E+00  0.00000000000E+00  0.36372222125E+03  0.97467237400E+03  0.90426344746E+03 0.  0.
        1    1    3    3  502    0 -0.34375520452E+03 -0.14384995948E+02  0.49804184255E+03  0.60532656120E+03  0.50400001928E-02 0.  1.
       -1    1    3    3    0  502  0.34375520452E+03  0.14384995948E+02 -0.13431962129E+03  0.36934581280E+03  0.50400001928E-02 0. -1.
</event>
<event>
 5   0  0.3626546E-03  0.9020728E+03  0.7818609E-02  0.9422994E-01
       -2   -1    0    0    0  501  0.00000000000E+00  0.00000000000E+00  0.12131687864E+03  0.12131687867E+03  0.25500000920E-02 0. -1.
        2   -1    0    0  501    0  0.00000000000E+00  0.00000000000E+00 -0.16768800191E+04  0.16768800191E+04  0.25500000920E-02 0.  1.
    10030    2    1    2    0    0  0.00000000000E+00  0.00000000000E+00 -0.15555631404E+04  0.17981968977E+04  0.90207283474E+03 0.  0.
        3    1    3    3  502    0 -0.20840362314E+03  0.99257046241E+02 -0.53535307821E+01  0.23089543490E+03  0.10100000352E+00 0. -1.
       -3    1    3    3    0  502  0.20840362314E+03 -0.99257046241E+02 -0.15502096097E+04  0.15673014628E+04  0.10100000352E+00 0.  1.
</event>
<event>
 5   0  0.2134145E-03  0.9080137E+03  0.7818609E-02  0.9415619E-01
       -1   -1    0    0    0  501  0.00000000000E+00  0.00000000000E+00  0.20476879249E+03  0.20476879255E+03  0.50400001928E-02 0.  1.
        1   -1    0    0  501    0  0.00000000000E+00  0.00000000000E+00 -0.10066095366E+04  0.10066095366E+04  0.50400001928E-02 0. -1.
    10030    2    1    2    0    0  0.00000000000E+00  0.00000000000E+00 -0.80184074411E+03  0.12113783292E+04  0.90801369894E+03 0.  0.
        1    1    3    3  502    0  0.24401186736E+03  0.11140898447E+03 -0.88958693886E+03  0.92914943634E+03  0.50400001928E-02 0. -1.
       -1    1    3    3    0  502 -0.24401186736E+03 -0.11140898447E+03  0.87746194745E+02  0.28222889284E+03  0.50400001928E-02 0.  1.
</event>
<event>
 5   0  0.3815269E-03  0.8995065E+03  0.7818609E-02  0.9426199E-01
        2   -1    0    0  501    0  0.00000000000E+00  0.00000000000E+00  0.87194852495E+03  0.87194852496E+03  0.25500000920E-02 0.  1.
       -2   -1    0    0    0  501  0.00000000000E+00  0.00000000000E+00 -0.23198385494E+03  0.23198385495E+03  0.25500000920E-02 0. -1.
    10030    2    1    2    0    0  0.00000000000E+00  0.00000000000E+00  0.63996467002E+03  0.11039323799E+04  0.89950648721E+03 0.  0.
        5    1    3    3  502    0  0.42487666270E+03 -0.14683709459E+03  0.30376667902E+03  0.54256575282E+03  0.46999998093E+01 0.  1.
       -5    1    3    3    0  502 -0.42487666270E+03  0.14683709459E+03  0.33619799100E+03  0.56136662708E+03  0.46999998093E+01 0. -1.
</event>
<event>
 5   0  0.1436000E-03  0.9070562E+03  0.7818609E-02  0.9416804E-01
        3   -1    0    0  501    0  0.00000000000E+00  0.00000000000E+00  0.78854283079E+03  0.78854283726E+03  0.10100000352E+00 0. -1.
       -3   -1    0    0    0  501  0.00000000000E+00  0.00000000000E+00 -0.26084536931E+03  0.26084538886E+03  0.10100000352E+00 0.  1.
    10030    2    1    2    0    0  0.00000000000E+00  0.00000000000E+00  0.52769746148E+03  0.10493882261E+04  0.90705624868E+03 0.  0.
        4    1    3    3  502    0  0.38220799816E+03 -0.21883348887E+02  0.54515863130E+03  0.66615417209E+03  0.12699999809E+01 0. -1.
       -4    1    3    3    0  502 -0.38220799816E+03  0.21883348887E+02 -0.17461169817E+02  0.38323405403E+03  0.12699999809E+01 0.  1.
</event>
<event>
 5   0  0.2295158E-03  0.9025249E+03  0.7818609E-02  0.9422431E-01
       -1   -1    0    0    0  501  0.00000000000E+00  0.00000000000E+00  0.85490529446E+03  0.85490529447E+03  0.50400001928E-02 0. -1.
        1   -1    0    0  501    0  0.00000000000E+00  0.00000000000E+00 -0.23819925631E+03  0.23819925636E+03  0.50400001928E-02 0.  1.
    10030    2    1    2    0    0  0.00000000000E+00  0.00000000000E+00  0.61670603815E+03  0.10931045508E+04  0.90252491465E+03 0.  0.
        4    1    3    3  502    0  0.38426575644E+03  0.25399299890E+02  0.23457016167E+02  0.38582008827E+03  0.12699999809E+01 0.  1.
       -4    1    3    3    0  502 -0.38426575644E+03 -0.25399299890E+02  0.59324902198E+03  0.70728446257E+03  0.12699999809E+01 0. -1.
</event>
<event>
 5   0  0.3806019E-03  0.8997567E+03  0.7818609E-02  0.9425886E-01
        2   -1    0    0  501    0  0.00000000000E+00  0.00000000000E+00  0.27726759297E+03  0.27726759298E+03  0.25500000920E-02 0.  1.
       -2   -1    0    0    0  501  0.00000000000E+00  0.00000000000E+00 -0.72994661483E+03  0.72994661483E+03  0.25500000920E-02 0. -1.
    10030    2    1    2    0    0  0.00000000000E+00  0.00000000000E+00 -0.45267902186E+03  0.10072142078E+04  0.89975672467E+03 0.  0.
        2    1    3    3  502    0  0.42508856793E+03  0.14172152777E+03 -0.18148880515E+03  0.48344955106E+03  0.25500000920E-02 0. -1.
       -2    1    3    3    0  502 -0.42508856793E+03 -0.14172152777E+03 -0.27119021672E+03  0.52376465675E+03  0.25500000920E-02 0.  1.
</event>
<event>
 5   0  0.3626546E-03  0.9010614E+03  0.7818609E-02  0.9424256E-01
        2   -1    0    0  501    0  0.00000000000E+00  0.00000000000E+00  0.20772669616E+04  0.20772669616E+04  0.25500000920E-02 0.  1.
       -2   -1    0    0    0  501  0.00000000000E+00  0.00000000000E+00 -0.97713935986E+02  0.97713936019E+02  0.25500000920E-02 0. -1.
    10030    2    1    2    0    0  0.00000000000E+00  0.00000000000E+00  0.19795530256E+04  0.21749808976E+04  0.90106144286E+03 0.  0.
        3    1    3    3  502    0  0.34610063783E+03  0.23862649656E+03  0.13808540921E+04  0.14434286578E+04  0.10100000352E+00 0.  1.
       -3    1    3    3    0  502 -0.34610063783E+03 -0.23862649656E+03  0.59869893356E+03  0.73155223984E+03  0.10100000352E+00 0. -1.
</event>
<event>
 5   0  0.2130975E-03  0.8996153E+03  0.7818609E-02  0.9426062E-01
       -1   -1    0    0    0  501  0.00000000000E+00  0.00000000000E+00  0.29954301248E+03  0.29954301252E+03  0.50400001928E-02 0.  1.
        1   -1    0    0  501    0  0.00000000000E+00  0.00000000000E+00 -0.67545199657E+03  0.67545199659E+03  0.50400001928E-02 0. -1.
    10030    2    1    2    0    0  0.00000000000E+00  0.00000000000E+00 -0.37590898410E+03  0.97499500911E+03  0.89961530860E+03 0.  0.
        5    1    3    3  502    0  0.12333846441E+03 -0.26896103419E+03  0.17918109565E+03  0.34594850737E+03  0.46999998093E+01 0.  1.
       -5    1    3    3    0  502 -0.12333846441E+03  0.26896103419E+03 -0.55509007975E+03  0.62904650174E+03  0.46999998093E+01 0. -1.
</event>
<event>
 5   0  0.1436000E-03  0.8981513E+03  0.7818609E-02  0.9427895E-01
        4   -1    0    0  501    0  0.00000000000E+00  0.00000000000E+00  0.43540257376E+03  0.43540442595E+03  0.12699999809E+01 0. -1.
       -4   -1    0    0    0  501  0.00000000000E+00  0.00000000000E+00 -0.46317438495E+03  0.46317612608E+03  0.12699999809E+01 0.  1.
    10030    2    1    2    0    0  0.00000000000E+00  0.00000000000E+00 -0.27771811191E+02  0.89858055203E+03  0.89815128736E+03 0.  0.
        1    1    3    3  502    0  0.23207604441E+02 -0.27910732060E+03 -0.36509419953E+03  0.46014482924E+03  0.50400001928E-02 0.  1.
       -1    1    3    3    0  502 -0.23207604441E+02  0.27910732060E+03  0.33732238834E+03  0.43843572279E+03  0.50400001928E-02 0. -1.
</event>
<event>
 5   0  0.3685879E-03  0.8991778E+03  0.7818609E-02  0.9426610E-01
       -2   -1    0    0    0  501  0.00000000000E+00  0.00000000000E+00  0.53189394792E+03  0.53189394792E+03  0.25500000920E-02 0.  1.
        2   -1    0    0  501    0  0.00000000000E+00  0.00000000000E+00 -0.38001969440E+03  0.38001969441E+03  0.25500000920E-02 0. -1.
    10030    2    1    2    0    0  0.00000000000E+00  0.00000000000E+00  0.15187425351E+03  0.91191364234E+03  0.89917779232E+03 0.  0.
        1    1    3    3  502    0  0.20831739393E+03 -0.53219055279E+02  0.47637363436E+03  0.52264734190E+03  0.50400001928E-02 0. -1.
       -1    1    3    3    0  502 -0.20831739393E+03  0.53219055279E+02 -0.32449938084E+03  0.38926630043E+03  0.50400001928E-02 0.  1.
</event>
<event>
 5   0  0.3806019E-03  0.9010944E+03  0.7818609E-02  0.9424214E-01
        2   -1    0    0  501    0  0.00000000000E+00  0.00000000000E+00  0.85787861559E+03  0.85787861559E+03  0.25500000920E-02 0.  1.
       -2   -1    0    0    0  501  0.00000000000E+00  0.00000000000E+00 -0.23662181467E+03  0.23662181468E+03  0.25500000920E-02 0. -1.
    10030    2    1    2    0    0  0.00000000000E+00  0.00000000000E+00  0.62125680092E+03  0.10945004303E+04  0.90109443410E+03 0.  0.
        2    1    3    3  502    0  0.12187577297E+03 -0.18280803359E+03 -0.16714206360E+03  0.27605968668E+03  0.25500000920E-02 0. -1.
       -2    1    3    3    0  502 -0.12187577297E+03  0.18280803359E+03  0.78839886452E+03  0.81844074359E+03  0.25500000920E-02 0.  1.
</event>
<event>
 5   0  0.2074970E-03  0.8989058E+03  0.7818609E-02  0.9426950E-01
        1   -1    0    0  501    0  0.00000000000E+00  0.00000000000E+00  0.11645502674E+04  0.11645502674E+04  0.50400001928E-02 0. -1.
       -1   -1    0    0    0  501  0.00000000000E+00  0.00000000000E+00 -0.17346431405E+03  0.17346431412E+03  0.50400001928E-02 0.  1.
    10030    2    1    2    0    0  0.00000000000E+00  0.00000000000E+00  0.99108595336E+03  0.13380145815E+04  0.89890580900E+03 0.  0.
        2    1    3    3  502    0  0.37794448828E+03  0.22319983982E+03  0.35163023633E+03  0.56240912851E+03  0.25500000920E-02 0.  1.
       -2    1    3    3    0  502 -0.37794448828E+03 -0.22319983982E+03  0.63945571703E+03  0.77560545303E+03  0.25500000920E-02 0. -1.
</event>
<event>
 5   0  0.3663255E-03  0.8978598E+03  0.7818609E-02  0.9428261E-01
        2   -1    0    0  501    0  0.00000000000E+00  0.00000000000E+00  0.19749075756E+04  0.19749075756E+04  0.25500000920E-02 0.  1.
       -2   -1    0    0    0  501  0.00000000000E+00  0.00000000000E+00 -0.10204936193E+03  0.10204936196E+03  0.25500000920E-02 0. -1.
    10030    2    1    2    0    0  0.00000000000E+00  0.00000000000E+00  0.18728582137E+04  0.20769569376E+04  0.89785980641E+03 0.  0.
        4    1    3    3  502    0 -0.22624817142E+03 -0.31325450860E+03  0.14650406701E+04  0.15151443496E+04  0.12699999809E+01 0.  1.
       -4    1    3    3    0  502  0.22624817142E+03  0.31325450860E+03  0.40781754356E+03  0.56181258793E+03  0.12699999809E+01 0. -1.
</event>
<event>
 5   0  0.3815269E-03  0.9018599E+03  0.7818609E-02  0.9423259E-01
        2   -1    0    0  501    0  0.00000000000E+00  0.00000000000E+00  0.20151293065E+03  0.20151293066E+03  0.25500000920E-02 0. -1.
       -2   -1    0    0    0  501  0.00000000000E+00  0.00000000000E+00 -0.10090559751E+04  0.10090559751E+04  0.25500000920E-02 0.  1.
    10030    2    1    2    0    0  0.00000000000E+00  0.00000000000E+00 -0.80754304444E+03  0.12105689058E+04  0.90185991537E+03 0.  0.
        5    1    3    3  502    0 -0.10203205680E+03 -0.86777670998E+02  0.17415924467E+03  0.21975995382E+03  0.46999998093E+01 0. -1.
       -5    1    3    3    0  502  0.10203205680E+03  0.86777670998E+02 -0.98170228911E+03  0.99080895194E+03  0.46999998093E+01 0.  1.
</event>
<event>
 5   0  0.3663255E-03  0.8984152E+03  0.7818609E-02  0.9427565E-01
       -2   -1    0    0    0  501  0.00000000000E+00  0.00000000000E+00  0.77087729718E+03  0.77087729719E+03  0.25500000920E-02 0. -1.
        2   -1    0    0  501    0  0.00000000000E+00  0.00000000000E+00 -0.26176341287E+03  0.26176341289E+03  0.25500000920E-02 0.  1.
    10030    2    1    2    0    0  0.00000000000E+00  0.00000000000E+00  0.50911388431E+03  0.10326407101E+04  0.89841520964E+03 0.  0.
        4    1    3    3  502    0  0.43505864348E+03 -0.11130892935E+03  0.26715631838E+03  0.52253211611E+03  0.12699999809E+01 0. -1.
       -4    1    3    3    0  502 -0.43505864348E+03  0.11130892935E+03  0.24195756593E+03  0.51010859396E+03  0.12699999809E+01 0.  1.
</event>
<event>
 5   0  0.3806019E-03  0.9010826E+03  0.7818609E-02  0.9424229E-01
        2   -1    0    0  501    0  0.00000000000E+00  0.00000000000E+00  0.66984877627E+03  0.66984877628E+03  0.25500000920E-02 0. -1.
       -2   -1    0    0    0  501  0.00000000000E+00  0.00000000000E+00 -0.30303473426E+03  0.30303473427E+03  0.25500000920E-02 0.  1.
    10030    2    1    2    0    0  0.00000000000E+00  0.00000000000E+00  0.36681404201E+03  0.97288351055E+03  0.90108256208E+03 0.  0.
        2    1    3    3  502    0  0.38908547917E+03 -0.21135345322E+03  0.27328473562E+03  0.52032906802E+03  0.25500000920E-02 0. -1.
       -2    1    3    3    0  502 -0.38908547917E+03  0.21135345322E+03  0.93529306394E+02  0.45255444253E+03  0.25500000920E-02 0.  1.
</event>
<event>
 5   0  0.1436000E-03  0.9053866E+03  0.7818609E-02  0.9418873E-01
       -4   -1    0    0    0  501  0.00000000000E+00  0.00000000000E+00  0.15788581632E+03  0.15789092404E+03  0.12699999809E+01 0. -1.
        4   -1    0    0  501    0  0.00000000000E+00  0.00000000000E+00 -0.12979447798E+04  0.12979454012E+04  0.12699999809E+01 0.  1.
    10030    2    1    2    0    0  0.00000000000E+00  0.00000000000E+00 -0.11400589635E+04  0.14558363252E+04  0.90538663867E+03 0.  0.
        2    1    3    3  502    0  0.39072813584E+03 -0.88821907459E+02 -0.23131014518E+03  0.46266855377E+03  0.25500000920E-02 0. -1.
       -2    1    3    3    0  502 -0.39072813584E+03  0.88821907459E+02 -0.90874881834E+03  0.99316777144E+03  0.25500000920E-02 0.  1.
</event>
<event>
 5   0  0.2134145E-03  0.8983473E+03  0.7818609E-02  0.9427650E-01
       -1   -1    0    0    0  501  0.00000000000E+00  0.00000000000E+00  0.20572744640E+03  0.20572744647E+03  0.50400001928E-02 0. -1.
        1   -1    0    0  501    0  0.00000000000E+00  0.00000000000E+00 -0.98070029146E+03  0.98070029148E+03  0.50400001928E-02 0.  1.
    10030    2    1    2    0    0  0.00000000000E+00  0.00000000000E+00 -0.77497284506E+03  0.11864277379E+04  0.89834729742E+03 0.  0.
        1    1    3    3  502    0 -0.37785552050E+03  0.87379911504E+02 -0.88222586002E+02  0.39773517322E+03  0.50400001928E-02 0. -1.
       -1    1    3    3    0  502  0.37785552050E+03 -0.87379911504E+02 -0.68675025906E+03  0.78869256472E+03  0.50400001928E-02 0.  1.
</event>
<event>
 5   0  0.3626546E-03  0.8972205E+03  0.7818609E-02  0.9429063E-01
        2   -1    0    0  501    0  0.00000000000E+00  0.00000000000E+00  0.11717275487E+04  0.11717275487E+04  0.25500000920E-02 0. -1.
       -2   -1    0    0    0  501  0.00000000000E+00  0.00000000000E+00 -0.17175591666E+03  0.17175591668E+03  0.25500000920E-02 0.  1.
    10030    2    1    2    0    0  0.00000000000E+00  0.00000000000E+00  0.99997163203E+03  0.13434834654E+04  0.89722046168E+03 0.  0.
        3    1    3    3  502    0  0.40497187672E+03 -0.11931431750E+03  0.27283212851E+03  0.50266838755E+03  0.10100000352E+00 0. -1.
       -3    1    3    3    0  502 -0.40497187672E+03  0.11931431750E+03  0.72713950352E+03  0.84081507781E+03  0.10100000352E+00 0.  1.
</event>
<event>
 5   0  0.2134145E-03  0.9035416E+03  0.7818609E-02  0.9421165E-01
        1   -1    0    0  501    0  0.00000000000E+00  0.00000000000E+00  0.63385092295E+03  0.63385092297E+03  0.50400001928E-02 0. -1.
       -1   -1    0    0    0  501  0.00000000000E+00  0.00000000000E+00 -0.32199504515E+03  0.32199504519E+03  0.50400001928E-02 0.  1.
    10030    2    1    2    0    0  0.00000000000E+00  0.00000000000E+00  0.31185587780E+03  0.95584596816E+03  0.90354160188E+03 0.  0.
        1    1    3    3  502    0 -0.10515591133E+02  0.25070833032E+03 -0.24149406607E+03  0.34825942704E+03  0.50400001928E-02 0.  1.
       -1    1    3    3    0  502  0.10515591133E+02 -0.25070833032E+03  0.55334994387E+03  0.60758654112E+03  0.50400001928E-02 0. -1.
</event>
<event>
 5   0  0.3806019E-03  0.9036288E+03  0.7818609E-02  0.9421057E-01
        2   -1    0    0  501    0  0.00000000000E+00  0.00000000000E+00  0.43936286654E+03  0.43936286655E+03  0.25500000920E-02 0.  1.
       -2   -1    0    0    0  501  0.00000000000E+00  0.00000000000E+00 -0.46461886010E+03  0.46461886010E+03  0.25500000920E-02 0. -1.
    10030    2    1    2    0    0  0.00000000000E+00  0.00000000000E+00 -0.25255993556E+02  0.90398172665E+03  0.90362884909E+03 0.  0.
        2    1    3    3  502    0 -0.54993785110E+02 -0.44473594010E+02 -0.45904665224E+03  0.46446318036E+03  0.25500000920E-02 0. -1.
       -2    1    3    3    0  502  0.54993785110E+02  0.44473594010E+02  0.43379065869E+03  0.43951854630E+03  0.25500000920E-02 0.  1.
</event>
<event>
 5   0  0.3815269E-03  0.8907943E+03  0.7818609E-02  0.9437163E-01
        2   -1    0    0  501    0  0.00000000000E+00  0.00000000000E+00  0.82542161162E+03  0.82542161162E+03  0.25500000920E-02 0.  1.
       -2   -1    0    0    0  501  0.00000000000E+00  0.00000000000E+00 -0.24033613185E+03  0.24033613186E+03  0.25500000920E-02 0. -1.
    10030    2    1    2    0    0  0.00000000000E+00  0.00000000000E+00  0.58508547977E+03  0.10657577435E+04  0.89079433606E+03 0.  0.
        5    1    3    3  502    0  0.12685546036E+03  0.42541236906E+03  0.33548972195E+03  0.55645613943E+03  0.46999998093E+01 0.  1.
       -5    1    3    3    0  502 -0.12685546036E+03 -0.42541236906E+03  0.24959575782E+03  0.50930160406E+03  0.46999998093E+01 0. -1.
</event>
<event>
 5   0  0.2134145E-03  0.8918748E+03  0.7818609E-02  0.9435796E-01
        1   -1    0    0  501    0  0.00000000000E+00  0.00000000000E+00  0.12704781843E+04  0.12704781843E+04  0.50400001928E-02 0. -1.
       -1   -1    0    0    0  501  0.00000000000E+00  0.00000000000E+00 -0.15652388060E+03  0.15652388068E+03  0.50400001928E-02 0.  1.
    10030    2    1    2    0    0  0.00000000000E+00  0.00000000000E+00  0.11139543037E+04  0.14270020650E+04  0.89187482461E+03 0.  0.
        1    1    3    3  502    0  0.23539949626E+03  0.11459498499E+03  0.11345653416E+04  0.11643811437E+04  0.50400001928E-02 0. -1.
       -1    1    3    3    0  502 -0.23539949626E+03 -0.11459498499E+03 -0.20611037844E+02  0.26262092135E+03  0.50400001928E-02 0.  1.
</event>
<event>
 5   0  0.2295158E-03  0.9014671E+03  0.7818609E-02  0.9423749E-01
       -1   -1    0    0    0  501  0.00000000000E+00  0.00000000000E+00  0.17018736098E+03  0.17018736106E+03  0.50400001928E-02 0. -1.
        1   -1    0    0  501    0  0.00000000000E+00  0.00000000000E+00 -0.11937473741E+04  0.11937473741E+04  0.50400001928E-02 0.  1.
    10030    2    1    2    0    0  0.00000000000E+00  0.00000000000E+00 -0.10235600131E+04  0.13639347352E+04  0.90146706059E+03 0.  0.
        4    1    3    3  502    0  0.15219615134E+02 -0.39430165599E+03 -0.84137349985E+03  0.92930964256E+03  0.12699999809E+01 0.  1.
       -4    1    3    3    0  502 -0.15219615134E+02  0.39430165599E+03 -0.18218651325E+03  0.43462509260E+03  0.12699999809E+01 0. -1.
</event>
<event>
 5   0  0.2129280E-03  0.8948283E+03  0.7818609E-02  0.9432070E-01
       -1   -1    0    0    0  501  0.00000000000E+00  0.00000000000E+00  0.39047386091E+03  0.39047386094E+03  0.50400001928E-02 0.  1.
        1   -1    0    0  501    0  0.00000000000E+00  0.00000000000E+00 -0.51265764729E+03  0.51265764732E+03  0.50400001928E-02 0. -1.
    10030    2    1    2    0    0  0.00000000000E+00  0.00000000000E+00 -0.12218378639E+03  0.90313150826E+03  0.89482827601E+03 0.  0.
        3    1    3    3  502    0  0.16376994335E+03 -0.21544912661E+03  0.29850121815E+03  0.40291675063E+03  0.10100000352E+00 0.  1.
       -3    1    3    3    0  502 -0.16376994335E+03  0.21544912661E+03 -0.42068500453E+03  0.50021475762E+03  0.10100000352E+00 0. -1.
</event>
<event>
 5   0  0.1436000E-03  0.8998371E+03  0.7818609E-02  0.9425785E-01
        3   -1    0    0  501    0  0.00000000000E+00  0.00000000000E+00  0.64869442788E+03  0.64869443574E+03  0.10100000352E+00 0.  1.
       -3   -1    0    0    0  501  0.00000000000E+00  0.00000000000E+00 -0.31205248677E+03  0.31205250311E+03  0.10100000352E+00 0. -1.
    10030    2    1    2    0    0  0.00000000000E+00  0.00000000000E+00  0.33664194111E+03  0.96074693885E+03  0.89983714304E+03 0.  0.
        4    1    3    3  502    0 -0.91217500282E+02  0.33299899854E+03  0.47631967109E+03  0.58829500028E+03  0.12699999809E+01 0.  1.
       -4    1    3    3    0  502  0.91217500282E+02 -0.33299899854E+03 -0.13967772998E+03  0.37245193857E+03  0.12699999809E+01 0. -1.
</event>
<event>
 5   0  0.2130975E-03  0.9037733E+03  0.7818609E-02  0.9420877E-01
       -1   -1    0    0    0  501  0.00000000000E+00  0.00000000000E+00  0.13793751793E+03  0.13793751802E+03  0.50400001928E-02 0.  1.
        1   -1    0    0  501    0  0.00000000000E+00  0.00000000000E+00 -0.14803915065E+04  0.14803915065E+04  0.50400001928E-02 0. -1.
    10030    2    1    2    0    0  0.00000000000E+00  0.00000000000E+00 -0.13424539886E+04  0.16183290245E+04  0.90377326813E+03 0.  0.
        5    1    3    3  502    0 -0.20755669213E+03 -0.20514316100E+03 -0.12889729386E+04  0.13216038829E+04  0.46999998093E+01 0. -1.
       -5    1    3    3    0  502  0.20755669213E+03  0.20514316100E+03 -0.53481049999E+02  0.29672514161E+03  0.46999998093E+01 0.  1.
</event>
<event>
 5   0  0.2129280E-03  0.9043159E+03  0.7818609E-02  0.9420202E-01
       -1   -1    0    0    0  501  0.00000000000E+00  0.00000000000E+00  0.23213495591E+03  0.23213495596E+03  0.50400001928E-02 0. -1.
        1   -1    0    0  501    0  0.00000000000E+00  0.00000000000E+00 -0.88072400872E+03  0.88072400874E+03  0.50400001928E-02 0.  1.
    10030    2    1    2    0    0  0.00000000000E+00  0.00000000000E+00 -0.64858905281E+03  0.11128589647E+04  0.90431593809E+03 0.  0.
        3    1    3    3  502    0 -0.42919006650E+01  0.40870396275E+03 -0.86339658712E+02  0.41774621057E+03  0.10100000352E+00 0. -1.
       -3    1    3    3    0  502  0.42919006650E+01 -0.40870396275E+03 -0.56224939410E+03  0.69511275413E+03  0.10100000352E+00 0.  1.
</event>
<event>
 5   0  0.3815269E-03  0.9041984E+03  0.7818609E-02  0.9420348E-01
        2   -1    0    0  501    0  0.00000000000E+00  0.00000000000E+00  0.86199008438E+03  0.86199008438E+03  0.25500000920E-02 0.  1.
       -2   -1    0    0    0  501  0.00000000000E+00  0.00000000000E+00 -0.23711839913E+03  0.23711839915E+03  0.25500000920E-02 0. -1.
    10030    2    1    2    0    0  0.00000000000E+00  0.00000000000E+00  0.62487168524E+03  0.10991084835E+04  0.90419844921E+03 0.  0.
        5    1    3    3  502    0  0.18277458160E+03 -0.96397797167E+02  0.80119502251E+03  0.82742651460E+03  0.46999998093E+01 0.  1.
       -5    1    3    3    0  502 -0.18277458160E+03  0.96397797167E+02 -0.17632333727E+03  0.27168196893E+03  0.46999998093E+01 0. -1.
</event>
<event>
 5   0  0.2130975E-03  0.9056153E+03  0.7818609E-02  0.9418589E-01
        1   -1    0    0  501    0  0.00000000000E+00  0.00000000000E+00  0.13727179532E+04  0.13727179532E+04  0.50400001928E-02 0. -1.
       -1   -1    0    0    0  501  0.00000000000E+00  0.00000000000E+00 -0.14936408475E+03  0.14936408484E+03  0.50400001928E-02 0.  1.
    10030    2    1    2    0    0  0.00000000000E+00  0.00000000000E+00  0.12233538685E+04  0.15220820381E+04  0.90561528427E+03 0.  0.
        5    1    3    3  502    0 -0.33102352182E+03  0.30352225943E+03  0.51497605801E+03  0.68331893307E+03  0.46999998093E+01 0. -1.
       -5    1    3    3    0  502  0.33102352182E+03 -0.30352225943E+03  0.70837781045E+03  0.83876310500E+03  0.46999998093E+01 0.  1.
</event>
<event>
 5   0  0.3815269E-03  0.8998297E+03  0.7818609E-02  0.9425794E-01
        2   -1    0    0  501    0  0.00000000000E+00  0.00000000000E+00  0.11986115347E+04  0.11986115347E+04  0.25500000920E-02 0.  1.
       -2   -1    0    0    0  501  0.00000000000E+00  0.00000000000E+00 -0.16888154588E+03  0.16888154589E+03  0.25500000920E-02 0. -1.
    10030    2    1    2    0    0  0.00000000000E+00  0.00000000000E+00  0.10297299888E+04  0.13674930806E+04  0.89982969255E+03 0.  0.
        5    1    3    3  502    0  0.11201408171E+03 -0.41608252487E+03  0.71142978986E+03  0.83176093796E+03  0.46999998093E+01 0.  1.
       -5    1    3    3    0  502 -0.11201408171E+03  0.41608252487E+03  0.31830019896E+03  0.53573214264E+03  0.46999998093E+01 0. -1.
</event>
<event>
 5   0  0.2295158E-03  0.8993801E+03  0.7818609E-02  0.9426357E-01
       -1   -1    0    0    0  501  0.00000000000E+00  0.00000000000E+00  0.36319872071E+03  0.36319872075E+03  0.50400001928E-02 0.  1.
        1   -1    0    0  501    0  0.00000000000E+00  0.00000000000E+00 -0.55677828458E+03  0.55677828461E+03  0.50400001928E-02 0. -1.
    10030    2    1    2    0    0  0.00000000000E+00  0.00000000000E+00 -0.19357956387E+03  0.91997700535E+03  0.89938014367E+03 0.  0.
        4    1    3    3  502    0 -0.18537182965E+03 -0.40859918346E+03 -0.12753710672E+03  0.46645828799E+03  0.12699999809E+01 0.  1.
       -4    1    3    3    0  502  0.18537182965E+03  0.40859918346E+03 -0.66042457156E+02  0.45351871736E+03  0.12699999809E+01 0. -1.
</event>
<event>
 5   0  0.2130975E-03  0.8956994E+03  0.7818609E-02  0.9430973E-01
        1   -1    0    0  501    0  0.00000000000E+00  0.00000000000E+00  0.95927345785E+03  0.95927345786E+03  0.50400001928E-02 0.  1.
       -1   -1    0    0    0  501  0.00000000000E+00  0.00000000000E+00 -0.20908465539E+03  0.20908465545E+03  0.50400001928E-02 0. -1.
    10030    2    1    2    0    0  0.00000000000E+00  0.00000000000E+00  0.75018880245E+03  0.11683581133E+04  0.89569941477E+03 0.  0.
        5    1    3    3  502    0  0.30138022402E+03 -0.29607874599E+03  0.56880944608E+03  0.70856117534E+03  0.46999998093E+01 0.  1.
       -5    1    3    3    0  502 -0.30138022402E+03  0.29607874599E+03  0.18137935637E+03  0.45979693797E+03  0.46999998093E+01 0. -1.
</event>
<event>
 5   0  0.3626546E-03  0.8931047E+03  0.7818609E-02  0.9434242E-01
        2   -1    0    0  501    0  0.00000000000E+00  0.00000000000E+00  0.17377066912E+04  0.17377066912E+04  0.25500000920E-02 0. -1.
       -2   -1    0    0    0  501  0.00000000000E+00  0.00000000000E+00 -0.11475411518E+03  0.11475411521E+03  0.25500000920E-02 0.  1.
    10030    2    1    2    0    0  0.00000000000E+00  0.00000000000E+00  0.16229525761E+04  0.18524608064E+04  0.89310468327E+03 0.  0.
        3    1    3    3  502    0 -0.36609523879E+03 -0.23553232408E+03  0.60501676114E+03  0.74534991179E+03  0.10100000352E+00 0.  1.
       -3    1    3    3    0  502  0.36609523879E+03  0.23553232408E+03  0.10179358149E+04  0.11071108947E+04  0.10100000352E+00 0. -1.
</event>
<event>
 5   0  0.3815269E-03  0.8977458E+03  0.7818609E-02  0.9428404E-01
       -2   -1    0    0    0  501  0.00000000000E+00  0.00000000000E+00  0.10341177800E+03  0.10341177803E+03  0.25500000920E-02 0.  1.
        2   -1    0    0  501    0  0.00000000000E+00  0.00000000000E+00 -0.19483938136E+04  0.19483938136E+04  0.25500000920E-02 0. -1.
    10030    2    1    2    0    0  0.00000000000E+00  0.00000000000E+00 -0.18449820356E+04  0.20518055917E+04  0.89774577369E+03 0.  0.
        5    1    3    3  502    0 -0.22323054846E+03 -0.13826362233E+03 -0.17544791207E+04  0.17740258684E+04  0.46999998093E+01 0. -1.
       -5    1    3    3    0  502  0.22323054846E+03  0.13826362233E+03 -0.90502914974E+02  0.27777972324E+03  0.46999998093E+01 0.  1.
</event>
<event>
 5   0  0.1436000E-03  0.9004002E+03  0.7818609E-02  0.9425081E-01
       -3   -1    0    0    0  501  0.00000000000E+00  0.00000000000E+00  0.17001487644E+04  0.17001487674E+04  0.10100000352E+00 0. -1.
        3   -1    0    0  501    0  0.00000000000E+00  0.00000000000E+00 -0.11921315889E+03  0.11921320167E+03  0.10100000352E+00 0.  1.
    10030    2    1    2    0    0  0.00000000000E+00  0.00000000000E+00  0.15809356055E+04  0.18193619690E+04  0.90040023640E+03 0.  0.
        2    1    3    3  502    0  0.13050279337E+03  0.10997136001E+03  0.16322556692E+04  0.16411530241E+04  0.25500000920E-02 0. -1.
       -2    1    3    3    0  502 -0.13050279337E+03 -0.10997136001E+03 -0.51320063685E+02  0.17820894490E+03  0.25500000920E-02 0.  1.
</event>
<event>
 5   0  0.3663255E-03  0.8958908E+03  0.7818609E-02  0.9430733E-01
        2   -1    0    0  501    0  0.00000000000E+00  0.00000000000E+00  0.18073841036E+04  0.18073841036E+04  0.25500000920E-02 0. -1.
       -2   -1    0    0    0  501  0.00000000000E+00  0.00000000000E+00 -0.11101960335E+03  0.11101960338E+03  0.25500000920E-02 0.  1.
    10030    2    1    2    0    0  0.00000000000E+00  0.00000000000E+00  0.16963645002E+04  0.19184037070E+04  0.89589076637E+03 0.  0.
        4    1    3    3  502    0 -0.79629740424E+02  0.36614434800E+02  0.17888408429E+04  0.17909870705E+04  0.12699999809E+01 0. -1.
       -4    1    3    3    0  502  0.79629740424E+02 -0.36614434800E+02 -0.92476342696E+02  0.12741663649E+03  0.12699999809E+01 0.  1.
</event>
<event>
 5   0  0.2134145E-03  0.9050402E+03  0.7818609E-02  0.9419303E-01
        1   -1    0    0  501    0  0.00000000000E+00  0.00000000000E+00  0.28117268314E+03  0.28117268319E+03  0.50400001928E-02 0.  1.
       -1   -1    0    0    0  501  0.00000000000E+00  0.00000000000E+00 -0.72828706164E+03  0.72828706166E+03  0.50400001928E-02 0. -1.
    10030    2    1    2    0    0  0.00000000000E+00  0.00000000000E+00 -0.44711437850E+03  0.10094597448E+04  0.90504016983E+03 0.  0.
        1    1    3    3  502    0 -0.91955758615E+02 -0.25669308251E+02 -0.71692610985E+03  0.72325501860E+03  0.50400001928E-02 0. -1.
       -1    1    3    3    0  502  0.91955758615E+02  0.25669308251E+02  0.26981173134E+03  0.28620472624E+03  0.50400001928E-02 0.  1.
</event>
<event>
 5   0  0.2074970E-03  0.9017674E+03  0.7818609E-02  0.9423375E-01
       -1   -1    0    0    0  501  0.00000000000E+00  0.00000000000E+00  0.47584788657E+03  0.47584788660E+03  0.50400001928E-02 0. -1.
        1   -1    0    0  501    0  0.00000000000E+00  0.00000000000E+00 -0.42722922391E+03  0.42722922394E+03  0.50400001928E-02 0.  1.
    10030    2    1    2    0    0  0.00000000000E+00  0.00000000000E+00  0.48618662659E+02  0.90307711054E+03  0.90176742746E+03 0.  0.
        2    1    3    3  502    0 -0.16967384339E+03  0.28054743808E+03 -0.28565601813E+03  0.43485105363E+03  0.25500000920E-02 0.  1.
       -2    1    3    3    0  502  0.16967384339E+03 -0.28054743808E+03  0.33427468079E+03  0.46822605691E+03  0.25500000920E-02 0. -1.
</event>
<event>
 5   0  0.2295158E-03  0.9011739E+03  0.7818609E-02  0.9424115E-01
       -1   -1    0    0    0  501  0.00000000000E+00  0.00000000000E+00  0.46394463603E+03  0.46394463605E+03  0.50400001928E-02 0.  1.
        1   -1    0    0  501    0  0.00000000000E+00  0.00000000000E+00 -0.43761386007E+03  0.43761386010E+03  0.50400001928E-02 0. -1.
    10030    2    1    2    0    0  0.00000000000E+00  0.00000000000E+00  0.26330775957E+02  0.90155849615E+03  0.90117390787E+03 0.  0.
        4    1    3    3  502    0 -0.12564947360E+03  0.16856819631E+02 -0.41940212451E+03  0.43814574919E+03  0.12699999809E+01 0. -1.
       -4    1    3    3    0  502  0.12564947360E+03 -0.16856819631E+02  0.44573290047E+03  0.46341274696E+03  0.12699999809E+01 0.  1.
</event>
<event>
 5   0  0.2295158E-03  0.9002205E+03  0.7818609E-02  0.9425306E-01
       -1   -1    0    0    0  501  0.00000000000E+00  0.00000000000E+00  0.11276377034E+03  0.11276377045E+03  0.50400001928E-02 0.  1.
        1   -1    0    0  501    0  0.00000000000E+00  0.00000000000E+00 -0.17966697232E+04  0.17966697232E+04  0.50400001928E-02 0. -1.
    10030    2    1    2    0    0  0.00000000000E+00  0.00000000000E+00 -0.16839059529E+04  0.19094334937E+04  0.90022053332E+03 0.  0.
        4    1    3    3  502    0 -0.19116325000E+03 -0.19135797156E+03 -0.16050570945E+04  0.16276888987E+04  0.12699999809E+01 0. -1.
       -4    1    3    3    0  502  0.19116325000E+03  0.19135797156E+03 -0.78848858374E+02  0.28174459497E+03  0.12699999809E+01 0.  1.
</event>
<event>
 5   0  0.2134145E-03  0.9000003E+03  0.7818609E-02  0.9425581E-01
        1   -1    0    0  501    0  0.00000000000E+00  0.00000000000E+00  0.24623364560E+03  0.24623364565E+03  0.50400001928E-02 0. -1.
       -1   -1    0    0    0  501  0.00000000000E+00  0.00000000000E+00 -0.82239011256E+03  0.82239011258E+03  0.50400001928E-02 0.  1.
    10030    2    1    2    0    0  0.00000000000E+00  0.00000000000E+00 -0.57615646696E+03  0.10686237582E+04  0.90000025679E+03 0.  0.
        1    1    3    3  502    0  0.31449894035E+03  0.15727590408E+03  0.45345354044E+02  0.35454406588E+03  0.50400001928E-02 0. -1.
       -1    1    3    3    0  502 -0.31449894035E+03 -0.15727590408E+03 -0.62150182101E+03  0.71407969235E+03  0.50400001928E-02 0.  1.
</event>
<event>
 5   0  0.2130975E-03  0.8956148E+03  0.7818609E-02  0.9431080E-01
        1   -1    0    0  501    0  0.00000000000E+00  0.00000000000E+00  0.77606085620E+03  0.77606085622E+03  0.50400001928E-02 0. -1.
       -1   -1    0    0    0  501  0.00000000000E+00  0.00000000000E+00 -0.25839655243E+03  0.25839655248E+03  0.50400001928E-02 0.  1.
    10030    2    1    2    0    0  0.00000000000E+00  0.00000000000E+00  0.51766430377E+03  0.10344574087E+04  0.89561476038E+03 0.  0.
        5    1    3    3  502    0  0.22929445083E+03  0.32976802130E+03  0.48747594966E+03  0.63164688280E+03  0.46999998093E+01 0. -1.
       -5    1    3    3    0  502 -0.22929445083E+03 -0.32976802130E+03  0.30188354112E+02  0.40281052590E+03  0.46999998093E+01 0.  1.
</event>
<event>
 5   0  0.3663255E-03  0.8809919E+03  0.7818609E-02  0.9449659E-01
       -2   -1    0    0    0  501  0.00000000000E+00  0.00000000000E+00  0.15634342206E+03  0.15634342208E+03  0.25500000920E-02 0. -1.
        2   -1    0    0  501    0  0.00000000000E+00  0.00000000000E+00 -0.12410926461E+04  0.12410926461E+04  0.25500000920E-02 0.  1.
    10030    2    1    2    0    0  0.00000000000E+00  0.00000000000E+00 -0.10847492240E+04  0.13974360682E+04  0.88099187601E+03 0.  0.
        4    1    3    3  502    0 -0.26231231790E+03  0.34437353435E+03 -0.67157193449E+03  0.79900648269E+03  0.12699999809E+01 0.  1.
       -4    1    3    3    0  502  0.26231231790E+03 -0.34437353435E+03 -0.41317728954E+03  0.59842958548E+03  0.12699999809E+01 0. -1.
</event>
<event>
 5   0  0.2130975E-03  0.9050323E+03  0.7818609E-02  0.9419313E-01
        1   -1    0    0  501    0  0.00000000000E+00  0.00000000000E+00  0.99873106177E+03  0.99873106178E+03  0.50400001928E-02 0.  1.
       -1   -1    0    0    0  501  0.00000000000E+00  0.00000000000E+00 -0.20503104351E+03  0.20503104357E+03  0.50400001928E-02 0. -1.
    10030    2    1    2    0    0  0.00000000000E+00  0.00000000000E+00  0.79370001826E+03  0.12037621054E+04  0.90503231284E+03 0.  0.
        5    1    3    3  502    0 -0.14680577852E+03  0.37852229713E+03  0.13110848405E+03  0.42666449421E+03  0.46999998093E+01 0. -1.
       -5    1    3    3    0  502  0.14680577852E+03 -0.37852229713E+03  0.66259153422E+03  0.77709761114E+03  0.46999998093E+01 0.  1.
</event>
<event>
 5   0  0.3663255E-03  0.9027113E+03  0.7818609E-02  0.9422199E-01
       -2   -1    0    0    0  501  0.00000000000E+00  0.00000000000E+00  0.17039423120E+03  0.17039423122E+03  0.25500000920E-02 0. -1.
        2   -1    0    0  501    0  0.00000000000E+00  0.00000000000E+00 -0.11955916507E+04  0.11955916507E+04  0.25500000920E-02 0.  1.
    10030    2    1    2    0    0  0.00000000000E+00  0.00000000000E+00 -0.10251974195E+04  0.13659858819E+04  0.90271129420E+03 0.  0.
        4    1    3    3  502    0 -0.29286756858E+03  0.21273881392E+03 -0.10461959626E+03  0.37679714502E+03  0.12699999809E+01 0. -1.
       -4    1    3    3    0  502  0.29286756858E+03 -0.21273881392E+03 -0.92057782326E+03  0.98918873692E+03  0.12699999809E+01 0.  1.
</event>
<event>
 5   0  0.2134145E-03  0.8864571E+03  0.7818609E-02  0.9442671E-01
        1   -1    0    0  501    0  0.00000000000E+00  0.00000000000E+00  0.64011406330E+03  0.64011406332E+03  0.50400001928E-02 0.  1.
       -1   -1    0    0    0  501  0.00000000000E+00  0.00000000000E+00 -0.30690083904E+03  0.30690083908E+03  0.50400001928E-02 0. -1.
    10030    2    1    2    0    0  0.00000000000E+00  0.00000000000E+00  0.33321322426E+03  0.94701490240E+03  0.88645709008E+03 0.  0.
        1    1    3    3  502    0 -0.23139392770E+03  0.19460590086E+03  0.51284093568E+03  0.59533220286E+03  0.50400001928E-02 0.  1.
       -1    1    3    3    0  502  0.23139392770E+03 -0.19460590086E+03 -0.17962771142E+03  0.35168269954E+03  0.50400001928E-02 0. -1.
</event>
<event>
 5   0  0.1436000E-03  0.8980051E+03  0.7818609E-02  0.9428079E-01
       -3   -1    0    0    0  501  0.00000000000E+00  0.00000000000E+00  0.13282516475E+04  0.13282516514E+04  0.10100000352E+00 0.  1.
        3   -1    0    0  501    0  0.00000000000E+00  0.00000000000E+00 -0.15178092247E+03  0.15178095607E+03  0.10100000352E+00 0. -1.
    10030    2    1    2    0    0  0.00000000000E+00  0.00000000000E+00  0.11764707251E+04  0.14800326075E+04  0.89800509585E+03 0.  0.
        3    1    3    3  502    0 -0.23563070966E+03  0.20577059429E+03  0.57393194816E+02  0.31805244508E+03  0.10100000352E+00 0. -1.
       -3    1    3    3    0  502  0.23563070966E+03 -0.20577059429E+03  0.11190775303E+04  0.11619801624E+04  0.10100000352E+00 0.  1.
</event>
<event>
 5   0  0.3685879E-03  0.8970007E+03  0.7818609E-02  0.9429338E-01
       -2   -1    0    0    0  501  0.00000000000E+00  0.00000000000E+00  0.38969079112E+03  0.38969079113E+03  0.25500000920E-02 0. -1.
        2   -1    0    0  501    0  0.00000000000E+00  0.00000000000E+00 -0.51618509191E+03  0.51618509192E+03  0.25500000920E-02 0.  1.
    10030    2    1    2    0    0  0.00000000000E+00  0.00000000000E+00 -0.12649430080E+03  0.90587588305E+03  0.89700072874E+03 0.  0.
        1    1    3    3  502    0 -0.25889112949E+03 -0.11175832252E+03 -0.41546438558E+03  0.50212069793E+03  0.50400001928E-02 0.  1.
       -1    1    3    3    0  502  0.25889112949E+03  0.11175832252E+03  0.28897008478E+03  0.40375518511E+03  0.50400001928E-02 0. -1.
</event>
<event>
 5   0  0.2129280E-03  0.9001121E+03  0.7818609E-02  0.9425441E-01
       -1   -1    0    0    0  501  0.00000000000E+00  0.00000000000E+00  0.56748193250E+03  0.56748193253E+03  0.50400001928E-02 0.  1.
        1   -1    0    0  501    0  0.00000000000E+00  0.00000000000E+00 -0.35692842801E+03  0.35692842805E+03  0.50400001928E-02 0. -1.
    10030    2    1    2    0    0  0.00000000000E+00  0.00000000000E+00  0.21055350449E+03  0.92441036057E+03  0.90011206885E+03 0.  0.
        3    1    3    3  502    0 -0.39123534978E+03 -0.11430076507E+03 -0.90716954198E+02  0.41756357575E+03  0.10100000352E+00 0. -1.
       -3    1    3    3    0  502  0.39123534978E+03  0.11430076507E+03  0.30127045869E+03  0.50684678483E+03  0.10100000352E+00 0.  1.
</event>
<event>
 5   0  0.3806019E-03  0.8990631E+03  0.7818609E-02  0.9426753E-01
        2   -1    0    0  501    0  0.00000000000E+00  0.00000000000E+00  0.79897541196E+03  0.79897541197E+03  0.25500000920E-02 0.  1.
       -2   -1    0    0    0  501  0.00000000000E+00  0.00000000000E+00 -0.25292220348E+03  0.25292220349E+03  0.25500000920E-02 0. -1.
    10030    2    1    2    0    0  0.00000000000E+00  0.00000000000E+00  0.54605320848E+03  0.10518976155E+04  0.89906311620E+03 0.  0.
        2    1    3    3  502    0  0.16589678173E+03  0.18658307947E+03 -0.16434371307E+03  0.29890440573E+03  0.25500000920E-02 0. -1.
       -2    1    3    3    0  502 -0.16589678173E+03 -0.18658307947E+03  0.71039692155E+03  0.75299320973E+03  0.25500000920E-02 0.  1.
</event>
<event>
 5   0  0.2134145E-03  0.8992703E+03  0.7818609E-02  0.9426494E-01
        1   -1    0    0  501    0  0.00000000000E+00  0.00000000000E+00  0.40255683183E+03  0.40255683187E+03  0.50400001928E-02 0.  1.
       -1   -1    0    0    0  501  0.00000000000E+00  0.00000000000E+00 -0.50221917447E+03  0.50221917449E+03  0.50400001928E-02 0. -1.
    10030    2    1    2    0    0  0.00000000000E+00  0.00000000000E+00 -0.99662342632E+02  0.90477600636E+03  0.89927028147E+03 0.  0.
        1    1    3    3  502    0  0.15460910641E+03  0.26524475529E+03  0.28068120327E+03  0.41598160282E+03  0.50400001928E-02 0.  1.
       -1    1    3    3    0  502 -0.15460910641E+03 -0.26524475529E+03 -0.38034354590E+03  0.48879440353E+03  0.50400001928E-02 0. -1.
</event>
<event>
 5   0  0.2129280E-03  0.9003110E+03  0.7818609E-02  0.9425193E-01
       -1   -1    0    0    0  501  0.00000000000E+00  0.00000000000E+00  0.11602328970E+03  0.11602328981E+03  0.50400001928E-02 0.  1.
        1   -1    0    0  501    0  0.00000000000E+00  0.00000000000E+00 -0.17465457694E+04  0.17465457694E+04  0.50400001928E-02 0. -1.
    10030    2    1    2    0    0  0.00000000000E+00  0.00000000000E+00 -0.16305224797E+04  0.18625690592E+04  0.90031102601E+03 0.  0.
        3    1    3    3  502    0  0.19980797680E+03  0.17057719059E+03 -0.59027890526E+02  0.26926586788E+03  0.10100000352E+00 0.  1.
       -3    1    3    3    0  502 -0.19980797680E+03 -0.17057719059E+03 -0.15714945891E+04  0.15933031913E+04  0.10100000352E+00 0. -1.
</event>
<event>
 5   0  0.2134145E-03  0.9013888E+03  0.7818609E-02  0.9423847E-01
        1   -1    0    0  501    0  0.00000000000E+00  0.00000000000E+00  0.39666414239E+03  0.39666414242E+03  0.50400001928E-02 0. -1.
       -1   -1    0    0    0  501  0.00000000000E+00  0.00000000000E+00 -0.51208419118E+03  0.51208419121E+03  0.50400001928E-02 0.  1.
    10030    2    1    2    0    0  0.00000000000E+00  0.00000000000E+00 -0.11542004880E+03  0.90874833362E+03  0.90138878748E+03 0.  0.
        1    1    3    3  502    0  0.12947227923E+03 -0.20569374907E+03  0.32493123390E+03  0.40577493304E+03  0.50400001928E-02 0. -1.
       -1    1    3    3    0  502 -0.12947227923E+03  0.20569374907E+03 -0.44035128270E+03  0.50297340058E+03  0.50400001928E-02 0.  1.
</event>
<event>
 5   0  0.3815269E-03  0.9027348E+03  0.7818609E-02  0.9422169E-01
       -2   -1    0    0    0  501  0.00000000000E+00  0.00000000000E+00  0.91768200603E+02  0.91768200638E+02  0.25500000920E-02 0.  1.
        2   -1    0    0  501    0  0.00000000000E+00  0.00000000000E+00 -0.22200778581E+04  0.22200778581E+04  0.25500000920E-02 0. -1.
    10030    2    1    2    0    0  0.00000000000E+00  0.00000000000E+00 -0.21283096575E+04  0.23118460587E+04  0.90273484541E+03 0.  0.
        5    1    3    3  502    0  0.30328529394E+03 -0.20700805573E+03 -0.39205597496E+03  0.53718179619E+03  0.46999998093E+01 0. -1.
       -5    1    3    3    0  502 -0.30328529394E+03  0.20700805573E+03 -0.17362536825E+04  0.17746642626E+04  0.46999998093E+01 0.  1.
</event>
<event>
 5   0  0.3626546E-03  0.8985489E+03  0.7818609E-02  0.9427397E-01
        2   -1    0    0  501    0  0.00000000000E+00  0.00000000000E+00  0.30833191122E+03  0.30833191123E+03  0.25500000920E-02 0.  1.
       -2   -1    0    0    0  501  0.00000000000E+00  0.00000000000E+00 -0.65464370813E+03  0.65464370814E+03  0.25500000920E-02 0. -1.
    10030    2    1    2    0    0  0.00000000000E+00  0.00000000000E+00 -0.34631179691E+03  0.96297561937E+03  0.89854893178E+03 0.  0.
        3    1    3    3  502    0 -0.22328996728E+03  0.11664877019E+03 -0.57182599372E+03  0.62486024226E+03  0.10100000352E+00 0. -1.
       -3    1    3    3    0  502  0.22328996728E+03 -0.11664877019E+03  0.22551419680E+03  0.33811537710E+03  0.10100000352E+00 0.  1.
</event>
<event>
 5   0  0.3685879E-03  0.8991589E+03  0.7818609E-02  0.9426633E-01
        2   -1    0    0  501    0  0.00000000000E+00  0.00000000000E+00  0.12647149082E+04  0.12647149082E+04  0.25500000920E-02 0. -1.
       -2   -1    0    0    0  501  0.00000000000E+00  0.00000000000E+00 -0.15981601483E+03  0.15981601485E+03  0.25500000920E-02 0.  1.
    10030    2    1    2    0    0  0.00000000000E+00  0.00000000000E+00  0.11048988934E+04  0.14245309231E+04  0.89915893264E+03 0.  0.
        1    1    3    3  502    0  0.23073346833E+03  0.10028789033E+03  0.11427469999E+04  0.11701137980E+04  0.50400001928E-02 0. -1.
       -1    1    3    3    0  502 -0.23073346833E+03 -0.10028789033E+03 -0.37848106519E+02  0.25441712510E+03  0.50400001928E-02 0.  1.
</event>
<event>
 5   0  0.2074970E-03  0.9030963E+03  0.7818609E-02  0.9421719E-01
       -1   -1    0    0    0  501  0.00000000000E+00  0.00000000000E+00  0.29691505414E+03  0.29691505418E+03  0.50400001928E-02 0. -1.
        1   -1    0    0  501    0  0.00000000000E+00  0.00000000000E+00 -0.68671394917E+03  0.68671394919E+03  0.50400001928E-02 0.  1.
    10030    2    1    2    0    0  0.00000000000E+00  0.00000000000E+00 -0.38979889503E+03  0.98362900337E+03  0.90309625052E+03 0.  0.
        2    1    3    3  502    0 -0.19360635710E+03 -0.28839906666E+03 -0.50913751817E+03  0.61634280687E+03  0.25500000920E-02 0.  1.
       -2    1    3    3    0  502  0.19360635710E+03  0.28839906666E+03  0.11933862315E+03  0.36728619650E+03  0.25500000920E-02 0. -1.
</event>
<event>
 5   0  0.2134145E-03  0.8892785E+03  0.7818609E-02  0.9439084E-01
        1   -1    0    0  501    0  0.00000000000E+00  0.00000000000E+00  0.71707817705E+03  0.71707817706E+03  0.50400001928E-02 0.  1.
       -1   -1    0    0    0  501  0.00000000000E+00  0.00000000000E+00 -0.27570781206E+03  0.27570781211E+03  0.50400001928E-02 0. -1.
    10030    2    1    2    0    0  0.00000000000E+00  0.00000000000E+00  0.44137036499E+03  0.99278598917E+03  0.88927848349E+03 0.  0.
        1    1    3    3  502    0 -0.44856339067E+02  0.39170808351E+03 -0.88059224791E+01  0.39436640087E+03  0.50400001928E-02 0. -1.
       -1    1    3    3    0  502  0.44856339067E+02 -0.39170808351E+03  0.45017628746E+03  0.59841958830E+03  0.50400001928E-02 0.  1.
</event>
<event>
 5   0  0.3815269E-03  0.9006502E+03  0.7818609E-02  0.9424769E-01
        2   -1    0    0  501    0  0.00000000000E+00  0.00000000000E+00  0.18261802648E+04  0.18261802648E+04  0.25500000920E-02 0.  1.
       -2   -1    0    0    0  501  0.00000000000E+00  0.00000000000E+00 -0.11104745753E+03  0.11104745756E+03  0.25500000920E-02 0. -1.
    10030    2    1    2    0    0  0.00000000000E+00  0.00000000000E+00  0.17151328073E+04  0.19372277224E+04  0.90065015500E+03 0.  0.
        5    1    3    3  502    0  0.23839410760E+03 -0.15656397624E+03  0.16070832288E+04  0.16322017716E+04  0.46999998093E+01 0.  1.
       -5    1    3    3    0  502 -0.23839410760E+03  0.15656397624E+03  0.10804957851E+03  0.30502595071E+03  0.46999998093E+01 0. -1.
</event>
<event>
 5   0  0.2129280E-03  0.9044596E+03  0.7818609E-02  0.9420024E-01
       -1   -1    0    0    0  501  0.00000000000E+00  0.00000000000E+00  0.16833425139E+03  0.16833425146E+03  0.50400001928E-02 0.  1.
        1   -1    0    0  501    0  0.00000000000E+00  0.00000000000E+00 -0.12149149300E+04  0.12149149300E+04  0.50400001928E-02 0. -1.
    10030    2    1    2    0    0  0.00000000000E+00  0.00000000000E+00 -0.10465806786E+04  0.13832491815E+04  0.90445960729E+03 0.  0.
        3    1    3    3  502    0  0.43224880748E+03  0.13293637699E+03 -0.52203550921E+03  0.69067517327E+03  0.10100000352E+00 0. -1.
       -3    1    3    3    0  502 -0.43224880748E+03 -0.13293637699E+03 -0.52454516942E+03  0.69257400822E+03  0.10100000352E+00 0.  1.
</event>
<event>
 5   0  0.2295158E-03  0.8988215E+03  0.7818609E-02  0.9427056E-01
        1   -1    0    0  501    0  0.00000000000E+00  0.00000000000E+00  0.64772904751E+03  0.64772904753E+03  0.50400001928E-02 0. -1.
       -1   -1    0    0    0  501  0.00000000000E+00  0.00000000000E+00 -0.31181253951E+03  0.31181253955E+03  0.50400001928E-02 0.  1.
    10030    2    1    2    0    0  0.00000000000E+00  0.00000000000E+00  0.33591650800E+03  0.95954158708E+03  0.89882153790E+03 0.  0.
        4    1    3    3  502    0  0.39407110925E+03  0.11774167186E+03 -0.25423365404E+02  0.41207171809E+03  0.12699999809E+01 0.  1.
       -4    1    3    3    0  502 -0.39407110925E+03 -0.11774167186E+03  0.36133987340E+03  0.54746986899E+03  0.12699999809E+01 0. -1.
</event>
<event>
 5   0  0.3815269E-03  0.8984151E+03  0.7818609E-02  0.9427565E-01
       -2   -1    0    0    0  501  0.00000000000E+00  0.00000000000E+00  0.17243482979E+03  0.17243482981E+03  0.25500000920E-02 0.  1.
        2   -1    0    0  501    0  0.00000000000E+00  0.00000000000E+00 -0.11702243963E+04  0.11702243963E+04  0.25500000920E-02 0. -1.
    10030    2    1    2    0    0  0.00000000000E+00  0.00000000000E+00 -0.99778956648E+03  0.13426592261E+04  0.89841514815E+03 0.  0.
        5    1    3    3  502    0  0.21354288022E+03  0.20037284090E+03 -0.10079287647E+04  0.10496153208E+04  0.46999998093E+01 0. -1.
       -5    1    3    3    0  502 -0.21354288022E+03 -0.20037284090E+03  0.10139198217E+02  0.29304390524E+03  0.46999998093E+01 0.  1.
</event>
<event>
 5   0  0.2130975E-03  0.8999258E+03  0.7818609E-02  0.9425674E-01
       -1   -1    0    0    0  501  0.00000000000E+00  0.00000000000E+00  0.78576651432E+03  0.78576651434E+03  0.50400001928E-02 0.  1.
        1   -1    0    0  501    0  0.00000000000E+00  0.00000000000E+00 -0.25766766823E+03  0.25766766828E+03  0.50400001928E-02 0. -1.
    10030    2    1    2    0    0  0.00000000000E+00  0.00000000000E+00  0.52809884609E+03  0.10434341826E+04  0.89992583150E+03 0.  0.
        5    1    3    3  502    0 -0.77883159329E+02 -0.58927990329E+01 -0.24971873654E+03  0.26169075063E+03  0.46999998093E+01 0. -1.
       -5    1    3    3    0  502  0.77883159329E+02  0.58927990329E+01  0.77781758264E+03  0.78174343198E+03  0.46999998093E+01 0.  1.
</event>
<event>
 5   0  0.3815269E-03  0.9024183E+03  0.7818609E-02  0.9422564E-01
        2   -1    0    0  501    0  0.00000000000E+00  0.00000000000E+00  0.16259339774E+04  0.16259339774E+04  0.25500000920E-02 0.  1.
       -2   -1    0    0    0  501  0.00000000000E+00  0.00000000000E+00 -0.12521398804E+03  0.12521398807E+03  0.25500000920E-02 0. -1.
    10030    2    1    2    0    0  0.00000000000E+00  0.00000000000E+00  0.15007199893E+04  0.17511479654E+04  0.90241825696E+03 0.  0.
        5    1    3    3  502    0 -0.30811338933E+03 -0.11867398500E+03  0.15367347705E+03  0.36421834516E+03  0.46999998093E+01 0. -1.
       -5    1    3    3    0  502  0.30811338933E+03  0.11867398500E+03  0.13470465123E+04  0.13869296203E+04  0.46999998093E+01 0.  1.
</event>
<event>
 5   0  0.3663255E-03  0.8974941E+03  0.7818609E-02  0.9428719E-01
       -2   -1    0    0    0  501  0.00000000000E+00  0.00000000000E+00  0.14731218649E+03  0.14731218652E+03  0.25500000920E-02 0. -1.
        2   -1    0    0  501    0  0.00000000000E+00  0.00000000000E+00 -0.13669875430E+04  0.13669875430E+04  0.25500000920E-02 0.  1.
    10030    2    1    2    0    0  0.00000000000E+00  0.00000000000E+00 -0.12196753565E+04  0.15142997295E+04  0.89749412006E+03 0.  0.
        4    1    3    3  502    0 -0.33736012291E+03 -0.19963667431E+02 -0.11079687164E+04  0.11583637986E+04  0.12699999809E+01 0.  1.
       -4    1    3    3    0  502  0.33736012291E+03  0.19963667431E+02 -0.11170664009E+03  0.35593593088E+03  0.12699999809E+01 0. -1.
</event>
<event>
 5   0  0.3685879E-03  0.8996637E+03  0.7818609E-02  0.9426002E-01
       -2   -1    0    0    0  501  0.00000000000E+00  0.00000000000E+00  0.19225908419E+03  0.19225908421E+03  0.25500000920E-02 0.  1.
        2   -1    0    0  501    0  0.00000000000E+00  0.00000000000E+00 -0.10524792976E+04  0.10524792976E+04  0.25500000920E-02 0. -1.
    10030    2    1    2    0    0  0.00000000000E+00  0.00000000000E+00 -0.86022021344E+03  0.12447383818E+04  0.89966372808E+03 0.  0.
        1    1    3    3  502    0  0.21363528863E+03 -0.10720019095E+03  0.97127383351E+02  0.25800319012E+03  0.50400001928E-02 0.  1.
       -1    1    3    3    0  502 -0.21363528863E+03  0.10720019095E+03 -0.95734759679E+03  0.98673519173E+03  0.50400001928E-02 0. -1.
</event>
<event>
 5   0  0.3685879E-03  0.9019388E+03  0.7818609E-02  0.9423161E-01
       -2   -1    0    0    0  501  0.00000000000E+00  0.00000000000E+00  0.34649633534E+03  0.34649633535E+03  0.25500000920E-02 0. -1.
        2   -1    0    0  501    0  0.00000000000E+00  0.00000000000E+00 -0.58694238858E+03  0.58694238859E+03  0.25500000920E-02 0.  1.
    10030    2    1    2    0    0  0.00000000000E+00  0.00000000000E+00 -0.24044605324E+03  0.93343872394E+03  0.90193877111E+03 0.  0.
        1    1    3    3  502    0 -0.37832952202E+03  0.16179595880E+03 -0.31122826502E+03  0.51592072307E+03  0.50400001928E-02 0.  1.
       -1    1    3    3    0  502  0.37832952202E+03 -0.16179595880E+03  0.70782211783E+02  0.41751800087E+03  0.50400001928E-02 0. -1.
</event>
<event>
 5   0  0.2074970E-03  0.9007400E+03  0.7818609E-02  0.9424657E-01
       -1   -1    0    0    0  501  0.00000000000E+00  0.00000000000E+00  0.46075502078E+03  0.46075502080E+03  0.50400001928E-02 0. -1.
        1   -1    0    0  501    0  0.00000000000E+00  0.00000000000E+00 -0.44021905774E+03  0.44021905777E+03  0.50400001928E-02 0.  1.
    10030    2    1    2    0    0  0.00000000000E+00  0.00000000000E+00  0.20535963035E+02  0.90097407858E+03  0.90074000937E+03 0.  0.
        2    1    3    3  502    0 -0.27869516313E+03 -0.32050719599E+03  0.16009770904E+03  0.45390211839E+03  0.25500000920E-02 0. -1.
       -2    1    3    3    0  502  0.27869516313E+03  0.32050719599E+03 -0.13956174600E+03  0.44707196019E+03  0.25500000920E-02 0.  1.
</event>
<event>
 5   0  0.3685879E-03  0.9211108E+03  0.7818609E-02  0.9399570E-01
       -2   -1    0    0    0  501  0.00000000000E+00  0.00000000000E+00  0.22918873626E+03  0.22918873628E+03  0.25500000920E-02 0.  1.
        2   -1    0    0  501    0  0.00000000000E+00  0.00000000000E+00 -0.92548725385E+03  0.92548725386E+03  0.25500000920E-02 0. -1.
    10030    2    1    2    0    0  0.00000000000E+00  0.00000000000E+00 -0.69629851759E+03  0.11546759901E+04  0.92111075154E+03 0.  0.
        1    1    3    3  502    0 -0.15762996711E+03 -0.13669758035E+02  0.19404972255E+03  0.25037844089E+03  0.50400001928E-02 0.  1.
       -1    1    3    3    0  502  0.15762996711E+03  0.13669758035E+02 -0.89034824014E+03  0.90429754924E+03  0.50400001928E-02 0. -1.
</event>
<event>
 5   0  0.2130975E-03  0.8982748E+03  0.7818609E-02  0.9427741E-01
        1   -1    0    0  501    0  0.00000000000E+00  0.00000000000E+00  0.38112004433E+03  0.38112004436E+03  0.50400001928E-02 0.  1.
       -1   -1    0    0    0  501  0.00000000000E+00  0.00000000000E+00 -0.52929360101E+03  0.52929360103E+03  0.50400001928E-02 0. -1.
    10030    2    1    2    0    0  0.00000000000E+00  0.00000000000E+00 -0.14817355668E+03  0.91041364540E+03  0.89827479249E+03 0.  0.
        5    1    3    3  502    0  0.74899989382E+02 -0.13564542531E+03 -0.50131923878E+03  0.52474065879E+03  0.46999998093E+01 0. -1.
       -5    1    3    3    0  502 -0.74899989382E+02  0.13564542531E+03  0.35314568210E+03  0.38567298661E+03  0.46999998093E+01 0.  1.
</event>
<event>
 5   0  0.2129280E-03  0.8992395E+03  0.7818609E-02  0.9426533E-01
        1   -1    0    0  501    0  0.00000000000E+00  0.00000000000E+00  0.27159325459E+03  0.27159325464E+03  0.50400001928E-02 0.  1.
       -1   -1    0    0    0  501  0.00000000000E+00  0.00000000000E+00 -0.74434070254E+03  0.74434070256E+03  0.50400001928E-02 0. -1.
    10030    2    1    2    0    0  0.00000000000E+00  0.00000000000E+00 -0.47274744795E+03  0.10159339572E+04  0.89923948748E+03 0.  0.
        3    1    3    3  502    0 -0.37756947557E+03 -0.21476557185E+03 -0.10522816390E+03  0.44694064082E+03  0.10100000352E+00 0.  1.
       -3    1    3    3    0  502  0.37756947557E+03  0.21476557185E+03 -0.36751928405E+03  0.56899331638E+03  0.10100000352E+00 0. -1.
</event>
<event>
 5   0  0.3663255E-03  0.8990398E+03  0.7818609E-02  0.9426782E-01
        2   -1    0    0  501    0  0.00000000000E+00  0.00000000000E+00  0.15207100519E+04  0.15207100519E+04  0.25500000920E-02 0. -1.
       -2   -1    0    0    0  501  0.00000000000E+00  0.00000000000E+00 -0.13287749800E+03  0.13287749802E+03  0.25500000920E-02 0.  1.
    10030    2    1    2    0    0  0.00000000000E+00  0.00000000000E+00  0.13878325539E+04  0.16535875500E+04  0.89903981426E+03 0.  0.
        4    1    3    3  502    0 -0.22994000453E+03  0.14549021886E+03  0.35806131403E+02  0.27445127330E+03  0.12699999809E+01 0.  1.
       -4    1    3    3    0  502  0.22994000453E+03 -0.14549021886E+03  0.13520264225E+04  0.13791362767E+04  0.12699999809E+01 0. -1.
</event>
<event>
 5   0  0.2295158E-03  0.9013273E+03  0.7818609E-02  0.9423924E-01
       -1   -1    0    0    0  501  0.00000000000E+00  0.00000000000E+00  0.13773838872E+03  0.13773838881E+03  0.50400001928E-02 0.  1.
        1   -1    0    0  501    0  0.00000000000E+00  0.00000000000E+00 -0.14745180647E+04  0.14745180647E+04  0.50400001928E-02 0. -1.
    10030    2    1    2    0    0  0.00000000000E+00  0.00000000000E+00 -0.13367796760E+04  0.16122564535E+04  0.90132733775E+03 0.  0.
        4    1    3    3  502    0  0.11318025024E+03  0.40518312092E+03 -0.95744448555E+03  0.10457938068E+04  0.12699999809E+01 0. -1.
       -4    1    3    3    0  502 -0.11318025024E+03 -0.40518312092E+03 -0.37933519040E+03  0.56646264669E+03  0.12699999809E+01 0.  1.
</event>
<event>
 5   0  0.3626546E-03  0.8960546E+03  0.7818609E-02  0.9430527E-01
        2   -1    0    0  501    0  0.00000000000E+00  0.00000000000E+00  0.17380089157E+04  0.17380089157E+04  0.25500000920E-02 0.  1.
       -2   -1    0    0    0  501  0.00000000000E+00  0.00000000000E+00 -0.11549335588E+03  0.11549335591E+03  0.25500000920E-02 0. -1.
    10030    2    1    2    0    0  0.00000000000E+00  0.00000000000E+00  0.16225155598E+04  0.18535022716E+04  0.89605464622E+03 0.  0.
        3    1    3    3  502    0  0.28686834870E+03  0.13048190154E+03  0.14699733645E+04  0.15033764262E+04  0.10100000352E+00 0.  1.
       -3    1    3    3    0  502 -0.28686834870E+03 -0.13048190154E+03  0.15254219531E+03  0.35012584547E+03  0.10100000352E+00 0. -1.
</event>
<event>
 5   0  0.3626546E-03  0.8678791E+03  0.7818609E-02  0.9466649E-01
       -2   -1    0    0    0  501  0.00000000000E+00  0.00000000000E+00  0.18750877868E+03  0.18750877870E+03  0.25500000920E-02 0.  1.
        2   -1    0    0  501    0  0.00000000000E+00  0.00000000000E+00 -0.10042385144E+04  0.10042385144E+04  0.25500000920E-02 0. -1.
    10030    2    1    2    0    0  0.00000000000E+00  0.00000000000E+00 -0.81672973572E+03  0.11917472931E+04  0.86787910991E+03 0.  0.
        3    1    3    3  502    0 -0.12083946745E+03  0.36452938941E+03 -0.68579888349E+03  0.78600507087E+03  0.10100000352E+00 0. -1.
       -3    1    3    3    0  502  0.12083946745E+03 -0.36452938941E+03 -0.13093085223E+03  0.40574222224E+03  0.10100000352E+00 0.  1.
</event>
<event>
 5   0  0.3626546E-03  0.8937521E+03  0.7818609E-02  0.9433425E-01
        2   -1    0    0  501    0  0.00000000000E+00  0.00000000000E+00  0.11591931124E+04  0.11591931124E+04  0.25500000920E-02 0. -1.
       -2   -1    0    0    0  501  0.00000000000E+00  0.00000000000E+00 -0.17227346011E+03  0.17227346013E+03  0.25500000920E-02 0.  1.
    10030    2    1    2    0    0  0.00000000000E+00  0.00000000000E+00  0.98691965224E+03  0.13314665725E+04  0.89375210975E+03 0.  0.
        3    1    3    3  502    0  0.40273135174E+02  0.44497570675E+03  0.50617893547E+03  0.67516104000E+03  0.10100000352E+00 0. -1.
       -3    1    3    3    0  502 -0.40273135174E+02 -0.44497570675E+03  0.48074071677E+03  0.65630553249E+03  0.10100000352E+00 0.  1.
</event>
<event>
 5   0  0.2074970E-03  0.9002392E+03  0.7818609E-02  0.9425282E-01
       -1   -1    0    0    0  501  0.00000000000E+00  0.00000000000E+00  0.47455608345E+03  0.47455608347E+03  0.50400001928E-02 0.  1.
        1   -1    0    0  501    0  0.00000000000E+00  0.00000000000E+00 -0.42694147697E+03  0.42694147700E+03  0.50400001928E-02 0. -1.
    10030    2    1    2    0    0  0.00000000000E+00  0.00000000000E+00  0.47614606473E+02  0.90149756047E+03  0.90023924642E+03 0.  0.
        2    1    3    3  502    0 -0.19686751480E+03  0.39901007163E+03 -0.44418827148E+02  0.44714526483E+03  0.25500000920E-02 0. -1.
       -2    1    3    3    0  502  0.19686751480E+03 -0.39901007163E+03  0.92033433621E+02  0.45435229564E+03  0.25500000920E-02 0.  1.
</event>
<event>
 5   0  0.3815269E-03  0.9092409E+03  0.7818609E-02  0.9414103E-01
       -2   -1    0    0    0  501  0.00000000000E+00  0.00000000000E+00  0.16561825276E+03  0.16561825278E+03  0.25500000920E-02 0. -1.
        2   -1    0    0  501    0  0.00000000000E+00  0.00000000000E+00 -0.12479285475E+04  0.12479285475E+04  0.25500000920E-02 0.  1.
    10030    2    1    2    0    0  0.00000000000E+00  0.00000000000E+00 -0.10823102948E+04  0.14135468003E+04  0.90924088254E+03 0.  0.
        5    1    3    3  502    0  0.23259648583E+03 -0.19758557461E+03 -0.10649493386E+04  0.11078268675E+04  0.46999998093E+01 0.  1.
       -5    1    3    3    0  502 -0.23259648583E+03  0.19758557461E+03 -0.17360956133E+02  0.30571993280E+03  0.46999998093E+01 0. -1.
</event>
<event>
 5   0  0.3815269E-03  0.9100500E+03  0.7818609E-02  0.9413105E-01
        2   -1    0    0  501    0  0.00000000000E+00  0.00000000000E+00  0.15132951886E+04  0.15132951886E+04  0.25500000920E-02 0.  1.
       -2   -1    0    0    0  501  0.00000000000E+00  0.00000000000E+00 -0.13681914168E+03  0.13681914171E+03  0.25500000920E-02 0. -1.
    10030    2    1    2    0    0  0.00000000000E+00  0.00000000000E+00  0.13764760469E+04  0.16501143303E+04  0.91004999607E+03 0.  0.
        5    1    3    3  502    0  0.29956216455E+03 -0.30890883614E+03  0.42013073468E+03  0.60141007948E+03  0.46999998093E+01 0.  1.
       -5    1    3    3    0  502 -0.29956216455E+03  0.30890883614E+03  0.95634531220E+03  0.10487042508E+04  0.46999998093E+01 0. -1.
</event>
<event>
 5   0  0.3663255E-03  0.8980561E+03  0.7818609E-02  0.9428015E-01
        2   -1    0    0  501    0  0.00000000000E+00  0.00000000000E+00  0.20655722533E+03  0.20655722535E+03  0.25500000920E-02 0. -1.
       -2   -1    0    0    0  501  0.00000000000E+00  0.00000000000E+00 -0.97612752776E+03  0.97612752776E+03  0.25500000920E-02 0.  1.
    10030    2    1    2    0    0  0.00000000000E+00  0.00000000000E+00 -0.76957030243E+03  0.11826847531E+04  0.89805610897E+03 0.  0.
        4    1    3    3  502    0 -0.22545122086E+03 -0.85409047157E+02  0.11409236614E+03  0.26672390076E+03  0.12699999809E+01 0. -1.
       -4    1    3    3    0  502  0.22545122086E+03  0.85409047157E+02 -0.88366266857E+03  0.91596085236E+03  0.12699999809E+01 0.  1.
</event>
<event>
 5   0  0.3663255E-03  0.9025632E+03  0.7818609E-02  0.9422383E-01
       -2   -1    0    0    0  501  0.00000000000E+00  0.00000000000E+00  0.11422878769E+04  0.11422878769E+04  0.25500000920E-02 0.  1.
        2   -1    0    0  501    0  0.00000000000E+00  0.00000000000E+00 -0.17828699909E+03  0.17828699911E+03  0.25500000920E-02 0. -1.
    10030    2    1    2    0    0  0.00000000000E+00  0.00000000000E+00  0.96400087783E+03  0.13205748760E+04  0.90256318934E+03 0.  0.
        4    1    3    3  502    0 -0.36063429271E+02  0.28905226787E+03 -0.22308545294E+02  0.29214905200E+03  0.12699999809E+01 0. -1.
       -4    1    3    3    0  502  0.36063429271E+02 -0.28905226787E+03  0.98630942313E+03  0.10284258240E+04  0.12699999809E+01 0.  1.
</event>
<event>
 5   0  0.2074970E-03  0.8684122E+03  0.7818609E-02  0.9465953E-01
        1   -1    0    0  501    0  0.00000000000E+00  0.00000000000E+00  0.57921920802E+03  0.57921920804E+03  0.50400001928E-02 0. -1.
       -1   -1    0    0    0  501  0.00000000000E+00  0.00000000000E+00 -0.32549839268E+03  0.32549839272E+03  0.50400001928E-02 0.  1.
    10030    2    1    2    0    0  0.00000000000E+00  0.00000000000E+00  0.25372081534E+03  0.90471760076E+03  0.86841216309E+03 0.  0.
        2    1    3    3  502    0 -0.17298395156E+02  0.42482903101E+03  0.35110525548E+02  0.42662827974E+03  0.25500000920E-02 0.  1.
       -2    1    3    3    0  502  0.17298395156E+02 -0.42482903101E+03  0.21861028979E+03  0.47808932102E+03  0.25500000920E-02 0. -1.
</event>
<event>
 5   0  0.3626546E-03  0.8964214E+03  0.7818609E-02  0.9430066E-01
        2   -1    0    0  501    0  0.00000000000E+00  0.00000000000E+00  0.37889084355E+03  0.37889084356E+03  0.25500000920E-02 0. -1.
       -2   -1    0    0    0  501  0.00000000000E+00  0.00000000000E+00 -0.53021298224E+03  0.53021298224E+03  0.25500000920E-02 0.  1.
    10030    2    1    2    0    0  0.00000000000E+00  0.00000000000E+00 -0.15132213868E+03  0.90910382580E+03  0.89642142792E+03 0.  0.
        3    1    3    3  502    0 -0.13354222513E+03 -0.42184274125E+03 -0.31795795187E+01  0.44248722486E+03  0.10100000352E+00 0. -1.
       -3    1    3    3    0  502  0.13354222513E+03  0.42184274125E+03 -0.14814255917E+03  0.46661660094E+03  0.10100000352E+00 0.  1.
</event>
<event>
 5   0  0.2295158E-03  0.9000222E+03  0.7818609E-02  0.9425554E-01
        1   -1    0    0  501    0  0.00000000000E+00  0.00000000000E+00  0.31601368484E+03  0.31601368488E+03  0.50400001928E-02 0.  1.
       -1   -1    0    0    0  501  0.00000000000E+00  0.00000000000E+00 -0.64082671392E+03  0.64082671394E+03  0.50400001928E-02 0. -1.
    10030    2    1    2    0    0  0.00000000000E+00  0.00000000000E+00 -0.32481302908E+03  0.95684039882E+03  0.90002224692E+03 0.  0.
        4    1    3    3  502    0 -0.25948058288E+03 -0.10140968307E+03  0.21330765208E+03  0.35087870275E+03  0.12699999809E+01 0.  1.
       -4    1    3    3    0  502  0.25948058288E+03  0.10140968307E+03 -0.53812068116E+03  0.60596169607E+03  0.12699999809E+01 0. -1.
</event>
<event>
 5   0  0.3685879E-03  0.8997012E+03  0.7818609E-02  0.9425955E-01
       -2   -1    0    0    0  501  0.00000000000E+00  0.00000000000E+00  0.15532920632E+03  0.15532920634E+03  0.25500000920E-02 0.  1.
        2   -1    0    0  501    0  0.00000000000E+00  0.00000000000E+00 -0.13028171279E+04  0.13028171279E+04  0.25500000920E-02 0. -1.
    10030    2    1    2    0    0  0.00000000000E+00  0.00000000000E+00 -0.11474879215E+04  0.14581463342E+04  0.89970117366E+03 0.  0.
        1    1    3    3  502    0 -0.23682249163E+03  0.32822154229E+03 -0.25552781734E+03  0.47865304640E+03  0.50400001928E-02 0.  1.
       -1    1    3    3    0  502  0.23682249163E+03 -0.32822154229E+03 -0.89196010420E+03  0.97949328781E+03  0.50400001928E-02 0. -1.
</event>
<event>
 5   0  0.3806019E-03  0.9055614E+03  0.7818609E-02  0.9418656E-01
        2   -1    0    0  501    0  0.00000000000E+00  0.00000000000E+00  0.10098369086E+04  0.10098369086E+04  0.25500000920E-02 0. -1.
       -2   -1    0    0    0  501  0.00000000000E+00  0.00000000000E+00 -0.20301333024E+03  0.20301333026E+03  0.25500000920E-02 0.  1.
    10030    2    1    2    0    0  0.00000000000E+00  0.00000000000E+00  0.80682357831E+03  0.12128502388E+04  0.90556138128E+03 0.  0.
        2    1    3    3  502    0 -0.36999551649E+03 -0.39248696742E+02  0.57839397740E+02  0.37654022143E+03  0.25500000920E-02 0.  1.
       -2    1    3    3    0  502  0.36999551649E+03  0.39248696742E+02  0.74898418057E+03  0.83631001738E+03  0.25500000920E-02 0. -1.
</event>
<event>
 5   0  0.2295158E-03  0.9004392E+03  0.7818609E-02  0.9425033E-01
        1   -1    0    0  501    0  0.00000000000E+00  0.00000000000E+00  0.99136321958E+03  0.99136321959E+03  0.50400001928E-02 0.  1.
       -1   -1    0    0    0  501  0.00000000000E+00  0.00000000000E+00 -0.20446360336E+03  0.20446360342E+03  0.50400001928E-02 0. -1.
    10030    2    1    2    0    0  0.00000000000E+00  0.00000000000E+00  0.78689961622E+03  0.11958268230E+04  0.90043921763E+03 0.  0.
        4    1    3    3  502    0 -0.38718795178E+03 -0.11827260413E+03  0.65502195202E+03  0.77003784934E+03  0.12699999809E+01 0.  1.
       -4    1    3    3    0  502  0.38718795178E+03  0.11827260413E+03  0.13187766419E+03  0.42578897367E+03  0.12699999809E+01 0. -1.
</event>
<event>
 5   0  0.2074970E-03  0.8988648E+03  0.7818609E-02  0.9427002E-01
        1   -1    0    0  501    0  0.00000000000E+00  0.00000000000E+00  0.41359006216E+03  0.41359006219E+03  0.50400001928E-02 0.  1.
       -1   -1    0    0    0  501  0.00000000000E+00  0.00000000000E+00 -0.48838089141E+03  0.48838089144E+03  0.50400001928E-02 0. -1.
    10030    2    1    2    0    0  0.00000000000E+00  0.00000000000E+00 -0.74790829254E+02  0.90197095363E+03  0.89886480243E+03 0.  0.
        2    1    3    3  502    0  0.13887198096E+03  0.34338622305E+03  0.21802289506E+03  0.42980636111E+03  0.25500000920E-02 0.  1.
       -2    1    3    3    0  502 -0.13887198096E+03 -0.34338622305E+03 -0.29281372431E+03  0.47216459252E+03  0.25500000920E-02 0. -1.
</event>
<event>
 5   0  0.3663255E-03  0.9187036E+03  0.7818609E-02  0.9402498E-01
        2   -1    0    0  501    0  0.00000000000E+00  0.00000000000E+00  0.79637737440E+03  0.79637737440E+03  0.25500000920E-02 0. -1.
       -2   -1    0    0    0  501  0.00000000000E+00  0.00000000000E+00 -0.26495488413E+03  0.26495488415E+03  0.25500000920E-02 0.  1.
    10030    2    1    2    0    0  0.00000000000E+00  0.00000000000E+00  0.53142249027E+03  0.10613322585E+04  0.91870359740E+03 0.  0.
        4    1    3    3  502    0  0.32773042436E+03 -0.26481919503E+02 -0.10485925541E+03  0.34511679104E+03  0.12699999809E+01 0.  1.
       -4    1    3    3    0  502 -0.32773042436E+03  0.26481919503E+02  0.63628174568E+03  0.71621546751E+03  0.12699999809E+01 0. -1.
</event>
<event>
 5   0  0.3663255E-03  0.8979088E+03  0.7818609E-02  0.9428199E-01
        2   -1    0    0  501    0  0.00000000000E+00  0.00000000000E+00  0.36016244431E+03  0.36016244432E+03  0.25500000920E-02 0.  1.
       -2   -1    0    0    0  501  0.00000000000E+00  0.00000000000E+00 -0.55963656700E+03  0.55963656701E+03  0.25500000920E-02 0. -1.
    10030    2    1    2    0    0  0.00000000000E+00  0.00000000000E+00 -0.19947412269E+03  0.91979901133E+03  0.89790884594E+03 0.  0.
        4    1    3    3  502    0 -0.14938044691E+03 -0.18923226702E+03 -0.48769835316E+03  0.54403553687E+03  0.12699999809E+01 0. -1.
       -4    1    3    3    0  502  0.14938044691E+03  0.18923226702E+03  0.28822423048E+03  0.37576347445E+03  0.12699999809E+01 0.  1.
</event>
<event>
 5   0  0.2295158E-03  0.8957519E+03  0.7818609E-02  0.9430907E-01
       -1   -1    0    0    0  501  0.00000000000E+00  0.00000000000E+00  0.41181070459E+03  0.41181070462E+03  0.50400001928E-02 0.  1.
        1   -1    0    0  501    0  0.00000000000E+00  0.00000000000E+00 -0.48709969079E+03  0.48709969082E+03  0.50400001928E-02 0. -1.
    10030    2    1    2    0    0  0.00000000000E+00  0.00000000000E+00 -0.75288986202E+02  0.89891039544E+03  0.89575190069E+03 0.  0.
        4    1    3    3  502    0 -0.72863869090E+02  0.26922834637E+03 -0.38930587568E+03  0.47890888867E+03  0.12699999809E+01 0. -1.
       -4    1    3    3    0  502  0.72863869090E+02 -0.26922834637E+03  0.31401688948E+03  0.42000150677E+03  0.12699999809E+01 0.  1.
</event>
<event>
 5   0  0.2074970E-03  0.9254549E+03  0.7818609E-02  0.9394309E-01
       -1   -1    0    0    0  501  0.00000000000E+00  0.00000000000E+00  0.14548475151E+03  0.14548475160E+03  0.50400001928E-02 0.  1.
        1   -1    0    0  501    0  0.00000000000E+00  0.00000000000E+00 -0.14717467170E+04  0.14717467170E+04  0.50400001928E-02 0. -1.
    10030    2    1    2    0    0  0.00000000000E+00  0.00000000000E+00 -0.13262619655E+04  0.16172314686E+04  0.92545492703E+03 0.  0.
        2    1    3    3  502    0  0.14966784529E+03 -0.40446852276E+03 -0.37008497431E+03  0.56829405947E+03  0.25500000920E-02 0.  1.
       -2    1    3    3    0  502 -0.14966784529E+03  0.40446852276E+03 -0.95617699122E+03  0.10489374092E+04  0.25500000920E-02 0. -1.
</event>
<event>
 5   0  0.3815269E-03  0.9017051E+03  0.7818609E-02  0.9423452E-01
        2   -1    0    0  501    0  0.00000000000E+00  0.00000000000E+00  0.54998746723E+03  0.54998746723E+03  0.25500000920E-02 0.  1.
       -2   -1    0    0    0  501  0.00000000000E+00  0.00000000000E+00 -0.36958666402E+03  0.36958666403E+03  0.25500000920E-02 0. -1.
    10030    2    1    2    0    0  0.00000000000E+00  0.00000000000E+00  0.18040080321E+03  0.91957413126E+03  0.90170512535E+03 0.  0.
        5    1    3    3  502    0 -0.17296161292E+03 -0.39334853186E+03 -0.48910834337E+02  0.43249641244E+03  0.46999998093E+01 0. -1.
       -5    1    3    3    0  502  0.17296161292E+03  0.39334853186E+03  0.22931163755E+03  0.48707771882E+03  0.46999998093E+01 0.  1.
</event>
<event>
 5   0  0.1436000E-03  0.9008010E+03  0.7818609E-02  0.9424581E-01
       -4   -1    0    0    0  501  0.00000000000E+00  0.00000000000E+00  0.46072330957E+03  0.46072505996E+03  0.12699999809E+01 0. -1.
        4   -1    0    0  501    0  0.00000000000E+00  0.00000000000E+00 -0.44030549762E+03  0.44030732919E+03  0.12699999809E+01 0.  1.
    10030    2    1    2    0    0  0.00000000000E+00  0.00000000000E+00  0.20417811948E+02  0.90103238915E+03  0.90080102090E+03 0.  0.
        2    1    3    3  502    0  0.31188166828E+03  0.29601804489E+03 -0.12385447815E+03  0.44747825610E+03  0.25500000920E-02 0. -1.
       -2    1    3    3    0  502 -0.31188166828E+03 -0.29601804489E+03  0.14427229010E+03  0.45355413305E+03  0.25500000920E-02 0.  1.
</event>
<event>
 5   0  0.2130975E-03  0.9025317E+03  0.7818609E-02  0.9422422E-01
       -1   -1    0    0    0  501  0.00000000000E+00  0.00000000000E+00  0.22898768016E+03  0.22898768022E+03  0.50400001928E-02 0. -1.
        1   -1    0    0  501    0  0.00000000000E+00  0.00000000000E+00 -0.88930923861E+03  0.88930923862E+03  0.50400001928E-02 0.  1.
    10030    2    1    2    0    0  0.00000000000E+00  0.00000000000E+00 -0.66032155845E+03  0.11182969188E+04  0.90253168262E+03 0.  0.
        5    1    3    3  502    0 -0.42645196770E+03  0.14522735127E+03 -0.36214946896E+03  0.57803684327E+03  0.46999998093E+01 0. -1.
       -5    1    3    3    0  502  0.42645196770E+03 -0.14522735127E+03 -0.29817208949E+03  0.54026007557E+03  0.46999998093E+01 0.  1.
</event>
<event>
 5   0  0.3806019E-03  0.9041013E+03  0.7818609E-02  0.9420469E-01
        2   -1    0    0  501    0  0.00000000000E+00  0.00000000000E+00  0.12964699985E+03  0.12964699987E+03  0.25500000920E-02 0.  1.
       -2   -1    0    0    0  501  0.00000000000E+00  0.00000000000E+00 -0.15762014575E+04  0.15762014575E+04  0.25500000920E-02 0. -1.
    10030    2    1    2    0    0  0.00000000000E+00  0.00000000000E+00 -0.14465544576E+04  0.17058484573E+04  0.90410129994E+03 0.  0.
        2    1    3    3  502    0  0.23824255557E+03  0.31341095869E+03 -0.30407088420E+03  0.49743848558E+03  0.25500000920E-02 0.  1.
       -2    1    3    3    0  502 -0.23824255557E+03 -0.31341095869E+03 -0.11424835734E+04  0.12084099718E+04  0.25500000920E-02 0. -1.
</event>
<event>
 5   0  0.2295158E-03  0.9069707E+03  0.7818609E-02  0.9416909E-01
       -1   -1    0    0    0  501  0.00000000000E+00  0.00000000000E+00  0.25364853414E+03  0.25364853419E+03  0.50400001928E-02 0.  1.
        1   -1    0    0  501    0  0.00000000000E+00  0.00000000000E+00 -0.81076346447E+03  0.81076346449E+03  0.50400001928E-02 0. -1.
    10030    2    1    2    0    0  0.00000000000E+00  0.00000000000E+00 -0.55711493033E+03  0.10644119987E+04  0.90697070368E+03 0.  0.
        4    1    3    3  502    0 -0.40280395560E+03 -0.16992950656E+03 -0.13713965383E+03  0.45818769232E+03  0.12699999809E+01 0.  1.
       -4    1    3    3    0  502  0.40280395560E+03  0.16992950656E+03 -0.41997527650E+03  0.60622430635E+03  0.12699999809E+01 0. -1.
</event>
<event>
 5   0  0.3626546E-03  0.9043128E+03  0.7818609E-02  0.9420206E-01
        2   -1    0    0  501    0  0.00000000000E+00  0.00000000000E+00  0.10389943679E+04  0.10389943679E+04  0.25500000920E-02 0. -1.
       -2   -1    0    0    0  501  0.00000000000E+00  0.00000000000E+00 -0.19677239655E+03  0.19677239657E+03  0.25500000920E-02 0.  1.
    10030    2    1    2    0    0  0.00000000000E+00  0.00000000000E+00  0.84222197132E+03  0.12357667644E+04  0.90431280381E+03 0.  0.
        3    1    3    3  502    0 -0.28273533709E+03  0.34650108857E+03  0.33002277661E+03  0.55580330919E+03  0.10100000352E+00 0.  1.
       -3    1    3    3    0  502  0.28273533709E+03 -0.34650108857E+03  0.51219919471E+03  0.67996345525E+03  0.10100000352E+00 0. -1.
</event>
<event>
 5   0  0.1436000E-03  0.8991075E+03  0.7818609E-02  0.9426698E-01
       -4   -1    0    0    0  501  0.00000000000E+00  0.00000000000E+00  0.12144595308E+03  0.12145259330E+03  0.12699999809E+01 0. -1.
        4   -1    0    0  501    0  0.00000000000E+00  0.00000000000E+00 -0.16640505279E+04  0.16640510125E+04  0.12699999809E+01 0.  1.
    10030    2    1    2    0    0  0.00000000000E+00  0.00000000000E+00 -0.15426045748E+04  0.17855036058E+04  0.89910747531E+03 0.  0.
        4    1    3    3  502    0  0.29863874102E+03 -0.21390906559E+03 -0.25668124844E+03  0.44813955659E+03  0.12699999809E+01 0. -1.
       -4    1    3    3    0  502 -0.29863874102E+03  0.21390906559E+03 -0.12859233263E+04  0.13373640492E+04  0.12699999809E+01 0.  1.
</event>
<event>
 5   0  0.3806019E-03  0.8946443E+03  0.7818609E-02  0.9432301E-01
        2   -1    0    0  501    0  0.00000000000E+00  0.00000000000E+00  0.13789837094E+04  0.13789837094E+04  0.25500000920E-02 0. -1.
       -2   -1    0    0    0  501  0.00000000000E+00  0.00000000000E+00 -0.14510477902E+03  0.14510477904E+03  0.25500000920E-02 0.  1.
    10030    2    1    2    0    0  0.00000000000E+00  0.00000000000E+00  0.12338789304E+04  0.15240884884E+04  0.89464434596E+03 0.  0.
        2    1    3    3  502    0 -0.43435976189E+03 -0.87335991254E+02  0.72197038508E+03  0.84707568437E+03  0.25500000920E-02 0. -1.
       -2    1    3    3    0  502  0.43435976189E+03  0.87335991254E+02  0.51190854530E+03  0.67701280407E+03  0.25500000920E-02 0.  1.
</event>
<event>
 5   0  0.2129280E-03  0.8985288E+03  0.7818609E-02  0.9427422E-01
        1   -1    0    0  501    0  0.00000000000E+00  0.00000000000E+00  0.64664733287E+03  0.64664733289E+03  0.50400001928E-02 0. -1.
       -1   -1    0    0    0  501  0.00000000000E+00  0.00000000000E+00 -0.31213074701E+03  0.31213074705E+03  0.50400001928E-02 0.  1.
    10030    2    1    2    0    0  0.00000000000E+00  0.00000000000E+00  0.33451658585E+03  0.95877807994E+03  0.89852883113E+03 0.  0.
        3    1    3    3  502    0 -0.17932523014E+03 -0.35292756493E+03  0.39392385775E+03  0.55847239874E+03  0.10100000352E+00 0. -1.
       -3    1    3    3    0  502  0.17932523014E+03  0.35292756493E+03 -0.59407271896E+02  0.40030568120E+03  0.10100000352E+00 0.  1.
</event>
<event>
 5   0  0.3806019E-03  0.9023110E+03  0.7818609E-02  0.9422697E-01
        2   -1    0    0  501    0  0.00000000000E+00  0.00000000000E+00  0.35494574930E+03  0.35494574931E+03  0.25500000920E-02 0.  1.
       -2   -1    0    0    0  501  0.00000000000E+00  0.00000000000E+00 -0.57344336619E+03  0.57344336620E+03  0.25500000920E-02 0. -1.
    10030    2    1    2    0    0  0.00000000000E+00  0.00000000000E+00 -0.21849761689E+03  0.92838911550E+03  0.90231100027E+03 0.  0.
        2    1    3    3  502    0  0.12678687535E+03  0.10428069958E+03 -0.54162242867E+03  0.56595426610E+03  0.25500000920E-02 0. -1.
       -2    1    3    3    0  502 -0.12678687535E+03 -0.10428069958E+03  0.32312481178E+03  0.36243484940E+03  0.25500000920E-02 0.  1.
</event>
<event>
 5   0  0.2130975E-03  0.9011147E+03  0.7818609E-02  0.9424189E-01
        1   -1    0    0  501    0  0.00000000000E+00  0.00000000000E+00  0.25626652002E+03  0.25626652007E+03  0.50400001928E-02 0.  1.
       -1   -1    0    0    0  501  0.00000000000E+00  0.00000000000E+00 -0.79215157353E+03  0.79215157354E+03  0.50400001928E-02 0. -1.
    10030    2    1    2    0    0  0.00000000000E+00  0.00000000000E+00 -0.53588505351E+03  0.10484180936E+04  0.90111470326E+03 0.  0.
        5    1    3    3  502    0 -0.12614013861E+03 -0.22432669138E+03  0.16229848641E+03  0.30429703864E+03  0.46999998093E+01 0.  1.
       -5    1    3    3    0  502  0.12614013861E+03  0.22432669138E+03 -0.69818353992E+03  0.74412105497E+03  0.46999998093E+01 0. -1.
</event>
<event>
 5   0  0.2295158E-03  0.8988196E+03  0.7818609E-02  0.9427058E-01
        1   -1    0    0  501    0  0.00000000000E+00  0.00000000000E+00  0.34438166976E+03  0.34438166980E+03  0.50400001928E-02 0. -1.
       -1   -1    0    0    0  501  0.00000000000E+00  0.00000000000E+00 -0.58646903156E+03  0.58646903158E+03  0.50400001928E-02 0.  1.
    10030    2    1    2    0    0  0.00000000000E+00  0.00000000000E+00 -0.24208736180E+03  0.93085070138E+03  0.89881963569E+03 0.  0.
        4    1    3    3  502    0 -0.34262722205E+03  0.12295950559E+03 -0.39397891647E+03  0.53640791645E+03  0.12699999809E+01 0. -1.
       -4    1    3    3    0  502  0.34262722205E+03 -0.12295950559E+03  0.15189155467E+03  0.39444278493E+03  0.12699999809E+01 0.  1.
</event>
<event>
 5   0  0.3626546E-03  0.8873456E+03  0.7818609E-02  0.9441540E-01
       -2   -1    0    0    0  501  0.00000000000E+00  0.00000000000E+00  0.54171976444E+03  0.54171976445E+03  0.25500000920E-02 0. -1.
        2   -1    0    0  501    0  0.00000000000E+00  0.00000000000E+00 -0.36337152272E+03  0.36337152273E+03  0.25500000920E-02 0.  1.
    10030    2    1    2    0    0  0.00000000000E+00  0.00000000000E+00  0.17834824172E+03  0.90509128717E+03  0.88734555997E+03 0.  0.
        3    1    3    3  502    0  0.38388654524E+03 -0.22185060834E+03  0.10558797093E+03  0.45577999281E+03  0.10100000352E+00 0. -1.
       -3    1    3    3    0  502 -0.38388654524E+03  0.22185060834E+03  0.72760270787E+02  0.44931129437E+03  0.10100000352E+00 0.  1.
</event>
<event>
 5   0  0.2129280E-03  0.9029953E+03  0.7818609E-02  0.9421845E-01
       -1   -1    0    0    0  501  0.00000000000E+00  0.00000000000E+00  0.15769128172E+03  0.15769128180E+03  0.50400001928E-02 0.  1.
        1   -1    0    0  501    0  0.00000000000E+00  0.00000000000E+00 -0.12927164502E+04  0.12927164502E+04  0.50400001928E-02 0. -1.
    10030    2    1    2    0    0  0.00000000000E+00  0.00000000000E+00 -0.11350251685E+04  0.14504077320E+04  0.90299526907E+03 0.  0.
        3    1    3    3  502    0  0.18498562834E+03 -0.37500244580E+03 -0.29396651059E+03  0.51113876453E+03  0.10100000352E+00 0.  1.
       -3    1    3    3    0  502 -0.18498562834E+03  0.37500244580E+03 -0.84105865788E+03  0.93926896747E+03  0.10100000352E+00 0. -1.
</event>
<event>
 5   0  0.2074970E-03  0.8980994E+03  0.7818609E-02  0.9427960E-01
        1   -1    0    0  501    0  0.00000000000E+00  0.00000000000E+00  0.74384359614E+03  0.74384359616E+03  0.50400001928E-02 0.  1.
       -1   -1    0    0    0  501  0.00000000000E+00  0.00000000000E+00 -0.27108608905E+03  0.27108608910E+03  0.50400001928E-02 0. -1.
    10030    2    1    2    0    0  0.00000000000E+00  0.00000000000E+00  0.47275750709E+03  0.10149296853E+04  0.89809944076E+03 0.  0.
        2    1    3    3  502    0 -0.12170818983E+03  0.41432183035E+03  0.97189078149E+02  0.44262984479E+03  0.25500000920E-02 0.  1.
       -2    1    3    3    0  502  0.12170818983E+03 -0.41432183035E+03  0.37556842894E+03  0.57229984047E+03  0.25500000920E-02 0. -1.
</event>
<event>
 5   0  0.2074970E-03  0.8990304E+03  0.7818609E-02  0.9426794E-01
        1   -1    0    0  501    0  0.00000000000E+00  0.00000000000E+00  0.10219015040E+04  0.10219015040E+04  0.50400001928E-02 0.  1.
       -1   -1    0    0    0  501  0.00000000000E+00  0.00000000000E+00 -0.19773324428E+03  0.19773324434E+03  0.50400001928E-02 0. -1.
    10030    2    1    2    0    0  0.00000000000E+00  0.00000000000E+00  0.82416825971E+03  0.12196347483E+04  0.89903036603E+03 0.  0.
        2    1    3    3  502    0  0.44674428188E+03 -0.48403061158E+02  0.42816956080E+03  0.62068710517E+03  0.25500000920E-02 0. -1.
       -2    1    3    3    0  502 -0.44674428188E+03  0.48403061158E+02  0.39599869891E+03  0.59894764318E+03  0.25500000920E-02 0.  1.
</event>
<event>
 5   0  0.3663255E-03  0.8979340E+03  0.7818609E-02  0.9428168E-01
        2   -1    0    0  501    0  0.00000000000E+00  0.00000000000E+00  0.15908901833E+04  0.15908901833E+04  0.25500000920E-02 0. -1.
       -2   -1    0    0    0  501  0.00000000000E+00  0.00000000000E+00 -0.12670351434E+03  0.12670351437E+03  0.25500000920E-02 0.  1.
    10030    2    1    2    0    0  0.00000000000E+00  0.00000000000E+00  0.14641866690E+04  0.17175936977E+04  0.89793402249E+03 0.  0.
        4    1    3    3  502    0  0.35942418155E+03  0.26549768266E+03  0.81536186585E+03  0.92978026811E+03  0.12699999809E+01 0.  1.
       -4    1    3    3    0  502 -0.35942418155E+03 -0.26549768266E+03  0.64882480313E+03  0.78781342959E+03  0.12699999809E+01 0. -1.
</event>
<event>
 5   0  0.2295158E-03  0.8994909E+03  0.7818609E-02  0.9426218E-01
       -1   -1    0    0    0  501  0.00000000000E+00  0.00000000000E+00  0.20095829944E+03  0.20095829950E+03  0.50400001928E-02 0. -1.
        1   -1    0    0  501    0  0.00000000000E+00  0.00000000000E+00 -0.10065320808E+04  0.10065320808E+04  0.50400001928E-02 0.  1.
    10030    2    1    2    0    0  0.00000000000E+00  0.00000000000E+00 -0.80557378132E+03  0.12074903803E+04  0.89949091229E+03 0.  0.
        4    1    3    3  502    0 -0.23461200829E+03  0.11934831369E+03 -0.89232242815E+03  0.93033743507E+03  0.12699999809E+01 0.  1.
       -4    1    3    3    0  502  0.23461200829E+03 -0.11934831369E+03  0.86748646822E+02  0.27715294521E+03  0.12699999809E+01 0. -1.
</event>
<event>
 5   0  0.2134145E-03  0.8968227E+03  0.7818609E-02  0.9429562E-01
       -1   -1    0    0    0  501  0.00000000000E+00  0.00000000000E+00  0.33227937484E+03  0.33227937488E+03  0.50400001928E-02 0. -1.
        1   -1    0    0  501    0  0.00000000000E+00  0.00000000000E+00 -0.60513151798E+03  0.60513151800E+03  0.50400001928E-02 0.  1.
    10030    2    1    2    0    0  0.00000000000E+00  0.00000000000E+00 -0.27285214313E+03  0.93741089288E+03  0.89682266367E+03 0.  0.
        1    1    3    3  502    0 -0.40001671589E+03 -0.19905252841E+03 -0.96796593806E+02  0.45717049627E+03  0.50400001928E-02 0. -1.
       -1    1    3    3    0  502  0.40001671589E+03  0.19905252841E+03 -0.17605554932E+03  0.48024039661E+03  0.50400001928E-02 0.  1.
</event>
<event>
 5   0  0.3815269E-03  0.8944609E+03  0.7818609E-02  0.9432532E-01
       -2   -1    0    0    0  501  0.00000000000E+00  0.00000000000E+00  0.73068639852E+03  0.73068639852E+03  0.25500000920E-02 0. -1.
        2   -1    0    0  501    0  0.00000000000E+00  0.00000000000E+00 -0.27373584980E+03  0.27373584981E+03  0.25500000920E-02 0.  1.
    10030    2    1    2    0    0  0.00000000000E+00  0.00000000000E+00  0.45695054872E+03  0.10044222483E+04  0.89446087057E+03 0.  0.
        5    1    3    3  502    0  0.22485602072E+03  0.36434142399E+03  0.37353873047E+03  0.56820610385E+03  0.46999998093E+01 0. -1.
       -5    1    3    3    0  502 -0.22485602072E+03 -0.36434142399E+03  0.83411818249E+02  0.43621614449E+03  0.46999998093E+01 0.  1.
</event>
<event>
 5   0  0.3685879E-03  0.9028479E+03  0.7818609E-02  0.9422028E-01
        2   -1    0    0  501    0  0.00000000000E+00  0.00000000000E+00  0.20977321341E+04  0.20977321341E+04  0.25500000920E-02 0.  1.
       -2   -1    0    0    0  501  0.00000000000E+00  0.00000000000E+00 -0.97144720142E+02  0.97144720176E+02  0.25500000920E-02 0. -1.
    10030    2    1    2    0    0  0.00000000000E+00  0.00000000000E+00  0.20005874139E+04  0.21948768543E+04  0.90284794099E+03 0.  0.
        1    1    3    3  502    0 -0.29587577429E+03 -0.14616140019E+03  0.17491151018E+04  0.17799745133E+04  0.50400001928E-02 0.  1.
       -1    1    3    3    0  502  0.29587577429E+03  0.14616140019E+03  0.25147231216E+03  0.41490234095E+03  0.50400001928E-02 0. -1.
</event>
<event>
 5   0  0.3685879E-03  0.9048164E+03  0.7818609E-02  0.9419581E-01
       -2   -1    0    0    0  501  0.00000000000E+00  0.00000000000E+00  0.10897877094E+03  0.10897877097E+03  0.25500000920E-02 0.  1.
        2   -1    0    0  501    0  0.00000000000E+00  0.00000000000E+00 -0.18781014967E+04  0.18781014967E+04  0.25500000920E-02 0. -1.
    10030    2    1    2    0    0  0.00000000000E+00  0.00000000000E+00 -0.17691227257E+04  0.19870802676E+04  0.90481642963E+03 0.  0.
        1    1    3    3  502    0  0.60344533210E+02 -0.20911420553E+03 -0.13550830265E+02  0.21806842657E+03  0.50400001928E-02 0.  1.
       -1    1    3    3    0  502 -0.60344533210E+02  0.20911420553E+03 -0.17555718954E+04  0.17690118410E+04  0.50400001928E-02 0. -1.
</event>
<event>
 5   0  0.2129280E-03  0.8992061E+03  0.7818609E-02  0.9426574E-01
        1   -1    0    0  501    0  0.00000000000E+00  0.00000000000E+00  0.10298232051E+03  0.10298232063E+03  0.50400001928E-02 0.  1.
       -1   -1    0    0    0  501  0.00000000000E+00  0.00000000000E+00 -0.19628893755E+04  0.19628893755E+04  0.50400001928E-02 0. -1.
    10030    2    1    2    0    0  0.00000000000E+00  0.00000000000E+00 -0.18599070550E+04  0.20658716961E+04  0.89920610079E+03 0.  0.
        3    1    3    3  502    0 -0.47562352159E+02 -0.15014205321E+03  0.37533389534E+02  0.16190608085E+03  0.10100000352E+00 0.  1.
       -3    1    3    3    0  502  0.47562352159E+02  0.15014205321E+03 -0.18974404445E+04  0.19039656153E+04  0.10100000352E+00 0. -1.
</event>
<event>
 5   0  0.3815269E-03  0.8973203E+03  0.7818609E-02  0.9428937E-01
       -2   -1    0    0    0  501  0.00000000000E+00  0.00000000000E+00  0.23332710056E+03  0.23332710058E+03  0.25500000920E-02 0. -1.
        2   -1    0    0  501    0  0.00000000000E+00  0.00000000000E+00 -0.86271983170E+03  0.86271983170E+03  0.25500000920E-02 0.  1.
    10030    2    1    2    0    0  0.00000000000E+00  0.00000000000E+00 -0.62939273114E+03  0.10960469323E+04  0.89732027045E+03 0.  0.
        5    1    3    3  502    0 -0.25525553932E+03  0.32144759523E+03 -0.53587928529E+03  0.67503529184E+03  0.46999998093E+01 0.  1.
       -5    1    3    3    0  502  0.25525553932E+03 -0.32144759523E+03 -0.93513445842E+02  0.42101164044E+03  0.46999998093E+01 0. -1.
</event>
<event>
 5   0  0.3806019E-03  0.8936723E+03  0.7818609E-02  0.9433526E-01
        2   -1    0    0  501    0  0.00000000000E+00  0.00000000000E+00  0.10025269067E+04  0.10025269067E+04  0.25500000920E-02 0. -1.
       -2   -1    0    0    0  501  0.00000000000E+00  0.00000000000E+00 -0.19915930726E+03  0.19915930728E+03  0.25500000920E-02 0.  1.
    10030    2    1    2    0    0  0.00000000000E+00  0.00000000000E+00  0.80336759947E+03  0.12016862140E+04  0.89367234324E+03 0.  0.
        2    1    3    3  502    0  0.10507569800E+03 -0.24690867255E+03  0.88212073371E+03  0.92203133555E+03  0.25500000920E-02 0. -1.
       -2    1    3    3    0  502 -0.10507569800E+03  0.24690867255E+03 -0.78753134237E+02  0.27965487847E+03  0.25500000920E-02 0.  1.
</event>
<event>
 5   0  0.2130975E-03  0.9504308E+03  0.7818609E-02  0.9364647E-01
       -1   -1    0    0    0  501  0.00000000000E+00  0.00000000000E+00  0.32341493418E+03  0.32341493422E+03  0.50400001928E-02 0.  1.
        1   -1    0    0  501    0  0.00000000000E+00  0.00000000000E+00 -0.69826605715E+03  0.69826605716E+03  0.50400001928E-02 0. -1.
    10030    2    1    2    0    0  0.00000000000E+00  0.00000000000E+00 -0.37485112296E+03  0.10216809914E+04  0.95043078852E+03 0.  0.
        5    1    3    3  502    0  0.30715358724E+03  0.29135778905E+03  0.44565233035E+02  0.42572389807E+03  0.46999998093E+01 0.  1.
       -5    1    3    3    0  502 -0.30715358724E+03 -0.29135778905E+03 -0.41941635600E+03  0.59595709331E+03  0.46999998093E+01 0. -1.
</event>
<event>
 5   0  0.3685879E-03  0.8999254E+03  0.7818609E-02  0.9425675E-01
       -2   -1    0    0    0  501  0.00000000000E+00  0.00000000000E+00  0.12453608333E+03  0.12453608336E+03  0.25500000920E-02 0. -1.
        2   -1    0    0  501    0  0.00000000000E+00  0.00000000000E+00 -0.16257652315E+04  0.16257652315E+04  0.25500000920E-02 0.  1.
    10030    2    1    2    0    0  0.00000000000E+00  0.00000000000E+00 -0.15012291481E+04  0.17503013148E+04  0.89992540662E+03 0.  0.
        1    1    3    3  502    0 -0.17614132664E+03 -0.37770175576E+03 -0.10805790423E+04  0.11581603731E+04  0.50400001928E-02 0.  1.
       -1    1    3    3    0  502  0.17614132664E+03  0.37770175576E+03 -0.42065010587E+03  0.59214094171E+03  0.50400001928E-02 0. -1.
</event>
<event>
 5   0  0.3663255E-03  0.8998174E+03  0.7818609E-02  0.9425810E-01
        2   -1    0    0  501    0  0.00000000000E+00  0.00000000000E+00  0.97625687240E+03  0.97625687241E+03  0.25500000920E-02 0. -1.
       -2   -1    0    0    0  501  0.00000000000E+00  0.00000000000E+00 -0.20734075047E+03  0.20734075048E+03  0.25500000920E-02 0.  1.
    10030    2    1    2    0    0  0.00000000000E+00  0.00000000000E+00  0.76891612193E+03  0.11835976229E+04  0.89981738722E+03 0.  0.
        4    1    3    3  502    0  0.64060759007E+02  0.37126827240E+02  0.96818548308E+03  0.97101334939E+03  0.12699999809E+01 0. -1.
       -4    1    3    3    0  502 -0.64060759007E+02 -0.37126827240E+02 -0.19926936115E+03  0.21258427350E+03  0.12699999809E+01 0.  1.
</event>
<event>
 5   0  0.3685879E-03  0.9022783E+03  0.7818609E-02  0.9422738E-01
        2   -1    0    0  501    0  0.00000000000E+00  0.00000000000E+00  0.67258210509E+03  0.67258210510E+03  0.25500000920E-02 0. -1.
       -2   -1    0    0    0  501  0.00000000000E+00  0.00000000000E+00 -0.30260474762E+03  0.30260474763E+03  0.25500000920E-02 0.  1.
    10030    2    1    2    0    0  0.00000000000E+00  0.00000000000E+00  0.36997735748E+03  0.97518685273E+03  0.90227831221E+03 0.  0.
        1    1    3    3  502    0  0.43437787964E+03 -0.66178749126E+02  0.74435651985E+02  0.44565057553E+03  0.50400001928E-02 0.  1.
       -1    1    3    3    0  502 -0.43437787964E+03  0.66178749126E+02  0.29554170549E+03  0.52953627720E+03  0.50400001928E-02 0. -1.
</event>
<event>
 5   0  0.3806019E-03  0.9050933E+03  0.7818609E-02  0.9419237E-01
       -2   -1    0    0    0  501  0.00000000000E+00  0.00000000000E+00  0.29433920553E+03  0.29433920554E+03  0.25500000920E-02 0.  1.
        2   -1    0    0  501    0  0.00000000000E+00  0.00000000000E+00 -0.69579062419E+03  0.69579062419E+03  0.25500000920E-02 0. -1.
    10030    2    1    2    0    0  0.00000000000E+00  0.00000000000E+00 -0.40145141866E+03  0.99012982974E+03  0.90509327597E+03 0.  0.
        2    1    3    3  502    0  0.11098501649E+03 -0.43448497010E+03 -0.13415079231E+03  0.46807189428E+03  0.25500000920E-02 0.  1.
       -2    1    3    3    0  502 -0.11098501649E+03  0.43448497010E+03 -0.26730062635E+03  0.52205793546E+03  0.25500000920E-02 0. -1.
</event>
<event>
 5   0  0.2074970E-03  0.8976411E+03  0.7818609E-02  0.9428535E-01
       -1   -1    0    0    0  501  0.00000000000E+00  0.00000000000E+00  0.42260847242E+03  0.42260847245E+03  0.50400001928E-02 0.  1.
        1   -1    0    0  501    0  0.00000000000E+00  0.00000000000E+00 -0.47665844651E+03  0.47665844653E+03  0.50400001928E-02 0. -1.
    10030    2    1    2    0    0  0.00000000000E+00  0.00000000000E+00 -0.54049974084E+02  0.89926691899E+03  0.89764112645E+03 0.  0.
        2    1    3    3  502    0  0.24317775630E+03  0.24363421876E+03  0.26150158056E+03  0.43229171905E+03  0.25500000920E-02 0.  1.
       -2    1    3    3    0  502 -0.24317775630E+03 -0.24363421876E+03 -0.31555155465E+03  0.46697519994E+03  0.25500000920E-02 0. -1.
</event>
<event>
 5   0  0.2074970E-03  0.8402425E+03  0.7818609E-02  0.9503527E-01
        1   -1    0    0  501    0  0.00000000000E+00  0.00000000000E+00  0.32591581522E+03  0.32591581526E+03  0.50400001928E-02 0.  1.
       -1   -1    0    0    0  501  0.00000000000E+00  0.00000000000E+00 -0.54155663294E+03  0.54155663296E+03  0.50400001928E-02 0. -1.
    10030    2    1    2    0    0  0.00000000000E+00  0.00000000000E+00 -0.21564081772E+03  0.86747244822E+03  0.84024251628E+03 0.  0.
        2    1    3    3  502    0  0.32922138360E+03 -0.25819534650E+03 -0.14713757704E+03  0.44350989048E+03  0.25500000920E-02 0.  1.
       -2    1    3    3    0  502 -0.32922138360E+03  0.25819534650E+03 -0.68503240679E+02  0.42396255774E+03  0.25500000920E-02 0. -1.
</event>
<event>
 5   0  0.3685879E-03  0.9012100E+03  0.7818609E-02  0.9424070E-01
        2   -1    0    0  501    0  0.00000000000E+00  0.00000000000E+00  0.18591466218E+04  0.18591466218E+04  0.25500000920E-02 0.  1.
       -2   -1    0    0    0  501  0.00000000000E+00  0.00000000000E+00 -0.10921400717E+03  0.10921400720E+03  0.25500000920E-02 0. -1.
    10030    2    1    2    0    0  0.00000000000E+00  0.00000000000E+00  0.17499326146E+04  0.19683606290E+04  0.90120997003E+03 0.  0.
        1    1    3    3  502    0  0.35909894818E+03  0.25900649735E+03  0.69211876749E+03  0.82162327657E+03  0.50400001928E-02 0. -1.
       -1    1    3    3    0  502 -0.35909894818E+03 -0.25900649735E+03  0.10578138471E+04  0.11467373524E+04  0.50400001928E-02 0.  1.
</event>
<event>
 5   0  0.2134145E-03  0.8970275E+03  0.7818609E-02  0.9429305E-01
        1   -1    0    0  501    0  0.00000000000E+00  0.00000000000E+00  0.81862039130E+03  0.81862039131E+03  0.50400001928E-02 0.  1.
       -1   -1    0    0    0  501  0.00000000000E+00  0.00000000000E+00 -0.24573612565E+03  0.24573612570E+03  0.50400001928E-02 0. -1.
    10030    2    1    2    0    0  0.00000000000E+00  0.00000000000E+00  0.57288426565E+03  0.10643565170E+04  0.89702754332E+03 0.  0.
        1    1    3    3  502    0  0.14640403289E+03  0.33469395983E+03  0.59519363949E+03  0.69836212391E+03  0.50400001928E-02 0.  1.
       -1    1    3    3    0  502 -0.14640403289E+03 -0.33469395983E+03 -0.22309373840E+02  0.36599439310E+03  0.50400001928E-02 0. -1.
</event>
<event>
 5   0  0.2130975E-03  0.9031313E+03  0.7818609E-02  0.9421676E-01
        1   -1    0    0  501    0  0.00000000000E+00  0.00000000000E+00  0.55461471070E+03  0.55461471072E+03  0.50400001928E-02 0. -1.
       -1   -1    0    0    0  501  0.00000000000E+00  0.00000000000E+00 -0.36766342181E+03  0.36766342185E+03  0.50400001928E-02 0.  1.
    10030    2    1    2    0    0  0.00000000000E+00  0.00000000000E+00  0.18695128889E+03  0.92227813257E+03  0.90313131348E+03 0.  0.
        5    1    3    3  502    0  0.98757209521E+02  0.37580473973E+03  0.32836787975E+03  0.50875312607E+03  0.46999998093E+01 0. -1.
       -5    1    3    3    0  502 -0.98757209521E+02 -0.37580473973E+03 -0.14141659086E+03  0.41352500650E+03  0.46999998093E+01 0.  1.
</event>
<event>
 5   0  0.3626546E-03  0.8996183E+03  0.7818609E-02  0.9426059E-01
        2   -1    0    0  501    0  0.00000000000E+00  0.00000000000E+00  0.13340099405E+04  0.13340099405E+04  0.25500000920E-02 0. -1.
       -2   -1    0    0    0  501  0.00000000000E+00  0.00000000000E+00 -0.15166922569E+03  0.15166922571E+03  0.25500000920E-02 0.  1.
    10030    2    1    2    0    0  0.00000000000E+00  0.00000000000E+00  0.11823407148E+04  0.14856791662E+04  0.89961826294E+03 0.  0.
        3    1    3    3  502    0 -0.42951322294E+02  0.30517292690E+03  0.50075150492E+02  0.31222245642E+03  0.10100000352E+00 0.  1.
       -3    1    3    3    0  502  0.42951322294E+02 -0.30517292690E+03  0.11322655644E+04  0.11734567098E+04  0.10100000352E+00 0. -1.
</event>
<event>
 5   0  0.2295158E-03  0.9009166E+03  0.7818609E-02  0.9424436E-01
       -1   -1    0    0    0  501  0.00000000000E+00  0.00000000000E+00  0.62292246625E+03  0.62292246627E+03  0.50400001928E-02 0.  1.
        1   -1    0    0  501    0  0.00000000000E+00  0.00000000000E+00 -0.32574306063E+03  0.32574306067E+03  0.50400001928E-02 0. -1.
    10030    2    1    2    0    0  0.00000000000E+00  0.00000000000E+00  0.29717940562E+03  0.94866552693E+03  0.90091657931E+03 0.  0.
        4    1    3    3  502    0  0.26546267227E+03 -0.10801028242E+03  0.51453485290E+03  0.58896891194E+03  0.12699999809E+01 0.  1.
       -4    1    3    3    0  502 -0.26546267227E+03  0.10801028242E+03 -0.21735544728E+03  0.35969661500E+03  0.12699999809E+01 0. -1.
</event>
<event>
 5   0  0.3806019E-03  0.8989532E+03  0.7818609E-02  0.9426891E-01
        2   -1    0    0  501    0  0.00000000000E+00  0.00000000000E+00  0.77961285893E+03  0.77961285894E+03  0.25500000920E-02 0. -1.
       -2   -1    0    0    0  501  0.00000000000E+00  0.00000000000E+00 -0.25914041556E+03  0.25914041557E+03  0.25500000920E-02 0.  1.
    10030    2    1    2    0    0  0.00000000000E+00  0.00000000000E+00  0.52047244338E+03  0.10387532745E+04  0.89895316952E+03 0.  0.
        2    1    3    3  502    0 -0.27929754562E+03 -0.33593601078E+03  0.38235543505E+03  0.58056507047E+03  0.25500000920E-02 0. -1.
       -2    1    3    3    0  502  0.27929754562E+03  0.33593601078E+03  0.13811700833E+03  0.45818820404E+03  0.25500000920E-02 0.  1.
</event>
<event>
 5   0  0.2295158E-03  0.8991493E+03  0.7818609E-02  0.9426645E-01
        1   -1    0    0  501    0  0.00000000000E+00  0.00000000000E+00  0.81743465844E+03  0.81743465845E+03  0.50400001928E-02 0.  1.
       -1   -1    0    0    0  501  0.00000000000E+00  0.00000000000E+00 -0.24725815691E+03  0.24725815696E+03  0.50400001928E-02 0. -1.
    10030    2    1    2    0    0  0.00000000000E+00  0.00000000000E+00  0.57017650153E+03  0.10646928154E+04  0.89914934705E+03 0.  0.
        4    1    3    3  502    0 -0.13140246124E+03 -0.24301825334E+03  0.70505778424E+03  0.75725330656E+03  0.12699999809E+01 0.  1.
       -4    1    3    3    0  502  0.13140246124E+03  0.24301825334E+03 -0.13488128271E+03  0.30743950885E+03  0.12699999809E+01 0. -1.
</event>
<event>
 5   0  0.2134145E-03  0.8994194E+03  0.7818609E-02  0.9426307E-01
        1   -1    0    0  501    0  0.00000000000E+00  0.00000000000E+00  0.70335456241E+03  0.70335456243E+03  0.50400001928E-02 0. -1.
       -1   -1    0    0    0  501  0.00000000000E+00  0.00000000000E+00 -0.28753469091E+03  0.28753469096E+03  0.50400001928E-02 0.  1.
    10030    2    1    2    0    0  0.00000000000E+00  0.00000000000E+00  0.41581987150E+03  0.99088925339E+03  0.89941944995E+03 0.  0.
        1    1    3    3  502    0  0.20900083949E+03  0.10827546854E+03  0.63006890745E+03  0.67260074052E+03  0.50400001928E-02 0. -1.
       -1    1    3    3    0  502 -0.20900083949E+03 -0.10827546854E+03 -0.21424903595E+03  0.31828851287E+03  0.50400001928E-02 0.  1.
</event>
<event>
 5   0  0.3815269E-03  0.9000640E+03  0.7818609E-02  0.9425501E-01
       -2   -1    0    0    0  501  0.00000000000E+00  0.00000000000E+00  0.48179454374E+03  0.48179454375E+03  0.25500000920E-02 0. -1.
        2   -1    0    0  501    0  0.00000000000E+00  0.00000000000E+00 -0.42036346092E+03  0.42036346093E+03  0.25500000920E-02 0.  1.
    10030    2    1    2    0    0  0.00000000000E+00  0.00000000000E+00  0.61431082815E+02  0.90215800468E+03  0.90006404631E+03 0.  0.
        5    1    3    3  502    0  0.67977846862E+02  0.41364883139E+03 -0.13331232259E+03  0.43990977339E+03  0.46999998093E+01 0.  1.
       -5    1    3    3    0  502 -0.67977846862E+02 -0.41364883139E+03  0.19474340540E+03  0.46224823128E+03  0.46999998093E+01 0. -1.
</event>
<event>
 5   0  0.2129280E-03  0.9015952E+03  0.7818609E-02  0.9423590E-01
       -1   -1    0    0    0  501  0.00000000000E+00  0.00000000000E+00  0.17336816024E+03  0.17336816031E+03  0.50400001928E-02 0.  1.
        1   -1    0    0  501    0  0.00000000000E+00  0.00000000000E+00 -0.11721788194E+04  0.11721788194E+04  0.50400001928E-02 0. -1.
    10030    2    1    2    0    0  0.00000000000E+00  0.00000000000E+00 -0.99881065914E+03  0.13455469797E+04  0.90159522057E+03 0.  0.
        3    1    3    3  502    0 -0.37398514158E+03  0.43436031183E+02 -0.12940004975E+03  0.39811550837E+03  0.10100000352E+00 0.  1.
       -3    1    3    3    0  502  0.37398514158E+03 -0.43436031183E+02 -0.86941060939E+03  0.94743147133E+03  0.10100000352E+00 0. -1.
</event>
<event>
 5   0  0.2129280E-03  0.8988738E+03  0.7818609E-02  0.9426990E-01
       -1   -1    0    0    0  501  0.00000000000E+00  0.00000000000E+00  0.23554787428E+03  0.23554787433E+03  0.50400001928E-02 0. -1.
        1   -1    0    0  501    0  0.00000000000E+00  0.00000000000E+00 -0.85754769278E+03  0.85754769280E+03  0.50400001928E-02 0.  1.
    10030    2    1    2    0    0  0.00000000000E+00  0.00000000000E+00 -0.62199981851E+03  0.10930955671E+04  0.89887382021E+03 0.  0.
        3    1    3    3  502    0  0.16666003462E+03  0.27784710340E+03  0.67780646883E+02  0.33101179179E+03  0.10100000352E+00 0. -1.
       -3    1    3    3    0  502 -0.16666003462E+03 -0.27784710340E+03 -0.68978046539E+03  0.76208377534E+03  0.10100000352E+00 0.  1.
</event>
<event>
 5   0  0.3806019E-03  0.9017790E+03  0.7818609E-02  0.9423360E-01
        2   -1    0    0  501    0  0.00000000000E+00  0.00000000000E+00  0.47145993877E+03  0.47145993878E+03  0.25500000920E-02 0. -1.
       -2   -1    0    0    0  501  0.00000000000E+00  0.00000000000E+00 -0.43121658952E+03  0.43121658953E+03  0.25500000920E-02 0.  1.
    10030    2    1    2    0    0  0.00000000000E+00  0.00000000000E+00  0.40243349251E+02  0.90267652830E+03  0.90177901261E+03 0.  0.
        2    1    3    3  502    0 -0.34767097016E+03  0.28206781932E+03  0.73691184916E+02  0.45372651337E+03  0.25500000920E-02 0. -1.
       -2    1    3    3    0  502  0.34767097016E+03 -0.28206781932E+03 -0.33447835665E+02  0.44895001493E+03  0.25500000920E-02 0.  1.
</event>
<event>
 5   0  0.3663255E-03  0.8463010E+03  0.7818609E-02  0.9495315E-01
       -2   -1    0    0    0  501  0.00000000000E+00  0.00000000000E+00  0.30714674049E+03  0.30714674050E+03  0.25500000920E-02 0.  1.
        2   -1    0    0  501    0  0.00000000000E+00  0.00000000000E+00 -0.58296684646E+03  0.58296684647E+03  0.25500000920E-02 0. -1.
    10030    2    1    2    0    0  0.00000000000E+00  0.00000000000E+00 -0.27582010598E+03  0.89011358697E+03  0.84630104977E+03 0.  0.
        4    1    3    3  502    0 -0.28397689339E+01 -0.24446185496E+03  0.22534664744E+03  0.33249419127E+03  0.12699999809E+01 0.  1.
       -4    1    3    3    0  502  0.28397689339E+01  0.24446185496E+03 -0.50116675342E+03  0.55761939569E+03  0.12699999809E+01 0. -1.
</event>
<event>
 5   0  0.2129280E-03  0.9014569E+03  0.7818609E-02  0.9423762E-01
       -1   -1    0    0    0  501  0.00000000000E+00  0.00000000000E+00  0.31095568573E+03  0.31095568577E+03  0.50400001928E-02 0. -1.
        1   -1    0    0  501    0  0.00000000000E+00  0.00000000000E+00 -0.65332831589E+03  0.65332831591E+03  0.50400001928E-02 0.  1.
    10030    2    1    2    0    0  0.00000000000E+00  0.00000000000E+00 -0.34237263016E+03  0.96428400169E+03  0.90145694186E+03 0.  0.
        3    1    3    3  502    0 -0.33651596054E+03  0.15045733824E+03 -0.44863918547E+03  0.58065267697E+03  0.10100000352E+00 0.  1.
       -3    1    3    3    0  502  0.33651596054E+03 -0.15045733824E+03  0.10626655531E+03  0.38363132472E+03  0.10100000352E+00 0. -1.
</event>
<event>
 5   0  0.3806019E-03  0.8995131E+03  0.7818609E-02  0.9426190E-01
       -2   -1    0    0    0  501  0.00000000000E+00  0.00000000000E+00  0.28776376537E+03  0.28776376538E+03  0.25500000920E-02 0.  1.
        2   -1    0    0  501    0  0.00000000000E+00  0.00000000000E+00 -0.70294095614E+03  0.70294095614E+03  0.25500000920E-02 0. -1.
    10030    2    1    2    0    0  0.00000000000E+00  0.00000000000E+00 -0.41517719077E+03  0.99070472152E+03  0.89951306022E+03 0.  0.
        2    1    3    3  502    0  0.41441768786E+03 -0.17314003023E+03 -0.18149157840E+03  0.48441581634E+03  0.25500000920E-02 0. -1.
       -2    1    3    3    0  502 -0.41441768786E+03  0.17314003023E+03 -0.23368561237E+03  0.50628890518E+03  0.25500000920E-02 0.  1.
</event>
<event>
 5   0  0.3663255E-03  0.8930628E+03  0.7818609E-02  0.9434295E-01
       -2   -1    0    0    0  501  0.00000000000E+00  0.00000000000E+00  0.37540985217E+03  0.37540985218E+03  0.25500000920E-02 0. -1.
        2   -1    0    0  501    0  0.00000000000E+00  0.00000000000E+00 -0.53112693545E+03  0.53112693546E+03  0.25500000920E-02 0.  1.
    10030    2    1    2    0    0  0.00000000000E+00  0.00000000000E+00 -0.15571708328E+03  0.90653678764E+03  0.89306278464E+03 0.  0.
        4    1    3    3  502    0  0.19469765458E+03  0.39797401538E+03 -0.13435960354E+03  0.46297365971E+03  0.12699999809E+01 0.  1.
       -4    1    3    3    0  502 -0.19469765458E+03 -0.39797401538E+03 -0.21357479741E+02  0.44356312793E+03  0.12699999809E+01 0. -1.
</event>
<event>
 5   0  0.3626546E-03  0.8987587E+03  0.7818609E-02  0.9427134E-01
       -2   -1    0    0    0  501  0.00000000000E+00  0.00000000000E+00  0.12880313950E+03  0.12880313952E+03  0.25500000920E-02 0.  1.
        2   -1    0    0  501    0  0.00000000000E+00  0.00000000000E+00 -0.15678329447E+04  0.15678329447E+04  0.25500000920E-02 0. -1.
    10030    2    1    2    0    0  0.00000000000E+00  0.00000000000E+00 -0.14390298052E+04  0.16966360842E+04  0.89875871181E+03 0.  0.
        3    1    3    3  502    0 -0.20223182320E+03  0.11984408875E+03  0.34766566227E+01  0.23510085765E+03  0.10100000352E+00 0.  1.
       -3    1    3    3    0  502  0.20223182320E+03 -0.11984408875E+03 -0.14425064618E+04  0.14615352266E+04  0.10100000352E+00 0. -1.
</event>
<event>
 5   0  0.2129280E-03  0.8985167E+03  0.7818609E-02  0.9427437E-01
       -1   -1    0    0    0  501  0.00000000000E+00  0.00000000000E+00  0.73127276768E+03  0.73127276769E+03  0.50400001928E-02 0.  1.
        1   -1    0    0  501    0  0.00000000000E+00  0.00000000000E+00 -0.27600246445E+03  0.27600246450E+03  0.50400001928E-02 0. -1.
    10030    2    1    2    0    0  0.00000000000E+00  0.00000000000E+00  0.45527030322E+03  0.10072752322E+04  0.89851674686E+03 0.  0.
        3    1    3    3  502    0 -0.20425887672E+02 -0.59794334290E+02 -0.27099619369E+03  0.27826520892E+03  0.10100000352E+00 0. -1.
       -3    1    3    3    0  502  0.20425887672E+02  0.59794334290E+02  0.72626649691E+03  0.72901002328E+03  0.10100000352E+00 0.  1.
</event>
<event>
 5   0  0.3806019E-03  0.8998932E+03  0.7818609E-02  0.9425715E-01
       -2   -1    0    0    0  501  0.00000000000E+00  0.00000000000E+00  0.21229291007E+03  0.21229291008E+03  0.25500000920E-02 0. -1.
        2   -1    0    0  501    0  0.00000000000E+00  0.00000000000E+00 -0.95364438347E+03  0.95364438347E+03  0.25500000920E-02 0.  1.
    10030    2    1    2    0    0  0.00000000000E+00  0.00000000000E+00 -0.74135147340E+03  0.11659372936E+04  0.89989319665E+03 0.  0.
        2    1    3    3  502    0 -0.12107260668E+03 -0.30465947413E+03 -0.76996818297E+03  0.83685540809E+03  0.25500000920E-02 0.  1.
       -2    1    3    3    0  502  0.12107260668E+03  0.30465947413E+03  0.28616709565E+02  0.32908188546E+03  0.25500000920E-02 0. -1.
</event>
<event>
 5   0  0.2130975E-03  0.9037073E+03  0.7818609E-02  0.9420959E-01
       -1   -1    0    0    0  501  0.00000000000E+00  0.00000000000E+00  0.10142476545E+03  0.10142476558E+03  0.50400001928E-02 0. -1.
        1   -1    0    0  501    0  0.00000000000E+00  0.00000000000E+00 -0.20130362129E+04  0.20130362129E+04  0.50400001928E-02 0.  1.
    10030    2    1    2    0    0  0.00000000000E+00  0.00000000000E+00 -0.19116114475E+04  0.21144609785E+04  0.90370731077E+03 0.  0.
        5    1    3    3  502    0 -0.19633418163E+03  0.36082911591E+03 -0.51555162642E+03  0.65921190164E+03  0.46999998093E+01 0. -1.
       -5    1    3    3    0  502  0.19633418163E+03 -0.36082911591E+03 -0.13960598210E+04  0.14552490769E+04  0.46999998093E+01 0.  1.
</event>
<event>
 5   0  0.2295158E-03  0.8984878E+03  0.7818609E-02  0.9427474E-01
        1   -1    0    0  501    0  0.00000000000E+00  0.00000000000E+00  0.12552638842E+04  0.12552638842E+04  0.50400001928E-02 0. -1.
       -1   -1    0    0    0  501  0.00000000000E+00  0.00000000000E+00 -0.16077902380E+03  0.16077902388E+03  0.50400001928E-02 0.  1.
    10030    2    1    2    0    0  0.00000000000E+00  0.00000000000E+00  0.10944848604E+04  0.14160429081E+04  0.89848784518E+03 0.  0.
        4    1    3    3  502    0  0.35252906899E+02 -0.37857631542E+03  0.92435720914E+03  0.99950020361E+03  0.12699999809E+01 0. -1.
       -4    1    3    3    0  502 -0.35252906899E+02  0.37857631542E+03  0.17012765127E+03  0.41654270449E+03  0.12699999809E+01 0.  1.
</event>
<event>
 5   0  0.3806019E-03  0.8940542E+03  0.7818609E-02  0.9433045E-01
        2   -1    0    0  501    0  0.00000000000E+00  0.00000000000E+00  0.43840724296E+03  0.43840724297E+03  0.25500000920E-02 0.  1.
       -2   -1    0    0    0  501  0.00000000000E+00  0.00000000000E+00 -0.45581642634E+03  0.45581642634E+03  0.25500000920E-02 0. -1.
    10030    2    1    2    0    0  0.00000000000E+00  0.00000000000E+00 -0.17409183376E+02  0.89422366931E+03  0.89405418801E+03 0.  0.
        2    1    3    3  502    0 -0.28407085377E+03 -0.14898323551E+03  0.30270787602E+03  0.44104910456E+03  0.25500000920E-02 0.  1.
       -2    1    3    3    0  502  0.28407085377E+03  0.14898323551E+03 -0.32011705939E+03  0.45317456476E+03  0.25500000920E-02 0. -1.
</event>
<event>
 5   0  0.2130975E-03  0.8941829E+03  0.7818609E-02  0.9432882E-01
        1   -1    0    0  501    0  0.00000000000E+00  0.00000000000E+00  0.94114395722E+03  0.94114395723E+03  0.50400001928E-02 0. -1.
       -1   -1    0    0    0  501  0.00000000000E+00  0.00000000000E+00 -0.21239125088E+03  0.21239125094E+03  0.50400001928E-02 0.  1.
    10030    2    1    2    0    0  0.00000000000E+00  0.00000000000E+00  0.72875270634E+03  0.11535352082E+04  0.89418285014E+03 0.  0.
        5    1    3    3  502    0  0.97759487222E+02  0.15239971955E+03  0.89169682042E+03  0.90990543541E+03  0.46999998093E+01 0. -1.
       -5    1    3    3    0  502 -0.97759487222E+02 -0.15239971955E+03 -0.16294411408E+03  0.24362977275E+03  0.46999998093E+01 0.  1.
</event>
<event>
 5   0  0.2129280E-03  0.8998522E+03  0.7818609E-02  0.9425766E-01
       -1   -1    0    0    0  501  0.00000000000E+00  0.00000000000E+00  0.11520487916E+03  0.11520487927E+03  0.50400001928E-02 0.  1.
        1   -1    0    0  501    0  0.00000000000E+00  0.00000000000E+00 -0.17571607954E+04  0.17571607955E+04  0.50400001928E-02 0. -1.
    10030    2    1    2    0    0  0.00000000000E+00  0.00000000000E+00 -0.16419559163E+04  0.18723656747E+04  0.89985220389E+03 0.  0.
        3    1    3    3  502    0 -0.41611233231E+03 -0.10993963237E+03 -0.54811190571E+03  0.69689516231E+03  0.10100000352E+00 0.  1.
       -3    1    3    3    0  502  0.41611233231E+03  0.10993963237E+03 -0.10938440106E+04  0.11754705124E+04  0.10100000352E+00 0. -1.
</event>
<event>
 5   0  0.2129280E-03  0.9074799E+03  0.7818609E-02  0.9416279E-01
        1   -1    0    0  501    0  0.00000000000E+00  0.00000000000E+00  0.78696850359E+03  0.78696850361E+03  0.50400001928E-02 0. -1.
       -1   -1    0    0    0  501  0.00000000000E+00  0.00000000000E+00 -0.26161142423E+03  0.26161142428E+03  0.50400001928E-02 0.  1.
    10030    2    1    2    0    0  0.00000000000E+00  0.00000000000E+00  0.52535707936E+03  0.10485799279E+04  0.90747991952E+03 0.  0.
        3    1    3    3  502    0  0.22460421218E+03 -0.38977606274E+03  0.19424579570E+03  0.49000394954E+03  0.10100000352E+00 0.  1.
       -3    1    3    3    0  502 -0.22460421218E+03  0.38977606274E+03  0.33111128366E+03  0.55857597835E+03  0.10100000352E+00 0. -1.
</event>
<event>
 5   0  0.2074970E-03  0.8989829E+03  0.7818609E-02  0.9426854E-01
        1   -1    0    0  501    0  0.00000000000E+00  0.00000000000E+00  0.57439682382E+03  0.57439682384E+03  0.50400001928E-02 0.  1.
       -1   -1    0    0    0  501  0.00000000000E+00  0.00000000000E+00 -0.35174732654E+03  0.35174732658E+03  0.50400001928E-02 0. -1.
    10030    2    1    2    0    0  0.00000000000E+00  0.00000000000E+00  0.22264949728E+03  0.92614415042E+03  0.89898286342E+03 0.  0.
        2    1    3    3  502    0  0.34774109600E+03 -0.24033342204E+03  0.26877736052E+03  0.50092443855E+03  0.25500000920E-02 0.  1.
       -2    1    3    3    0  502 -0.34774109600E+03  0.24033342204E+03 -0.46127863243E+02  0.42521971188E+03  0.25500000920E-02 0. -1.
</event>
<event>
 5   0  0.3815269E-03  0.9004725E+03  0.7818609E-02  0.9424991E-01
       -2   -1    0    0    0  501  0.00000000000E+00  0.00000000000E+00  0.15074776033E+03  0.15074776036E+03  0.25500000920E-02 0. -1.
        2   -1    0    0  501    0  0.00000000000E+00  0.00000000000E+00 -0.13447143014E+04  0.13447143014E+04  0.25500000920E-02 0.  1.
    10030    2    1    2    0    0  0.00000000000E+00  0.00000000000E+00 -0.11939665411E+04  0.14954620618E+04  0.90047247431E+03 0.  0.
        5    1    3    3  502    0  0.43962617091E+03  0.81147709367E+02 -0.50856541057E+03  0.67713882455E+03  0.46999998093E+01 0.  1.
       -5    1    3    3    0  502 -0.43962617091E+03 -0.81147709367E+02 -0.68540113053E+03  0.81832323724E+03  0.46999998093E+01 0. -1.
</event>
<event>
 5   0  0.2295158E-03  0.8984154E+03  0.7818609E-02  0.9427564E-01
        1   -1    0    0  501    0  0.00000000000E+00  0.00000000000E+00  0.75014831894E+03  0.75014831896E+03  0.50400001928E-02 0.  1.
       -1   -1    0    0    0  501  0.00000000000E+00  0.00000000000E+00 -0.26899689195E+03  0.26899689199E+03  0.50400001928E-02 0. -1.
    10030    2    1    2    0    0  0.00000000000E+00  0.00000000000E+00  0.48115142700E+03  0.10191452110E+04  0.89841541912E+03 0.  0.
        4    1    3    3  502    0  0.10603529950E+03  0.23206842872E+03 -0.17881810124E+03  0.31157144699E+03  0.12699999809E+01 0. -1.
       -4    1    3    3    0  502 -0.10603529950E+03 -0.23206842872E+03  0.65996952824E+03  0.70757376396E+03  0.12699999809E+01 0.  1.
</event>
<event>
 5   0  0.2129280E-03  0.9011784E+03  0.7818609E-02  0.9424110E-01
       -1   -1    0    0    0  501  0.00000000000E+00  0.00000000000E+00  0.49688151456E+03  0.49688151459E+03  0.50400001928E-02 0.  1.
        1   -1    0    0  501    0  0.00000000000E+00  0.00000000000E+00 -0.40860977912E+03  0.40860977915E+03  0.50400001928E-02 0. -1.
    10030    2    1    2    0    0  0.00000000000E+00  0.00000000000E+00  0.88271735445E+02  0.90549129374E+03  0.90117844168E+03 0.  0.
        3    1    3    3  502    0  0.94122083376E+02 -0.43131439945E+03 -0.46515402888E+02  0.44390851609E+03  0.10100000352E+00 0. -1.
       -3    1    3    3    0  502 -0.94122083376E+02  0.43131439945E+03  0.13478713833E+03  0.46158277764E+03  0.10100000352E+00 0.  1.
</event>
<event>
 5   0  0.3806019E-03  0.8973680E+03  0.7818609E-02  0.9428878E-01
        2   -1    0    0  501    0  0.00000000000E+00  0.00000000000E+00  0.77910114197E+03  0.77910114198E+03  0.25500000920E-02 0. -1.
       -2   -1    0    0    0  501  0.00000000000E+00  0.00000000000E+00 -0.25839693302E+03  0.25839693304E+03  0.25500000920E-02 0.  1.
    10030    2    1    2    0    0  0.00000000000E+00  0.00000000000E+00  0.52070420895E+03  0.10374980750E+04  0.89736803065E+03 0.  0.
        2    1    3    3  502    0  0.23306291366E+03  0.29216469136E+01 -0.18291073261E+03  0.29628228745E+03  0.25500000920E-02 0.  1.
       -2    1    3    3    0  502 -0.23306291366E+03 -0.29216469136E+01  0.70361494156E+03  0.74121578757E+03  0.25500000920E-02 0. -1.
</event>
<event>
 5   0  0.2074970E-03  0.8790516E+03  0.7818609E-02  0.9452154E-01
        1   -1    0    0  501    0  0.00000000000E+00  0.00000000000E+00  0.11659238554E+04  0.11659238554E+04  0.50400001928E-02 0. -1.
       -1   -1    0    0    0  501  0.00000000000E+00  0.00000000000E+00 -0.16569084419E+03  0.16569084427E+03  0.50400001928E-02 0.  1.
    10030    2    1    2    0    0  0.00000000000E+00  0.00000000000E+00  0.10002330112E+04  0.13316146997E+04  0.87905155235E+03 0.  0.
        2    1    3    3  502    0 -0.81006026026E+01 -0.40682338483E+03  0.24839904688E+03  0.47673155203E+03  0.25500000920E-02 0.  1.
       -2    1    3    3    0  502  0.81006026026E+01  0.40682338483E+03  0.75183396430E+03  0.85488314762E+03  0.25500000920E-02 0. -1.
</event>
<event>
 5   0  0.3815269E-03  0.8983772E+03  0.7818609E-02  0.9427612E-01
       -2   -1    0    0    0  501  0.00000000000E+00  0.00000000000E+00  0.25633413158E+03  0.25633413159E+03  0.25500000920E-02 0. -1.
        2   -1    0    0  501    0  0.00000000000E+00  0.00000000000E+00 -0.78713817514E+03  0.78713817514E+03  0.25500000920E-02 0.  1.
    10030    2    1    2    0    0  0.00000000000E+00  0.00000000000E+00 -0.53080404356E+03  0.10434723067E+04  0.89837716036E+03 0.  0.
        5    1    3    3  502    0 -0.34489073087E+03 -0.11997476169E+03  0.38382256884E+02  0.36720409492E+03  0.46999998093E+01 0. -1.
       -5    1    3    3    0  502  0.34489073087E+03  0.11997476169E+03 -0.56918630044E+03  0.67626821181E+03  0.46999998093E+01 0.  1.
</event>
<event>
 5   0  0.2134145E-03  0.8970635E+03  0.7818609E-02  0.9429260E-01
        1   -1    0    0  501    0  0.00000000000E+00  0.00000000000E+00  0.31309454251E+03  0.31309454255E+03  0.50400001928E-02 0.  1.
       -1   -1    0    0    0  501  0.00000000000E+00  0.00000000000E+00 -0.64255589876E+03  0.64255589878E+03  0.50400001928E-02 0. -1.
    10030    2    1    2    0    0  0.00000000000E+00  0.00000000000E+00 -0.32946135625E+03  0.95565044133E+03  0.89706353218E+03 0.  0.
        1    1    3    3  502    0  0.12992236664E+03  0.26102719516E+03 -0.52782116514E+03  0.60300099532E+03  0.50400001928E-02 0. -1.
       -1    1    3    3    0  502 -0.12992236664E+03 -0.26102719516E+03  0.19835980889E+03  0.35264944601E+03  0.50400001928E-02 0.  1.
</event>
<event>
 5   0  0.3626546E-03  0.9109061E+03  0.7818609E-02  0.9412050E-01
        2   -1    0    0  501    0  0.00000000000E+00  0.00000000000E+00  0.12889862163E+04  0.12889862163E+04  0.25500000920E-02 0.  1.
       -2   -1    0    0    0  501  0.00000000000E+00  0.00000000000E+00 -0.16093073162E+03  0.16093073164E+03  0.25500000920E-02 0. -1.
    10030    2    1    2    0    0  0.00000000000E+00  0.00000000000E+00  0.11280554847E+04  0.14499169480E+04  0.91090613096E+03 0.  0.
        3    1    3    3  502    0  0.24617705418E+03  0.35154975258E+03  0.32133654470E+03  0.53614135795E+03  0.10100000352E+00 0.  1.
       -3    1    3    3    0  502 -0.24617705418E+03 -0.35154975258E+03  0.80671894002E+03  0.91377559003E+03  0.10100000352E+00 0. -1.
</event>
<event>
 5   0  0.3815269E-03  0.8969968E+03  0.7818609E-02  0.9429343E-01
       -2   -1    0    0    0  501  0.00000000000E+00  0.00000000000E+00  0.12219484833E+03  0.12219484836E+03  0.25500000920E-02 0. -1.
        2   -1    0    0  501    0  0.00000000000E+00  0.00000000000E+00 -0.16461480301E+04  0.16461480301E+04  0.25500000920E-02 0.  1.
    10030    2    1    2    0    0  0.00000000000E+00  0.00000000000E+00 -0.15239531818E+04  0.17683428785E+04  0.89699678684E+03 0.  0.
        5    1    3    3  502    0  0.33574608968E+03  0.51846283915E+02 -0.18480542605E+03  0.38676686697E+03  0.46999998093E+01 0. -1.
       -5    1    3    3    0  502 -0.33574608968E+03 -0.51846283915E+02 -0.13391477557E+04  0.13815760115E+04  0.46999998093E+01 0.  1.
</event>
<event>
 5   0  0.2134145E-03  0.9010371E+03  0.7818609E-02  0.9424286E-01
        1   -1    0    0  501    0  0.00000000000E+00  0.00000000000E+00  0.90438948480E+03  0.90438948481E+03  0.50400001928E-02 0.  1.
       -1   -1    0    0    0  501  0.00000000000E+00  0.00000000000E+00 -0.22442428075E+03  0.22442428081E+03  0.50400001928E-02 0. -1.
    10030    2    1    2    0    0  0.00000000000E+00  0.00000000000E+00  0.67996520405E+03  0.11288137656E+04  0.90103709066E+03 0.  0.
        1    1    3    3  502    0 -0.38597456097E+02 -0.69599818466E+02  0.89551309004E+03  0.89904259788E+03  0.50400001928E-02 0.  1.
       -1    1    3    3    0  502  0.38597456097E+02  0.69599818466E+02 -0.21554788599E+03  0.22977116774E+03  0.50400001928E-02 0. -1.
</event>
<event>
 5   0  0.3806019E-03  0.9006623E+03  0.7818609E-02  0.9424754E-01
       -2   -1    0    0    0  501  0.00000000000E+00  0.00000000000E+00  0.43212269246E+03  0.43212269246E+03  0.25500000920E-02 0. -1.
        2   -1    0    0  501    0  0.00000000000E+00  0.00000000000E+00 -0.46930688766E+03  0.46930688767E+03  0.25500000920E-02 0.  1.
    10030    2    1    2    0    0  0.00000000000E+00  0.00000000000E+00 -0.37184195207E+02  0.90142958013E+03  0.90066232494E+03 0.  0.
        2    1    3    3  502    0  0.26022563760E+03 -0.18777273048E+03 -0.33480772080E+03  0.46375876346E+03  0.25500000920E-02 0.  1.
       -2    1    3    3    0  502 -0.26022563760E+03  0.18777273048E+03  0.29762352559E+03  0.43767081667E+03  0.25500000920E-02 0. -1.
</event>
<event>
 5   0  0.3815269E-03  0.9011858E+03  0.7818609E-02  0.9424100E-01
        2   -1    0    0  501    0  0.00000000000E+00  0.00000000000E+00  0.50521641341E+03  0.50521641342E+03  0.25500000920E-02 0. -1.
       -2   -1    0    0    0  501  0.00000000000E+00  0.00000000000E+00 -0.40187519104E+03  0.40187519105E+03  0.25500000920E-02 0.  1.
    10030    2    1    2    0    0  0.00000000000E+00  0.00000000000E+00  0.10334122237E+03  0.90709160447E+03  0.90118575813E+03 0.  0.
        5    1    3    3  502    0  0.40112168635E+03 -0.20435585357E+03  0.32787859178E+02  0.45139456782E+03  0.46999998093E+01 0. -1.
       -5    1    3    3    0  502 -0.40112168635E+03  0.20435585357E+03  0.70553363192E+02  0.45569703665E+03  0.46999998093E+01 0.  1.
</event>
<event>
 5   0  0.2074970E-03  0.8648356E+03  0.7818609E-02  0.9470639E-01
       -1   -1    0    0    0  501  0.00000000000E+00  0.00000000000E+00  0.12203869635E+03  0.12203869646E+03  0.50400001928E-02 0. -1.
        1   -1    0    0  501    0  0.00000000000E+00  0.00000000000E+00 -0.15321792158E+04  0.15321792158E+04  0.50400001928E-02 0.  1.
    10030    2    1    2    0    0  0.00000000000E+00  0.00000000000E+00 -0.14101405194E+04  0.16542179122E+04  0.86483560095E+03 0.  0.
        2    1    3    3  502    0  0.16479053242E+03  0.13654147973E+02  0.59176888248E+02  0.17562533827E+03  0.25500000920E-02 0. -1.
       -2    1    3    3    0  502 -0.16479053242E+03 -0.13654147973E+02 -0.14693174076E+04  0.14785925740E+04  0.25500000920E-02 0.  1.
</event>
<event>
 5   0  0.3815269E-03  0.9099173E+03  0.7818609E-02  0.9413269E-01
       -2   -1    0    0    0  501  0.00000000000E+00  0.00000000000E+00  0.21130552955E+03  0.21130552957E+03  0.25500000920E-02 0.  1.
        2   -1    0    0  501    0  0.00000000000E+00  0.00000000000E+00 -0.97956429793E+03  0.97956429793E+03  0.25500000920E-02 0. -1.
    10030    2    1    2    0    0  0.00000000000E+00  0.00000000000E+00 -0.76825876837E+03  0.11908698275E+04  0.90991725495E+03 0.  0.
        5    1    3    3  502    0  0.40509931889E+03  0.19545219557E+03 -0.47345448155E+03  0.65306068249E+03  0.46999998093E+01 0. -1.
       -5    1    3    3    0  502 -0.40509931889E+03 -0.19545219557E+03 -0.29480428682E+03  0.53780914500E+03  0.46999998093E+01 0.  1.
</event>
<event>
 5   0  0.2295158E-03  0.9014930E+03  0.7818609E-02  0.9423717E-01
        1   -1    0    0  501    0  0.00000000000E+00  0.00000000000E+00  0.28694230075E+03  0.28694230079E+03  0.50400001928E-02 0.  1.
       -1   -1    0    0    0  501  0.00000000000E+00  0.00000000000E+00 -0.70806010336E+03  0.70806010338E+03  0.50400001928E-02 0. -1.
    10030    2    1    2    0    0  0.00000000000E+00  0.00000000000E+00 -0.42111780261E+03  0.99500240417E+03  0.90149297314E+03 0.  0.
        4    1    3    3  502    0 -0.23513962488E+03  0.23561496682E+03  0.12488292154E+03  0.35553116990E+03  0.12699999809E+01 0.  1.
       -4    1    3    3    0  502  0.23513962488E+03 -0.23561496682E+03 -0.54600072415E+03  0.63947123427E+03  0.12699999809E+01 0. -1.
</event>
<event>
 5   0  0.2130975E-03  0.8993476E+03  0.7818609E-02  0.9426397E-01
        1   -1    0    0  501    0  0.00000000000E+00  0.00000000000E+00  0.17602750401E+04  0.17602750401E+04  0.50400001928E-02 0. -1.
       -1   -1    0    0    0  501  0.00000000000E+00  0.00000000000E+00 -0.11487212897E+03  0.11487212908E+03  0.50400001928E-02 0.  1.
    10030    2    1    2    0    0  0.00000000000E+00  0.00000000000E+00  0.16454029111E+04  0.18751471692E+04  0.89934763364E+03 0.  0.
        5    1    3    3  502    0 -0.38193121246E+03  0.19120080247E+03  0.52964650178E+03  0.68042391548E+03  0.46999998093E+01 0.  1.
       -5    1    3    3    0  502  0.38193121246E+03 -0.19120080247E+03  0.11157564094E+04  0.11947232537E+04  0.46999998093E+01 0. -1.
</event>
<event>
 5   0  0.2130975E-03  0.9066454E+03  0.7818609E-02  0.9417312E-01
        1   -1    0    0  501    0  0.00000000000E+00  0.00000000000E+00  0.65558408275E+03  0.65558408277E+03  0.50400001928E-02 0.  1.
       -1   -1    0    0    0  501  0.00000000000E+00  0.00000000000E+00 -0.31346319890E+03  0.31346319894E+03  0.50400001928E-02 0. -1.
    10030    2    1    2    0    0  0.00000000000E+00  0.00000000000E+00  0.34212088385E+03  0.96904728170E+03  0.90664542960E+03 0.  0.
        5    1    3    3  502    0  0.43981083714E+03 -0.64488600224E+02  0.76138948975E+02  0.45101173108E+03  0.46999998093E+01 0. -1.
       -5    1    3    3    0  502 -0.43981083714E+03  0.64488600224E+02  0.26598193488E+03  0.51803555062E+03  0.46999998093E+01 0.  1.
</event>
<event>
 5   0  0.2130975E-03  0.9004270E+03  0.7818609E-02  0.9425048E-01
        1   -1    0    0  501    0  0.00000000000E+00  0.00000000000E+00  0.14536640501E+04  0.14536640501E+04  0.50400001928E-02 0. -1.
       -1   -1    0    0    0  501  0.00000000000E+00  0.00000000000E+00 -0.13943536389E+03  0.13943536398E+03  0.50400001928E-02 0.  1.
    10030    2    1    2    0    0  0.00000000000E+00  0.00000000000E+00  0.13142286863E+04  0.15930994141E+04  0.90042695623E+03 0.  0.
        5    1    3    3  502    0 -0.26086151201E+02 -0.43892002626E+03  0.82809230651E+03  0.93759812011E+03  0.46999998093E+01 0.  1.
       -5    1    3    3    0  502  0.26086151201E+02  0.43892002626E+03  0.48613637974E+03  0.65550129401E+03  0.46999998093E+01 0. -1.
</event>
<event>
 5   0  0.3626546E-03  0.8963658E+03  0.7818609E-02  0.9430136E-01
       -2   -1    0    0    0  501  0.00000000000E+00  0.00000000000E+00  0.11783852941E+03  0.11783852944E+03  0.25500000920E-02 0.  1.
        2   -1    0    0  501    0  0.00000000000E+00  0.00000000000E+00 -0.17046028464E+04  0.17046028464E+04  0.25500000920E-02 0. -1.
    10030    2    1    2    0    0  0.00000000000E+00  0.00000000000E+00 -0.15867643170E+04  0.18224413759E+04  0.89636575722E+03 0.  0.
        3    1    3    3  502    0 -0.28442669794E+03 -0.27690167681E+03 -0.37033754943E+03  0.54288396167E+03  0.10100000352E+00 0.  1.
       -3    1    3    3    0  502  0.28442669794E+03  0.27690167681E+03 -0.12164267676E+04  0.12795574142E+04  0.10100000352E+00 0. -1.
</event>
<event>
 5   0  0.2130975E-03  0.9046330E+03  0.7818609E-02  0.9419808E-01
       -1   -1    0    0    0  501  0.00000000000E+00  0.00000000000E+00  0.65028438344E+03  0.65028438346E+03  0.50400001928E-02 0.  1.
        1   -1    0    0  501    0  0.00000000000E+00  0.00000000000E+00 -0.31461656094E+03  0.31461656098E+03  0.50400001928E-02 0. -1.
    10030    2    1    2    0    0  0.00000000000E+00  0.00000000000E+00  0.33566782249E+03  0.96490094444E+03  0.90463304468E+03 0.  0.
        5    1    3    3  502    0  0.15432677434E+03  0.83724150096E+02 -0.27675872662E+03  0.32778646913E+03  0.46999998093E+01 0. -1.
       -5    1    3    3    0  502 -0.15432677434E+03 -0.83724150096E+02  0.61242654911E+03  0.63711447531E+03  0.46999998093E+01 0.  1.
</event>
<event>
 5   0  0.2130975E-03  0.8991849E+03  0.7818609E-02  0.9426601E-01
       -1   -1    0    0    0  501  0.00000000000E+00  0.00000000000E+00  0.10811598404E+04  0.10811598404E+04  0.50400001928E-02 0. -1.
        1   -1    0    0  501    0  0.00000000000E+00  0.00000000000E+00 -0.18695973731E+03  0.18695973738E+03  0.50400001928E-02 0.  1.
    10030    2    1    2    0    0  0.00000000000E+00  0.00000000000E+00  0.89420010308E+03  0.12681195778E+04  0.89918487488E+03 0.  0.
        5    1    3    3  502    0 -0.20006241760E+03 -0.27978580306E+03  0.85537177054E+03  0.92194794992E+03  0.46999998093E+01 0. -1.
       -5    1    3    3    0  502  0.20006241760E+03  0.27978580306E+03  0.38828332542E+02  0.34617162786E+03  0.46999998093E+01 0.  1.
</event>
<event>
 5   0  0.3626546E-03  0.9002630E+03  0.7818609E-02  0.9425253E-01
       -2   -1    0    0    0  501  0.00000000000E+00  0.00000000000E+00  0.51528301507E+03  0.51528301508E+03  0.25500000920E-02 0.  1.
        2   -1    0    0  501    0  0.00000000000E+00  0.00000000000E+00 -0.39321760438E+03  0.39321760439E+03  0.25500000920E-02 0. -1.
    10030    2    1    2    0    0  0.00000000000E+00  0.00000000000E+00  0.12206541069E+03  0.90850061946E+03  0.90026296773E+03 0.  0.
        3    1    3    3  502    0 -0.14835414842E+03  0.16704927367E+03  0.45538189086E+03  0.50723474833E+03  0.10100000352E+00 0.  1.
       -3    1    3    3    0  502  0.14835414842E+03 -0.16704927367E+03 -0.33331648017E+03  0.40126587113E+03  0.10100000352E+00 0. -1.
</event>
<event>
 5   0  0.3685879E-03  0.8973749E+03  0.7818609E-02  0.9428869E-01
       -2   -1    0    0    0  501  0.00000000000E+00  0.00000000000E+00  0.27267428966E+03  0.27267428967E+03  0.25500000920E-02 0.  1.
        2   -1    0    0  501    0  0.00000000000E+00  0.00000000000E+00 -0.73831833581E+03  0.73831833582E+03  0.25500000920E-02 0. -1.
    10030    2    1    2    0    0  0.00000000000E+00  0.00000000000E+00 -0.46564404615E+03  0.10109926255E+04  0.89737489996E+03 0.  0.
        1    1    3    3  502    0 -0.44690277703E+03 -0.17757795850E+01 -0.18782547252E+03  0.48477175419E+03  0.50400001928E-02 0.  1.
       -1    1    3    3    0  502  0.44690277703E+03  0.17757795850E+01 -0.27781857364E+03  0.52622087130E+03  0.50400001928E-02 0. -1.
</event>
<event>
 5   0  0.3663255E-03  0.9029463E+03  0.7818609E-02  0.9421906E-01
       -2   -1    0    0    0  501  0.00000000000E+00  0.00000000000E+00  0.28907083969E+03  0.28907083970E+03  0.25500000920E-02 0.  1.
        2   -1    0    0  501    0  0.00000000000E+00  0.00000000000E+00 -0.70511434848E+03  0.70511434849E+03  0.25500000920E-02 0. -1.
    10030    2    1    2    0    0  0.00000000000E+00  0.00000000000E+00 -0.41604350879E+03  0.99418518819E+03  0.90294628147E+03 0.  0.
        4    1    3    3  502    0 -0.55023612430E+02  0.44794445921E+03 -0.19478411409E+03  0.49155294777E+03  0.12699999809E+01 0.  1.
       -4    1    3    3    0  502  0.55023612430E+02 -0.44794445921E+03 -0.22125939470E+03  0.50263224042E+03  0.12699999809E+01 0. -1.
</event>
<event>
 5   0  0.2074970E-03  0.8994767E+03  0.7818609E-02  0.9426236E-01
       -1   -1    0    0    0  501  0.00000000000E+00  0.00000000000E+00  0.13677903006E+03  0.13677903015E+03  0.50400001928E-02 0. -1.
        1   -1    0    0  501    0  0.00000000000E+00  0.00000000000E+00 -0.14787690632E+04  0.14787690633E+04  0.50400001928E-02 0.  1.
    10030    2    1    2    0    0  0.00000000000E+00  0.00000000000E+00 -0.13419900332E+04  0.16155480934E+04  0.89947673284E+03 0.  0.
        2    1    3    3  502    0  0.38266993039E+02  0.44372134638E+03 -0.55866203144E+03  0.71446221829E+03  0.25500000920E-02 0. -1.
       -2    1    3    3    0  502 -0.38266993039E+02 -0.44372134638E+03 -0.78332800175E+03  0.90108587511E+03  0.25500000920E-02 0.  1.
</event>
<event>
 5   0  0.3815269E-03  0.8966360E+03  0.7818609E-02  0.9429796E-01
       -2   -1    0    0    0  501  0.00000000000E+00  0.00000000000E+00  0.12949725522E+03  0.12949725524E+03  0.25500000920E-02 0. -1.
        2   -1    0    0  501    0  0.00000000000E+00  0.00000000000E+00 -0.15520716573E+04  0.15520716573E+04  0.25500000920E-02 0.  1.
    10030    2    1    2    0    0  0.00000000000E+00  0.00000000000E+00 -0.14225744021E+04  0.16815689126E+04  0.89663597864E+03 0.  0.
        5    1    3    3  502    0  0.21542180055E+03  0.27206812142E+02 -0.14468252566E+04  0.14630352613E+04  0.46999998093E+01 0.  1.
       -5    1    3    3    0  502 -0.21542180055E+03 -0.27206812142E+02  0.24250854500E+02  0.21853365123E+03  0.46999998093E+01 0. -1.
</event>
<event>
 5   0  0.2295158E-03  0.9030869E+03  0.7818609E-02  0.9421731E-01
       -1   -1    0    0    0  501  0.00000000000E+00  0.00000000000E+00  0.11755502720E+04  0.11755502720E+04  0.50400001928E-02 0.  1.
        1   -1    0    0  501    0  0.00000000000E+00  0.00000000000E+00 -0.17344343698E+03  0.17344343706E+03  0.50400001928E-02 0. -1.
    10030    2    1    2    0    0  0.00000000000E+00  0.00000000000E+00  0.10021068351E+04  0.13489937091E+04  0.90308688305E+03 0.  0.
        4    1    3    3  502    0 -0.17696086555E+03  0.23872504137E+03  0.10088985176E+04  0.10517521690E+04  0.12699999809E+01 0.  1.
       -4    1    3    3    0  502  0.17696086555E+03 -0.23872504137E+03 -0.67916825294E+01  0.29724154010E+03  0.12699999809E+01 0. -1.
</event>
<event>
 5   0  0.3685879E-03  0.9006426E+03  0.7818609E-02  0.9424778E-01
        2   -1    0    0  501    0  0.00000000000E+00  0.00000000000E+00  0.11396391610E+04  0.11396391610E+04  0.25500000920E-02 0. -1.
       -2   -1    0    0    0  501  0.00000000000E+00  0.00000000000E+00 -0.17794166035E+03  0.17794166037E+03  0.25500000920E-02 0.  1.
    10030    2    1    2    0    0  0.00000000000E+00  0.00000000000E+00  0.96169750068E+03  0.13175808214E+04  0.90064262508E+03 0.  0.
        1    1    3    3  502    0 -0.26119791719E+03 -0.19683746439E+03  0.28000466207E+02  0.32825807753E+03  0.50400001928E-02 0.  1.
       -1    1    3    3    0  502  0.26119791719E+03  0.19683746439E+03  0.93369703447E+03  0.98932274387E+03  0.50400001928E-02 0. -1.
</event>
<event>
 5   0  0.1436000E-03  0.9053154E+03  0.7818609E-02  0.9418961E-01
       -4   -1    0    0    0  501  0.00000000000E+00  0.00000000000E+00  0.18174281675E+03  0.18174725401E+03  0.12699999809E+01 0. -1.
        4   -1    0    0  501    0  0.00000000000E+00  0.00000000000E+00 -0.11273933194E+04  0.11273940347E+04  0.12699999809E+01 0.  1.
    10030    2    1    2    0    0  0.00000000000E+00  0.00000000000E+00 -0.94565050263E+03  0.13091412887E+04  0.90531543713E+03 0.  0.
        2    1    3    3  502    0 -0.33863513594E+03 -0.18372045598E+03 -0.12918552308E+03  0.40634450977E+03  0.25500000920E-02 0. -1.
       -2    1    3    3    0  502  0.33863513594E+03  0.18372045598E+03 -0.81646497955E+03  0.90279677894E+03  0.25500000920E-02 0.  1.
</event>
<event>
 5   0  0.3806019E-03  0.8996265E+03  0.7818609E-02  0.9426048E-01
        2   -1    0    0  501    0  0.00000000000E+00  0.00000000000E+00  0.81607369898E+03  0.81607369898E+03  0.25500000920E-02 0.  1.
       -2   -1    0    0    0  501  0.00000000000E+00  0.00000000000E+00 -0.24793343876E+03  0.24793343878E+03  0.25500000920E-02 0. -1.
    10030    2    1    2    0    0  0.00000000000E+00  0.00000000000E+00  0.56814026021E+03  0.10640071378E+04  0.89962649690E+03 0.  0.
        2    1    3    3  502    0 -0.20871453016E+03  0.27718225065E+03  0.62262636921E+03  0.71278001572E+03  0.25500000920E-02 0.  1.
       -2    1    3    3    0  502  0.20871453016E+03 -0.27718225065E+03 -0.54486108995E+02  0.35122712204E+03  0.25500000920E-02 0. -1.
</event>
<event>
 5   0  0.2134145E-03  0.8960080E+03  0.7818609E-02  0.9430585E-01
        1   -1    0    0  501    0  0.00000000000E+00  0.00000000000E+00  0.38710920940E+03  0.38710920943E+03  0.50400001928E-02 0.  1.
       -1   -1    0    0    0  501  0.00000000000E+00  0.00000000000E+00 -0.51847792068E+03  0.51847792070E+03  0.50400001928E-02 0. -1.
    10030    2    1    2    0    0  0.00000000000E+00  0.00000000000E+00 -0.13136871128E+03  0.90558713013E+03  0.89600798655E+03 0.  0.
        1    1    3    3  502    0  0.34512192224E+03 -0.28367459038E+03 -0.31752170754E+02  0.44787120337E+03  0.50400001928E-02 0.  1.
       -1    1    3    3    0  502 -0.34512192224E+03  0.28367459038E+03 -0.99616540527E+02  0.45771592676E+03  0.50400001928E-02 0. -1.
</event>
<event>
 5   0  0.2295158E-03  0.9155788E+03  0.7818609E-02  0.9406314E-01
        1   -1    0    0  501    0  0.00000000000E+00  0.00000000000E+00  0.97527982022E+03  0.97527982023E+03  0.50400001928E-02 0.  1.
       -1   -1    0    0    0  501  0.00000000000E+00  0.00000000000E+00 -0.21488310070E+03  0.21488310076E+03  0.50400001928E-02 0. -1.
    10030    2    1    2    0    0  0.00000000000E+00  0.00000000000E+00  0.76039671951E+03  0.11901629210E+04  0.91557883738E+03 0.  0.
        4    1    3    3  502    0  0.11447665323E+03 -0.40913654265E+03  0.60183806276E+03  0.73668737016E+03  0.12699999809E+01 0.  1.
       -4    1    3    3    0  502 -0.11447665323E+03  0.40913654265E+03  0.15855865675E+03  0.45347555083E+03  0.12699999809E+01 0. -1.
</event>
<event>
 5   0  0.3806019E-03  0.9114101E+03  0.7818609E-02  0.9411430E-01
       -2   -1    0    0    0  501  0.00000000000E+00  0.00000000000E+00  0.23962160388E+03  0.23962160390E+03  0.25500000920E-02 0.  1.
        2   -1    0    0  501    0  0.00000000000E+00  0.00000000000E+00 -0.86664599525E+03  0.86664599525E+03  0.25500000920E-02 0. -1.
    10030    2    1    2    0    0  0.00000000000E+00  0.00000000000E+00 -0.62702439137E+03  0.11062675992E+04  0.91141012369E+03 0.  0.
        2    1    3    3  502    0 -0.35652340546E+03 -0.90594173231E+02  0.12976534587E+02  0.36808237301E+03  0.25500000920E-02 0.  1.
       -2    1    3    3    0  502  0.35652340546E+03  0.90594173231E+02 -0.64000092595E+03  0.73818522614E+03  0.25500000920E-02 0. -1.
</event>
<event>
 5   0  0.3815269E-03  0.9012258E+03  0.7818609E-02  0.9424050E-01
       -2   -1    0    0    0  501  0.00000000000E+00  0.00000000000E+00  0.16773320781E+03  0.16773320783E+03  0.25500000920E-02 0. -1.
        2   -1    0    0  501    0  0.00000000000E+00  0.00000000000E+00 -0.12105651932E+04  0.12105651932E+04  0.25500000920E-02 0.  1.
    10030    2    1    2    0    0  0.00000000000E+00  0.00000000000E+00 -0.10428319854E+04  0.13782984010E+04  0.90122579443E+03 0.  0.
        5    1    3    3  502    0 -0.67495928791E+02  0.17269368743E+02  0.15940842937E+03  0.17403180414E+03  0.46999998093E+01 0. -1.
       -5    1    3    3    0  502  0.67495928791E+02 -0.17269368743E+02 -0.12022404148E+04  0.12042665969E+04  0.46999998093E+01 0.  1.
</event>
<event>
 5   0  0.2295158E-03  0.9124558E+03  0.7818609E-02  0.9410144E-01
       -1   -1    0    0    0  501  0.00000000000E+00  0.00000000000E+00  0.13287522360E+04  0.13287522360E+04  0.50400001928E-02 0.  1.
        1   -1    0    0  501    0  0.00000000000E+00  0.00000000000E+00 -0.15664614407E+03  0.15664614415E+03  0.50400001928E-02 0. -1.
    10030    2    1    2    0    0  0.00000000000E+00  0.00000000000E+00  0.11721060919E+04  0.14853983801E+04  0.91245583839E+03 0.  0.
        4    1    3    3  502    0 -0.25870671551E+03 -0.22639997577E+02 -0.24578189258E+02  0.26085903171E+03  0.12699999809E+01 0. -1.
       -4    1    3    3    0  502  0.25870671551E+03  0.22639997577E+02  0.11966842812E+04  0.12245393484E+04  0.12699999809E+01 0.  1.
</event>
<event>
 5   0  0.2074970E-03  0.9031010E+03  0.7818609E-02  0.9421713E-01
        1   -1    0    0  501    0  0.00000000000E+00  0.00000000000E+00  0.89913720546E+03  0.89913720548E+03  0.50400001928E-02 0.  1.
       -1   -1    0    0    0  501  0.00000000000E+00  0.00000000000E+00 -0.22677058130E+03  0.22677058135E+03  0.50400001928E-02 0. -1.
    10030    2    1    2    0    0  0.00000000000E+00  0.00000000000E+00  0.67236662416E+03  0.11259077868E+04  0.90310102821E+03 0.  0.
        2    1    3    3  502    0 -0.12339193669E+03 -0.41582925278E+03  0.49268591731E+03  0.65641370387E+03  0.25500000920E-02 0.  1.
       -2    1    3    3    0  502  0.12339193669E+03  0.41582925278E+03  0.17968070685E+03  0.46949408296E+03  0.25500000920E-02 0. -1.
</event>
<event>
 5   0  0.1436000E-03  0.9018153E+03  0.7818609E-02  0.9423315E-01
       -3   -1    0    0    0  501  0.00000000000E+00  0.00000000000E+00  0.45570682710E+03  0.45570683829E+03  0.10100000352E+00 0.  1.
        3   -1    0    0  501    0  0.00000000000E+00  0.00000000000E+00 -0.44615903017E+03  0.44615904160E+03  0.10100000352E+00 0. -1.
    10030    2    1    2    0    0  0.00000000000E+00  0.00000000000E+00  0.95477969304E+01  0.90186587989E+03  0.90181533857E+03 0.  0.
        5    1    3    3  502    0 -0.16713901746E+03  0.25531743388E+03  0.33671597542E+03  0.45444711607E+03  0.46999998093E+01 0.  1.
       -5    1    3    3    0  502  0.16713901746E+03 -0.25531743388E+03 -0.32716817849E+03  0.44741876382E+03  0.46999998093E+01 0. -1.
</event>
<event>
 5   0  0.3663255E-03  0.8997950E+03  0.7818609E-02  0.9425838E-01
        2   -1    0    0  501    0  0.00000000000E+00  0.00000000000E+00  0.64041276500E+03  0.64041276501E+03  0.25500000920E-02 0. -1.
       -2   -1    0    0    0  501  0.00000000000E+00  0.00000000000E+00 -0.31605830290E+03  0.31605830291E+03  0.25500000920E-02 0.  1.
    10030    2    1    2    0    0  0.00000000000E+00  0.00000000000E+00  0.32435446210E+03  0.95647106792E+03  0.89979502482E+03 0.  0.
        4    1    3    3  502    0  0.35888333546E+03 -0.25624639239E+02 -0.12493236574E+03  0.38087213014E+03  0.12699999809E+01 0.  1.
       -4    1    3    3    0  502 -0.35888333546E+03  0.25624639239E+02  0.44928682784E+03  0.57559893779E+03  0.12699999809E+01 0. -1.
</event>
<event>
 5   0  0.2130975E-03  0.9027641E+03  0.7818609E-02  0.9422133E-01
        1   -1    0    0  501    0  0.00000000000E+00  0.00000000000E+00  0.11073279720E+04  0.11073279720E+04  0.50400001928E-02 0. -1.
       -1   -1    0    0    0  501  0.00000000000E+00  0.00000000000E+00 -0.18399766902E+03  0.18399766909E+03  0.50400001928E-02 0.  1.
    10030    2    1    2    0    0  0.00000000000E+00  0.00000000000E+00  0.92333030301E+03  0.12913256411E+04  0.90276412368E+03 0.  0.
        5    1    3    3  502    0 -0.17168145989E+03 -0.20386189523E+03  0.98271554554E+03  0.10182269538E+04  0.46999998093E+01 0. -1.
       -5    1    3    3    0  502  0.17168145989E+03  0.20386189523E+03 -0.59385242532E+02  0.27309868734E+03  0.46999998093E+01 0.  1.
</event>
<event>
 5   0  0.3663255E-03  0.9007105E+03  0.7818609E-02  0.9424694E-01
        2   -1    0    0  501    0  0.00000000000E+00  0.00000000000E+00  0.10093747214E+04  0.10093747214E+04  0.25500000920E-02 0.  1.
       -2   -1    0    0    0  501  0.00000000000E+00  0.00000000000E+00 -0.20093613104E+03  0.20093613106E+03  0.25500000920E-02 0. -1.
    10030    2    1    2    0    0  0.00000000000E+00  0.00000000000E+00  0.80843859033E+03  0.12103108524E+04  0.90071050021E+03 0.  0.
        4    1    3    3  502    0 -0.66865641547E+02 -0.85495892636E+02  0.99153446138E+03  0.99745815084E+03  0.12699999809E+01 0.  1.
       -4    1    3    3    0  502  0.66865641547E+02  0.85495892636E+02 -0.18309587106E+03  0.21285270159E+03  0.12699999809E+01 0. -1.
</event>
<event>
 5   0  0.3663255E-03  0.9005776E+03  0.7818609E-02  0.9424860E-01
        2   -1    0    0  501    0  0.00000000000E+00  0.00000000000E+00  0.27529994885E+03  0.27529994887E+03  0.25500000920E-02 0. -1.
       -2   -1    0    0    0  501  0.00000000000E+00  0.00000000000E+00 -0.73650576649E+03  0.73650576649E+03  0.25500000920E-02 0.  1.
    10030    2    1    2    0    0  0.00000000000E+00  0.00000000000E+00 -0.46120581763E+03  0.10118057154E+04  0.90057759211E+03 0.  0.
        4    1    3    3  502    0 -0.40150340864E+03 -0.22736939336E+02 -0.45819689631E+03  0.60964576948E+03  0.12699999809E+01 0.  1.
       -4    1    3    3    0  502  0.40150340864E+03  0.22736939336E+02 -0.30089213260E+01  0.40215994588E+03  0.12699999809E+01 0. -1.
</event>
<event>
 5   0  0.3626546E-03  0.9003371E+03  0.7818609E-02  0.9425160E-01
       -2   -1    0    0    0  501  0.00000000000E+00  0.00000000000E+00  0.27120728759E+03  0.27120728760E+03  0.25500000920E-02 0. -1.
        2   -1    0    0  501    0  0.00000000000E+00  0.00000000000E+00 -0.74722073829E+03  0.74722073830E+03  0.25500000920E-02 0.  1.
    10030    2    1    2    0    0  0.00000000000E+00  0.00000000000E+00 -0.47601345070E+03  0.10184280259E+04  0.90033706949E+03 0.  0.
        3    1    3    3  502    0 -0.30303065427E+03 -0.14983507550E+03 -0.57427540256E+03  0.66638605587E+03  0.10100000352E+00 0. -1.
       -3    1    3    3    0  502  0.30303065427E+03  0.14983507550E+03  0.98261951857E+02  0.35204197003E+03  0.10100000352E+00 0.  1.
</event>
<event>
 5   0  0.2074970E-03  0.9134280E+03  0.7818609E-02  0.9408950E-01
       -1   -1    0    0    0  501  0.00000000000E+00  0.00000000000E+00  0.26563245994E+03  0.26563245999E+03  0.50400001928E-02 0. -1.
        1   -1    0    0  501    0  0.00000000000E+00  0.00000000000E+00 -0.78524912321E+03  0.78524912322E+03  0.50400001928E-02 0.  1.
    10030    2    1    2    0    0  0.00000000000E+00  0.00000000000E+00 -0.51961666326E+03  0.10508815832E+04  0.91342795293E+03 0.  0.
        2    1    3    3  502    0 -0.25242293214E+03  0.48203590521E+02  0.17455996331E+03  0.31066397217E+03  0.25500000920E-02 0. -1.
       -2    1    3    3    0  502  0.25242293214E+03 -0.48203590521E+02 -0.69417662657E+03  0.74021761104E+03  0.25500000920E-02 0.  1.
</event>
<event>
 5   0  0.2295158E-03  0.8999271E+03  0.7818609E-02  0.9425673E-01
        1   -1    0    0  501    0  0.00000000000E+00  0.00000000000E+00  0.44757411209E+03  0.44757411212E+03  0.50400001928E-02 0.  1.
       -1   -1    0    0    0  501  0.00000000000E+00  0.00000000000E+00 -0.45236574028E+03  0.45236574031E+03  0.50400001928E-02 0. -1.
    10030    2    1    2    0    0  0.00000000000E+00  0.00000000000E+00 -0.47916281898E+01  0.89993985243E+03  0.89992709610E+03 0.  0.
        4    1    3    3  502    0 -0.40505096530E+02 -0.42800286210E+03  0.13041596593E+03  0.44926278488E+03  0.12699999809E+01 0.  1.
       -4    1    3    3    0  502  0.40505096530E+02  0.42800286210E+03 -0.13520759412E+03  0.45067706755E+03  0.12699999809E+01 0. -1.
</event>
<event>
 5   0  0.2130975E-03  0.9042737E+03  0.7818609E-02  0.9420255E-01
        1   -1    0    0  501    0  0.00000000000E+00  0.00000000000E+00  0.46608786344E+03  0.46608786347E+03  0.50400001928E-02 0. -1.
       -1   -1    0    0    0  501  0.00000000000E+00  0.00000000000E+00 -0.43860342329E+03  0.43860342332E+03  0.50400001928E-02 0.  1.
    10030    2    1    2    0    0  0.00000000000E+00  0.00000000000E+00  0.27484440150E+02  0.90469128679E+03  0.90427370301E+03 0.  0.
        5    1    3    3  502    0  0.17637124113E+03  0.38839067290E+03  0.16364970325E+03  0.45689981929E+03  0.46999998093E+01 0.  1.
       -5    1    3    3    0  502 -0.17637124113E+03 -0.38839067290E+03 -0.13616526310E+03  0.44779146750E+03  0.46999998093E+01 0. -1.
</event>
<event>
 5   0  0.3685879E-03  0.9460642E+03  0.7818609E-02  0.9369763E-01
        2   -1    0    0  501    0  0.00000000000E+00  0.00000000000E+00  0.10494569654E+04  0.10494569654E+04  0.25500000920E-02 0. -1.
       -2   -1    0    0    0  501  0.00000000000E+00  0.00000000000E+00 -0.21321443504E+03  0.21321443505E+03  0.25500000920E-02 0.  1.
    10030    2    1    2    0    0  0.00000000000E+00  0.00000000000E+00  0.83624253034E+03  0.12626714004E+04  0.94606421343E+03 0.  0.
        1    1    3    3  502    0 -0.67084104101E+02  0.28936712854E+03 -0.73217078685E+02  0.30593194135E+03  0.50400001928E-02 0.  1.
       -1    1    3    3    0  502  0.67084104101E+02 -0.28936712854E+03  0.90945960902E+03  0.95673945908E+03  0.50400001928E-02 0. -1.
</event>
<event>
 5   0  0.1436000E-03  0.8931215E+03  0.7818609E-02  0.9434221E-01
       -4   -1    0    0    0  501  0.00000000000E+00  0.00000000000E+00  0.95542293394E+03  0.95542377802E+03  0.12699999809E+01 0. -1.
        4   -1    0    0  501    0  0.00000000000E+00  0.00000000000E+00 -0.20871778584E+03  0.20872164963E+03  0.12699999809E+01 0.  1.
    10030    2    1    2    0    0  0.00000000000E+00  0.00000000000E+00  0.74670514810E+03  0.11641454276E+04  0.89312149146E+03 0.  0.
        2    1    3    3  502    0 -0.14844177840E+03  0.60541188359E+02 -0.16991900435E+03  0.23360793032E+03  0.25500000920E-02 0.  1.
       -2    1    3    3    0  502  0.14844177840E+03 -0.60541188359E+02  0.91662415245E+03  0.93053749733E+03  0.25500000920E-02 0. -1.
</event>
<event>
 5   0  0.3663255E-03  0.9000214E+03  0.7818609E-02  0.9425555E-01
       -2   -1    0    0    0  501  0.00000000000E+00  0.00000000000E+00  0.15472462377E+03  0.15472462379E+03  0.25500000920E-02 0. -1.
        2   -1    0    0  501    0  0.00000000000E+00  0.00000000000E+00 -0.13088389692E+04  0.13088389692E+04  0.25500000920E-02 0.  1.
    10030    2    1    2    0    0  0.00000000000E+00  0.00000000000E+00 -0.11541143454E+04  0.14635635929E+04  0.90002137107E+03 0.  0.
        4    1    3    3  502    0  0.10010917172E+03 -0.80450739853E+02 -0.12784016808E+04  0.12848372030E+04  0.12699999809E+01 0.  1.
       -4    1    3    3    0  502 -0.10010917172E+03  0.80450739853E+02  0.12428733545E+03  0.17872638993E+03  0.12699999809E+01 0. -1.
</event>
<event>
 5   0  0.2130975E-03  0.8892884E+03  0.7818609E-02  0.9439071E-01
        1   -1    0    0  501    0  0.00000000000E+00  0.00000000000E+00  0.13211988820E+04  0.13211988820E+04  0.50400001928E-02 0. -1.
       -1   -1    0    0    0  501  0.00000000000E+00  0.00000000000E+00 -0.14964323358E+03  0.14964323366E+03  0.50400001928E-02 0.  1.
    10030    2    1    2    0    0  0.00000000000E+00  0.00000000000E+00  0.11715556484E+04  0.14708421157E+04  0.88928841885E+03 0.  0.
        5    1    3    3  502    0 -0.41736966945E+03  0.12725534547E+03  0.72704349481E+03  0.84794203650E+03  0.46999998093E+01 0.  1.
       -5    1    3    3    0  502  0.41736966945E+03 -0.12725534547E+03  0.44451215362E+03  0.62290007917E+03  0.46999998093E+01 0. -1.
</event>
<event>
 5   0  0.2134145E-03  0.9012677E+03  0.7818609E-02  0.9423998E-01
       -1   -1    0    0    0  501  0.00000000000E+00  0.00000000000E+00  0.16237905369E+03  0.16237905377E+03  0.50400001928E-02 0. -1.
        1   -1    0    0  501    0  0.00000000000E+00  0.00000000000E+00 -0.12505976071E+04  0.12505976071E+04  0.50400001928E-02 0.  1.
    10030    2    1    2    0    0  0.00000000000E+00  0.00000000000E+00 -0.10882185534E+04  0.14129766609E+04  0.90126767622E+03 0.  0.
        1    1    3    3  502    0  0.63651190045E+02  0.33605314140E+03 -0.84115808191E+02  0.35221961480E+03  0.50400001928E-02 0. -1.
       -1    1    3    3    0  502 -0.63651190045E+02 -0.33605314140E+03 -0.10041027452E+04  0.10607570461E+04  0.50400001928E-02 0.  1.
</event>
<event>
 5   0  0.2074970E-03  0.9022098E+03  0.7818609E-02  0.9422823E-01
       -1   -1    0    0    0  501  0.00000000000E+00  0.00000000000E+00  0.27475422460E+03  0.27475422465E+03  0.50400001928E-02 0. -1.
        1   -1    0    0  501    0  0.00000000000E+00  0.00000000000E+00 -0.74064596988E+03  0.74064596990E+03  0.50400001928E-02 0.  1.
    10030    2    1    2    0    0  0.00000000000E+00  0.00000000000E+00 -0.46589174528E+03  0.10154001945E+04  0.90220975209E+03 0.  0.
        2    1    3    3  502    0  0.16881826849E+03 -0.31144425434E+03 -0.54726643214E+03  0.65191846047E+03  0.25500000920E-02 0.  1.
       -2    1    3    3    0  502 -0.16881826849E+03  0.31144425434E+03  0.81374686863E+02  0.36348173408E+03  0.25500000920E-02 0. -1.
</event>
<event>
 5   0  0.2074970E-03  0.9220375E+03  0.7818609E-02  0.9398445E-01
        1   -1    0    0  501    0  0.00000000000E+00  0.00000000000E+00  0.86420831968E+03  0.86420831970E+03  0.50400001928E-02 0.  1.
       -1   -1    0    0    0  501  0.00000000000E+00  0.00000000000E+00 -0.24593406728E+03  0.24593406733E+03  0.50400001928E-02 0. -1.
    10030    2    1    2    0    0  0.00000000000E+00  0.00000000000E+00  0.61827425240E+03  0.11101423870E+04  0.92203745493E+03 0.  0.
        2    1    3    3  502    0  0.43514033146E+03 -0.39126495810E+01  0.12584324851E+03  0.45298889621E+03  0.25500000920E-02 0. -1.
       -2    1    3    3    0  502 -0.43514033146E+03  0.39126495810E+01  0.49243100390E+03  0.65715349082E+03  0.25500000920E-02 0.  1.
</event>
<event>
 5   0  0.2129280E-03  0.8985405E+03  0.7818609E-02  0.9427408E-01
       -1   -1    0    0    0  501  0.00000000000E+00  0.00000000000E+00  0.27941329600E+03  0.27941329604E+03  0.50400001928E-02 0.  1.
        1   -1    0    0  501    0  0.00000000000E+00  0.00000000000E+00 -0.72238414757E+03  0.72238414759E+03  0.50400001928E-02 0. -1.
    10030    2    1    2    0    0  0.00000000000E+00  0.00000000000E+00 -0.44297085158E+03  0.10017974436E+04  0.89854045136E+03 0.  0.
        3    1    3    3  502    0  0.77757922491E+02 -0.17633813697E+03  0.23098698939E+03  0.30082624974E+03  0.10100000352E+00 0.  1.
       -3    1    3    3    0  502 -0.77757922491E+02  0.17633813697E+03 -0.67395784097E+03  0.70097119389E+03  0.10100000352E+00 0. -1.
</event>
<event>
 5   0  0.3685879E-03  0.9014064E+03  0.7818609E-02  0.9423825E-01
       -2   -1    0    0    0  501  0.00000000000E+00  0.00000000000E+00  0.78933734691E+03  0.78933734692E+03  0.25500000920E-02 0.  1.
        2   -1    0    0  501    0  0.00000000000E+00  0.00000000000E+00 -0.25734671545E+03  0.25734671546E+03  0.25500000920E-02 0. -1.
    10030    2    1    2    0    0  0.00000000000E+00  0.00000000000E+00  0.53199063147E+03  0.10466840624E+04  0.90140639806E+03 0.  0.
        1    1    3    3  502    0  0.16983478883E+03  0.14545733045E+03  0.72038399528E+03  0.75429091945E+03  0.50400001928E-02 0.  1.
       -1    1    3    3    0  502 -0.16983478883E+03 -0.14545733045E+03 -0.18839336381E+03  0.29239314293E+03  0.50400001928E-02 0. -1.
</event>
<event>
 5   0  0.2074970E-03  0.9296604E+03  0.7818609E-02  0.9389246E-01
       -1   -1    0    0    0  501  0.00000000000E+00  0.00000000000E+00  0.48795097649E+03  0.48795097651E+03  0.50400001928E-02 0. -1.
        1   -1    0    0  501    0  0.00000000000E+00  0.00000000000E+00 -0.44280500083E+03  0.44280500086E+03  0.50400001928E-02 0.  1.
    10030    2    1    2    0    0  0.00000000000E+00  0.00000000000E+00  0.45145975655E+02  0.93075597737E+03  0.92966043817E+03 0.  0.
        2    1    3    3  502    0 -0.42375990408E+02 -0.17886192495E+03  0.45001851739E+03  0.48611107657E+03  0.25500000920E-02 0. -1.
       -2    1    3    3    0  502  0.42375990408E+02  0.17886192495E+03 -0.40487254173E+03  0.44464490081E+03  0.25500000920E-02 0.  1.
</event>
<event>
 5   0  0.2134145E-03  0.9021983E+03  0.7818609E-02  0.9422838E-01
       -1   -1    0    0    0  501  0.00000000000E+00  0.00000000000E+00  0.27239881406E+03  0.27239881411E+03  0.50400001928E-02 0. -1.
        1   -1    0    0  501    0  0.00000000000E+00  0.00000000000E+00 -0.74703132411E+03  0.74703132413E+03  0.50400001928E-02 0.  1.
    10030    2    1    2    0    0  0.00000000000E+00  0.00000000000E+00 -0.47463251005E+03  0.10194301382E+04  0.90219830811E+03 0.  0.
        1    1    3    3  502    0  0.20407076197E+03 -0.13417852764E+03 -0.66586265823E+03  0.70924032092E+03  0.50400001928E-02 0.  1.
       -1    1    3    3    0  502 -0.20407076197E+03  0.13417852764E+03  0.19123014818E+03  0.31018981732E+03  0.50400001928E-02 0. -1.
</event>
<event>
 5   0  0.3663255E-03  0.8979802E+03  0.7818609E-02  0.9428110E-01
        2   -1    0    0  501    0  0.00000000000E+00  0.00000000000E+00  0.11800318124E+04  0.11800318124E+04  0.25500000920E-02 0. -1.
       -2   -1    0    0    0  501  0.00000000000E+00  0.00000000000E+00 -0.17083616157E+03  0.17083616159E+03  0.25500000920E-02 0.  1.
    10030    2    1    2    0    0  0.00000000000E+00  0.00000000000E+00  0.10091956508E+04  0.13508679739E+04  0.89798018990E+03 0.  0.
        4    1    3    3  502    0  0.17378358098E+03 -0.25147202937E+03  0.98742805703E+01  0.30583987459E+03  0.12699999809E+01 0.  1.
       -4    1    3    3    0  502 -0.17378358098E+03  0.25147202937E+03  0.99932137021E+03  0.10450280994E+04  0.12699999809E+01 0. -1.
</event>
<event>
 5   0  0.2130975E-03  0.8994876E+03  0.7818609E-02  0.9426222E-01
        1   -1    0    0  501    0  0.00000000000E+00  0.00000000000E+00  0.90584232021E+03  0.90584232022E+03  0.50400001928E-02 0.  1.
       -1   -1    0    0    0  501  0.00000000000E+00  0.00000000000E+00 -0.22329436567E+03  0.22329436572E+03  0.50400001928E-02 0. -1.
    10030    2    1    2    0    0  0.00000000000E+00  0.00000000000E+00  0.68254795454E+03  0.11291366859E+04  0.89948760152E+03 0.  0.
        5    1    3    3  502    0 -0.42596767236E+03  0.14329340264E+03  0.36174513988E+03  0.57694288570E+03  0.46999998093E+01 0. -1.
       -5    1    3    3    0  502  0.42596767236E+03 -0.14329340264E+03  0.32080281466E+03  0.55219380024E+03  0.46999998093E+01 0.  1.
</event>
<event>
 5   0  0.2130975E-03  0.9005201E+03  0.7818609E-02  0.9424932E-01
       -1   -1    0    0    0  501  0.00000000000E+00  0.00000000000E+00  0.37568356545E+03  0.37568356549E+03  0.50400001928E-02 0.  1.
        1   -1    0    0  501    0  0.00000000000E+00  0.00000000000E+00 -0.53964060555E+03  0.53964060558E+03  0.50400001928E-02 0. -1.
    10030    2    1    2    0    0  0.00000000000E+00  0.00000000000E+00 -0.16395704010E+03  0.91532417106E+03  0.90052008702E+03 0.  0.
        5    1    3    3  502    0  0.39346994942E+03 -0.21613382113E+03 -0.47068787261E+02  0.45140889498E+03  0.46999998093E+01 0. -1.
       -5    1    3    3    0  502 -0.39346994942E+03  0.21613382113E+03 -0.11688825284E+03  0.46391527608E+03  0.46999998093E+01 0.  1.
</event>
<event>
 5   0  0.2074970E-03  0.9566980E+03  0.7818609E-02  0.9357356E-01
        1   -1    0    0  501    0  0.00000000000E+00  0.00000000000E+00  0.11028519758E+04  0.11028519758E+04  0.50400001928E-02 0.  1.
       -1   -1    0    0    0  501  0.00000000000E+00  0.00000000000E+00 -0.20747821225E+03  0.20747821231E+03  0.50400001928E-02 0. -1.
    10030    2    1    2    0    0  0.00000000000E+00  0.00000000000E+00  0.89537376357E+03  0.13103301881E+04  0.95669798027E+03 0.  0.
        2    1    3    3  502    0 -0.16853821876E+02  0.19933852838E+03  0.10428067079E+04  0.10618218919E+04  0.25500000920E-02 0.  1.
       -2    1    3    3    0  502  0.16853821876E+02 -0.19933852838E+03 -0.14743294430E+03  0.24850829620E+03  0.25500000920E-02 0. -1.
</event>
<event>
 5   0  0.3685879E-03  0.8973372E+03  0.7818609E-02  0.9428916E-01
       -2   -1    0    0    0  501  0.00000000000E+00  0.00000000000E+00  0.14805942781E+03  0.14805942783E+03  0.25500000920E-02 0.  1.
        2   -1    0    0  501    0  0.00000000000E+00  0.00000000000E+00 -0.13596129880E+04  0.13596129880E+04  0.25500000920E-02 0. -1.
    10030    2    1    2    0    0  0.00000000000E+00  0.00000000000E+00 -0.12115535602E+04  0.15076724159E+04  0.89733721882E+03 0.  0.
        1    1    3    3  502    0 -0.28970688806E+03  0.16596178190E+03 -0.10220392149E+03  0.34916906454E+03  0.50400001928E-02 0.  1.
       -1    1    3    3    0  502  0.28970688806E+03 -0.16596178190E+03 -0.11093496387E+04  0.11585033513E+04  0.50400001928E-02 0. -1.
</event>
<event>
 5   0  0.2074970E-03  0.9035882E+03  0.7818609E-02  0.9421107E-01
       -1   -1    0    0    0  501  0.00000000000E+00  0.00000000000E+00  0.19212500486E+03  0.19212500492E+03  0.50400001928E-02 0.  1.
        1   -1    0    0  501    0  0.00000000000E+00  0.00000000000E+00 -0.10624224861E+04  0.10624224862E+04  0.50400001928E-02 0. -1.
    10030    2    1    2    0    0  0.00000000000E+00  0.00000000000E+00 -0.87029748129E+03  0.12545474911E+04  0.90358823667E+03 0.  0.
        2    1    3    3  502    0  0.58618342149E+02 -0.25678709564E+03 -0.94479443484E+03  0.98082222988E+03  0.25500000920E-02 0. -1.
       -2    1    3    3    0  502 -0.58618342149E+02  0.25678709564E+03  0.74496953553E+02  0.27372526120E+03  0.25500000920E-02 0.  1.
</event>
<event>
 5   0  0.3685879E-03  0.9005342E+03  0.7818609E-02  0.9424914E-01
        2   -1    0    0  501    0  0.00000000000E+00  0.00000000000E+00  0.71351450691E+03  0.71351450691E+03  0.25500000920E-02 0. -1.
       -2   -1    0    0    0  501  0.00000000000E+00  0.00000000000E+00 -0.28414341135E+03  0.28414341136E+03  0.25500000920E-02 0.  1.
    10030    2    1    2    0    0  0.00000000000E+00  0.00000000000E+00  0.42937109556E+03  0.99765791828E+03  0.90053416603E+03 0.  0.
        1    1    3    3  502    0  0.25351687859E+03 -0.11887930875E+03 -0.17595944304E+03  0.33070352795E+03  0.50400001928E-02 0.  1.
       -1    1    3    3    0  502 -0.25351687859E+03  0.11887930875E+03  0.60533053860E+03  0.66695439032E+03  0.50400001928E-02 0. -1.
</event>
<event>
 5   0  0.3626546E-03  0.8985779E+03  0.7818609E-02  0.9427361E-01
        2   -1    0    0  501    0  0.00000000000E+00  0.00000000000E+00  0.73448149081E+03  0.73448149082E+03  0.25500000920E-02 0. -1.
       -2   -1    0    0    0  501  0.00000000000E+00  0.00000000000E+00 -0.27483407690E+03  0.27483407691E+03  0.25500000920E-02 0.  1.
    10030    2    1    2    0    0  0.00000000000E+00  0.00000000000E+00  0.45964741391E+03  0.10093155677E+04  0.89857785981E+03 0.  0.
        3    1    3    3  502    0 -0.41523300211E+03 -0.16947543400E+03  0.25996673182E+03  0.51838506983E+03  0.10100000352E+00 0.  1.
       -3    1    3    3    0  502  0.41523300211E+03  0.16947543400E+03  0.19968068210E+03  0.49093049790E+03  0.10100000352E+00 0. -1.
</event>
<event>
 5   0  0.3626546E-03  0.9010184E+03  0.7818609E-02  0.9424309E-01
        2   -1    0    0  501    0  0.00000000000E+00  0.00000000000E+00  0.88985782421E+03  0.88985782421E+03  0.25500000920E-02 0. -1.
       -2   -1    0    0    0  501  0.00000000000E+00  0.00000000000E+00 -0.22807976200E+03  0.22807976202E+03  0.25500000920E-02 0.  1.
    10030    2    1    2    0    0  0.00000000000E+00  0.00000000000E+00  0.66177806220E+03  0.11179375862E+04  0.90101844770E+03 0.  0.
        3    1    3    3  502    0 -0.54948082961E+02  0.23322160284E+02  0.88492935217E+03  0.88694034946E+03  0.10100000352E+00 0. -1.
       -3    1    3    3    0  502  0.54948082961E+02 -0.23322160284E+02 -0.22315128996E+03  0.23099723677E+03  0.10100000352E+00 0.  1.
</event>
<event>
 5   0  0.2134145E-03  0.8979939E+03  0.7818609E-02  0.9428093E-01
        1   -1    0    0  501    0  0.00000000000E+00  0.00000000000E+00  0.58352768429E+03  0.58352768431E+03  0.50400001928E-02 0. -1.
       -1   -1    0    0    0  501  0.00000000000E+00  0.00000000000E+00 -0.34548190442E+03  0.34548190446E+03  0.50400001928E-02 0.  1.
    10030    2    1    2    0    0  0.00000000000E+00  0.00000000000E+00  0.23804577986E+03  0.92900958877E+03  0.89799388791E+03 0.  0.
        1    1    3    3  502    0 -0.33838963393E+03 -0.28143222938E+03  0.27149013339E+02  0.44096339194E+03  0.50400001928E-02 0.  1.
       -1    1    3    3    0  502  0.33838963393E+03  0.28143222938E+03  0.21089676652E+03  0.48804619683E+03  0.50400001928E-02 0. -1.
</event>
<event>
 5   0  0.2130975E-03  0.8980016E+03  0.7818609E-02  0.9428083E-01
        1   -1    0    0  501    0  0.00000000000E+00  0.00000000000E+00  0.74064453549E+03  0.74064453551E+03  0.50400001928E-02 0.  1.
       -1   -1    0    0    0  501  0.00000000000E+00  0.00000000000E+00 -0.27219764756E+03  0.27219764760E+03  0.50400001928E-02 0. -1.
    10030    2    1    2    0    0  0.00000000000E+00  0.00000000000E+00  0.46844688794E+03  0.10128421831E+04  0.89800155962E+03 0.  0.
        5    1    3    3  502    0 -0.26315276159E+03  0.69284649827E+02 -0.16855910967E+03  0.32013122635E+03  0.46999998093E+01 0. -1.
       -5    1    3    3    0  502  0.26315276159E+03 -0.69284649827E+02  0.63700599760E+03  0.69271095676E+03  0.46999998093E+01 0.  1.
</event>
<event>
 5   0  0.3626546E-03  0.8980737E+03  0.7818609E-02  0.9427993E-01
       -2   -1    0    0    0  501  0.00000000000E+00  0.00000000000E+00  0.11262505388E+03  0.11262505391E+03  0.25500000920E-02 0.  1.
        2   -1    0    0  501    0  0.00000000000E+00  0.00000000000E+00 -0.17903130401E+04  0.17903130401E+04  0.25500000920E-02 0. -1.
    10030    2    1    2    0    0  0.00000000000E+00  0.00000000000E+00 -0.16776879862E+04  0.19029380940E+04  0.89807372224E+03 0.  0.
        3    1    3    3  502    0  0.33114668224E+03 -0.15571322418E+03 -0.28740032531E+03  0.46529957074E+03  0.10100000352E+00 0.  1.
       -3    1    3    3    0  502 -0.33114668224E+03  0.15571322418E+03 -0.13902876609E+04  0.14376385233E+04  0.10100000352E+00 0. -1.
</event>
<event>
 5   0  0.2130975E-03  0.8983667E+03  0.7818609E-02  0.9427625E-01
        1   -1    0    0  501    0  0.00000000000E+00  0.00000000000E+00  0.64960792434E+03  0.64960792436E+03  0.50400001928E-02 0.  1.
       -1   -1    0    0    0  501  0.00000000000E+00  0.00000000000E+00 -0.31059611006E+03  0.31059611010E+03  0.50400001928E-02 0. -1.
    10030    2    1    2    0    0  0.00000000000E+00  0.00000000000E+00  0.33901181428E+03  0.96020403446E+03  0.89836672777E+03 0.  0.
        5    1    3    3  502    0 -0.25915144990E+03 -0.69008890703E+02 -0.21560325735E+03  0.34413450214E+03  0.46999998093E+01 0. -1.
       -5    1    3    3    0  502  0.25915144990E+03  0.69008890703E+02  0.55461507163E+03  0.61606953232E+03  0.46999998093E+01 0.  1.
</event>
<event>
 5   0  0.3806019E-03  0.8989886E+03  0.7818609E-02  0.9426847E-01
       -2   -1    0    0    0  501  0.00000000000E+00  0.00000000000E+00  0.39807823579E+03  0.39807823580E+03  0.25500000920E-02 0.  1.
        2   -1    0    0  501    0  0.00000000000E+00  0.00000000000E+00 -0.50755130501E+03  0.50755130501E+03  0.25500000920E-02 0. -1.
    10030    2    1    2    0    0  0.00000000000E+00  0.00000000000E+00 -0.10947306922E+03  0.90562954081E+03  0.89898860521E+03 0.  0.
        2    1    3    3  502    0 -0.24817620981E+03  0.10676253209E+03  0.30716013185E+03  0.40906847346E+03  0.25500000920E-02 0.  1.
       -2    1    3    3    0  502  0.24817620981E+03 -0.10676253209E+03 -0.41663320106E+03  0.49656106735E+03  0.25500000920E-02 0. -1.
</event>
<event>
 5   0  0.2134145E-03  0.9002106E+03  0.7818609E-02  0.9425318E-01
        1   -1    0    0  501    0  0.00000000000E+00  0.00000000000E+00  0.56079724835E+03  0.56079724837E+03  0.50400001928E-02 0.  1.
       -1   -1    0    0    0  501  0.00000000000E+00  0.00000000000E+00 -0.36126211602E+03  0.36126211606E+03  0.50400001928E-02 0. -1.
    10030    2    1    2    0    0  0.00000000000E+00  0.00000000000E+00  0.19953513233E+03  0.92205936442E+03  0.90021064340E+03 0.  0.
        1    1    3    3  502    0 -0.70886901708E+02 -0.36981473655E+03  0.35234305434E+03  0.51568742487E+03  0.50400001928E-02 0.  1.
       -1    1    3    3    0  502  0.70886901708E+02  0.36981473655E+03 -0.15280792202E+03  0.40637193955E+03  0.50400001928E-02 0. -1.
</event>
<event>
 5   0  0.2134145E-03  0.8983939E+03  0.7818609E-02  0.9427591E-01
       -1   -1    0    0    0  501  0.00000000000E+00  0.00000000000E+00  0.38710852741E+03  0.38710852744E+03  0.50400001928E-02 0.  1.
        1   -1    0    0  501    0  0.00000000000E+00  0.00000000000E+00 -0.52124379286E+03  0.52124379288E+03  0.50400001928E-02 0. -1.
    10030    2    1    2    0    0  0.00000000000E+00  0.00000000000E+00 -0.13413526545E+03  0.90835232033E+03  0.89839393832E+03 0.  0.
        1    1    3    3  502    0  0.25624405201E+02  0.19799948476E+03  0.33978246674E+03  0.39409710838E+03  0.50400001928E-02 0.  1.
       -1    1    3    3    0  502 -0.25624405201E+02 -0.19799948476E+03 -0.47391773218E+03  0.51425521194E+03  0.50400001928E-02 0. -1.
</event>
<event>
 5   0  0.2074970E-03  0.9049781E+03  0.7818609E-02  0.9419380E-01
       -1   -1    0    0    0  501  0.00000000000E+00  0.00000000000E+00  0.56151538777E+03  0.56151538779E+03  0.50400001928E-02 0.  1.
        1   -1    0    0  501    0  0.00000000000E+00  0.00000000000E+00 -0.36463174798E+03  0.36463174801E+03  0.50400001928E-02 0. -1.
    10030    2    1    2    0    0  0.00000000000E+00  0.00000000000E+00  0.19688363979E+03  0.92614713581E+03  0.90497809341E+03 0.  0.
        2    1    3    3  502    0 -0.32895065274E+02  0.20606924906E+03  0.50933038821E+03  0.55042171568E+03  0.25500000920E-02 0.  1.
       -2    1    3    3    0  502  0.32895065274E+02 -0.20606924906E+03 -0.31244674842E+03  0.37572542013E+03  0.25500000920E-02 0. -1.
</event>
<event>
 5   0  0.3663255E-03  0.8884384E+03  0.7818609E-02  0.9440150E-01
        2   -1    0    0  501    0  0.00000000000E+00  0.00000000000E+00  0.19712698553E+04  0.19712698553E+04  0.25500000920E-02 0. -1.
       -2   -1    0    0    0  501  0.00000000000E+00  0.00000000000E+00 -0.10010334391E+03  0.10010334395E+03  0.25500000920E-02 0.  1.
    10030    2    1    2    0    0  0.00000000000E+00  0.00000000000E+00  0.18711665114E+04  0.20713731992E+04  0.88843841498E+03 0.  0.
        4    1    3    3  502    0  0.10772450089E+03 -0.80861952753E+02 -0.51338906233E+02  0.14415449937E+03  0.12699999809E+01 0.  1.
       -4    1    3    3    0  502 -0.10772450089E+03  0.80861952753E+02  0.19225054176E+04  0.19272186999E+04  0.12699999809E+01 0. -1.
</event>
<event>
 5   0  0.2129280E-03  0.8988205E+03  0.7818609E-02  0.9427057E-01
        1   -1    0    0  501    0  0.00000000000E+00  0.00000000000E+00  0.51087119243E+03  0.51087119245E+03  0.50400001928E-02 0. -1.
       -1   -1    0    0    0  501  0.00000000000E+00  0.00000000000E+00 -0.39534345858E+03  0.39534345862E+03  0.50400001928E-02 0.  1.
    10030    2    1    2    0    0  0.00000000000E+00  0.00000000000E+00  0.11552773384E+03  0.90621465107E+03  0.89882052520E+03 0.  0.
        3    1    3    3  502    0 -0.82596306733E+02  0.31877492647E+03 -0.25057870899E+03  0.41379862643E+03  0.10100000352E+00 0.  1.
       -3    1    3    3    0  502  0.82596306733E+02 -0.31877492647E+03  0.36610644283E+03  0.49241602464E+03  0.10100000352E+00 0. -1.
</event>
<event>
 5   0  0.2130975E-03  0.8892177E+03  0.7818609E-02  0.9439161E-01
       -1   -1    0    0    0  501  0.00000000000E+00  0.00000000000E+00  0.84885355898E+03  0.84885355899E+03  0.50400001928E-02 0.  1.
        1   -1    0    0  501    0  0.00000000000E+00  0.00000000000E+00 -0.23287531972E+03  0.23287531977E+03  0.50400001928E-02 0. -1.
    10030    2    1    2    0    0  0.00000000000E+00  0.00000000000E+00  0.61597823926E+03  0.10817288788E+04  0.88921773256E+03 0.  0.
        5    1    3    3  502    0 -0.20816407243E+03  0.29469793192E+03  0.62398712156E+03  0.72080591701E+03  0.46999998093E+01 0.  1.
       -5    1    3    3    0  502  0.20816407243E+03 -0.29469793192E+03 -0.80088822959E+01  0.36092296175E+03  0.46999998093E+01 0. -1.
</event>
<event>
 5   0  0.2074970E-03  0.9006278E+03  0.7818609E-02  0.9424797E-01
       -1   -1    0    0    0  501  0.00000000000E+00  0.00000000000E+00  0.94333194511E+03  0.94333194512E+03  0.50400001928E-02 0.  1.
        1   -1    0    0  501    0  0.00000000000E+00  0.00000000000E+00 -0.21496422492E+03  0.21496422498E+03  0.50400001928E-02 0. -1.
    10030    2    1    2    0    0  0.00000000000E+00  0.00000000000E+00  0.72836772019E+03  0.11582961701E+04  0.90062782650E+03 0.  0.
        2    1    3    3  502    0  0.91833932521E+01  0.41808598303E+03  0.57901390166E+03  0.71423898118E+03  0.25500000920E-02 0.  1.
       -2    1    3    3    0  502 -0.91833932521E+01 -0.41808598303E+03  0.14935381852E+03  0.44405718892E+03  0.25500000920E-02 0. -1.
</event>
<event>
 5   0  0.3806019E-03  0.9027737E+03  0.7818609E-02  0.9422121E-01
        2   -1    0    0  501    0  0.00000000000E+00  0.00000000000E+00  0.49443021475E+03  0.49443021476E+03  0.25500000920E-02 0. -1.
       -2   -1    0    0    0  501  0.00000000000E+00  0.00000000000E+00 -0.41209068503E+03  0.41209068503E+03  0.25500000920E-02 0.  1.
    10030    2    1    2    0    0  0.00000000000E+00  0.00000000000E+00  0.82339529724E+02  0.90652089979E+03  0.90277369457E+03 0.  0.
        2    1    3    3  502    0 -0.15105164810E+02 -0.40068914158E+03  0.24932256987E+03  0.47216702345E+03  0.25500000920E-02 0. -1.
       -2    1    3    3    0  502  0.15105164810E+02  0.40068914158E+03 -0.16698304015E+03  0.43435387633E+03  0.25500000920E-02 0.  1.
</event>
<event>
 5   0  0.1436000E-03  0.8963454E+03  0.7818609E-02  0.9430161E-01
       -3   -1    0    0    0  501  0.00000000000E+00  0.00000000000E+00  0.14832509352E+03  0.14832512790E+03  0.10100000352E+00 0. -1.
        3   -1    0    0  501    0  0.00000000000E+00  0.00000000000E+00 -0.13541791238E+04  0.13541791276E+04  0.10100000352E+00 0.  1.
    10030    2    1    2    0    0  0.00000000000E+00  0.00000000000E+00 -0.12058540303E+04  0.15025042555E+04  0.89634541076E+03 0.  0.
        1    1    3    3  502    0 -0.13028555677E+03 -0.57331302868E+01 -0.13216706195E+04  0.13280890112E+04  0.50400001928E-02 0.  1.
       -1    1    3    3    0  502  0.13028555677E+03  0.57331302868E+01  0.11581658922E+03  0.17441524431E+03  0.50400001928E-02 0. -1.
</event>
<event>
 5   0  0.3663255E-03  0.9058755E+03  0.7818609E-02  0.9418266E-01
       -2   -1    0    0    0  501  0.00000000000E+00  0.00000000000E+00  0.31013198413E+03  0.31013198414E+03  0.25500000920E-02 0. -1.
        2   -1    0    0  501    0  0.00000000000E+00  0.00000000000E+00 -0.66150101428E+03  0.66150101428E+03  0.25500000920E-02 0.  1.
    10030    2    1    2    0    0  0.00000000000E+00  0.00000000000E+00 -0.35136903015E+03  0.97163299842E+03  0.90587553685E+03 0.  0.
        4    1    3    3  502    0 -0.26551695605E+03  0.22081264275E+03 -0.49003486994E+03  0.59949417329E+03  0.12699999809E+01 0.  1.
       -4    1    3    3    0  502  0.26551695605E+03 -0.22081264275E+03  0.13866583979E+03  0.37213882513E+03  0.12699999809E+01 0. -1.
</event>
<event>
 5   0  0.3663255E-03  0.9042432E+03  0.7818609E-02  0.9420293E-01
        2   -1    0    0  501    0  0.00000000000E+00  0.00000000000E+00  0.52399704934E+03  0.52399704934E+03  0.25500000920E-02 0.  1.
       -2   -1    0    0    0  501  0.00000000000E+00  0.00000000000E+00 -0.39010517148E+03  0.39010517149E+03  0.25500000920E-02 0. -1.
    10030    2    1    2    0    0  0.00000000000E+00  0.00000000000E+00  0.13389187785E+03  0.91410222083E+03  0.90424323894E+03 0.  0.
        4    1    3    3  502    0  0.45031614932E+03  0.69376517102E+01  0.10712320505E+03  0.46293602075E+03  0.12699999809E+01 0. -1.
       -4    1    3    3    0  502 -0.45031614932E+03 -0.69376517102E+01  0.26768672805E+02  0.45116620008E+03  0.12699999809E+01 0.  1.
</event>
<event>
 5   0  0.2295158E-03  0.8999007E+03  0.7818609E-02  0.9425706E-01
        1   -1    0    0  501    0  0.00000000000E+00  0.00000000000E+00  0.83963433014E+03  0.83963433015E+03  0.50400001928E-02 0.  1.
       -1   -1    0    0    0  501  0.00000000000E+00  0.00000000000E+00 -0.24112318851E+03  0.24112318856E+03  0.50400001928E-02 0. -1.
    10030    2    1    2    0    0  0.00000000000E+00  0.00000000000E+00  0.59851114163E+03  0.10807575187E+04  0.89990067652E+03 0.  0.
        4    1    3    3  502    0 -0.15799546643E+03  0.38530915158E+03  0.50387276589E+03  0.65369341959E+03  0.12699999809E+01 0.  1.
       -4    1    3    3    0  502  0.15799546643E+03 -0.38530915158E+03  0.94638375736E+02  0.42706409913E+03  0.12699999809E+01 0. -1.
</event>
<event>
 5   0  0.3806019E-03  0.8950346E+03  0.7818609E-02  0.9431810E-01
        2   -1    0    0  501    0  0.00000000000E+00  0.00000000000E+00  0.50207901665E+03  0.50207901666E+03  0.25500000920E-02 0. -1.
       -2   -1    0    0    0  501  0.00000000000E+00  0.00000000000E+00 -0.39888487252E+03  0.39888487252E+03  0.25500000920E-02 0.  1.
    10030    2    1    2    0    0  0.00000000000E+00  0.00000000000E+00  0.10319414413E+03  0.90096388918E+03  0.89503457935E+03 0.  0.
        2    1    3    3  502    0 -0.30558341551E+03 -0.29191323677E+03  0.19980409753E+03  0.46745720556E+03  0.25500000920E-02 0. -1.
       -2    1    3    3    0  502  0.30558341551E+03  0.29191323677E+03 -0.96609953397E+02  0.43350668362E+03  0.25500000920E-02 0.  1.
</event>
<event>
 5   0  0.1436000E-03  0.8990542E+03  0.7818609E-02  0.9426764E-01
       -3   -1    0    0    0  501  0.00000000000E+00  0.00000000000E+00  0.83165562014E+03  0.83165562627E+03  0.10100000352E+00 0.  1.
        3   -1    0    0  501    0  0.00000000000E+00  0.00000000000E+00 -0.24297871052E+03  0.24297873151E+03  0.10100000352E+00 0. -1.
    10030    2    1    2    0    0  0.00000000000E+00  0.00000000000E+00  0.58867690962E+03  0.10746343578E+04  0.89905422473E+03 0.  0.
        5    1    3    3  502    0  0.43203590506E+03  0.57067503281E+02  0.16263453687E+03  0.46517072756E+03  0.46999998093E+01 0. -1.
       -5    1    3    3    0  502 -0.43203590506E+03 -0.57067503281E+02  0.42604237274E+03  0.60946363022E+03  0.46999998093E+01 0.  1.
</event>
<event>
 5   0  0.3663255E-03  0.8991124E+03  0.7818609E-02  0.9426692E-01
       -2   -1    0    0    0  501  0.00000000000E+00  0.00000000000E+00  0.19555021540E+03  0.19555021542E+03  0.25500000920E-02 0.  1.
        2   -1    0    0  501    0  0.00000000000E+00  0.00000000000E+00 -0.10334982034E+04  0.10334982034E+04  0.25500000920E-02 0. -1.
    10030    2    1    2    0    0  0.00000000000E+00  0.00000000000E+00 -0.83794798803E+03  0.12290484189E+04  0.89911244305E+03 0.  0.
        4    1    3    3  502    0  0.79463080709E+02  0.42618015665E+03 -0.25633893943E+03  0.50364190839E+03  0.12699999809E+01 0. -1.
       -4    1    3    3    0  502 -0.79463080709E+02 -0.42618015665E+03 -0.58160904859E+03  0.72540651046E+03  0.12699999809E+01 0.  1.
</event>
<event>
 5   0  0.3815269E-03  0.9008723E+03  0.7818609E-02  0.9424492E-01
       -2   -1    0    0    0  501  0.00000000000E+00  0.00000000000E+00  0.83820083040E+02  0.83820083078E+02  0.25500000920E-02 0.  1.
        2   -1    0    0  501    0  0.00000000000E+00  0.00000000000E+00 -0.24205741786E+04  0.24205741786E+04  0.25500000920E-02 0. -1.
    10030    2    1    2    0    0  0.00000000000E+00  0.00000000000E+00 -0.23367540955E+04  0.25043942617E+04  0.90087230772E+03 0.  0.
        5    1    3    3  502    0  0.42922355863E+03  0.10135196628E+03 -0.91411190577E+03  0.10149520928E+04  0.46999998093E+01 0.  1.
       -5    1    3    3    0  502 -0.42922355863E+03 -0.10135196628E+03 -0.14226421898E+04  0.14894421689E+04  0.46999998093E+01 0. -1.
</event>
<event>
 5   0  0.1436000E-03  0.8997866E+03  0.7818609E-02  0.9425848E-01
        4   -1    0    0  501    0  0.00000000000E+00  0.00000000000E+00  0.88783328260E+03  0.88783419093E+03  0.12699999809E+01 0. -1.
       -4   -1    0    0    0  501  0.00000000000E+00  0.00000000000E+00 -0.22797240318E+03  0.22797594064E+03  0.12699999809E+01 0.  1.
    10030    2    1    2    0    0  0.00000000000E+00  0.00000000000E+00  0.65986087941E+03  0.11158101316E+04  0.89978656888E+03 0.  0.
        1    1    3    3  502    0 -0.27646392121E+03 -0.49983358327E+02  0.76568042135E+03  0.81559618900E+03  0.50400001928E-02 0. -1.
       -1    1    3    3    0  502  0.27646392121E+03  0.49983358327E+02 -0.10581954194E+03  0.30021394258E+03  0.50400001928E-02 0.  1.
</event>
<event>
 5   0  0.3815269E-03  0.9024491E+03  0.7818609E-02  0.9422525E-01
       -2   -1    0    0    0  501  0.00000000000E+00  0.00000000000E+00  0.12621298190E+03  0.12621298193E+03  0.25500000920E-02 0.  1.
        2   -1    0    0  501    0  0.00000000000E+00  0.00000000000E+00 -0.16131747233E+04  0.16131747233E+04  0.25500000920E-02 0. -1.
    10030    2    1    2    0    0  0.00000000000E+00  0.00000000000E+00 -0.14869617414E+04  0.17393877053E+04  0.90244909481E+03 0.  0.
        5    1    3    3  502    0  0.37273048409E+03  0.89649173668E+02 -0.12020926923E+04  0.12617503394E+04  0.46999998093E+01 0. -1.
       -5    1    3    3    0  502 -0.37273048409E+03 -0.89649173668E+02 -0.28486904914E+03  0.47763736586E+03  0.46999998093E+01 0.  1.
</event>
<event>
 5   0  0.2130975E-03  0.9118136E+03  0.7818609E-02  0.9410933E-01
       -1   -1    0    0    0  501  0.00000000000E+00  0.00000000000E+00  0.25670426302E+03  0.25670426307E+03  0.50400001928E-02 0. -1.
        1   -1    0    0  501    0  0.00000000000E+00  0.00000000000E+00 -0.80969044751E+03  0.80969044752E+03  0.50400001928E-02 0.  1.
    10030    2    1    2    0    0  0.00000000000E+00  0.00000000000E+00 -0.55298618448E+03  0.10663947106E+04  0.91181355471E+03 0.  0.
        5    1    3    3  502    0 -0.19712027072E+03 -0.17713382629E+03  0.15733234199E+03  0.30823424434E+03  0.46999998093E+01 0. -1.
       -5    1    3    3    0  502  0.19712027072E+03  0.17713382629E+03 -0.71031852648E+03  0.75816046626E+03  0.46999998093E+01 0.  1.
</event>
<event>
 5   0  0.2074970E-03  0.9014642E+03  0.7818609E-02  0.9423753E-01
        1   -1    0    0  501    0  0.00000000000E+00  0.00000000000E+00  0.62015998521E+03  0.62015998524E+03  0.50400001928E-02 0. -1.
       -1   -1    0    0    0  501  0.00000000000E+00  0.00000000000E+00 -0.32759198725E+03  0.32759198729E+03  0.50400001928E-02 0.  1.
    10030    2    1    2    0    0  0.00000000000E+00  0.00000000000E+00  0.29256799797E+03  0.94775197252E+03  0.90146423555E+03 0.  0.
        2    1    3    3  502    0 -0.73147388801E+02 -0.37513865031E+03 -0.10489757452E+03  0.39633703914E+03  0.25500000920E-02 0.  1.
       -2    1    3    3    0  502  0.73147388801E+02  0.37513865031E+03  0.39746557248E+03  0.55141493339E+03  0.25500000920E-02 0. -1.
</event>
<event>
 5   0  0.3685879E-03  0.9001664E+03  0.7818609E-02  0.9425373E-01
        2   -1    0    0  501    0  0.00000000000E+00  0.00000000000E+00  0.86779271526E+03  0.86779271526E+03  0.25500000920E-02 0. -1.
       -2   -1    0    0    0  501  0.00000000000E+00  0.00000000000E+00 -0.23343694841E+03  0.23343694842E+03  0.25500000920E-02 0.  1.
    10030    2    1    2    0    0  0.00000000000E+00  0.00000000000E+00  0.63435576685E+03  0.11012296637E+04  0.90016639197E+03 0.  0.
        1    1    3    3  502    0  0.13348659884E+03 -0.42128173695E+03  0.21281203037E+03  0.49049560065E+03  0.50400001928E-02 0.  1.
       -1    1    3    3    0  502 -0.13348659884E+03  0.42128173695E+03  0.42154373648E+03  0.61073406304E+03  0.50400001928E-02 0. -1.
</event>
<event>
 5   0  0.2295158E-03  0.8995954E+03  0.7818609E-02  0.9426087E-01
       -1   -1    0    0    0  501  0.00000000000E+00  0.00000000000E+00  0.21073352428E+03  0.21073352434E+03  0.50400001928E-02 0.  1.
        1   -1    0    0  501    0  0.00000000000E+00  0.00000000000E+00 -0.96006541870E+03  0.96006541871E+03  0.50400001928E-02 0. -1.
    10030    2    1    2    0    0  0.00000000000E+00  0.00000000000E+00 -0.74933189441E+03  0.11707989431E+04  0.89959539631E+03 0.  0.
        4    1    3    3  502    0  0.29402507296E+03  0.18974122774E+03 -0.68671552940E+01  0.35000178250E+03  0.12699999809E+01 0.  1.
       -4    1    3    3    0  502 -0.29402507296E+03 -0.18974122774E+03 -0.74246473912E+03  0.82079716055E+03  0.12699999809E+01 0. -1.
</event>
<event>
 5   0  0.3626546E-03  0.9158629E+03  0.7818609E-02  0.9405966E-01
        2   -1    0    0  501    0  0.00000000000E+00  0.00000000000E+00  0.25536528202E+03  0.25536528203E+03  0.25500000920E-02 0. -1.
       -2   -1    0    0    0  501  0.00000000000E+00  0.00000000000E+00 -0.82118138682E+03  0.82118138682E+03  0.25500000920E-02 0.  1.
    10030    2    1    2    0    0  0.00000000000E+00  0.00000000000E+00 -0.56581610479E+03  0.10765466689E+04  0.91586290774E+03 0.  0.
        3    1    3    3  502    0  0.41264799301E+03 -0.11243950311E+03 -0.47526562358E+03  0.63937346766E+03  0.10100000352E+00 0. -1.
       -3    1    3    3    0  502 -0.41264799301E+03  0.11243950311E+03 -0.90550481216E+02  0.43717320119E+03  0.10100000352E+00 0.  1.
</event>
<event>
 5   0  0.2130975E-03  0.8920181E+03  0.7818609E-02  0.9435615E-01
        1   -1    0    0  501    0  0.00000000000E+00  0.00000000000E+00  0.59188846087E+03  0.59188846089E+03  0.50400001928E-02 0. -1.
       -1   -1    0    0    0  501  0.00000000000E+00  0.00000000000E+00 -0.33608372441E+03  0.33608372445E+03  0.50400001928E-02 0.  1.
    10030    2    1    2    0    0  0.00000000000E+00  0.00000000000E+00  0.25580473646E+03  0.92797218534E+03  0.89201811280E+03 0.  0.
        5    1    3    3  502    0  0.13920943346E+03 -0.51197367606E+02  0.56545178278E+03  0.58460092838E+03  0.46999998093E+01 0. -1.
       -5    1    3    3    0  502 -0.13920943346E+03  0.51197367606E+02 -0.30964704632E+03  0.34337125696E+03  0.46999998093E+01 0.  1.
</event>
<event>
 5   0  0.2129280E-03  0.9004145E+03  0.7818609E-02  0.9425063E-01
       -1   -1    0    0    0  501  0.00000000000E+00  0.00000000000E+00  0.22577133341E+03  0.22577133347E+03  0.50400001928E-02 0. -1.
        1   -1    0    0  501    0  0.00000000000E+00  0.00000000000E+00 -0.89775159449E+03  0.89775159450E+03  0.50400001928E-02 0.  1.
    10030    2    1    2    0    0  0.00000000000E+00  0.00000000000E+00 -0.67198026108E+03  0.11235229280E+04  0.90041451476E+03 0.  0.
        3    1    3    3  502    0  0.17924968602E+03  0.45439152570E+02  0.17619659554E+03  0.25542203704E+03  0.10100000352E+00 0. -1.
       -3    1    3    3    0  502 -0.17924968602E+03 -0.45439152570E+02 -0.84817685662E+03  0.86810089093E+03  0.10100000352E+00 0.  1.
</event>
<event>
 5   0  0.2130975E-03  0.8934578E+03  0.7818609E-02  0.9433797E-01
       -1   -1    0    0    0  501  0.00000000000E+00  0.00000000000E+00  0.12994806238E+03  0.12994806248E+03  0.50400001928E-02 0. -1.
        1   -1    0    0  501    0  0.00000000000E+00  0.00000000000E+00 -0.15357422193E+04  0.15357422193E+04  0.50400001928E-02 0.  1.
    10030    2    1    2    0    0  0.00000000000E+00  0.00000000000E+00 -0.14057941569E+04  0.16656902818E+04  0.89345783516E+03 0.  0.
        5    1    3    3  502    0 -0.30826223986E+03 -0.29153115595E+03 -0.96342596475E+03  0.10527239443E+04  0.46999998093E+01 0.  1.
       -5    1    3    3    0  502  0.30826223986E+03  0.29153115595E+03 -0.44236819215E+03  0.61296633744E+03  0.46999998093E+01 0. -1.
</event>
<event>
 5   0  0.3806019E-03  0.8973988E+03  0.7818609E-02  0.9428839E-01
       -2   -1    0    0    0  501  0.00000000000E+00  0.00000000000E+00  0.14832685582E+04  0.14832685582E+04  0.25500000920E-02 0. -1.
        2   -1    0    0  501    0  0.00000000000E+00  0.00000000000E+00 -0.13573478510E+03  0.13573478513E+03  0.25500000920E-02 0.  1.
    10030    2    1    2    0    0  0.00000000000E+00  0.00000000000E+00  0.13475337731E+04  0.16190033433E+04  0.89739877205E+03 0.  0.
        2    1    3    3  502    0  0.31938494087E+03  0.14155886824E+03  0.16577225900E+03  0.38668604254E+03  0.25500000920E-02 0.  1.
       -2    1    3    3    0  502 -0.31938494087E+03 -0.14155886824E+03  0.11817615141E+04  0.12323173008E+04  0.25500000920E-02 0. -1.
</event>
<event>
 5   0  0.3815269E-03  0.9034788E+03  0.7818609E-02  0.9421243E-01
       -2   -1    0    0    0  501  0.00000000000E+00  0.00000000000E+00  0.23915629464E+03  0.23915629466E+03  0.25500000920E-02 0.  1.
        2   -1    0    0  501    0  0.00000000000E+00  0.00000000000E+00 -0.85328502608E+03  0.85328502609E+03  0.25500000920E-02 0. -1.
    10030    2    1    2    0    0  0.00000000000E+00  0.00000000000E+00 -0.61412873144E+03  0.10924413207E+04  0.90347879914E+03 0.  0.
        5    1    3    3  502    0  0.20987908063E+03 -0.12513763293E+03  0.15231353880E+03  0.28797597080E+03  0.46999998093E+01 0.  1.
       -5    1    3    3    0  502 -0.20987908063E+03  0.12513763293E+03 -0.76644227023E+03  0.80446534994E+03  0.46999998093E+01 0. -1.
</event>
<event>
 5   0  0.2295158E-03  0.9070774E+03  0.7818609E-02  0.9416777E-01
        1   -1    0    0  501    0  0.00000000000E+00  0.00000000000E+00  0.87675710917E+03  0.87675710918E+03  0.50400001928E-02 0.  1.
       -1   -1    0    0    0  501  0.00000000000E+00  0.00000000000E+00 -0.23461155288E+03  0.23461155293E+03  0.50400001928E-02 0. -1.
    10030    2    1    2    0    0  0.00000000000E+00  0.00000000000E+00  0.64214555629E+03  0.11113686621E+04  0.90707738791E+03 0.  0.
        4    1    3    3  502    0  0.30695721045E+03 -0.12673174764E+03 -0.57383281076E+02  0.33701352904E+03  0.12699999809E+01 0. -1.
       -4    1    3    3    0  502 -0.30695721045E+03  0.12673174764E+03  0.69952883737E+03  0.77435513307E+03  0.12699999809E+01 0.  1.
</event>
<event>
 5   0  0.3663255E-03  0.9005963E+03  0.7818609E-02  0.9424836E-01
       -2   -1    0    0    0  501  0.00000000000E+00  0.00000000000E+00  0.33893659371E+03  0.33893659372E+03  0.25500000920E-02 0.  1.
        2   -1    0    0  501    0  0.00000000000E+00  0.00000000000E+00 -0.59824889670E+03  0.59824889671E+03  0.25500000920E-02 0. -1.
    10030    2    1    2    0    0  0.00000000000E+00  0.00000000000E+00 -0.25931230299E+03  0.93718549043E+03  0.90059634298E+03 0.  0.
        4    1    3    3  502    0 -0.12787948744E+03  0.15086636098E+03  0.29131988356E+03  0.35211178572E+03  0.12699999809E+01 0.  1.
       -4    1    3    3    0  502  0.12787948744E+03 -0.15086636098E+03 -0.55063218655E+03  0.58507370471E+03  0.12699999809E+01 0. -1.
</event>
<event>
 5   0  0.2130975E-03  0.8996887E+03  0.7818609E-02  0.9425971E-01
       -1   -1    0    0    0  501  0.00000000000E+00  0.00000000000E+00  0.26487354184E+03  0.26487354188E+03  0.50400001928E-02 0.  1.
        1   -1    0    0  501    0  0.00000000000E+00  0.00000000000E+00 -0.76398695440E+03  0.76398695442E+03  0.50400001928E-02 0. -1.
    10030    2    1    2    0    0  0.00000000000E+00  0.00000000000E+00 -0.49911341257E+03  0.10288604963E+04  0.89968868074E+03 0.  0.
        5    1    3    3  502    0  0.17544822397E+01  0.10023664946E+03  0.25190713494E+03  0.27116371205E+03  0.46999998093E+01 0.  1.
       -5    1    3    3    0  502 -0.17544822397E+01 -0.10023664946E+03 -0.75102054750E+03  0.75769678425E+03  0.46999998093E+01 0. -1.
</event>
<event>
 5   0  0.3806019E-03  0.8997015E+03  0.7818609E-02  0.9425955E-01
        2   -1    0    0  501    0  0.00000000000E+00  0.00000000000E+00  0.32163575443E+03  0.32163575444E+03  0.25500000920E-02 0.  1.
       -2   -1    0    0    0  501  0.00000000000E+00  0.00000000000E+00 -0.62917665133E+03  0.62917665133E+03  0.25500000920E-02 0. -1.
    10030    2    1    2    0    0  0.00000000000E+00  0.00000000000E+00 -0.30754089690E+03  0.95081240577E+03  0.89970152145E+03 0.  0.
        2    1    3    3  502    0  0.20967295110E+03  0.25921855763E+03 -0.47293490257E+03  0.57864015512E+03  0.25500000920E-02 0. -1.
       -2    1    3    3    0  502 -0.20967295110E+03 -0.25921855763E+03  0.16539400567E+03  0.37217225065E+03  0.25500000920E-02 0.  1.
</event>
<event>
 5   0  0.3626546E-03  0.8967811E+03  0.7818609E-02  0.9429614E-01
       -2   -1    0    0    0  501  0.00000000000E+00  0.00000000000E+00  0.47641741965E+03  0.47641741966E+03  0.25500000920E-02 0.  1.
        2   -1    0    0  501    0  0.00000000000E+00  0.00000000000E+00 -0.42201241960E+03  0.42201241960E+03  0.25500000920E-02 0. -1.
    10030    2    1    2    0    0  0.00000000000E+00  0.00000000000E+00  0.54405000054E+02  0.89842983926E+03  0.89678106138E+03 0.  0.
        3    1    3    3  502    0  0.25810654229E+03  0.36588239043E+03  0.33859716468E+01  0.44777269435E+03  0.10100000352E+00 0. -1.
       -3    1    3    3    0  502 -0.25810654229E+03 -0.36588239043E+03  0.51019028407E+02  0.45065714491E+03  0.10100000352E+00 0.  1.
</event>
<event>
 5   0  0.2074970E-03  0.8953241E+03  0.7818609E-02  0.9431445E-01
       -1   -1    0    0    0  501  0.00000000000E+00  0.00000000000E+00  0.22360424589E+03  0.22360424594E+03  0.50400001928E-02 0. -1.
        1   -1    0    0  501    0  0.00000000000E+00  0.00000000000E+00 -0.89623209541E+03  0.89623209543E+03  0.50400001928E-02 0.  1.
    10030    2    1    2    0    0  0.00000000000E+00  0.00000000000E+00 -0.67262784953E+03  0.11198363414E+04  0.89532407959E+03 0.  0.
        2    1    3    3  502    0 -0.13096561194E+03 -0.36054158578E+03 -0.62496361994E+03  0.73329513351E+03  0.25500000920E-02 0.  1.
       -2    1    3    3    0  502  0.13096561194E+03  0.36054158578E+03 -0.47664229589E+02  0.38654120786E+03  0.25500000920E-02 0. -1.
</event>
<event>
 5   0  0.2130975E-03  0.9021609E+03  0.7818609E-02  0.9422884E-01
       -1   -1    0    0    0  501  0.00000000000E+00  0.00000000000E+00  0.22285798756E+03  0.22285798761E+03  0.50400001928E-02 0.  1.
        1   -1    0    0  501    0  0.00000000000E+00  0.00000000000E+00 -0.91301896373E+03  0.91301896375E+03  0.50400001928E-02 0. -1.
    10030    2    1    2    0    0  0.00000000000E+00  0.00000000000E+00 -0.69016097618E+03  0.11358769514E+04  0.90216089230E+03 0.  0.
        5    1    3    3  502    0 -0.55961566470E+01  0.15869357120E+03  0.18647135455E+03  0.24496657440E+03  0.46999998093E+01 0.  1.
       -5    1    3    3    0  502  0.55961566470E+01 -0.15869357120E+03 -0.87663233072E+03  0.89091037696E+03  0.46999998093E+01 0. -1.
</event>
<event>
 5   0  0.3626546E-03  0.8976990E+03  0.7818609E-02  0.9428462E-01
        2   -1    0    0  501    0  0.00000000000E+00  0.00000000000E+00  0.19412722316E+04  0.19412722316E+04  0.25500000920E-02 0. -1.
       -2   -1    0    0    0  501  0.00000000000E+00  0.00000000000E+00 -0.10378032321E+03  0.10378032324E+03  0.25500000920E-02 0.  1.
    10030    2    1    2    0    0  0.00000000000E+00  0.00000000000E+00  0.18374919084E+04  0.20450525549E+04  0.89769896885E+03 0.  0.
        3    1    3    3  502    0  0.37216691715E+03 -0.15215515625E+02  0.34819035634E+03  0.50987867242E+03  0.10100000352E+00 0.  1.
       -3    1    3    3    0  502 -0.37216691715E+03  0.15215515625E+02  0.14893015521E+04  0.15351738824E+04  0.10100000352E+00 0. -1.
</event>
<event>
 5   0  0.3626546E-03  0.9043691E+03  0.7818609E-02  0.9420136E-01
        2   -1    0    0  501    0  0.00000000000E+00  0.00000000000E+00  0.11196776401E+04  0.11196776401E+04  0.25500000920E-02 0. -1.
       -2   -1    0    0    0  501  0.00000000000E+00  0.00000000000E+00 -0.18261584100E+03  0.18261584101E+03  0.25500000920E-02 0.  1.
    10030    2    1    2    0    0  0.00000000000E+00  0.00000000000E+00  0.93706179909E+03  0.13022934811E+04  0.90436911469E+03 0.  0.
        3    1    3    3  502    0  0.37806917133E+03  0.24732514340E+03  0.49603602759E+03  0.67093798204E+03  0.10100000352E+00 0.  1.
       -3    1    3    3    0  502 -0.37806917133E+03 -0.24732514340E+03  0.44102577150E+03  0.63135549906E+03  0.10100000352E+00 0. -1.
</event>
<event>
 5   0  0.3806019E-03  0.9028486E+03  0.7818609E-02  0.9422028E-01
        2   -1    0    0  501    0  0.00000000000E+00  0.00000000000E+00  0.53519120967E+03  0.53519120967E+03  0.25500000920E-02 0.  1.
       -2   -1    0    0    0  501  0.00000000000E+00  0.00000000000E+00 -0.38076836207E+03  0.38076836207E+03  0.25500000920E-02 0. -1.
    10030    2    1    2    0    0  0.00000000000E+00  0.00000000000E+00  0.15442284760E+03  0.91595957175E+03  0.90284855940E+03 0.  0.
        2    1    3    3  502    0 -0.23043942513E+03  0.23721859237E+03 -0.23451085627E+03  0.40542611032E+03  0.25500000920E-02 0. -1.
       -2    1    3    3    0  502  0.23043942513E+03 -0.23721859237E+03  0.38893370387E+03  0.51053346142E+03  0.25500000920E-02 0.  1.
</event>
<event>
 5   0  0.2134145E-03  0.8995620E+03  0.7818609E-02  0.9426129E-01
        1   -1    0    0  501    0  0.00000000000E+00  0.00000000000E+00  0.48071195634E+03  0.48071195636E+03  0.50400001928E-02 0.  1.
       -1   -1    0    0    0  501  0.00000000000E+00  0.00000000000E+00 -0.42084023843E+03  0.42084023846E+03  0.50400001928E-02 0. -1.
    10030    2    1    2    0    0  0.00000000000E+00  0.00000000000E+00  0.59871717902E+02  0.90155219483E+03  0.89956196973E+03 0.  0.
        1    1    3    3  502    0 -0.20825940911E+02 -0.40087213548E+03  0.23329053057E+03  0.46428079920E+03  0.50400001928E-02 0.  1.
       -1    1    3    3    0  502  0.20825940911E+02  0.40087213548E+03 -0.17341881267E+03  0.43727139563E+03  0.50400001928E-02 0. -1.
</event>
<event>
 5   0  0.3663255E-03  0.8991237E+03  0.7818609E-02  0.9426678E-01
       -2   -1    0    0    0  501  0.00000000000E+00  0.00000000000E+00  0.12734944372E+03  0.12734944374E+03  0.25500000920E-02 0.  1.
        2   -1    0    0  501    0  0.00000000000E+00  0.00000000000E+00 -0.15870179882E+04  0.15870179882E+04  0.25500000920E-02 0. -1.
    10030    2    1    2    0    0  0.00000000000E+00  0.00000000000E+00 -0.14596685445E+04  0.17143674320E+04  0.89912370227E+03 0.  0.
        4    1    3    3  502    0 -0.35043791818E+03  0.25250636187E+02 -0.12645970868E+04  0.13124982796E+04  0.12699999809E+01 0. -1.
       -4    1    3    3    0  502  0.35043791818E+03 -0.25250636187E+02 -0.19507145773E+03  0.40186915239E+03  0.12699999809E+01 0.  1.
</event>
<event>
 5   0  0.3626546E-03  0.9011931E+03  0.7818609E-02  0.9424091E-01
        2   -1    0    0  501    0  0.00000000000E+00  0.00000000000E+00  0.96454997022E+03  0.96454997022E+03  0.25500000920E-02 0. -1.
       -2   -1    0    0    0  501  0.00000000000E+00  0.00000000000E+00 -0.21049947426E+03  0.21049947428E+03  0.25500000920E-02 0.  1.
    10030    2    1    2    0    0  0.00000000000E+00  0.00000000000E+00  0.75405049596E+03  0.11750494445E+04  0.90119312390E+03 0.  0.
        3    1    3    3  502    0  0.20964679071E+03 -0.27409611766E+03  0.75482893529E+03  0.82996818634E+03  0.10100000352E+00 0. -1.
       -3    1    3    3    0  502 -0.20964679071E+03  0.27409611766E+03 -0.77843933607E+00  0.34508125817E+03  0.10100000352E+00 0.  1.
</event>
<event>
 5   0  0.2074970E-03  0.8999235E+03  0.7818609E-02  0.9425677E-01
        1   -1    0    0  501    0  0.00000000000E+00  0.00000000000E+00  0.79488029736E+03  0.79488029737E+03  0.50400001928E-02 0.  1.
       -1   -1    0    0    0  501  0.00000000000E+00  0.00000000000E+00 -0.25471203909E+03  0.25471203914E+03  0.50400001928E-02 0. -1.
    10030    2    1    2    0    0  0.00000000000E+00  0.00000000000E+00  0.54016825827E+03  0.10495923365E+04  0.89992351099E+03 0.  0.
        2    1    3    3  502    0 -0.33533638315E+02 -0.42460975920E+03  0.10087778513E+03  0.43771483873E+03  0.25500000920E-02 0. -1.
       -2    1    3    3    0  502  0.33533638315E+02  0.42460975920E+03  0.43929047313E+03  0.61187749779E+03  0.25500000920E-02 0.  1.
</event>
<event>
 5   0  0.2134145E-03  0.9014256E+03  0.7818609E-02  0.9423801E-01
       -1   -1    0    0    0  501  0.00000000000E+00  0.00000000000E+00  0.61298617260E+03  0.61298617262E+03  0.50400001928E-02 0. -1.
        1   -1    0    0  501    0  0.00000000000E+00  0.00000000000E+00 -0.33139737861E+03  0.33139737865E+03  0.50400001928E-02 0.  1.
    10030    2    1    2    0    0  0.00000000000E+00  0.00000000000E+00  0.28158879399E+03  0.94438355127E+03  0.90142556155E+03 0.  0.
        1    1    3    3  502    0  0.19389309516E+03  0.22246471624E+03  0.49770058780E+03  0.57861123169E+03  0.50400001928E-02 0. -1.
       -1    1    3    3    0  502 -0.19389309516E+03 -0.22246471624E+03 -0.21611179380E+03  0.36577231958E+03  0.50400001928E-02 0.  1.
</event>
<event>
 5   0  0.3685879E-03  0.8994961E+03  0.7818609E-02  0.9426212E-01
       -2   -1    0    0    0  501  0.00000000000E+00  0.00000000000E+00  0.14763276596E+03  0.14763276598E+03  0.25500000920E-02 0. -1.
        2   -1    0    0  501    0  0.00000000000E+00  0.00000000000E+00 -0.13701111882E+04  0.13701111883E+04  0.25500000920E-02 0.  1.
    10030    2    1    2    0    0  0.00000000000E+00  0.00000000000E+00 -0.12224784223E+04  0.15177439542E+04  0.89949609096E+03 0.  0.
        1    1    3    3  502    0  0.15050146213E+03 -0.18319917888E+03 -0.12560998707E+04  0.12782799046E+04  0.50400001928E-02 0.  1.
       -1    1    3    3    0  502 -0.15050146213E+03  0.18319917888E+03  0.33621448434E+02  0.23946404963E+03  0.50400001928E-02 0. -1.
</event>
<event>
 5   0  0.2130975E-03  0.8989359E+03  0.7818609E-02  0.9426913E-01
       -1   -1    0    0    0  501  0.00000000000E+00  0.00000000000E+00  0.31922364759E+03  0.31922364763E+03  0.50400001928E-02 0. -1.
        1   -1    0    0  501    0  0.00000000000E+00  0.00000000000E+00 -0.63285234120E+03  0.63285234122E+03  0.50400001928E-02 0.  1.
    10030    2    1    2    0    0  0.00000000000E+00  0.00000000000E+00 -0.31362869362E+03  0.95207598885E+03  0.89893588819E+03 0.  0.
        5    1    3    3  502    0 -0.37086368338E+03 -0.22989816596E+03 -0.42713236155E+02  0.43845130734E+03  0.46999998093E+01 0. -1.
       -5    1    3    3    0  502  0.37086368338E+03  0.22989816596E+03 -0.27091545746E+03  0.51362468151E+03  0.46999998093E+01 0.  1.
</event>
<event>
 5   0  0.2295158E-03  0.8994702E+03  0.7818609E-02  0.9426244E-01
       -1   -1    0    0    0  501  0.00000000000E+00  0.00000000000E+00  0.42355044144E+03  0.42355044147E+03  0.50400001928E-02 0. -1.
        1   -1    0    0  501    0  0.00000000000E+00  0.00000000000E+00 -0.47753853582E+03  0.47753853585E+03  0.50400001928E-02 0.  1.
    10030    2    1    2    0    0  0.00000000000E+00  0.00000000000E+00 -0.53988094383E+02  0.90108897732E+03  0.89947019446E+03 0.  0.
        4    1    3    3  502    0 -0.10497602063E+03  0.42578024064E+03 -0.12692961400E+03  0.45653205587E+03  0.12699999809E+01 0. -1.
       -4    1    3    3    0  502  0.10497602063E+03 -0.42578024064E+03  0.72941519615E+02  0.44455692145E+03  0.12699999809E+01 0.  1.
</event>
<event>
 5   0  0.3626546E-03  0.8958224E+03  0.7818609E-02  0.9430819E-01
        2   -1    0    0  501    0  0.00000000000E+00  0.00000000000E+00  0.16194104417E+04  0.16194104417E+04  0.25500000920E-02 0. -1.
       -2   -1    0    0    0  501  0.00000000000E+00  0.00000000000E+00 -0.12388732750E+03  0.12388732753E+03  0.25500000920E-02 0.  1.
    10030    2    1    2    0    0  0.00000000000E+00  0.00000000000E+00  0.14955231142E+04  0.17432977692E+04  0.89582237474E+03 0.  0.
        3    1    3    3  502    0 -0.73839000271E+02  0.35672654231E+03  0.12549196785E+04  0.13067246970E+04  0.10100000352E+00 0. -1.
       -3    1    3    3    0  502  0.73839000271E+02 -0.35672654231E+03  0.24060343566E+03  0.43657307223E+03  0.10100000352E+00 0.  1.
</event>
<event>
 5   0  0.2295158E-03  0.9008835E+03  0.7818609E-02  0.9424478E-01
        1   -1    0    0  501    0  0.00000000000E+00  0.00000000000E+00  0.12659065878E+04  0.12659065879E+04  0.50400001928E-02 0.  1.
       -1   -1    0    0    0  501  0.00000000000E+00  0.00000000000E+00 -0.16027864262E+03  0.16027864270E+03  0.50400001928E-02 0. -1.
    10030    2    1    2    0    0  0.00000000000E+00  0.00000000000E+00  0.11056279452E+04  0.14261852306E+04  0.90088354330E+03 0.  0.
        4    1    3    3  502    0 -0.23978218950E+03  0.35286193389E+03  0.78162001985E+03  0.89047094906E+03  0.12699999809E+01 0.  1.
       -4    1    3    3    0  502  0.23978218950E+03 -0.35286193389E+03  0.32400792538E+03  0.53571428150E+03  0.12699999809E+01 0. -1.
</event>
<event>
 5   0  0.2134145E-03  0.8952292E+03  0.7818609E-02  0.9431565E-01
       -1   -1    0    0    0  501  0.00000000000E+00  0.00000000000E+00  0.23551443992E+03  0.23551443998E+03  0.50400001928E-02 0.  1.
        1   -1    0    0  501    0  0.00000000000E+00  0.00000000000E+00 -0.85072851513E+03  0.85072851514E+03  0.50400001928E-02 0. -1.
    10030    2    1    2    0    0  0.00000000000E+00  0.00000000000E+00 -0.61521407520E+03  0.10862429551E+04  0.89522924395E+03 0.  0.
        1    1    3    3  502    0 -0.27293191687E+03 -0.31828396684E+03 -0.11744337334E+03  0.43541871890E+03  0.50400001928E-02 0.  1.
       -1    1    3    3    0  502  0.27293191687E+03  0.31828396684E+03 -0.49777070187E+03  0.65082423623E+03  0.50400001928E-02 0. -1.
</event>
<event>
 5   0  0.2074970E-03  0.9034322E+03  0.7818609E-02  0.9421301E-01
        1   -1    0    0  501    0  0.00000000000E+00  0.00000000000E+00  0.11685921430E+04  0.11685921430E+04  0.50400001928E-02 0. -1.
       -1   -1    0    0    0  501  0.00000000000E+00  0.00000000000E+00 -0.17460961733E+03  0.17460961741E+03  0.50400001928E-02 0.  1.
    10030    2    1    2    0    0  0.00000000000E+00  0.00000000000E+00  0.99398252563E+03  0.13432017604E+04  0.90343218220E+03 0.  0.
        2    1    3    3  502    0 -0.45128257944E+03  0.15853430726E+02  0.51459115419E+03  0.68462497306E+03  0.25500000920E-02 0.  1.
       -2    1    3    3    0  502  0.45128257944E+03 -0.15853430726E+02  0.47939137145E+03  0.65857678732E+03  0.25500000920E-02 0. -1.
</event>
<event>
 5   0  0.3685879E-03  0.8979019E+03  0.7818609E-02  0.9428208E-01
       -2   -1    0    0    0  501  0.00000000000E+00  0.00000000000E+00  0.27864260528E+03  0.27864260530E+03  0.25500000920E-02 0.  1.
        2   -1    0    0  501    0  0.00000000000E+00  0.00000000000E+00 -0.72335302651E+03  0.72335302651E+03  0.25500000920E-02 0. -1.
    10030    2    1    2    0    0  0.00000000000E+00  0.00000000000E+00 -0.44471042122E+03  0.10019956318E+04  0.89790193641E+03 0.  0.
        1    1    3    3  502    0  0.24481952472E+03  0.16036446212E+03  0.15755888250E+03  0.33238255351E+03  0.50400001928E-02 0.  1.
       -1    1    3    3    0  502 -0.24481952472E+03 -0.16036446212E+03 -0.60226930372E+03  0.66961307830E+03  0.50400001928E-02 0. -1.
</event>
<event>
 5   0  0.2130975E-03  0.8976480E+03  0.7818609E-02  0.9428526E-01
       -1   -1    0    0    0  501  0.00000000000E+00  0.00000000000E+00  0.17920068720E+03  0.17920068727E+03  0.50400001928E-02 0.  1.
        1   -1    0    0  501    0  0.00000000000E+00  0.00000000000E+00 -0.11241194834E+04  0.11241194834E+04  0.50400001928E-02 0. -1.
    10030    2    1    2    0    0  0.00000000000E+00  0.00000000000E+00 -0.94491879616E+03  0.13033201707E+04  0.89764800221E+03 0.  0.
        5    1    3    3  502    0 -0.30041624532E+03 -0.10809683353E+03 -0.14500883777E+02  0.31963606101E+03  0.46999998093E+01 0.  1.
       -5    1    3    3    0  502  0.30041624532E+03  0.10809683353E+03 -0.93041791239E+03  0.98368410964E+03  0.46999998093E+01 0. -1.
</event>
<event>
 5   0  0.3626546E-03  0.9010535E+03  0.7818609E-02  0.9424265E-01
        2   -1    0    0  501    0  0.00000000000E+00  0.00000000000E+00  0.14325223430E+04  0.14325223430E+04  0.25500000920E-02 0. -1.
       -2   -1    0    0    0  501  0.00000000000E+00  0.00000000000E+00 -0.14169019413E+03  0.14169019415E+03  0.25500000920E-02 0.  1.
    10030    2    1    2    0    0  0.00000000000E+00  0.00000000000E+00  0.12908321489E+04  0.15742125372E+04  0.90105353648E+03 0.  0.
        3    1    3    3  502    0 -0.18669765792E+03 -0.44206299320E+01 -0.70884137246E+02  0.19975016534E+03  0.10100000352E+00 0.  1.
       -3    1    3    3    0  502  0.18669765792E+03  0.44206299320E+01  0.13617162862E+04  0.13744623719E+04  0.10100000352E+00 0. -1.
</event>
<event>
 5   0  0.3806019E-03  0.9257265E+03  0.7818609E-02  0.9393981E-01
        2   -1    0    0  501    0  0.00000000000E+00  0.00000000000E+00  0.75040466169E+03  0.75040466170E+03  0.25500000920E-02 0.  1.
       -2   -1    0    0    0  501  0.00000000000E+00  0.00000000000E+00 -0.28550246358E+03  0.28550246359E+03  0.25500000920E-02 0. -1.
    10030    2    1    2    0    0  0.00000000000E+00  0.00000000000E+00  0.46490219811E+03  0.10359071253E+04  0.92572648143E+03 0.  0.
        2    1    3    3  502    0 -0.20938181092E+03  0.27030133142E+03 -0.11667409273E+03  0.36127053082E+03  0.25500000920E-02 0. -1.
       -2    1    3    3    0  502  0.20938181092E+03 -0.27030133142E+03  0.58157629085E+03  0.67463659447E+03  0.25500000920E-02 0.  1.
</event>
<event>
 5   0  0.3685879E-03  0.9021999E+03  0.7818609E-02  0.9422836E-01
        2   -1    0    0  501    0  0.00000000000E+00  0.00000000000E+00  0.40985511600E+03  0.40985511601E+03  0.25500000920E-02 0. -1.
       -2   -1    0    0    0  501  0.00000000000E+00  0.00000000000E+00 -0.49649539721E+03  0.49649539722E+03  0.25500000920E-02 0.  1.
    10030    2    1    2    0    0  0.00000000000E+00  0.00000000000E+00 -0.86640281209E+02  0.90635051323E+03  0.90219993045E+03 0.  0.
        1    1    3    3  502    0 -0.85840912683E+02 -0.39760594625E+03 -0.23923534281E+03  0.47190327405E+03  0.50400001928E-02 0.  1.
       -1    1    3    3    0  502  0.85840912683E+02  0.39760594625E+03  0.15259506160E+03  0.43444723918E+03  0.50400001928E-02 0. -1.
</event>
<event>
 5   0  0.3626546E-03  0.8929929E+03  0.7818609E-02  0.9434383E-01
        2   -1    0    0  501    0  0.00000000000E+00  0.00000000000E+00  0.12099575387E+04  0.12099575387E+04  0.25500000920E-02 0. -1.
       -2   -1    0    0    0  501  0.00000000000E+00  0.00000000000E+00 -0.16476533513E+03  0.16476533515E+03  0.25500000920E-02 0.  1.
    10030    2    1    2    0    0  0.00000000000E+00  0.00000000000E+00  0.10451922036E+04  0.13747228739E+04  0.89299285412E+03 0.  0.
        3    1    3    3  502    0  0.31053682289E+03  0.25237047650E+02  0.30237319477E+02  0.31302449207E+03  0.10100000352E+00 0.  1.
       -3    1    3    3    0  502 -0.31053682289E+03 -0.25237047650E+02  0.10149548841E+04  0.10616983818E+04  0.10100000352E+00 0. -1.
</event>
<event>
 5   0  0.2134145E-03  0.9009012E+03  0.7818609E-02  0.9424456E-01
       -1   -1    0    0    0  501  0.00000000000E+00  0.00000000000E+00  0.16196896968E+03  0.16196896976E+03  0.50400001928E-02 0. -1.
        1   -1    0    0  501    0  0.00000000000E+00  0.00000000000E+00 -0.12527444173E+04  0.12527444173E+04  0.50400001928E-02 0.  1.
    10030    2    1    2    0    0  0.00000000000E+00  0.00000000000E+00 -0.10907754476E+04  0.14147133871E+04  0.90090115464E+03 0.  0.
        1    1    3    3  502    0  0.40754578506E+03  0.87261989914E+02 -0.27706085736E+03  0.50047071894E+03  0.50400001928E-02 0. -1.
       -1    1    3    3    0  502 -0.40754578506E+03 -0.87261989914E+02 -0.81371459029E+03  0.91424266816E+03  0.50400001928E-02 0.  1.
</event>
<event>
 5   0  0.2130975E-03  0.8494287E+03  0.7818609E-02  0.9491104E-01
       -1   -1    0    0    0  501  0.00000000000E+00  0.00000000000E+00  0.10506358864E+04  0.10506358864E+04  0.50400001928E-02 0. -1.
        1   -1    0    0  501    0  0.00000000000E+00  0.00000000000E+00 -0.17168865214E+03  0.17168865221E+03  0.50400001928E-02 0.  1.
    10030    2    1    2    0    0  0.00000000000E+00  0.00000000000E+00  0.87894723424E+03  0.12223245386E+04  0.84942865333E+03 0.  0.
        5    1    3    3  502    0 -0.34134168448E+03  0.15298973990E+03  0.15009524215E+03  0.40307651606E+03  0.46999998093E+01 0. -1.
       -5    1    3    3    0  502  0.34134168448E+03 -0.15298973990E+03  0.72885199209E+03  0.81924802255E+03  0.46999998093E+01 0.  1.
</event>
<event>
 5   0  0.1436000E-03  0.8788905E+03  0.7818609E-02  0.9452361E-01
        3   -1    0    0  501    0  0.00000000000E+00  0.00000000000E+00  0.85327568851E+03  0.85327569449E+03  0.10100000352E+00 0. -1.
       -3   -1    0    0    0  501  0.00000000000E+00  0.00000000000E+00 -0.22631855899E+03  0.22631858153E+03  0.10100000352E+00 0.  1.
    10030    2    1    2    0    0  0.00000000000E+00  0.00000000000E+00  0.62695712952E+03  0.10795942760E+04  0.87889052706E+03 0.  0.
        4    1    3    3  502    0 -0.69104305427E+02  0.42922789427E+03  0.23483916451E+03  0.49412856256E+03  0.12699999809E+01 0.  1.
       -4    1    3    3    0  502  0.69104305427E+02 -0.42922789427E+03  0.39211796501E+03  0.58546571346E+03  0.12699999809E+01 0. -1.
</event>
<event>
 5   0  0.3663255E-03  0.8851072E+03  0.7818609E-02  0.9444392E-01
       -2   -1    0    0    0  501  0.00000000000E+00  0.00000000000E+00  0.39502189591E+03  0.39502189592E+03  0.25500000920E-02 0. -1.
        2   -1    0    0  501    0  0.00000000000E+00  0.00000000000E+00 -0.49580461704E+03  0.49580461705E+03  0.25500000920E-02 0.  1.
    10030    2    1    2    0    0  0.00000000000E+00  0.00000000000E+00 -0.10078272114E+03  0.89082651297E+03  0.88510717957E+03 0.  0.
        4    1    3    3  502    0  0.28359934842E+03  0.28597201663E+03  0.13421545920E+03  0.42452795798E+03  0.12699999809E+01 0. -1.
       -4    1    3    3    0  502 -0.28359934842E+03 -0.28597201663E+03 -0.23499818034E+03  0.46629855498E+03  0.12699999809E+01 0.  1.
</event>
<event>
 5   0  0.3806019E-03  0.8957348E+03  0.7818609E-02  0.9430929E-01
        2   -1    0    0  501    0  0.00000000000E+00  0.00000000000E+00  0.53098128899E+03  0.53098128900E+03  0.25500000920E-02 0. -1.
       -2   -1    0    0    0  501  0.00000000000E+00  0.00000000000E+00 -0.37776320182E+03  0.37776320183E+03  0.25500000920E-02 0.  1.
    10030    2    1    2    0    0  0.00000000000E+00  0.00000000000E+00  0.15321808718E+03  0.90874449083E+03  0.89573476396E+03 0.  0.
        2    1    3    3  502    0  0.72091010908E+02  0.39379597260E+03  0.28030569835E+03  0.48871634557E+03  0.25500000920E-02 0. -1.
       -2    1    3    3    0  502 -0.72091010908E+02 -0.39379597260E+03 -0.12708761118E+03  0.42002814526E+03  0.25500000920E-02 0.  1.
</event>
<event>
 5   0  0.2074970E-03  0.8759971E+03  0.7818609E-02  0.9456094E-01
       -1   -1    0    0    0  501  0.00000000000E+00  0.00000000000E+00  0.19111232253E+03  0.19111232259E+03  0.50400001928E-02 0. -1.
        1   -1    0    0  501    0  0.00000000000E+00  0.00000000000E+00 -0.10038217699E+04  0.10038217700E+04  0.50400001928E-02 0.  1.
    10030    2    1    2    0    0  0.00000000000E+00  0.00000000000E+00 -0.81270944742E+03  0.11949340925E+04  0.87599705457E+03 0.  0.
        2    1    3    3  502    0 -0.20858177225E+02  0.13164398408E+03  0.16277679338E+03  0.21038414049E+03  0.25500000920E-02 0. -1.
       -2    1    3    3    0  502  0.20858177225E+02 -0.13164398408E+03 -0.97548624079E+03  0.98454995205E+03  0.25500000920E-02 0.  1.
</event>
<event>
 5   0  0.1436000E-03  0.8985999E+03  0.7818609E-02  0.9427333E-01
        4   -1    0    0  501    0  0.00000000000E+00  0.00000000000E+00  0.77769004448E+03  0.77769108146E+03  0.12699999809E+01 0.  1.
       -4   -1    0    0    0  501  0.00000000000E+00  0.00000000000E+00 -0.25957422549E+03  0.25957733229E+03  0.12699999809E+01 0. -1.
    10030    2    1    2    0    0  0.00000000000E+00  0.00000000000E+00  0.51811581899E+03  0.10372684138E+04  0.89859988888E+03 0.  0.
        3    1    3    3  502    0 -0.29689759545E+03 -0.22680457328E+03 -0.29017265895E+02  0.37474058836E+03  0.10100000352E+00 0. -1.
       -3    1    3    3    0  502  0.29689759545E+03  0.22680457328E+03  0.54713308488E+03  0.66252782539E+03  0.10100000352E+00 0.  1.
</event>
<event>
 5   0  0.3685879E-03  0.9019360E+03  0.7818609E-02  0.9423165E-01
        2   -1    0    0  501    0  0.00000000000E+00  0.00000000000E+00  0.66478494471E+03  0.66478494471E+03  0.25500000920E-02 0. -1.
       -2   -1    0    0    0  501  0.00000000000E+00  0.00000000000E+00 -0.30592166497E+03  0.30592166499E+03  0.25500000920E-02 0.  1.
    10030    2    1    2    0    0  0.00000000000E+00  0.00000000000E+00  0.35886327973E+03  0.97070660970E+03  0.90193595591E+03 0.  0.
        1    1    3    3  502    0  0.25438008236E+03 -0.33242584856E+03  0.36002315774E+03  0.55211669530E+03  0.50400001928E-02 0. -1.
       -1    1    3    3    0  502 -0.25438008236E+03  0.33242584856E+03 -0.11598780053E+01  0.41858991440E+03  0.50400001928E-02 0.  1.
</event>
<event>
 5   0  0.2295158E-03  0.8931316E+03  0.7818609E-02  0.9434208E-01
       -1   -1    0    0    0  501  0.00000000000E+00  0.00000000000E+00  0.88685667037E+03  0.88685667039E+03  0.50400001928E-02 0. -1.
        1   -1    0    0  501    0  0.00000000000E+00  0.00000000000E+00 -0.22486271185E+03  0.22486271191E+03  0.50400001928E-02 0.  1.
    10030    2    1    2    0    0  0.00000000000E+00  0.00000000000E+00  0.66199395852E+03  0.11117193823E+04  0.89313156021E+03 0.  0.
        4    1    3    3  502    0  0.13023226240E+03 -0.14117076790E+03 -0.17082095915E+03  0.25704287748E+03  0.12699999809E+01 0.  1.
       -4    1    3    3    0  502 -0.13023226240E+03  0.14117076790E+03  0.83281491767E+03  0.85467650481E+03  0.12699999809E+01 0. -1.
</event>
<event>
 5   0  0.2130975E-03  0.9037582E+03  0.7818609E-02  0.9420896E-01
       -1   -1    0    0    0  501  0.00000000000E+00  0.00000000000E+00  0.39458490361E+03  0.39458490364E+03  0.50400001928E-02 0.  1.
        1   -1    0    0  501    0  0.00000000000E+00  0.00000000000E+00 -0.51749253480E+03  0.51749253482E+03  0.50400001928E-02 0. -1.
    10030    2    1    2    0    0  0.00000000000E+00  0.00000000000E+00 -0.12290763119E+03  0.91207743847E+03  0.90375824641E+03 0.  0.
        5    1    3    3  502    0 -0.31368603975E+03  0.86230874699E+02  0.25502163725E+03  0.41339184892E+03  0.46999998093E+01 0.  1.
       -5    1    3    3    0  502  0.31368603975E+03 -0.86230874699E+02 -0.37792926844E+03  0.49868558955E+03  0.46999998093E+01 0. -1.
</event>
<event>
 5   0  0.2134145E-03  0.8989878E+03  0.7818609E-02  0.9426848E-01
        1   -1    0    0  501    0  0.00000000000E+00  0.00000000000E+00  0.61897657287E+03  0.61897657289E+03  0.50400001928E-02 0. -1.
       -1   -1    0    0    0  501  0.00000000000E+00  0.00000000000E+00 -0.32641747097E+03  0.32641747101E+03  0.50400001928E-02 0.  1.
    10030    2    1    2    0    0  0.00000000000E+00  0.00000000000E+00  0.29255910190E+03  0.94539404390E+03  0.89898780311E+03 0.  0.
        1    1    3    3  502    0  0.22830863070E+03  0.31999834642E+03 -0.82966479751E+02  0.40175516095E+03  0.50400001928E-02 0.  1.
       -1    1    3    3    0  502 -0.22830863070E+03 -0.31999834642E+03  0.37552558165E+03  0.54363888295E+03  0.50400001928E-02 0. -1.
</event>
<event>
 5   0  0.2129280E-03  0.8990497E+03  0.7818609E-02  0.9426770E-01
        1   -1    0    0  501    0  0.00000000000E+00  0.00000000000E+00  0.52418913597E+03  0.52418913599E+03  0.50400001928E-02 0. -1.
       -1   -1    0    0    0  501  0.00000000000E+00  0.00000000000E+00 -0.38549560091E+03  0.38549560094E+03  0.50400001928E-02 0.  1.
    10030    2    1    2    0    0  0.00000000000E+00  0.00000000000E+00  0.13869353506E+03  0.90968473693E+03  0.89904973385E+03 0.  0.
        3    1    3    3  502    0 -0.21501274805E+03 -0.95433467782E+02 -0.31824398692E+03  0.39574900380E+03  0.10100000352E+00 0.  1.
       -3    1    3    3    0  502  0.21501274805E+03  0.95433467782E+02  0.45693752198E+03  0.51393573313E+03  0.10100000352E+00 0. -1.
</event>
<event>
 5   0  0.3626546E-03  0.9015324E+03  0.7818609E-02  0.9423668E-01
        2   -1    0    0  501    0  0.00000000000E+00  0.00000000000E+00  0.18981186885E+04  0.18981186885E+04  0.25500000920E-02 0. -1.
       -2   -1    0    0    0  501  0.00000000000E+00  0.00000000000E+00 -0.10704819703E+03  0.10704819706E+03  0.25500000920E-02 0.  1.
    10030    2    1    2    0    0  0.00000000000E+00  0.00000000000E+00  0.17910704914E+04  0.20051668855E+04  0.90153243621E+03 0.  0.
        3    1    3    3  502    0  0.30684632974E+03 -0.23793473395E+03  0.14047820384E+04  0.14574567552E+04  0.10100000352E+00 0. -1.
       -3    1    3    3    0  502 -0.30684632974E+03  0.23793473395E+03  0.38628845302E+03  0.54771013030E+03  0.10100000352E+00 0.  1.
</event>
<event>
 5   0  0.3685879E-03  0.8982721E+03  0.7818609E-02  0.9427744E-01
       -2   -1    0    0    0  501  0.00000000000E+00  0.00000000000E+00  0.14089976013E+03  0.14089976016E+03  0.25500000920E-02 0.  1.
        2   -1    0    0  501    0  0.00000000000E+00  0.00000000000E+00 -0.14316788160E+04  0.14316788160E+04  0.25500000920E-02 0. -1.
    10030    2    1    2    0    0  0.00000000000E+00  0.00000000000E+00 -0.12907790559E+04  0.15725785762E+04  0.89827212310E+03 0.  0.
        1    1    3    3  502    0 -0.13540685949E+03  0.31317779590E+03 -0.11567167767E+04  0.12059888270E+04  0.50400001928E-02 0.  1.
       -1    1    3    3    0  502  0.13540685949E+03 -0.31317779590E+03 -0.13406227919E+03  0.36658974913E+03  0.50400001928E-02 0. -1.
</event>
<event>
 5   0  0.1436000E-03  0.8771297E+03  0.7818609E-02  0.9454631E-01
       -3   -1    0    0    0  501  0.00000000000E+00  0.00000000000E+00  0.33883448985E+03  0.33883450490E+03  0.10100000352E+00 0. -1.
        3   -1    0    0  501    0  0.00000000000E+00  0.00000000000E+00 -0.56764913436E+03  0.56764914334E+03  0.10100000352E+00 0.  1.
    10030    2    1    2    0    0  0.00000000000E+00  0.00000000000E+00 -0.22881464451E+03  0.90648364824E+03  0.87712967285E+03 0.  0.
        2    1    3    3  502    0  0.10611596589E+03 -0.14150570824E+03  0.30033925262E+03  0.34855147447E+03  0.25500000920E-02 0. -1.
       -2    1    3    3    0  502 -0.10611596589E+03  0.14150570824E+03 -0.52915389713E+03  0.55793217378E+03  0.25500000920E-02 0.  1.
</event>
<event>
 5   0  0.3663255E-03  0.8982428E+03  0.7818609E-02  0.9427781E-01
       -2   -1    0    0    0  501  0.00000000000E+00  0.00000000000E+00  0.31848525008E+03  0.31848525009E+03  0.25500000920E-02 0.  1.
        2   -1    0    0  501    0  0.00000000000E+00  0.00000000000E+00 -0.63334177841E+03  0.63334177842E+03  0.25500000920E-02 0. -1.
    10030    2    1    2    0    0  0.00000000000E+00  0.00000000000E+00 -0.31485652833E+03  0.95182702850E+03  0.89824276159E+03 0.  0.
        4    1    3    3  502    0 -0.16385326867E+03  0.41018688014E+03 -0.71294372767E+02  0.44742113359E+03  0.12699999809E+01 0.  1.
       -4    1    3    3    0  502  0.16385326867E+03 -0.41018688014E+03 -0.24356215557E+03  0.50440589491E+03  0.12699999809E+01 0. -1.
</event>
<event>
 5   0  0.2074970E-03  0.9070108E+03  0.7818609E-02  0.9416860E-01
       -1   -1    0    0    0  501  0.00000000000E+00  0.00000000000E+00  0.46078876377E+03  0.46078876379E+03  0.50400001928E-02 0.  1.
        1   -1    0    0  501    0  0.00000000000E+00  0.00000000000E+00 -0.44633720541E+03  0.44633720544E+03  0.50400001928E-02 0. -1.
    10030    2    1    2    0    0  0.00000000000E+00  0.00000000000E+00  0.14451558352E+02  0.90712596924E+03  0.90701084697E+03 0.  0.
        2    1    3    3  502    0  0.59089378542E+02  0.23529698146E+03  0.39043357565E+03  0.45966792486E+03  0.25500000920E-02 0.  1.
       -2    1    3    3    0  502 -0.59089378542E+02 -0.23529698146E+03 -0.37598201730E+03  0.44745804438E+03  0.25500000920E-02 0. -1.
</event>
<event>
 5   0  0.3815269E-03  0.8998241E+03  0.7818609E-02  0.9425801E-01
       -2   -1    0    0    0  501  0.00000000000E+00  0.00000000000E+00  0.20448860170E+03  0.20448860172E+03  0.25500000920E-02 0. -1.
        2   -1    0    0  501    0  0.00000000000E+00  0.00000000000E+00 -0.98988822996E+03  0.98988822996E+03  0.25500000920E-02 0.  1.
    10030    2    1    2    0    0  0.00000000000E+00  0.00000000000E+00 -0.78539962826E+03  0.11943768317E+04  0.89982411615E+03 0.  0.
        5    1    3    3  502    0 -0.11481302201E+03 -0.94200973955E+02 -0.95638067138E+03  0.96785429280E+03  0.46999998093E+01 0.  1.
       -5    1    3    3    0  502  0.11481302201E+03  0.94200973955E+02  0.17098104312E+03  0.22652253888E+03  0.46999998093E+01 0. -1.
</event>
<event>
 5   0  0.3815269E-03  0.8995302E+03  0.7818609E-02  0.9426169E-01
       -2   -1    0    0    0  501  0.00000000000E+00  0.00000000000E+00  0.78989137748E+03  0.78989137749E+03  0.25500000920E-02 0. -1.
        2   -1    0    0  501    0  0.00000000000E+00  0.00000000000E+00 -0.25609678208E+03  0.25609678209E+03  0.25500000920E-02 0.  1.
    10030    2    1    2    0    0  0.00000000000E+00  0.00000000000E+00  0.53379459541E+03  0.10459881596E+04  0.89953018842E+03 0.  0.
        5    1    3    3  502    0 -0.31906135535E+02  0.30963100632E+03 -0.11057434310E+03  0.33036061646E+03  0.46999998093E+01 0.  1.
       -5    1    3    3    0  502  0.31906135535E+02 -0.30963100632E+03  0.64436893851E+03  0.71562754312E+03  0.46999998093E+01 0. -1.
</event>
<event>
 5   0  0.3626546E-03  0.9000877E+03  0.7818609E-02  0.9425472E-01
        2   -1    0    0  501    0  0.00000000000E+00  0.00000000000E+00  0.77785476769E+03  0.77785476770E+03  0.25500000920E-02 0. -1.
       -2   -1    0    0    0  501  0.00000000000E+00  0.00000000000E+00 -0.26038212114E+03  0.26038212116E+03  0.25500000920E-02 0.  1.
    10030    2    1    2    0    0  0.00000000000E+00  0.00000000000E+00  0.51747264655E+03  0.10382368889E+04  0.90008771653E+03 0.  0.
        3    1    3    3  502    0  0.80043173407E+02 -0.35935539483E+03 -0.39827293536E+02  0.37030991468E+03  0.10100000352E+00 0.  1.
       -3    1    3    3    0  502 -0.80043173407E+02  0.35935539483E+03  0.55729994009E+03  0.66792697417E+03  0.10100000352E+00 0. -1.
</event>
<event>
 5   0  0.3815269E-03  0.8992580E+03  0.7818609E-02  0.9426509E-01
       -2   -1    0    0    0  501  0.00000000000E+00  0.00000000000E+00  0.10986798065E+03  0.10986798068E+03  0.25500000920E-02 0. -1.
        2   -1    0    0  501    0  0.00000000000E+00  0.00000000000E+00 -0.18400832014E+04  0.18400832014E+04  0.25500000920E-02 0.  1.
    10030    2    1    2    0    0  0.00000000000E+00  0.00000000000E+00 -0.17302152207E+04  0.19499511821E+04  0.89925797322E+03 0.  0.
        5    1    3    3  502    0  0.43712231135E+03  0.50253342654E+02 -0.10655271786E+04  0.11528102931E+04  0.46999998093E+01 0.  1.
       -5    1    3    3    0  502 -0.43712231135E+03 -0.50253342654E+02 -0.66468804211E+03  0.79714088896E+03  0.46999998093E+01 0. -1.
</event>
<event>
 5   0  0.3806019E-03  0.8999780E+03  0.7818609E-02  0.9425609E-01
        2   -1    0    0  501    0  0.00000000000E+00  0.00000000000E+00  0.15860413085E+04  0.15860413085E+04  0.25500000920E-02 0.  1.
       -2   -1    0    0    0  501  0.00000000000E+00  0.00000000000E+00 -0.12767013139E+03  0.12767013142E+03  0.25500000920E-02 0. -1.
    10030    2    1    2    0    0  0.00000000000E+00  0.00000000000E+00  0.14583711771E+04  0.17137114399E+04  0.89997800478E+03 0.  0.
        2    1    3    3  502    0  0.20075623118E+03 -0.25391584321E+03  0.13244140824E+04  0.13633961205E+04  0.25500000920E-02 0.  1.
       -2    1    3    3    0  502 -0.20075623118E+03  0.25391584321E+03  0.13395709475E+03  0.35031531944E+03  0.25500000920E-02 0. -1.
</event>
<event>
 5   0  0.3815269E-03  0.9186176E+03  0.7818609E-02  0.9402603E-01
        2   -1    0    0  501    0  0.00000000000E+00  0.00000000000E+00  0.27834697942E+03  0.27834697943E+03  0.25500000920E-02 0. -1.
       -2   -1    0    0    0  501  0.00000000000E+00  0.00000000000E+00 -0.75791937389E+03  0.75791937389E+03  0.25500000920E-02 0.  1.
    10030    2    1    2    0    0  0.00000000000E+00  0.00000000000E+00 -0.47957239447E+03  0.10362663533E+04  0.91861758828E+03 0.  0.
        5    1    3    3  502    0 -0.44296943593E+03 -0.11427169865E+03 -0.28578242143E+03  0.53941971106E+03  0.46999998093E+01 0.  1.
       -5    1    3    3    0  502  0.44296943593E+03  0.11427169865E+03 -0.19378997304E+03  0.49684664227E+03  0.46999998093E+01 0. -1.
</event>
<event>
 5   0  0.3806019E-03  0.8994471E+03  0.7818609E-02  0.9426273E-01
        2   -1    0    0  501    0  0.00000000000E+00  0.00000000000E+00  0.67038792299E+03  0.67038792299E+03  0.25500000920E-02 0. -1.
       -2   -1    0    0    0  501  0.00000000000E+00  0.00000000000E+00 -0.30169289384E+03  0.30169289385E+03  0.25500000920E-02 0.  1.
    10030    2    1    2    0    0  0.00000000000E+00  0.00000000000E+00  0.36869502915E+03  0.97208081684E+03  0.89944710236E+03 0.  0.
        2    1    3    3  502    0 -0.14819488718E+03 -0.39103008927E+03  0.54998577214E+01  0.41820629328E+03  0.25500000920E-02 0.  1.
       -2    1    3    3    0  502  0.14819488718E+03  0.39103008927E+03  0.36319517143E+03  0.55387452356E+03  0.25500000920E-02 0. -1.
</event>
<event>
 5   0  0.3663255E-03  0.9004052E+03  0.7818609E-02  0.9425075E-01
        2   -1    0    0  501    0  0.00000000000E+00  0.00000000000E+00  0.60411187583E+03  0.60411187584E+03  0.25500000920E-02 0. -1.
       -2   -1    0    0    0  501  0.00000000000E+00  0.00000000000E+00 -0.33550468858E+03  0.33550468859E+03  0.25500000920E-02 0.  1.
    10030    2    1    2    0    0  0.00000000000E+00  0.00000000000E+00  0.26860718726E+03  0.93961656443E+03  0.90040516830E+03 0.  0.
        4    1    3    3  502    0 -0.12621615593E+03 -0.38521904998E+03 -0.70073529006E+02  0.41138321168E+03  0.12699999809E+01 0.  1.
       -4    1    3    3    0  502  0.12621615593E+03  0.38521904998E+03  0.33868071627E+03  0.52823335275E+03  0.12699999809E+01 0. -1.
</event>
<event>
 5   0  0.3685879E-03  0.9024969E+03  0.7818609E-02  0.9422466E-01
        2   -1    0    0  501    0  0.00000000000E+00  0.00000000000E+00  0.11753601623E+04  0.11753601623E+04  0.25500000920E-02 0.  1.
       -2   -1    0    0    0  501  0.00000000000E+00  0.00000000000E+00 -0.17324491506E+03  0.17324491508E+03  0.25500000920E-02 0. -1.
    10030    2    1    2    0    0  0.00000000000E+00  0.00000000000E+00  0.10021152472E+04  0.13486050774E+04  0.90249691744E+03 0.  0.
        1    1    3    3  502    0  0.44200542543E+03 -0.31067760669E+02  0.62865380105E+03  0.76911611832E+03  0.50400001928E-02 0. -1.
       -1    1    3    3    0  502 -0.44200542543E+03  0.31067760669E+02  0.37346144619E+03  0.57948895906E+03  0.50400001928E-02 0.  1.
</event>
<event>
 5   0  0.2134145E-03  0.8901111E+03  0.7818609E-02  0.9438028E-01
       -1   -1    0    0    0  501  0.00000000000E+00  0.00000000000E+00  0.12776680934E+03  0.12776680944E+03  0.50400001928E-02 0.  1.
        1   -1    0    0  501    0  0.00000000000E+00  0.00000000000E+00 -0.15502808143E+04  0.15502808143E+04  0.50400001928E-02 0. -1.
    10030    2    1    2    0    0  0.00000000000E+00  0.00000000000E+00 -0.14225140050E+04  0.16780476238E+04  0.89011107916E+03 0.  0.
        1    1    3    3  502    0 -0.15720588818E+03 -0.26171342222E+03 -0.10076618156E+03  0.32149872476E+03  0.50400001928E-02 0.  1.
       -1    1    3    3    0  502  0.15720588818E+03  0.26171342222E+03 -0.13217478234E+04  0.13565488990E+04  0.50400001928E-02 0. -1.
</event>
<event>
 5   0  0.2130975E-03  0.8940357E+03  0.7818609E-02  0.9433068E-01
        1   -1    0    0  501    0  0.00000000000E+00  0.00000000000E+00  0.17061178083E+04  0.17061178083E+04  0.50400001928E-02 0.  1.
       -1   -1    0    0    0  501  0.00000000000E+00  0.00000000000E+00 -0.11712260006E+03  0.11712260017E+03  0.50400001928E-02 0. -1.
    10030    2    1    2    0    0  0.00000000000E+00  0.00000000000E+00  0.15889952083E+04  0.18232404085E+04  0.89403569016E+03 0.  0.
        5    1    3    3  502    0  0.40536908812E+03 -0.78387316280E+02  0.44521563433E+03  0.60721307628E+03  0.46999998093E+01 0. -1.
       -5    1    3    3    0  502 -0.40536908812E+03  0.78387316280E+02  0.11437795739E+04  0.12160273322E+04  0.46999998093E+01 0.  1.
</event>
<event>
 5   0  0.2074970E-03  0.8648076E+03  0.7818609E-02  0.9470675E-01
        1   -1    0    0  501    0  0.00000000000E+00  0.00000000000E+00  0.27955638404E+03  0.27955638408E+03  0.50400001928E-02 0. -1.
       -1   -1    0    0    0  501  0.00000000000E+00  0.00000000000E+00 -0.66882054976E+03  0.66882054978E+03  0.50400001928E-02 0.  1.
    10030    2    1    2    0    0  0.00000000000E+00  0.00000000000E+00 -0.38926416572E+03  0.94837693387E+03  0.86480761905E+03 0.  0.
        2    1    3    3  502    0  0.27130143125E+02  0.10335875174E+02  0.27848635540E+03  0.27999558056E+03  0.25500000920E-02 0. -1.
       -2    1    3    3    0  502 -0.27130143125E+02 -0.10335875174E+02 -0.66775052112E+03  0.66838135331E+03  0.25500000920E-02 0.  1.
</event>
<event>
 5   0  0.2130975E-03  0.8961212E+03  0.7818609E-02  0.9430443E-01
       -1   -1    0    0    0  501  0.00000000000E+00  0.00000000000E+00  0.52459053664E+03  0.52459053667E+03  0.50400001928E-02 0.  1.
        1   -1    0    0  501    0  0.00000000000E+00  0.00000000000E+00 -0.38269525356E+03  0.38269525360E+03  0.50400001928E-02 0. -1.
    10030    2    1    2    0    0  0.00000000000E+00  0.00000000000E+00  0.14189528308E+03  0.90728579026E+03  0.89612121605E+03 0.  0.
        5    1    3    3  502    0 -0.15593926143E+03 -0.41340761742E+03  0.14612437313E+03  0.46540018674E+03  0.46999998093E+01 0.  1.
       -5    1    3    3    0  502  0.15593926143E+03  0.41340761742E+03 -0.42290900519E+01  0.44188560352E+03  0.46999998093E+01 0. -1.
</event>
<event>
 5   0  0.3685879E-03  0.9007357E+03  0.7818609E-02  0.9424662E-01
       -2   -1    0    0    0  501  0.00000000000E+00  0.00000000000E+00  0.48083328537E+03  0.48083328538E+03  0.25500000920E-02 0.  1.
        2   -1    0    0  501    0  0.00000000000E+00  0.00000000000E+00 -0.42183270877E+03  0.42183270878E+03  0.25500000920E-02 0. -1.
    10030    2    1    2    0    0  0.00000000000E+00  0.00000000000E+00  0.59000576605E+02  0.90266599416E+03  0.90073571538E+03 0.  0.
        1    1    3    3  502    0 -0.30277656595E+02  0.44170905714E+03  0.11218516088E+03  0.45673749352E+03  0.50400001928E-02 0.  1.
       -1    1    3    3    0  502  0.30277656595E+02 -0.44170905714E+03 -0.53184584274E+02  0.44592850063E+03  0.50400001928E-02 0. -1.
</event>
<event>
 5   0  0.3663255E-03  0.8984950E+03  0.7818609E-02  0.9427465E-01
        2   -1    0    0  501    0  0.00000000000E+00  0.00000000000E+00  0.98294305131E+03  0.98294305131E+03  0.25500000920E-02 0.  1.
       -2   -1    0    0    0  501  0.00000000000E+00  0.00000000000E+00 -0.20532553351E+03  0.20532553352E+03  0.25500000920E-02 0. -1.
    10030    2    1    2    0    0  0.00000000000E+00  0.00000000000E+00  0.77761751780E+03  0.11882685848E+04  0.89849497812E+03 0.  0.
        4    1    3    3  502    0 -0.23930756837E+03 -0.25788680257E+03  0.19338240122E+02  0.35234825904E+03  0.12699999809E+01 0. -1.
       -4    1    3    3    0  502  0.23930756837E+03  0.25788680257E+03  0.75827927768E+03  0.83592032579E+03  0.12699999809E+01 0.  1.
</event>
<event>
 5   0  0.2295158E-03  0.8976773E+03  0.7818609E-02  0.9428490E-01
        1   -1    0    0  501    0  0.00000000000E+00  0.00000000000E+00  0.52656573909E+03  0.52656573911E+03  0.50400001928E-02 0. -1.
       -1   -1    0    0    0  501  0.00000000000E+00  0.00000000000E+00 -0.38258494378E+03  0.38258494381E+03  0.50400001928E-02 0.  1.
    10030    2    1    2    0    0  0.00000000000E+00  0.00000000000E+00  0.14398079530E+03  0.90915068293E+03  0.89767727767E+03 0.  0.
        4    1    3    3  502    0  0.31281572672E+03 -0.45645899003E+02 -0.25069969495E+03  0.40347140782E+03  0.12699999809E+01 0.  1.
       -4    1    3    3    0  502 -0.31281572672E+03  0.45645899003E+02  0.39468049026E+03  0.50567927510E+03  0.12699999809E+01 0. -1.
</event>
<event>
 5   0  0.2074970E-03  0.8962150E+03  0.7818609E-02  0.9430325E-01
        1   -1    0    0  501    0  0.00000000000E+00  0.00000000000E+00  0.61195606371E+03  0.61195606373E+03  0.50400001928E-02 0. -1.
       -1   -1    0    0    0  501  0.00000000000E+00  0.00000000000E+00 -0.32812868463E+03  0.32812868467E+03  0.50400001928E-02 0.  1.
    10030    2    1    2    0    0  0.00000000000E+00  0.00000000000E+00  0.28382737907E+03  0.94008474840E+03  0.89621501497E+03 0.  0.
        2    1    3    3  502    0 -0.39899957697E+03  0.20051897901E+03  0.10278047439E+03  0.45822739911E+03  0.25500000920E-02 0.  1.
       -2    1    3    3    0  502  0.39899957697E+03 -0.20051897901E+03  0.18104690468E+03  0.48185734930E+03  0.25500000920E-02 0. -1.
</event>
<event>
 5   0  0.2074970E-03  0.9063574E+03  0.7818609E-02  0.9417669E-01
        1   -1    0    0  501    0  0.00000000000E+00  0.00000000000E+00  0.28610083846E+03  0.28610083851E+03  0.50400001928E-02 0.  1.
       -1   -1    0    0    0  501  0.00000000000E+00  0.00000000000E+00 -0.71782708661E+03  0.71782708662E+03  0.50400001928E-02 0. -1.
    10030    2    1    2    0    0  0.00000000000E+00  0.00000000000E+00 -0.43172624815E+03  0.10039279251E+04  0.90635739392E+03 0.  0.
        2    1    3    3  502    0  0.91637272890E+02  0.43878719628E+03 -0.28966410892E+03  0.53370112367E+03  0.25500000920E-02 0.  1.
       -2    1    3    3    0  502 -0.91637272890E+02 -0.43878719628E+03 -0.14206213922E+03  0.47022680146E+03  0.25500000920E-02 0. -1.
</event>
<event>
 5   0  0.3806019E-03  0.8957091E+03  0.7818609E-02  0.9430961E-01
        2   -1    0    0  501    0  0.00000000000E+00  0.00000000000E+00  0.15417760679E+04  0.15417760679E+04  0.25500000920E-02 0. -1.
       -2   -1    0    0    0  501  0.00000000000E+00  0.00000000000E+00 -0.13009263231E+03  0.13009263234E+03  0.25500000920E-02 0.  1.
    10030    2    1    2    0    0  0.00000000000E+00  0.00000000000E+00  0.14116834355E+04  0.16718687002E+04  0.89570912048E+03 0.  0.
        2    1    3    3  502    0 -0.34073873907E+03 -0.13049384226E+03  0.22111053615E+03  0.42663966105E+03  0.25500000920E-02 0.  1.
       -2    1    3    3    0  502  0.34073873907E+03  0.13049384226E+03  0.11905728994E+04  0.12452290391E+04  0.25500000920E-02 0. -1.
</event>
<event>
 5   0  0.2134145E-03  0.8988875E+03  0.7818609E-02  0.9426973E-01
       -1   -1    0    0    0  501  0.00000000000E+00  0.00000000000E+00  0.64286489059E+03  0.64286489061E+03  0.50400001928E-02 0. -1.
        1   -1    0    0  501    0  0.00000000000E+00  0.00000000000E+00 -0.31421794390E+03  0.31421794394E+03  0.50400001928E-02 0.  1.
    10030    2    1    2    0    0  0.00000000000E+00  0.00000000000E+00  0.32864694670E+03  0.95708283455E+03  0.89888749943E+03 0.  0.
        1    1    3    3  502    0 -0.16431506070E+03 -0.36112947744E+03  0.38914723116E+03  0.55574230197E+03  0.50400001928E-02 0. -1.
       -1    1    3    3    0  502  0.16431506070E+03  0.36112947744E+03 -0.60500284468E+02  0.40134053258E+03  0.50400001928E-02 0.  1.
</event>
<event>
 5   0  0.2074970E-03  0.9097495E+03  0.7818609E-02  0.9413475E-01
        1   -1    0    0  501    0  0.00000000000E+00  0.00000000000E+00  0.32030529129E+03  0.32030529133E+03  0.50400001928E-02 0.  1.
       -1   -1    0    0    0  501  0.00000000000E+00  0.00000000000E+00 -0.64598073382E+03  0.64598073384E+03  0.50400001928E-02 0. -1.
    10030    2    1    2    0    0  0.00000000000E+00  0.00000000000E+00 -0.32567544252E+03  0.96628602517E+03  0.90974951969E+03 0.  0.
        2    1    3    3  502    0  0.29057418937E+02 -0.55603568527E+02 -0.64136322862E+03  0.64442445753E+03  0.25500000920E-02 0. -1.
       -2    1    3    3    0  502 -0.29057418937E+02  0.55603568527E+02  0.31568778609E+03  0.32186156764E+03  0.25500000920E-02 0.  1.
</event>
<event>
 5   0  0.2129280E-03  0.9001506E+03  0.7818609E-02  0.9425393E-01
        1   -1    0    0  501    0  0.00000000000E+00  0.00000000000E+00  0.47348216620E+03  0.47348216622E+03  0.50400001928E-02 0.  1.
       -1   -1    0    0    0  501  0.00000000000E+00  0.00000000000E+00 -0.42782560179E+03  0.42782560182E+03  0.50400001928E-02 0. -1.
    10030    2    1    2    0    0  0.00000000000E+00  0.00000000000E+00  0.45656564408E+02  0.90130776804E+03  0.90015063787E+03 0.  0.
        3    1    3    3  502    0  0.21943487738E+03 -0.45297507888E+02 -0.36801213100E+03  0.43085550756E+03  0.10100000352E+00 0. -1.
       -3    1    3    3    0  502 -0.21943487738E+03  0.45297507888E+02  0.41366869541E+03  0.47045226048E+03  0.10100000352E+00 0.  1.
</event>
<event>
 5   0  0.2295158E-03  0.9066751E+03  0.7818609E-02  0.9417276E-01
       -1   -1    0    0    0  501  0.00000000000E+00  0.00000000000E+00  0.14069974361E+03  0.14069974370E+03  0.50400001928E-02 0.  1.
        1   -1    0    0  501    0  0.00000000000E+00  0.00000000000E+00 -0.14606630630E+04  0.14606630630E+04  0.50400001928E-02 0. -1.
    10030    2    1    2    0    0  0.00000000000E+00  0.00000000000E+00 -0.13199633193E+04  0.16013628067E+04  0.90667506537E+03 0.  0.
        4    1    3    3  502    0  0.15523201087E+03  0.42326133627E+03 -0.74406002801E+03  0.86998509997E+03  0.12699999809E+01 0.  1.
       -4    1    3    3    0  502 -0.15523201087E+03 -0.42326133627E+03 -0.57590329133E+03  0.73137770669E+03  0.12699999809E+01 0. -1.
</event>
<event>
 5   0  0.3663255E-03  0.8969456E+03  0.7818609E-02  0.9429408E-01
        2   -1    0    0  501    0  0.00000000000E+00  0.00000000000E+00  0.81216035290E+03  0.81216035291E+03  0.25500000920E-02 0. -1.
       -2   -1    0    0    0  501  0.00000000000E+00  0.00000000000E+00 -0.24764549982E+03  0.24764549983E+03  0.25500000920E-02 0.  1.
    10030    2    1    2    0    0  0.00000000000E+00  0.00000000000E+00  0.56451485309E+03  0.10598058527E+04  0.89694560935E+03 0.  0.
        4    1    3    3  502    0  0.15794696080E+03 -0.39777745405E+03  0.12394397642E+03  0.44557588307E+03  0.12699999809E+01 0. -1.
       -4    1    3    3    0  502 -0.15794696080E+03  0.39777745405E+03  0.44057087666E+03  0.61422996967E+03  0.12699999809E+01 0.  1.
</event>
<event>
 5   0  0.3806019E-03  0.9035948E+03  0.7818609E-02  0.9421099E-01
       -2   -1    0    0    0  501  0.00000000000E+00  0.00000000000E+00  0.87428497854E+03  0.87428497854E+03  0.25500000920E-02 0. -1.
        2   -1    0    0  501    0  0.00000000000E+00  0.00000000000E+00 -0.23347181853E+03  0.23347181854E+03  0.25500000920E-02 0.  1.
    10030    2    1    2    0    0  0.00000000000E+00  0.00000000000E+00  0.64081316001E+03  0.11077567971E+04  0.90359482924E+03 0.  0.
        2    1    3    3  502    0  0.10765155966E+03  0.21025137864E+03 -0.15174333891E+03  0.28074996247E+03  0.25500000920E-02 0.  1.
       -2    1    3    3    0  502 -0.10765155966E+03 -0.21025137864E+03  0.79255649892E+03  0.82700683462E+03  0.25500000920E-02 0. -1.
</event>
<event>
 5   0  0.3815269E-03  0.8988453E+03  0.7818609E-02  0.9427026E-01
        2   -1    0    0  501    0  0.00000000000E+00  0.00000000000E+00  0.12751615426E+04  0.12751615426E+04  0.25500000920E-02 0.  1.
       -2   -1    0    0    0  501  0.00000000000E+00  0.00000000000E+00 -0.15839618793E+03  0.15839618795E+03  0.25500000920E-02 0. -1.
    10030    2    1    2    0    0  0.00000000000E+00  0.00000000000E+00  0.11167653547E+04  0.14335577306E+04  0.89884532010E+03 0.  0.
        5    1    3    3  502    0  0.18473086888E+03  0.32506050342E+03  0.16071846220E+03  0.40699181674E+03  0.46999998093E+01 0. -1.
       -5    1    3    3    0  502 -0.18473086888E+03 -0.32506050342E+03  0.95604689251E+03  0.10265659138E+04  0.46999998093E+01 0.  1.
</event>
<event>
 5   0  0.3626546E-03  0.9044038E+03  0.7818609E-02  0.9420093E-01
        2   -1    0    0  501    0  0.00000000000E+00  0.00000000000E+00  0.95991213325E+03  0.95991213325E+03  0.25500000920E-02 0. -1.
       -2   -1    0    0    0  501  0.00000000000E+00  0.00000000000E+00 -0.21302633584E+03  0.21302633586E+03  0.25500000920E-02 0.  1.
    10030    2    1    2    0    0  0.00000000000E+00  0.00000000000E+00  0.74688579740E+03  0.11729384691E+04  0.90440381354E+03 0.  0.
        3    1    3    3  502    0  0.19827206987E+03  0.14003735735E+03 -0.12136913412E+03  0.27139040525E+03  0.10100000352E+00 0.  1.
       -3    1    3    3    0  502 -0.19827206987E+03 -0.14003735735E+03  0.86825493152E+03  0.90154806386E+03  0.10100000352E+00 0. -1.
</event>
<event>
 5   0  0.3685879E-03  0.9220949E+03  0.7818609E-02  0.9398376E-01
        2   -1    0    0  501    0  0.00000000000E+00  0.00000000000E+00  0.58816392827E+03  0.58816392828E+03  0.25500000920E-02 0.  1.
       -2   -1    0    0    0  501  0.00000000000E+00  0.00000000000E+00 -0.36140388546E+03  0.36140388547E+03  0.25500000920E-02 0. -1.
    10030    2    1    2    0    0  0.00000000000E+00  0.00000000000E+00  0.22676004281E+03  0.94956781375E+03  0.92209485189E+03 0.  0.
        1    1    3    3  502    0 -0.12849227109E+03  0.16829290313E+03  0.53513314158E+03  0.57549999497E+03  0.50400001928E-02 0.  1.
       -1    1    3    3    0  502  0.12849227109E+03 -0.16829290313E+03 -0.30837309877E+03  0.37406781877E+03  0.50400001928E-02 0. -1.
</event>
<event>
 5   0  0.2129280E-03  0.9050702E+03  0.7818609E-02  0.9419266E-01
        1   -1    0    0  501    0  0.00000000000E+00  0.00000000000E+00  0.42223266179E+03  0.42223266182E+03  0.50400001928E-02 0. -1.
       -1   -1    0    0    0  501  0.00000000000E+00  0.00000000000E+00 -0.48501224304E+03  0.48501224307E+03  0.50400001928E-02 0.  1.
    10030    2    1    2    0    0  0.00000000000E+00  0.00000000000E+00 -0.62779581257E+02  0.90724490489E+03  0.90507018602E+03 0.  0.
        3    1    3    3  502    0 -0.52395170865E+02 -0.66085198004E+02 -0.47706522253E+03  0.48446232472E+03  0.10100000352E+00 0.  1.
       -3    1    3    3    0  502  0.52395170865E+02  0.66085198004E+02  0.41428564127E+03  0.42278258017E+03  0.10100000352E+00 0. -1.
</event>
<event>
 5   0  0.2129280E-03  0.9033081E+03  0.7818609E-02  0.9421456E-01
        1   -1    0    0  501    0  0.00000000000E+00  0.00000000000E+00  0.16258957359E+04  0.16258957359E+04  0.50400001928E-02 0. -1.
       -1   -1    0    0    0  501  0.00000000000E+00  0.00000000000E+00 -0.12546400121E+03  0.12546400131E+03  0.50400001928E-02 0.  1.
    10030    2    1    2    0    0  0.00000000000E+00  0.00000000000E+00  0.15004317347E+04  0.17513597373E+04  0.90330810840E+03 0.  0.
        3    1    3    3  502    0  0.11810265293E+03 -0.39932984961E+03  0.41117680662E+03  0.58521700413E+03  0.10100000352E+00 0. -1.
       -3    1    3    3    0  502 -0.11810265293E+03  0.39932984961E+03  0.10892549281E+04  0.11661427331E+04  0.10100000352E+00 0.  1.
</event>
<event>
 5   0  0.3815269E-03  0.8918715E+03  0.7818609E-02  0.9435800E-01
       -2   -1    0    0    0  501  0.00000000000E+00  0.00000000000E+00  0.93542524939E+02  0.93542524973E+02  0.25500000920E-02 0.  1.
        2   -1    0    0  501    0  0.00000000000E+00  0.00000000000E+00 -0.21258639953E+04  0.21258639953E+04  0.25500000920E-02 0. -1.
    10030    2    1    2    0    0  0.00000000000E+00  0.00000000000E+00 -0.20323214704E+04  0.22194065203E+04  0.89187148366E+03 0.  0.
        5    1    3    3  502    0 -0.44257906999E+03  0.54413231671E+01 -0.11508783270E+04  0.12330648218E+04  0.46999998093E+01 0. -1.
       -5    1    3    3    0  502  0.44257906999E+03 -0.54413231671E+01 -0.88144314337E+03  0.98634169849E+03  0.46999998093E+01 0.  1.
</event>
<event>
 5   0  0.2295158E-03  0.9011260E+03  0.7818609E-02  0.9424175E-01
        1   -1    0    0  501    0  0.00000000000E+00  0.00000000000E+00  0.77519885893E+03  0.77519885895E+03  0.50400001928E-02 0. -1.
       -1   -1    0    0    0  501  0.00000000000E+00  0.00000000000E+00 -0.26187732393E+03  0.26187732398E+03  0.50400001928E-02 0.  1.
    10030    2    1    2    0    0  0.00000000000E+00  0.00000000000E+00  0.51332153500E+03  0.10370761829E+04  0.90112596839E+03 0.  0.
        4    1    3    3  502    0  0.33711270213E+03 -0.99324341744E+02 -0.67824744573E+02  0.35792751735E+03  0.12699999809E+01 0. -1.
       -4    1    3    3    0  502 -0.33711270213E+03  0.99324341744E+02  0.58114627957E+03  0.67914866558E+03  0.12699999809E+01 0.  1.
</event>
<event>
 5   0  0.3685879E-03  0.8771040E+03  0.7818609E-02  0.9454664E-01
       -2   -1    0    0    0  501  0.00000000000E+00  0.00000000000E+00  0.12318620432E+03  0.12318620435E+03  0.25500000920E-02 0.  1.
        2   -1    0    0  501    0  0.00000000000E+00  0.00000000000E+00 -0.15612776026E+04  0.15612776026E+04  0.25500000920E-02 0. -1.
    10030    2    1    2    0    0  0.00000000000E+00  0.00000000000E+00 -0.14380913983E+04  0.16844638070E+04  0.87710401160E+03 0.  0.
        1    1    3    3  502    0  0.54144787193E+01  0.35325835108E+03 -0.22006326589E+03  0.41623145029E+03  0.50400001928E-02 0.  1.
       -1    1    3    3    0  502 -0.54144787193E+01 -0.35325835108E+03 -0.12180281324E+04  0.12682323567E+04  0.50400001928E-02 0. -1.
</event>
<event>
 5   0  0.3626546E-03  0.8987500E+03  0.7818609E-02  0.9427145E-01
       -2   -1    0    0    0  501  0.00000000000E+00  0.00000000000E+00  0.18739878569E+03  0.18739878571E+03  0.25500000920E-02 0.  1.
        2   -1    0    0  501    0  0.00000000000E+00  0.00000000000E+00 -0.10775837290E+04  0.10775837291E+04  0.25500000920E-02 0. -1.
    10030    2    1    2    0    0  0.00000000000E+00  0.00000000000E+00 -0.89018494336E+03  0.12649825148E+04  0.89874998151E+03 0.  0.
        3    1    3    3  502    0 -0.24512858856E+02  0.43630356341E+03 -0.29763340391E+03  0.52872235911E+03  0.10100000352E+00 0.  1.
       -3    1    3    3    0  502  0.24512858856E+02 -0.43630356341E+03 -0.59255153944E+03  0.73626015565E+03  0.10100000352E+00 0. -1.
</event>
<event>
 5   0  0.1436000E-03  0.9007115E+03  0.7818609E-02  0.9424692E-01
       -3   -1    0    0    0  501  0.00000000000E+00  0.00000000000E+00  0.72060785803E+03  0.72060786511E+03  0.10100000352E+00 0. -1.
        3   -1    0    0  501    0  0.00000000000E+00  0.00000000000E+00 -0.28145722099E+03  0.28145723911E+03  0.10100000352E+00 0.  1.
    10030    2    1    2    0    0  0.00000000000E+00  0.00000000000E+00  0.43915063705E+03  0.10020651042E+04  0.90071149159E+03 0.  0.
        5    1    3    3  502    0 -0.36996063954E+03 -0.25180838016E+03  0.27542227759E+03  0.52550723699E+03  0.46999998093E+01 0. -1.
       -5    1    3    3    0  502  0.36996063954E+03  0.25180838016E+03  0.16372835946E+03  0.47655786723E+03  0.46999998093E+01 0.  1.
</event>
<event>
 5   0  0.2134145E-03  0.9033642E+03  0.7818609E-02  0.9421386E-01
        1   -1    0    0  501    0  0.00000000000E+00  0.00000000000E+00  0.97814038457E+03  0.97814038459E+03  0.50400001928E-02 0.  1.
       -1   -1    0    0    0  501  0.00000000000E+00  0.00000000000E+00 -0.20857611690E+03  0.20857611696E+03  0.50400001928E-02 0. -1.
    10030    2    1    2    0    0  0.00000000000E+00  0.00000000000E+00  0.76956426768E+03  0.11867165015E+04  0.90336420837E+03 0.  0.
        1    1    3    3  502    0  0.47839702998E+02  0.19056184730E+01  0.97479757381E+03  0.97597263204E+03  0.50400001928E-02 0.  1.
       -1    1    3    3    0  502 -0.47839702998E+02 -0.19056184730E+01 -0.20523330613E+03  0.21074386951E+03  0.50400001928E-02 0. -1.
</event>
<event>
 5   0  0.3626546E-03  0.8897005E+03  0.7818609E-02  0.9438549E-01
        2   -1    0    0  501    0  0.00000000000E+00  0.00000000000E+00  0.18539667475E+04  0.18539667475E+04  0.25500000920E-02 0. -1.
       -2   -1    0    0    0  501  0.00000000000E+00  0.00000000000E+00 -0.10673965161E+03  0.10673965164E+03  0.25500000920E-02 0.  1.
    10030    2    1    2    0    0  0.00000000000E+00  0.00000000000E+00  0.17472270959E+04  0.19607063991E+04  0.88970054456E+03 0.  0.
        3    1    3    3  502    0 -0.21254235207E+03  0.31966613111E+03  0.13690043599E+04  0.14218064687E+04  0.10100000352E+00 0. -1.
       -3    1    3    3    0  502  0.21254235207E+03 -0.31966613111E+03  0.37822273597E+03  0.53889993042E+03  0.10100000352E+00 0.  1.
</event>
<event>
 5   0  0.3685879E-03  0.9008523E+03  0.7818609E-02  0.9424517E-01
        2   -1    0    0  501    0  0.00000000000E+00  0.00000000000E+00  0.11691934588E+04  0.11691934588E+04  0.25500000920E-02 0. -1.
       -2   -1    0    0    0  501  0.00000000000E+00  0.00000000000E+00 -0.17352449456E+03  0.17352449458E+03  0.25500000920E-02 0.  1.
    10030    2    1    2    0    0  0.00000000000E+00  0.00000000000E+00  0.99566896423E+03  0.13427179534E+04  0.90085227201E+03 0.  0.
        1    1    3    3  502    0  0.21657966171E+03 -0.31110842788E+03  0.86045292225E+03  0.94025232528E+03  0.50400001928E-02 0. -1.
       -1    1    3    3    0  502 -0.21657966171E+03  0.31110842788E+03  0.13521604198E+03  0.40246562810E+03  0.50400001928E-02 0.  1.
</event>
<event>
 5   0  0.2074970E-03  0.9019918E+03  0.7818609E-02  0.9423095E-01
        1   -1    0    0  501    0  0.00000000000E+00  0.00000000000E+00  0.89131992725E+03  0.89131992726E+03  0.50400001928E-02 0.  1.
       -1   -1    0    0    0  501  0.00000000000E+00  0.00000000000E+00 -0.22819784409E+03  0.22819784415E+03  0.50400001928E-02 0. -1.
    10030    2    1    2    0    0  0.00000000000E+00  0.00000000000E+00  0.66312208316E+03  0.11195177714E+04  0.90199176456E+03 0.  0.
        2    1    3    3  502    0 -0.27286760925E+03 -0.24833008101E+03  0.96410645246E+01  0.36907656583E+03  0.25500000920E-02 0. -1.
       -2    1    3    3    0  502  0.27286760925E+03  0.24833008101E+03  0.65348101863E+03  0.75044120558E+03  0.25500000920E-02 0.  1.
</event>
<event>
 5   0  0.3663255E-03  0.9000755E+03  0.7818609E-02  0.9425487E-01
       -2   -1    0    0    0  501  0.00000000000E+00  0.00000000000E+00  0.16055637042E+03  0.16055637044E+03  0.25500000920E-02 0. -1.
        2   -1    0    0  501    0  0.00000000000E+00  0.00000000000E+00 -0.12614509108E+04  0.12614509108E+04  0.25500000920E-02 0.  1.
    10030    2    1    2    0    0  0.00000000000E+00  0.00000000000E+00 -0.11008945404E+04  0.14220072813E+04  0.90007550732E+03 0.  0.
        4    1    3    3  502    0 -0.34821053798E+03  0.18395692809E+03 -0.89456156017E+03  0.97741123790E+03  0.12699999809E+01 0.  1.
       -4    1    3    3    0  502  0.34821053798E+03 -0.18395692809E+03 -0.20633298026E+03  0.44459604338E+03  0.12699999809E+01 0. -1.
</event>
<event>
 5   0  0.3806019E-03  0.8953158E+03  0.7818609E-02  0.9431456E-01
        2   -1    0    0  501    0  0.00000000000E+00  0.00000000000E+00  0.32913683750E+03  0.32913683751E+03  0.25500000920E-02 0. -1.
       -2   -1    0    0    0  501  0.00000000000E+00  0.00000000000E+00 -0.60885805942E+03  0.60885805942E+03  0.25500000920E-02 0.  1.
    10030    2    1    2    0    0  0.00000000000E+00  0.00000000000E+00 -0.27972122192E+03  0.93799489693E+03  0.89531584632E+03 0.  0.
        2    1    3    3  502    0  0.26660469457E+03 -0.29213212212E+03  0.79846341239E+02  0.40347822514E+03  0.25500000920E-02 0. -1.
       -2    1    3    3    0  502 -0.26660469457E+03  0.29213212212E+03 -0.35956756316E+03  0.53451667179E+03  0.25500000920E-02 0.  1.
</event>
<event>
 5   0  0.2129280E-03  0.8847922E+03  0.7818609E-02  0.9444794E-01
        1   -1    0    0  501    0  0.00000000000E+00  0.00000000000E+00  0.11225446586E+04  0.11225446586E+04  0.50400001928E-02 0. -1.
       -1   -1    0    0    0  501  0.00000000000E+00  0.00000000000E+00 -0.17434879944E+03  0.17434879952E+03  0.50400001928E-02 0.  1.
    10030    2    1    2    0    0  0.00000000000E+00  0.00000000000E+00  0.94819585916E+03  0.12968934581E+04  0.88479220974E+03 0.  0.
        3    1    3    3  502    0  0.40741826464E+03  0.11370613110E+03  0.28413866884E+03  0.50956208645E+03  0.10100000352E+00 0.  1.
       -3    1    3    3    0  502 -0.40741826464E+03 -0.11370613110E+03  0.66405719032E+03  0.78733137168E+03  0.10100000352E+00 0. -1.
</event>
<event>
 5   0  0.2295158E-03  0.9100377E+03  0.7818609E-02  0.9413120E-01
       -1   -1    0    0    0  501  0.00000000000E+00  0.00000000000E+00  0.50671254495E+03  0.50671254498E+03  0.50400001928E-02 0. -1.
        1   -1    0    0  501    0  0.00000000000E+00  0.00000000000E+00 -0.40859883237E+03  0.40859883240E+03  0.50400001928E-02 0.  1.
    10030    2    1    2    0    0  0.00000000000E+00  0.00000000000E+00  0.98113712578E+02  0.91531137738E+03  0.91003770085E+03 0.  0.
        4    1    3    3  502    0  0.18387608846E+03 -0.35439596244E+03 -0.17045920568E+03  0.43412540562E+03  0.12699999809E+01 0. -1.
       -4    1    3    3    0  502 -0.18387608846E+03  0.35439596244E+03  0.26857291825E+03  0.48118597176E+03  0.12699999809E+01 0.  1.
</event>
<event>
 5   0  0.2130975E-03  0.9006024E+03  0.7818609E-02  0.9424829E-01
        1   -1    0    0  501    0  0.00000000000E+00  0.00000000000E+00  0.13817858191E+04  0.13817858191E+04  0.50400001928E-02 0. -1.
       -1   -1    0    0    0  501  0.00000000000E+00  0.00000000000E+00 -0.14674573336E+03  0.14674573345E+03  0.50400001928E-02 0.  1.
    10030    2    1    2    0    0  0.00000000000E+00  0.00000000000E+00  0.12350400857E+04  0.15285315525E+04  0.90060240604E+03 0.  0.
        5    1    3    3  502    0 -0.15118585174E+03 -0.97196554047E+02 -0.83181577018E+02  0.19810501417E+03  0.46999998093E+01 0.  1.
       -5    1    3    3    0  502  0.15118585174E+03  0.97196554047E+02  0.13182216628E+04  0.13304265384E+04  0.46999998093E+01 0. -1.
</event>
<event>
 5   0  0.2295158E-03  0.9001878E+03  0.7818609E-02  0.9425347E-01
       -1   -1    0    0    0  501  0.00000000000E+00  0.00000000000E+00  0.15006578201E+03  0.15006578209E+03  0.50400001928E-02 0.  1.
        1   -1    0    0  501    0  0.00000000000E+00  0.00000000000E+00 -0.13499713001E+04  0.13499713001E+04  0.50400001928E-02 0. -1.
    10030    2    1    2    0    0  0.00000000000E+00  0.00000000000E+00 -0.11999055181E+04  0.15000370822E+04  0.90018775576E+03 0.  0.
        4    1    3    3  502    0 -0.69464419823E+02  0.12362404959E+03  0.11186725209E+03  0.18062144460E+03  0.12699999809E+01 0.  1.
       -4    1    3    3    0  502  0.69464419823E+02 -0.12362404959E+03 -0.13117727702E+04  0.13194156376E+04  0.12699999809E+01 0. -1.
</event>
<event>
 5   0  0.2134145E-03  0.9015286E+03  0.7818609E-02  0.9423673E-01
        1   -1    0    0  501    0  0.00000000000E+00  0.00000000000E+00  0.86780503704E+03  0.86780503705E+03  0.50400001928E-02 0. -1.
       -1   -1    0    0    0  501  0.00000000000E+00  0.00000000000E+00 -0.23414064697E+03  0.23414064702E+03  0.50400001928E-02 0.  1.
    10030    2    1    2    0    0  0.00000000000E+00  0.00000000000E+00  0.63366439007E+03  0.11019456841E+04  0.90152855275E+03 0.  0.
        1    1    3    3  502    0 -0.14656088318E+03 -0.32982258168E+03 -0.13248501434E+02  0.36116277588E+03  0.50400001928E-02 0.  1.
       -1    1    3    3    0  502  0.14656088318E+03  0.32982258168E+03  0.64691289150E+03  0.74078290820E+03  0.50400001928E-02 0. -1.
</event>
<event>
 5   0  0.3815269E-03  0.9029635E+03  0.7818609E-02  0.9421885E-01
       -2   -1    0    0    0  501  0.00000000000E+00  0.00000000000E+00  0.23407637685E+03  0.23407637686E+03  0.25500000920E-02 0. -1.
        2   -1    0    0  501    0  0.00000000000E+00  0.00000000000E+00 -0.87080872131E+03  0.87080872132E+03  0.25500000920E-02 0.  1.
    10030    2    1    2    0    0  0.00000000000E+00  0.00000000000E+00 -0.63673234447E+03  0.11048850982E+04  0.90296345535E+03 0.  0.
        5    1    3    3  502    0  0.33979899672E+03 -0.29495052426E+03 -0.36339959149E+03  0.57839478129E+03  0.46999998093E+01 0.  1.
       -5    1    3    3    0  502 -0.33979899672E+03  0.29495052426E+03 -0.27333275298E+03  0.52649031689E+03  0.46999998093E+01 0. -1.
</event>
<event>
 5   0  0.2295158E-03  0.8980648E+03  0.7818609E-02  0.9428004E-01
       -1   -1    0    0    0  501  0.00000000000E+00  0.00000000000E+00  0.32304628902E+03  0.32304628906E+03  0.50400001928E-02 0. -1.
        1   -1    0    0  501    0  0.00000000000E+00  0.00000000000E+00 -0.62415239442E+03  0.62415239444E+03  0.50400001928E-02 0.  1.
    10030    2    1    2    0    0  0.00000000000E+00  0.00000000000E+00 -0.30110610541E+03  0.94719868350E+03  0.89806484137E+03 0.  0.
        4    1    3    3  502    0  0.29750419517E+03 -0.10705222697E+03  0.18573198089E+03  0.36669729624E+03  0.12699999809E+01 0. -1.
       -4    1    3    3    0  502 -0.29750419517E+03  0.10705222697E+03 -0.48683808630E+03  0.58050138726E+03  0.12699999809E+01 0.  1.
</event>
<event>
 5   0  0.1436000E-03  0.8930811E+03  0.7818609E-02  0.9434272E-01
        4   -1    0    0  501    0  0.00000000000E+00  0.00000000000E+00  0.26417298088E+03  0.26417603360E+03  0.12699999809E+01 0. -1.
       -4   -1    0    0    0  501  0.00000000000E+00  0.00000000000E+00 -0.75479464321E+03  0.75479571165E+03  0.12699999809E+01 0.  1.
    10030    2    1    2    0    0  0.00000000000E+00  0.00000000000E+00 -0.49062166233E+03  0.10189717452E+04  0.89308107251E+03 0.  0.
        4    1    3    3  502    0 -0.19602596172E+03 -0.10998032874E+03 -0.68554335560E+03  0.72145211601E+03  0.12699999809E+01 0.  1.
       -4    1    3    3    0  502  0.19602596172E+03  0.10998032874E+03  0.19492169327E+03  0.29751962924E+03  0.12699999809E+01 0. -1.
</event>
<event>
 5   0  0.3626546E-03  0.9011266E+03  0.7818609E-02  0.9424174E-01
       -2   -1    0    0    0  501  0.00000000000E+00  0.00000000000E+00  0.39860827487E+03  0.39860827488E+03  0.25500000920E-02 0.  1.
        2   -1    0    0  501    0  0.00000000000E+00  0.00000000000E+00 -0.50929018248E+03  0.50929018248E+03  0.25500000920E-02 0. -1.
    10030    2    1    2    0    0  0.00000000000E+00  0.00000000000E+00 -0.11068190760E+03  0.90789845736E+03  0.90112658612E+03 0.  0.
        3    1    3    3  502    0 -0.44928406967E+03 -0.12958096899E+02 -0.23749564540E+02  0.45009792219E+03  0.10100000352E+00 0. -1.
       -3    1    3    3    0  502  0.44928406967E+03  0.12958096899E+02 -0.86932343065E+02  0.45780053518E+03  0.10100000352E+00 0.  1.
</event>
<event>
 5   0  0.3626546E-03  0.8989082E+03  0.7818609E-02  0.9426947E-01
        2   -1    0    0  501    0  0.00000000000E+00  0.00000000000E+00  0.98627306263E+03  0.98627306263E+03  0.25500000920E-02 0.  1.
       -2   -1    0    0    0  501  0.00000000000E+00  0.00000000000E+00 -0.20482054888E+03  0.20482054889E+03  0.25500000920E-02 0. -1.
    10030    2    1    2    0    0  0.00000000000E+00  0.00000000000E+00  0.78145251375E+03  0.11910936115E+04  0.89890820453E+03 0.  0.
        3    1    3    3  502    0  0.39778923051E+03 -0.46080735689E+02  0.66114342927E+03  0.77296206271E+03  0.10100000352E+00 0.  1.
       -3    1    3    3    0  502 -0.39778923051E+03  0.46080735689E+02  0.12030908448E+03  0.41813154882E+03  0.10100000352E+00 0. -1.
</event>
<event>
 5   0  0.2130975E-03  0.9114196E+03  0.7818609E-02  0.9411418E-01
        1   -1    0    0  501    0  0.00000000000E+00  0.00000000000E+00  0.60358290466E+03  0.60358290469E+03  0.50400001928E-02 0.  1.
       -1   -1    0    0    0  501  0.00000000000E+00  0.00000000000E+00 -0.34406442059E+03  0.34406442062E+03  0.50400001928E-02 0. -1.
    10030    2    1    2    0    0  0.00000000000E+00  0.00000000000E+00  0.25951848408E+03  0.94764732531E+03  0.91141955739E+03 0.  0.
        5    1    3    3  502    0  0.31052192617E+03 -0.15995260451E+03  0.43403564523E+03  0.55715144588E+03  0.46999998093E+01 0.  1.
       -5    1    3    3    0  502 -0.31052192617E+03  0.15995260451E+03 -0.17451716115E+03  0.39049587943E+03  0.46999998093E+01 0. -1.
</event>
<event>
 5   0  0.3815269E-03  0.8987800E+03  0.7818609E-02  0.9427108E-01
        2   -1    0    0  501    0  0.00000000000E+00  0.00000000000E+00  0.87934517610E+03  0.87934517611E+03  0.25500000920E-02 0. -1.
       -2   -1    0    0    0  501  0.00000000000E+00  0.00000000000E+00 -0.22966109420E+03  0.22966109421E+03  0.25500000920E-02 0.  1.
    10030    2    1    2    0    0  0.00000000000E+00  0.00000000000E+00  0.64968408191E+03  0.11090062703E+04  0.89878000718E+03 0.  0.
        5    1    3    3  502    0  0.11852629861E+03 -0.15805736085E+03 -0.17316945851E+03  0.26275533132E+03  0.46999998093E+01 0.  1.
       -5    1    3    3    0  502 -0.11852629861E+03  0.15805736085E+03  0.82285354041E+03  0.84625093899E+03  0.46999998093E+01 0. -1.
</event>
<event>
 5   0  0.3626546E-03  0.9006832E+03  0.7818609E-02  0.9424728E-01
        2   -1    0    0  501    0  0.00000000000E+00  0.00000000000E+00  0.73988551292E+03  0.73988551293E+03  0.25500000920E-02 0. -1.
       -2   -1    0    0    0  501  0.00000000000E+00  0.00000000000E+00 -0.27410664802E+03  0.27410664803E+03  0.25500000920E-02 0.  1.
    10030    2    1    2    0    0  0.00000000000E+00  0.00000000000E+00  0.46577886491E+03  0.10139921610E+04  0.90068315821E+03 0.  0.
        3    1    3    3  502    0 -0.40131890777E+03 -0.19968456716E+03  0.28166070633E+03  0.52939924044E+03  0.10100000352E+00 0.  1.
       -3    1    3    3    0  502  0.40131890777E+03  0.19968456716E+03  0.18411815858E+03  0.48459292051E+03  0.10100000352E+00 0. -1.
</event>
<event>
 5   0  0.2129280E-03  0.8938280E+03  0.7818609E-02  0.9433330E-01
        1   -1    0    0  501    0  0.00000000000E+00  0.00000000000E+00  0.73901523288E+03  0.73901523289E+03  0.50400001928E-02 0. -1.
       -1   -1    0    0    0  501  0.00000000000E+00  0.00000000000E+00 -0.27026795179E+03  0.27026795183E+03  0.50400001928E-02 0.  1.
    10030    2    1    2    0    0  0.00000000000E+00  0.00000000000E+00  0.46874728109E+03  0.10092831847E+04  0.89382802230E+03 0.  0.
        3    1    3    3  502    0  0.12707267347E+03  0.32456838127E+03  0.55021831686E+03  0.65133117910E+03  0.10100000352E+00 0. -1.
       -3    1    3    3    0  502 -0.12707267347E+03 -0.32456838127E+03 -0.81471035765E+02  0.35795200563E+03  0.10100000352E+00 0.  1.
</event>
<event>
 5   0  0.2129280E-03  0.8999534E+03  0.7818609E-02  0.9425640E-01
        1   -1    0    0  501    0  0.00000000000E+00  0.00000000000E+00  0.10658772236E+04  0.10658772236E+04  0.50400001928E-02 0.  1.
       -1   -1    0    0    0  501  0.00000000000E+00  0.00000000000E+00 -0.18996468025E+03  0.18996468031E+03  0.50400001928E-02 0. -1.
    10030    2    1    2    0    0  0.00000000000E+00  0.00000000000E+00  0.87591254339E+03  0.12558419040E+04  0.89995338995E+03 0.  0.
        3    1    3    3  502    0 -0.71938457612E+02  0.12089191688E+03 -0.15848978865E+03  0.21191748525E+03  0.10100000352E+00 0. -1.
       -3    1    3    3    0  502  0.71938457612E+02 -0.12089191688E+03  0.10344023320E+04  0.10439244187E+04  0.10100000352E+00 0.  1.
</event>
<event>
 5   0  0.2295158E-03  0.9088599E+03  0.7818609E-02  0.9414573E-01
        1   -1    0    0  501    0  0.00000000000E+00  0.00000000000E+00  0.52487461999E+03  0.52487462002E+03  0.50400001928E-02 0.  1.
       -1   -1    0    0    0  501  0.00000000000E+00  0.00000000000E+00 -0.39343982598E+03  0.39343982601E+03  0.50400001928E-02 0. -1.
    10030    2    1    2    0    0  0.00000000000E+00  0.00000000000E+00  0.13143479402E+03  0.91831444603E+03  0.90885989938E+03 0.  0.
        4    1    3    3  502    0  0.55523829466E+02 -0.15903427653E+03 -0.36072778777E+03  0.39812177349E+03  0.12699999809E+01 0. -1.
       -4    1    3    3    0  502 -0.55523829466E+02  0.15903427653E+03  0.49216258179E+03  0.52019267254E+03  0.12699999809E+01 0.  1.
</event>
<event>
 5   0  0.1436000E-03  0.9003672E+03  0.7818609E-02  0.9425123E-01
       -3   -1    0    0    0  501  0.00000000000E+00  0.00000000000E+00  0.27770432529E+03  0.27770434366E+03  0.10100000352E+00 0. -1.
        3   -1    0    0  501    0  0.00000000000E+00  0.00000000000E+00 -0.72978793665E+03  0.72978794364E+03  0.10100000352E+00 0.  1.
    10030    2    1    2    0    0  0.00000000000E+00  0.00000000000E+00 -0.45208361136E+03  0.10074922873E+04  0.90036721248E+03 0.  0.
        5    1    3    3  502    0 -0.44539235650E+03 -0.51880682838E+02 -0.18160222365E+03  0.48380514064E+03  0.46999998093E+01 0. -1.
       -5    1    3    3    0  502  0.44539235650E+03  0.51880682838E+02 -0.27048138770E+03  0.52368714665E+03  0.46999998093E+01 0.  1.
</event>
<event>
 5   0  0.3685879E-03  0.9027983E+03  0.7818609E-02  0.9422090E-01
       -2   -1    0    0    0  501  0.00000000000E+00  0.00000000000E+00  0.10083043220E+04  0.10083043220E+04  0.25500000920E-02 0. -1.
        2   -1    0    0  501    0  0.00000000000E+00  0.00000000000E+00 -0.20208304380E+03  0.20208304382E+03  0.25500000920E-02 0.  1.
    10030    2    1    2    0    0  0.00000000000E+00  0.00000000000E+00  0.80622127817E+03  0.12103873658E+04  0.90279833069E+03 0.  0.
        1    1    3    3  502    0 -0.25594556619E+03  0.28525110647E+03  0.83344806442E+02  0.39220235004E+03  0.50400001928E-02 0.  1.
       -1    1    3    3    0  502  0.25594556619E+03 -0.28525110647E+03  0.72287647173E+03  0.81818501575E+03  0.50400001928E-02 0. -1.
</event>
<event>
 5   0  0.1436000E-03  0.8993206E+03  0.7818609E-02  0.9426431E-01
       -4   -1    0    0    0  501  0.00000000000E+00  0.00000000000E+00  0.58780846793E+03  0.58780983989E+03  0.12699999809E+01 0. -1.
        4   -1    0    0  501    0  0.00000000000E+00  0.00000000000E+00 -0.34397713776E+03  0.34397948224E+03  0.12699999809E+01 0.  1.
    10030    2    1    2    0    0  0.00000000000E+00  0.00000000000E+00  0.24383133017E+03  0.93178932213E+03  0.89932064541E+03 0.  0.
        4    1    3    3  502    0 -0.35992614983E+03 -0.15435396882E+03  0.35084722346E+03  0.52580164333E+03  0.12699999809E+01 0. -1.
       -4    1    3    3    0  502  0.35992614983E+03  0.15435396882E+03 -0.10701589330E+03  0.40598767880E+03  0.12699999809E+01 0.  1.
</event>
<event>
 5   0  0.3806019E-03  0.9027176E+03  0.7818609E-02  0.9422191E-01
       -2   -1    0    0    0  501  0.00000000000E+00  0.00000000000E+00  0.16935150029E+03  0.16935150030E+03  0.25500000920E-02 0. -1.
        2   -1    0    0  501    0  0.00000000000E+00  0.00000000000E+00 -0.12029698652E+04  0.12029698652E+04  0.25500000920E-02 0.  1.
    10030    2    1    2    0    0  0.00000000000E+00  0.00000000000E+00 -0.10336183649E+04  0.13723213655E+04  0.90271756708E+03 0.  0.
        2    1    3    3  502    0  0.91327799573E+02  0.26187594728E+03 -0.10581516190E+04  0.10938942488E+04  0.25500000920E-02 0.  1.
       -2    1    3    3    0  502 -0.91327799573E+02 -0.26187594728E+03  0.24533254125E+02  0.27842711668E+03  0.25500000920E-02 0. -1.
</event>
<event>
 5   0  0.3626546E-03  0.8955496E+03  0.7818609E-02  0.9431162E-01
       -2   -1    0    0    0  501  0.00000000000E+00  0.00000000000E+00  0.51195552814E+03  0.51195552814E+03  0.25500000920E-02 0. -1.
        2   -1    0    0  501    0  0.00000000000E+00  0.00000000000E+00 -0.39164003638E+03  0.39164003639E+03  0.25500000920E-02 0.  1.
    10030    2    1    2    0    0  0.00000000000E+00  0.00000000000E+00  0.12031549176E+03  0.90359556453E+03  0.89554962268E+03 0.  0.
        3    1    3    3  502    0  0.31065910627E+03  0.27264364001E+03 -0.11360634299E+03  0.42866075878E+03  0.10100000352E+00 0.  1.
       -3    1    3    3    0  502 -0.31065910627E+03 -0.27264364001E+03  0.23392183474E+03  0.47493480575E+03  0.10100000352E+00 0. -1.
</event>
<event>
 5   0  0.2074970E-03  0.8904695E+03  0.7818609E-02  0.9437574E-01
        1   -1    0    0  501    0  0.00000000000E+00  0.00000000000E+00  0.38816467787E+03  0.38816467791E+03  0.50400001928E-02 0. -1.
       -1   -1    0    0    0  501  0.00000000000E+00  0.00000000000E+00 -0.51069560847E+03  0.51069560850E+03  0.50400001928E-02 0.  1.
    10030    2    1    2    0    0  0.00000000000E+00  0.00000000000E+00 -0.12253093060E+03  0.89886028640E+03  0.89046953093E+03 0.  0.
        2    1    3    3  502    0 -0.47089779853E+02 -0.24020789844E+02  0.38498569327E+03  0.38859803106E+03  0.25500000920E-02 0. -1.
       -2    1    3    3    0  502  0.47089779853E+02  0.24020789844E+02 -0.50751662387E+03  0.51026225534E+03  0.25500000920E-02 0.  1.
</event>
<event>
 5   0  0.2134145E-03  0.9000454E+03  0.7818609E-02  0.9425525E-01
        1   -1    0    0  501    0  0.00000000000E+00  0.00000000000E+00  0.13911002528E+04  0.13911002528E+04  0.50400001928E-02 0. -1.
       -1   -1    0    0    0  501  0.00000000000E+00  0.00000000000E+00 -0.14558291922E+03  0.14558291931E+03  0.50400001928E-02 0.  1.
    10030    2    1    2    0    0  0.00000000000E+00  0.00000000000E+00  0.12455173336E+04  0.15366831722E+04  0.90004541176E+03 0.  0.
        1    1    3    3  502    0 -0.30446844064E+03  0.30727924527E+03  0.41089116899E+03  0.59661806769E+03  0.50400001928E-02 0. -1.
       -1    1    3    3    0  502  0.30446844064E+03 -0.30727924527E+03  0.83462616463E+03  0.94006510446E+03  0.50400001928E-02 0.  1.
</event>
<event>
 5   0  0.3626546E-03  0.9003119E+03  0.7818609E-02  0.9425192E-01
       -2   -1    0    0    0  501  0.00000000000E+00  0.00000000000E+00  0.34933776202E+03  0.34933776202E+03  0.25500000920E-02 0.  1.
        2   -1    0    0  501    0  0.00000000000E+00  0.00000000000E+00 -0.58007003690E+03  0.58007003690E+03  0.25500000920E-02 0. -1.
    10030    2    1    2    0    0  0.00000000000E+00  0.00000000000E+00 -0.23073227488E+03  0.92940779893E+03  0.90031187598E+03 0.  0.
        3    1    3    3  502    0 -0.38981929052E+03 -0.22476852504E+03 -0.10229236601E+03  0.46145824021E+03  0.10100000352E+00 0. -1.
       -3    1    3    3    0  502  0.38981929052E+03  0.22476852504E+03 -0.12843990887E+03  0.46794955872E+03  0.10100000352E+00 0.  1.
</event>
<event>
 5   0  0.3815269E-03  0.9027249E+03  0.7818609E-02  0.9422182E-01
       -2   -1    0    0    0  501  0.00000000000E+00  0.00000000000E+00  0.15782012732E+03  0.15782012734E+03  0.25500000920E-02 0. -1.
        2   -1    0    0  501    0  0.00000000000E+00  0.00000000000E+00 -0.12908877677E+04  0.12908877677E+04  0.25500000920E-02 0.  1.
    10030    2    1    2    0    0  0.00000000000E+00  0.00000000000E+00 -0.11330676404E+04  0.14487078950E+04  0.90272492348E+03 0.  0.
        5    1    3    3  502    0  0.99065743669E+02 -0.19630559842E+01 -0.12731783131E+04  0.12770367974E+04  0.46999998093E+01 0.  1.
       -5    1    3    3    0  502 -0.99065743669E+02  0.19630559842E+01  0.14011067268E+03  0.17167109761E+03  0.46999998093E+01 0. -1.
</event>
<event>
 5   0  0.2129280E-03  0.9001595E+03  0.7818609E-02  0.9425382E-01
        1   -1    0    0  501    0  0.00000000000E+00  0.00000000000E+00  0.21235619379E+03  0.21235619385E+03  0.50400001928E-02 0.  1.
       -1   -1    0    0    0  501  0.00000000000E+00  0.00000000000E+00 -0.95392448119E+03  0.95392448120E+03  0.50400001928E-02 0. -1.
    10030    2    1    2    0    0  0.00000000000E+00  0.00000000000E+00 -0.74156828740E+03  0.11662806751E+04  0.90015947927E+03 0.  0.
        3    1    3    3  502    0 -0.22467342423E+03  0.18547155336E+03 -0.81527274593E+03  0.86576411632E+03  0.10100000352E+00 0. -1.
       -3    1    3    3    0  502  0.22467342423E+03 -0.18547155336E+03  0.73704458528E+02  0.30051655873E+03  0.10100000352E+00 0.  1.
</event>
<event>
 5   0  0.2074970E-03  0.8997059E+03  0.7818609E-02  0.9425949E-01
        1   -1    0    0  501    0  0.00000000000E+00  0.00000000000E+00  0.32276164158E+03  0.32276164162E+03  0.50400001928E-02 0.  1.
       -1   -1    0    0    0  501  0.00000000000E+00  0.00000000000E+00 -0.62698806985E+03  0.62698806987E+03  0.50400001928E-02 0. -1.
    10030    2    1    2    0    0  0.00000000000E+00  0.00000000000E+00 -0.30422642827E+03  0.94974971149E+03  0.89970594909E+03 0.  0.
        2    1    3    3  502    0  0.22767018793E+03 -0.31644396611E+02 -0.56031654512E+03  0.60563166450E+03  0.25500000920E-02 0. -1.
       -2    1    3    3    0  502 -0.22767018793E+03  0.31644396611E+02  0.25609011685E+03  0.34411804699E+03  0.25500000920E-02 0.  1.
</event>
<event>
 5   0  0.2074970E-03  0.9045361E+03  0.7818609E-02  0.9419929E-01
       -1   -1    0    0    0  501  0.00000000000E+00  0.00000000000E+00  0.25783226941E+03  0.25783226946E+03  0.50400001928E-02 0. -1.
        1   -1    0    0  501    0  0.00000000000E+00  0.00000000000E+00 -0.79333120790E+03  0.79333120792E+03  0.50400001928E-02 0.  1.
    10030    2    1    2    0    0  0.00000000000E+00  0.00000000000E+00 -0.53549893850E+03  0.10511634774E+04  0.90453609273E+03 0.  0.
        2    1    3    3  502    0  0.29267222277E+03  0.34460049490E+03 -0.25400642736E+03  0.51858055904E+03  0.25500000920E-02 0. -1.
       -2    1    3    3    0  502 -0.29267222277E+03 -0.34460049490E+03 -0.28149251113E+03  0.53258291833E+03  0.25500000920E-02 0.  1.
</event>
<event>
 5   0  0.3663255E-03  0.9005441E+03  0.7818609E-02  0.9424902E-01
       -2   -1    0    0    0  501  0.00000000000E+00  0.00000000000E+00  0.64405016824E+03  0.64405016825E+03  0.25500000920E-02 0.  1.
        2   -1    0    0  501    0  0.00000000000E+00  0.00000000000E+00 -0.31479679157E+03  0.31479679158E+03  0.25500000920E-02 0. -1.
    10030    2    1    2    0    0  0.00000000000E+00  0.00000000000E+00  0.32925337667E+03  0.95884695983E+03  0.90054411682E+03 0.  0.
        4    1    3    3  502    0 -0.38330300413E+03  0.17528833994E+03 -0.40470930620E+01  0.42150348391E+03  0.12699999809E+01 0. -1.
       -4    1    3    3    0  502  0.38330300413E+03 -0.17528833994E+03  0.33330046973E+03  0.53734347592E+03  0.12699999809E+01 0.  1.
</event>
<event>
 5   0  0.2130975E-03  0.9004475E+03  0.7818609E-02  0.9425022E-01
        1   -1    0    0  501    0  0.00000000000E+00  0.00000000000E+00  0.12753909147E+04  0.12753909147E+04  0.50400001928E-02 0. -1.
       -1   -1    0    0    0  501  0.00000000000E+00  0.00000000000E+00 -0.15893278935E+03  0.15893278943E+03  0.50400001928E-02 0.  1.
    10030    2    1    2    0    0  0.00000000000E+00  0.00000000000E+00  0.11164581253E+04  0.14343237041E+04  0.90044752350E+03 0.  0.
        5    1    3    3  502    0 -0.21726381659E+02 -0.60231969532E+02  0.12680615737E+04  0.12696858550E+04  0.46999998093E+01 0. -1.
       -5    1    3    3    0  502  0.21726381659E+02  0.60231969532E+02 -0.15160344833E+03  0.16463784911E+03  0.46999998093E+01 0.  1.
</event>
<event>
 5   0  0.3815269E-03  0.8982019E+03  0.7818609E-02  0.9427832E-01
       -2   -1    0    0    0  501  0.00000000000E+00  0.00000000000E+00  0.57402435714E+03  0.57402435714E+03  0.25500000920E-02 0. -1.
        2   -1    0    0  501    0  0.00000000000E+00  0.00000000000E+00 -0.35136427488E+03  0.35136427489E+03  0.25500000920E-02 0.  1.
    10030    2    1    2    0    0  0.00000000000E+00  0.00000000000E+00  0.22266008225E+03  0.92538863204E+03  0.89820187490E+03 0.  0.
        5    1    3    3  502    0  0.21239577861E+03  0.31948151379E+03  0.35182459705E+03  0.52056031496E+03  0.46999998093E+01 0. -1.
       -5    1    3    3    0  502 -0.21239577861E+03 -0.31948151379E+03 -0.12916451479E+03  0.40482831707E+03  0.46999998093E+01 0.  1.
</event>
<event>
 5   0  0.2074970E-03  0.9024016E+03  0.7818609E-02  0.9422584E-01
       -1   -1    0    0    0  501  0.00000000000E+00  0.00000000000E+00  0.97964052234E+03  0.97964052236E+03  0.50400001928E-02 0.  1.
        1   -1    0    0  501    0  0.00000000000E+00  0.00000000000E+00 -0.20781311872E+03  0.20781311878E+03  0.50400001928E-02 0. -1.
    10030    2    1    2    0    0  0.00000000000E+00  0.00000000000E+00  0.77182740362E+03  0.11874536411E+04  0.90240157850E+03 0.  0.
        2    1    3    3  502    0  0.10065321343E+03  0.39635522064E+03  0.63680792407E+03  0.75680437530E+03  0.25500000920E-02 0.  1.
       -2    1    3    3    0  502 -0.10065321343E+03 -0.39635522064E+03  0.13501947955E+03  0.43064926584E+03  0.25500000920E-02 0. -1.
</event>
<event>
 5   0  0.3685879E-03  0.9024117E+03  0.7818609E-02  0.9422572E-01
        2   -1    0    0  501    0  0.00000000000E+00  0.00000000000E+00  0.55204610636E+03  0.55204610637E+03  0.25500000920E-02 0. -1.
       -2   -1    0    0    0  501  0.00000000000E+00  0.00000000000E+00 -0.36878568972E+03  0.36878568973E+03  0.25500000920E-02 0.  1.
    10030    2    1    2    0    0  0.00000000000E+00  0.00000000000E+00  0.18326041665E+03  0.92083179610E+03  0.90241166681E+03 0.  0.
        1    1    3    3  502    0  0.24026259912E+03 -0.12519997300E+03  0.45980750431E+03  0.53368913313E+03  0.50400001928E-02 0. -1.
       -1    1    3    3    0  502 -0.24026259912E+03  0.12519997300E+03 -0.27654708766E+03  0.38714266297E+03  0.50400001928E-02 0.  1.
</event>
<event>
 5   0  0.2130975E-03  0.8988541E+03  0.7818609E-02  0.9427015E-01
       -1   -1    0    0    0  501  0.00000000000E+00  0.00000000000E+00  0.28138743555E+03  0.28138743559E+03  0.50400001928E-02 0.  1.
        1   -1    0    0  501    0  0.00000000000E+00  0.00000000000E+00 -0.71781692395E+03  0.71781692396E+03  0.50400001928E-02 0. -1.
    10030    2    1    2    0    0  0.00000000000E+00  0.00000000000E+00 -0.43642948840E+03  0.99920435955E+03  0.89885407815E+03 0.  0.
        5    1    3    3  502    0 -0.20846780278E+03  0.31751111642E+01  0.22434416121E+03  0.30630262616E+03  0.46999998093E+01 0.  1.
       -5    1    3    3    0  502  0.20846780278E+03 -0.31751111642E+01 -0.66077364961E+03  0.69290173339E+03  0.46999998093E+01 0. -1.
</event>
<event>
 5   0  0.1436000E-03  0.8532945E+03  0.7818609E-02  0.9485926E-01
       -4   -1    0    0    0  501  0.00000000000E+00  0.00000000000E+00  0.30261303835E+03  0.30261570330E+03  0.12699999809E+01 0.  1.
        4   -1    0    0  501    0  0.00000000000E+00  0.00000000000E+00 -0.60151424844E+03  0.60151558913E+03  0.12699999809E+01 0. -1.
    10030    2    1    2    0    0  0.00000000000E+00  0.00000000000E+00 -0.29890121008E+03  0.90413129243E+03  0.85329447470E+03 0.  0.
        5    1    3    3  502    0 -0.39071424959E+03 -0.14181223820E+03 -0.47612955163E+02  0.41839863675E+03  0.46999998093E+01 0. -1.
       -5    1    3    3    0  502  0.39071424959E+03  0.14181223820E+03 -0.25128825492E+03  0.48573265568E+03  0.46999998093E+01 0.  1.
</event>
<event>
 5   0  0.3806019E-03  0.8972352E+03  0.7818609E-02  0.9429044E-01
       -2   -1    0    0    0  501  0.00000000000E+00  0.00000000000E+00  0.24112044292E+03  0.24112044294E+03  0.25500000920E-02 0. -1.
        2   -1    0    0  501    0  0.00000000000E+00  0.00000000000E+00 -0.83467734290E+03  0.83467734290E+03  0.25500000920E-02 0.  1.
    10030    2    1    2    0    0  0.00000000000E+00  0.00000000000E+00 -0.59355689997E+03  0.10757977858E+04  0.89723524368E+03 0.  0.
        2    1    3    3  502    0  0.24201475699E+03  0.19722450763E+03 -0.68305668632E+03  0.75102269323E+03  0.25500000920E-02 0.  1.
       -2    1    3    3    0  502 -0.24201475699E+03 -0.19722450763E+03  0.89499786347E+02  0.32477509261E+03  0.25500000920E-02 0. -1.
</event>
<event>
 5   0  0.3806019E-03  0.9005145E+03  0.7818609E-02  0.9424938E-01
        2   -1    0    0  501    0  0.00000000000E+00  0.00000000000E+00  0.71615978313E+03  0.71615978314E+03  0.25500000920E-02 0.  1.
       -2   -1    0    0    0  501  0.00000000000E+00  0.00000000000E+00 -0.28308153472E+03  0.28308153473E+03  0.25500000920E-02 0. -1.
    10030    2    1    2    0    0  0.00000000000E+00  0.00000000000E+00  0.43307824842E+03  0.99924131787E+03  0.90051454296E+03 0.  0.
        2    1    3    3  502    0  0.43709828448E+03 -0.10773345832E+03  0.22583638332E+03  0.50365015673E+03  0.25500000920E-02 0.  1.
       -2    1    3    3    0  502 -0.43709828448E+03  0.10773345832E+03  0.20724186510E+03  0.49559116113E+03  0.25500000920E-02 0. -1.
</event>
<event>
 5   0  0.3663255E-03  0.9007184E+03  0.7818609E-02  0.9424684E-01
       -2   -1    0    0    0  501  0.00000000000E+00  0.00000000000E+00  0.85434332088E+02  0.85434332126E+02  0.25500000920E-02 0.  1.
        2   -1    0    0  501    0  0.00000000000E+00  0.00000000000E+00 -0.23740269510E+04  0.23740269510E+04  0.25500000920E-02 0. -1.
    10030    2    1    2    0    0  0.00000000000E+00  0.00000000000E+00 -0.22885926189E+04  0.24594612832E+04  0.90071839543E+03 0.  0.
        4    1    3    3  502    0 -0.16655798658E+03 -0.10257101987E+03 -0.22519712433E+04  0.22604509441E+04  0.12699999809E+01 0. -1.
       -4    1    3    3    0  502  0.16655798658E+03  0.10257101987E+03 -0.36621375641E+02  0.19901033908E+03  0.12699999809E+01 0.  1.
</event>
<event>
 5   0  0.3806019E-03  0.9032668E+03  0.7818609E-02  0.9421507E-01
       -2   -1    0    0    0  501  0.00000000000E+00  0.00000000000E+00  0.18751911704E+03  0.18751911706E+03  0.25500000920E-02 0.  1.
        2   -1    0    0  501    0  0.00000000000E+00  0.00000000000E+00 -0.10877435785E+04  0.10877435785E+04  0.25500000920E-02 0. -1.
    10030    2    1    2    0    0  0.00000000000E+00  0.00000000000E+00 -0.90022446146E+03  0.12752626956E+04  0.90326677216E+03 0.  0.
        2    1    3    3  502    0  0.41146853157E+03 -0.83739315686E+01 -0.71271425726E+03  0.82300552107E+03  0.25500000920E-02 0. -1.
       -2    1    3    3    0  502 -0.41146853157E+03  0.83739315686E+01 -0.18751020420E+03  0.45225717450E+03  0.25500000920E-02 0.  1.
</event>
<event>
 5   0  0.3806019E-03  0.8997397E+03  0.7818609E-02  0.9425907E-01
       -2   -1    0    0    0  501  0.00000000000E+00  0.00000000000E+00  0.56419831954E+03  0.56419831955E+03  0.25500000920E-02 0.  1.
        2   -1    0    0  501    0  0.00000000000E+00  0.00000000000E+00 -0.35870873856E+03  0.35870873857E+03  0.25500000920E-02 0. -1.
    10030    2    1    2    0    0  0.00000000000E+00  0.00000000000E+00  0.20548958098E+03  0.92290705812E+03  0.89973966792E+03 0.  0.
        2    1    3    3  502    0  0.71242083989E+02  0.28805952381E+03  0.44957712136E+03  0.53867737269E+03  0.25500000920E-02 0.  1.
       -2    1    3    3    0  502 -0.71242083989E+02 -0.28805952381E+03 -0.24408754038E+03  0.38422968543E+03  0.25500000920E-02 0. -1.
</event>
<event>
 5   0  0.3626546E-03  0.9085689E+03  0.7818609E-02  0.9414933E-01
        2   -1    0    0  501    0  0.00000000000E+00  0.00000000000E+00  0.93282658280E+03  0.93282658280E+03  0.25500000920E-02 0.  1.
       -2   -1    0    0    0  501  0.00000000000E+00  0.00000000000E+00 -0.22123552601E+03  0.22123552602E+03  0.25500000920E-02 0. -1.
    10030    2    1    2    0    0  0.00000000000E+00  0.00000000000E+00  0.71159105679E+03  0.11540621088E+04  0.90856894010E+03 0.  0.
        3    1    3    3  502    0  0.76166923600E+02 -0.35407573129E+03  0.70412472438E+03  0.79180973815E+03  0.10100000352E+00 0.  1.
       -3    1    3    3    0  502 -0.76166923600E+02  0.35407573129E+03  0.74663324050E+01  0.36225237067E+03  0.10100000352E+00 0. -1.
</event>
<event>
 5   0  0.2295158E-03  0.8909533E+03  0.7818609E-02  0.9436961E-01
        1   -1    0    0  501    0  0.00000000000E+00  0.00000000000E+00  0.79624862175E+03  0.79624862177E+03  0.50400001928E-02 0.  1.
       -1   -1    0    0    0  501  0.00000000000E+00  0.00000000000E+00 -0.24923050142E+03  0.24923050148E+03  0.50400001928E-02 0. -1.
    10030    2    1    2    0    0  0.00000000000E+00  0.00000000000E+00  0.54701812033E+03  0.10454791232E+04  0.89095329461E+03 0.  0.
        4    1    3    3  502    0 -0.42488378422E+03  0.12046371611E+03  0.34203319547E+03  0.55859292575E+03  0.12699999809E+01 0.  1.
       -4    1    3    3    0  502  0.42488378422E+03 -0.12046371611E+03  0.20498492486E+03  0.48688619750E+03  0.12699999809E+01 0. -1.
</event>
<event>
 5   0  0.2134145E-03  0.9098635E+03  0.7818609E-02  0.9413335E-01
       -1   -1    0    0    0  501  0.00000000000E+00  0.00000000000E+00  0.56004150254E+03  0.56004150256E+03  0.50400001928E-02 0. -1.
        1   -1    0    0  501    0  0.00000000000E+00  0.00000000000E+00 -0.36954922943E+03  0.36954922946E+03  0.50400001928E-02 0.  1.
    10030    2    1    2    0    0  0.00000000000E+00  0.00000000000E+00  0.19049227311E+03  0.92959073202E+03  0.90986351885E+03 0.  0.
        1    1    3    3  502    0  0.18712270916E+03  0.28695111764E+03 -0.21058847363E+03  0.40212355993E+03  0.50400001928E-02 0.  1.
       -1    1    3    3    0  502 -0.18712270916E+03 -0.28695111764E+03  0.40108074674E+03  0.52746717209E+03  0.50400001928E-02 0. -1.
</event>
<event>
 5   0  0.2129280E-03  0.8960740E+03  0.7818609E-02  0.9430502E-01
       -1   -1    0    0    0  501  0.00000000000E+00  0.00000000000E+00  0.37294218654E+03  0.37294218658E+03  0.50400001928E-02 0. -1.
        1   -1    0    0  501    0  0.00000000000E+00  0.00000000000E+00 -0.53825275747E+03  0.53825275749E+03  0.50400001928E-02 0.  1.
    10030    2    1    2    0    0  0.00000000000E+00  0.00000000000E+00 -0.16531057093E+03  0.91119494407E+03  0.89607401549E+03 0.  0.
        3    1    3    3  502    0 -0.70279092820E+02 -0.26645942005E+03  0.27657268588E+03  0.39042570893E+03  0.10100000352E+00 0. -1.
       -3    1    3    3    0  502  0.70279092820E+02  0.26645942005E+03 -0.44188325681E+03  0.52076923514E+03  0.10100000352E+00 0.  1.
</event>
<event>
 5   0  0.1436000E-03  0.8978120E+03  0.7818609E-02  0.9428321E-01
       -3   -1    0    0    0  501  0.00000000000E+00  0.00000000000E+00  0.29632103414E+03  0.29632105135E+03  0.10100000352E+00 0. -1.
        3   -1    0    0  501    0  0.00000000000E+00  0.00000000000E+00 -0.68006166092E+03  0.68006166842E+03  0.10100000352E+00 0.  1.
    10030    2    1    2    0    0  0.00000000000E+00  0.00000000000E+00 -0.38374062679E+03  0.97638271977E+03  0.89781197743E+03 0.  0.
        5    1    3    3  502    0 -0.39976081919E+02 -0.73103251963E+02 -0.67155173838E+03  0.67671707522E+03  0.46999998093E+01 0.  1.
       -5    1    3    3    0  502  0.39976081919E+02  0.73103251963E+02  0.28781111159E+03  0.29966564456E+03  0.46999998093E+01 0. -1.
</event>
<event>
 5   0  0.2074970E-03  0.8964055E+03  0.7818609E-02  0.9430086E-01
        1   -1    0    0  501    0  0.00000000000E+00  0.00000000000E+00  0.67495702112E+03  0.67495702114E+03  0.50400001928E-02 0. -1.
       -1   -1    0    0    0  501  0.00000000000E+00  0.00000000000E+00 -0.29762740611E+03  0.29762740615E+03  0.50400001928E-02 0.  1.
    10030    2    1    2    0    0  0.00000000000E+00  0.00000000000E+00  0.37732961501E+03  0.97258442729E+03  0.89640550525E+03 0.  0.
        2    1    3    3  502    0 -0.23246742026E+03 -0.78255079914E+02  0.59567179436E+03  0.64419705496E+03  0.25500000920E-02 0. -1.
       -2    1    3    3    0  502  0.23246742026E+03  0.78255079914E+02 -0.21834217935E+03  0.32838737233E+03  0.25500000920E-02 0.  1.
</event>
<event>
 5   0  0.2134145E-03  0.8954855E+03  0.7818609E-02  0.9431242E-01
        1   -1    0    0  501    0  0.00000000000E+00  0.00000000000E+00  0.43395127342E+03  0.43395127345E+03  0.50400001928E-02 0.  1.
       -1   -1    0    0    0  501  0.00000000000E+00  0.00000000000E+00 -0.46197252922E+03  0.46197252925E+03  0.50400001928E-02 0. -1.
    10030    2    1    2    0    0  0.00000000000E+00  0.00000000000E+00 -0.28021255803E+02  0.89592380269E+03  0.89548549372E+03 0.  0.
        1    1    3    3  502    0 -0.22857942909E+03  0.31373278952E+03 -0.23727170421E+03  0.45494470023E+03  0.50400001928E-02 0. -1.
       -1    1    3    3    0  502  0.22857942909E+03 -0.31373278952E+03  0.20925044841E+03  0.44097910246E+03  0.50400001928E-02 0.  1.
</event>
<event>
 5   0  0.3663255E-03  0.9002983E+03  0.7818609E-02  0.9425209E-01
        2   -1    0    0  501    0  0.00000000000E+00  0.00000000000E+00  0.29007088749E+03  0.29007088750E+03  0.25500000920E-02 0.  1.
       -2   -1    0    0    0  501  0.00000000000E+00  0.00000000000E+00 -0.69856800307E+03  0.69856800307E+03  0.25500000920E-02 0. -1.
    10030    2    1    2    0    0  0.00000000000E+00  0.00000000000E+00 -0.40849711558E+03  0.98863889057E+03  0.90029826308E+03 0.  0.
        4    1    3    3  502    0 -0.35015633536E+03  0.21212212390E+03  0.12719017543E+01  0.40940015300E+03  0.12699999809E+01 0.  1.
       -4    1    3    3    0  502  0.35015633536E+03 -0.21212212390E+03 -0.40976901733E+03  0.57923873757E+03  0.12699999809E+01 0. -1.
</event>
<event>
 5   0  0.3663255E-03  0.8943694E+03  0.7818609E-02  0.9432647E-01
       -2   -1    0    0    0  501  0.00000000000E+00  0.00000000000E+00  0.54682635149E+03  0.54682635150E+03  0.25500000920E-02 0.  1.
        2   -1    0    0  501    0  0.00000000000E+00  0.00000000000E+00 -0.36569957760E+03  0.36569957760E+03  0.25500000920E-02 0. -1.
    10030    2    1    2    0    0  0.00000000000E+00  0.00000000000E+00  0.18112677390E+03  0.91252592910E+03  0.89436942203E+03 0.  0.
        4    1    3    3  502    0 -0.27169435647E+03 -0.22190075849E+03  0.37352868636E+03  0.51242859248E+03  0.12699999809E+01 0.  1.
       -4    1    3    3    0  502  0.27169435647E+03  0.22190075849E+03 -0.19240191247E+03  0.40009733662E+03  0.12699999809E+01 0. -1.
</event>
<event>
 5   0  0.3806019E-03  0.9018010E+03  0.7818609E-02  0.9423333E-01
       -2   -1    0    0    0  501  0.00000000000E+00  0.00000000000E+00  0.21322259534E+03  0.21322259536E+03  0.25500000920E-02 0.  1.
        2   -1    0    0  501    0  0.00000000000E+00  0.00000000000E+00 -0.95351640316E+03  0.95351640316E+03  0.25500000920E-02 0. -1.
    10030    2    1    2    0    0  0.00000000000E+00  0.00000000000E+00 -0.74029380781E+03  0.11667389985E+04  0.90180095851E+03 0.  0.
        2    1    3    3  502    0  0.27602659449E+03 -0.32988061010E+03 -0.54516412641E+03  0.69441761391E+03  0.25500000920E-02 0.  1.
       -2    1    3    3    0  502 -0.27602659449E+03  0.32988061010E+03 -0.19512968141E+03  0.47232138461E+03  0.25500000920E-02 0. -1.
</event>
<event>
 5   0  0.2130975E-03  0.8981710E+03  0.7818609E-02  0.9427871E-01
        1   -1    0    0  501    0  0.00000000000E+00  0.00000000000E+00  0.52307661245E+03  0.52307661247E+03  0.50400001928E-02 0.  1.
       -1   -1    0    0    0  501  0.00000000000E+00  0.00000000000E+00 -0.38556067427E+03  0.38556067431E+03  0.50400001928E-02 0. -1.
    10030    2    1    2    0    0  0.00000000000E+00  0.00000000000E+00  0.13751593818E+03  0.90863728678E+03  0.89817096684E+03 0.  0.
        5    1    3    3  502    0 -0.13309385738E+03  0.37980567689E+03 -0.13278542085E+03  0.42381645208E+03  0.46999998093E+01 0. -1.
       -5    1    3    3    0  502  0.13309385738E+03 -0.37980567689E+03  0.27030135903E+03  0.48482083470E+03  0.46999998093E+01 0.  1.
</event>
<event>
 5   0  0.2295158E-03  0.9005324E+03  0.7818609E-02  0.9424916E-01
        1   -1    0    0  501    0  0.00000000000E+00  0.00000000000E+00  0.13887655492E+03  0.13887655501E+03  0.50400001928E-02 0.  1.
       -1   -1    0    0    0  501  0.00000000000E+00  0.00000000000E+00 -0.14598551065E+04  0.14598551065E+04  0.50400001928E-02 0. -1.
    10030    2    1    2    0    0  0.00000000000E+00  0.00000000000E+00 -0.13209785516E+04  0.15987316615E+04  0.90053239355E+03 0.  0.
        4    1    3    3  502    0  0.30620967829E+03  0.32989774224E+03 -0.63939750478E+03  0.78193840514E+03  0.12699999809E+01 0. -1.
       -4    1    3    3    0  502 -0.30620967829E+03 -0.32989774224E+03 -0.68158104682E+03  0.81679325640E+03  0.12699999809E+01 0.  1.
</event>
<event>
 5   0  0.2129280E-03  0.8961450E+03  0.7818609E-02  0.9430413E-01
       -1   -1    0    0    0  501  0.00000000000E+00  0.00000000000E+00  0.58057634500E+03  0.58057634502E+03  0.50400001928E-02 0.  1.
        1   -1    0    0  501    0  0.00000000000E+00  0.00000000000E+00 -0.34580976143E+03  0.34580976147E+03  0.50400001928E-02 0. -1.
    10030    2    1    2    0    0  0.00000000000E+00  0.00000000000E+00  0.23476658357E+03  0.92638610649E+03  0.89614500475E+03 0.  0.
        3    1    3    3  502    0 -0.38207718489E+03 -0.13170915990E+03  0.31740355941E+03  0.51388258167E+03  0.10100000352E+00 0. -1.
       -3    1    3    3    0  502  0.38207718489E+03  0.13170915990E+03 -0.82636975839E+02  0.41250352483E+03  0.10100000352E+00 0.  1.
</event>
<event>
 5   0  0.1436000E-03  0.9004110E+03  0.7818609E-02  0.9425068E-01
       -3   -1    0    0    0  501  0.00000000000E+00  0.00000000000E+00  0.20775921549E+04  0.20775921574E+04  0.10100000352E+00 0. -1.
        3   -1    0    0  501    0  0.00000000000E+00  0.00000000000E+00 -0.97557620745E+02  0.97557673027E+02  0.10100000352E+00 0.  1.
    10030    2    1    2    0    0  0.00000000000E+00  0.00000000000E+00  0.19800345342E+04  0.21751498304E+04  0.90041103290E+03 0.  0.
        3    1    3    3  502    0 -0.34728892911E+03  0.36130143859E+01  0.16820399427E+04  0.17175217708E+04  0.10100000352E+00 0. -1.
       -3    1    3    3    0  502  0.34728892911E+03 -0.36130143859E+01  0.29799459141E+03  0.45762805953E+03  0.10100000352E+00 0.  1.
</event>
<event>
 5   0  0.2295158E-03  0.8980760E+03  0.7818609E-02  0.9427990E-01
        1   -1    0    0  501    0  0.00000000000E+00  0.00000000000E+00  0.53648492925E+03  0.53648492928E+03  0.50400001928E-02 0. -1.
       -1   -1    0    0    0  501  0.00000000000E+00  0.00000000000E+00 -0.37584493251E+03  0.37584493254E+03  0.50400001928E-02 0.  1.
    10030    2    1    2    0    0  0.00000000000E+00  0.00000000000E+00  0.16063999675E+03  0.91232986182E+03  0.89807603699E+03 0.  0.
        4    1    3    3  502    0 -0.30137223367E+03 -0.24392998551E+03  0.31042435496E+03  0.49668093794E+03  0.12699999809E+01 0. -1.
       -4    1    3    3    0  502  0.30137223367E+03  0.24392998551E+03 -0.14978435821E+03  0.41564892388E+03  0.12699999809E+01 0.  1.
</event>
<event>
 5   0  0.2074970E-03  0.8965720E+03  0.7818609E-02  0.9429877E-01
       -1   -1    0    0    0  501  0.00000000000E+00  0.00000000000E+00  0.34081732019E+03  0.34081732023E+03  0.50400001928E-02 0.  1.
        1   -1    0    0  501    0  0.00000000000E+00  0.00000000000E+00 -0.58964234804E+03  0.58964234806E+03  0.50400001928E-02 0. -1.
    10030    2    1    2    0    0  0.00000000000E+00  0.00000000000E+00 -0.24882502785E+03  0.93045966829E+03  0.89657197136E+03 0.  0.
        2    1    3    3  502    0 -0.13680305850E+03 -0.28039050706E+03 -0.45849032011E+03  0.55456946085E+03  0.25500000920E-02 0. -1.
       -2    1    3    3    0  502  0.13680305850E+03  0.28039050706E+03  0.20966529226E+03  0.37589020744E+03  0.25500000920E-02 0.  1.
</event>
<event>
 5   0  0.3685879E-03  0.9016328E+03  0.7818609E-02  0.9423543E-01
       -2   -1    0    0    0  501  0.00000000000E+00  0.00000000000E+00  0.64527182888E+02  0.64527182938E+02  0.25500000920E-02 0.  1.
        2   -1    0    0  501    0  0.00000000000E+00  0.00000000000E+00 -0.31496096168E+04  0.31496096168E+04  0.25500000920E-02 0. -1.
    10030    2    1    2    0    0  0.00000000000E+00  0.00000000000E+00 -0.30850824339E+04  0.32141367997E+04  0.90163282072E+03 0.  0.
        1    1    3    3  502    0 -0.44692487434E+02  0.14964587950E+03 -0.30500921293E+04  0.30540879662E+04  0.50400001928E-02 0. -1.
       -1    1    3    3    0  502  0.44692487434E+02 -0.14964587950E+03 -0.34990304572E+02  0.16004883356E+03  0.50400001928E-02 0.  1.
</event>
<event>
 5   0  0.3806019E-03  0.9369737E+03  0.7818609E-02  0.9380507E-01
        2   -1    0    0  501    0  0.00000000000E+00  0.00000000000E+00  0.26842663063E+03  0.26842663064E+03  0.25500000920E-02 0.  1.
       -2   -1    0    0    0  501  0.00000000000E+00  0.00000000000E+00 -0.81765327948E+03  0.81765327949E+03  0.25500000920E-02 0. -1.
    10030    2    1    2    0    0  0.00000000000E+00  0.00000000000E+00 -0.54922664886E+03  0.10860799101E+04  0.93697367059E+03 0.  0.
        2    1    3    3  502    0  0.16571670715E+03 -0.34277623062E+02  0.23176188254E+03  0.28696786001E+03  0.25500000920E-02 0.  1.
       -2    1    3    3    0  502 -0.16571670715E+03  0.34277623062E+02 -0.78098853140E+03  0.79911205012E+03  0.25500000920E-02 0. -1.
</event>
<event>
 5   0  0.3626546E-03  0.9001746E+03  0.7818609E-02  0.9425363E-01
       -2   -1    0    0    0  501  0.00000000000E+00  0.00000000000E+00  0.20377343411E+03  0.20377343412E+03  0.25500000920E-02 0. -1.
        2   -1    0    0  501    0  0.00000000000E+00  0.00000000000E+00 -0.99413628639E+03  0.99413628639E+03  0.25500000920E-02 0.  1.
    10030    2    1    2    0    0  0.00000000000E+00  0.00000000000E+00 -0.79036285228E+03  0.11979097205E+04  0.90017457209E+03 0.  0.
        3    1    3    3  502    0  0.22765897239E+03  0.11782814805E+03  0.97136771147E+02  0.27413070366E+03  0.10100000352E+00 0. -1.
       -3    1    3    3    0  502 -0.22765897239E+03 -0.11782814805E+03 -0.88749962343E+03  0.92377901685E+03  0.10100000352E+00 0.  1.
</event>
<event>
 5   0  0.3815269E-03  0.8972983E+03  0.7818609E-02  0.9428965E-01
       -2   -1    0    0    0  501  0.00000000000E+00  0.00000000000E+00  0.14492107943E+03  0.14492107945E+03  0.25500000920E-02 0.  1.
        2   -1    0    0  501    0  0.00000000000E+00  0.00000000000E+00 -0.13889355567E+04  0.13889355567E+04  0.25500000920E-02 0. -1.
    10030    2    1    2    0    0  0.00000000000E+00  0.00000000000E+00 -0.12440144773E+04  0.15338566361E+04  0.89729825622E+03 0.  0.
        5    1    3    3  502    0 -0.37676560078E+03  0.14864481832E+03 -0.29223443552E+03  0.49947037474E+03  0.46999998093E+01 0.  1.
       -5    1    3    3    0  502  0.37676560078E+03 -0.14864481832E+03 -0.95178004173E+03  0.10343862614E+04  0.46999998093E+01 0. -1.
</event>
<event>
 5   0  0.2130975E-03  0.8970860E+03  0.7818609E-02  0.9429231E-01
        1   -1    0    0  501    0  0.00000000000E+00  0.00000000000E+00  0.54489630451E+03  0.54489630453E+03  0.50400001928E-02 0. -1.
       -1   -1    0    0    0  501  0.00000000000E+00  0.00000000000E+00 -0.36922776094E+03  0.36922776098E+03  0.50400001928E-02 0.  1.
    10030    2    1    2    0    0  0.00000000000E+00  0.00000000000E+00  0.17566854356E+03  0.91412406551E+03  0.89708604378E+03 0.  0.
        5    1    3    3  502    0  0.85398212262E+02 -0.36187189088E+03  0.34344635854E+03  0.50618337710E+03  0.46999998093E+01 0. -1.
       -5    1    3    3    0  502 -0.85398212262E+02  0.36187189088E+03 -0.16777781497E+03  0.40794068841E+03  0.46999998093E+01 0.  1.
</event>
<event>
 5   0  0.2074970E-03  0.9005538E+03  0.7818609E-02  0.9424889E-01
       -1   -1    0    0    0  501  0.00000000000E+00  0.00000000000E+00  0.19935131162E+03  0.19935131168E+03  0.50400001928E-02 0.  1.
        1   -1    0    0  501    0  0.00000000000E+00  0.00000000000E+00 -0.10170451232E+04  0.10170451232E+04  0.50400001928E-02 0. -1.
    10030    2    1    2    0    0  0.00000000000E+00  0.00000000000E+00 -0.81769381154E+03  0.12163964349E+04  0.90055378368E+03 0.  0.
        2    1    3    3  502    0  0.29794498090E+03  0.38228417190E+02 -0.86192586181E+03  0.91276985861E+03  0.25500000920E-02 0. -1.
       -2    1    3    3    0  502 -0.29794498090E+03 -0.38228417190E+02  0.44232050268E+02  0.30362657625E+03  0.25500000920E-02 0.  1.
</event>
<event>
 5   0  0.2130975E-03  0.8996899E+03  0.7818609E-02  0.9425969E-01
       -1   -1    0    0    0  501  0.00000000000E+00  0.00000000000E+00  0.41847477194E+03  0.41847477197E+03  0.50400001928E-02 0.  1.
        1   -1    0    0  501    0  0.00000000000E+00  0.00000000000E+00 -0.48356677024E+03  0.48356677027E+03  0.50400001928E-02 0. -1.
    10030    2    1    2    0    0  0.00000000000E+00  0.00000000000E+00 -0.65091998308E+02  0.90204154224E+03  0.89968993308E+03 0.  0.
        5    1    3    3  502    0  0.27179408754E+03  0.16752038981E+03 -0.35023901298E+03  0.47394573871E+03  0.46999998093E+01 0. -1.
       -5    1    3    3    0  502 -0.27179408754E+03 -0.16752038981E+03  0.28514701467E+03  0.42809580353E+03  0.46999998093E+01 0.  1.
</event>
<event>
 5   0  0.3806019E-03  0.8966317E+03  0.7818609E-02  0.9429802E-01
       -2   -1    0    0    0  501  0.00000000000E+00  0.00000000000E+00  0.79888162178E+03  0.79888162178E+03  0.25500000920E-02 0.  1.
        2   -1    0    0  501    0  0.00000000000E+00  0.00000000000E+00 -0.25158557077E+03  0.25158557078E+03  0.25500000920E-02 0. -1.
    10030    2    1    2    0    0  0.00000000000E+00  0.00000000000E+00  0.54729605100E+03  0.10504671926E+04  0.89663167198E+03 0.  0.
        2    1    3    3  502    0 -0.22899446722E+01  0.43148946567E+03  0.13112665333E+03  0.45097960270E+03  0.25500000920E-02 0. -1.
       -2    1    3    3    0  502  0.22899446722E+01 -0.43148946567E+03  0.41616939767E+03  0.59948758986E+03  0.25500000920E-02 0.  1.
</event>
<event>
 5   0  0.3685879E-03  0.9001202E+03  0.7818609E-02  0.9425431E-01
       -2   -1    0    0    0  501  0.00000000000E+00  0.00000000000E+00  0.15414072410E+04  0.15414072410E+04  0.25500000920E-02 0.  1.
        2   -1    0    0  501    0  0.00000000000E+00  0.00000000000E+00 -0.13140854177E+03  0.13140854180E+03  0.25500000920E-02 0. -1.
    10030    2    1    2    0    0  0.00000000000E+00  0.00000000000E+00  0.14099986992E+04  0.16728157828E+04  0.90012016494E+03 0.  0.
        1    1    3    3  502    0 -0.43556637022E+03 -0.11247525424E+03  0.67969920637E+03  0.81508266872E+03  0.50400001928E-02 0. -1.
       -1    1    3    3    0  502  0.43556637022E+03  0.11247525424E+03  0.73029949282E+03  0.85773311404E+03  0.50400001928E-02 0.  1.
</event>
<event>
 5   0  0.3685879E-03  0.9025309E+03  0.7818609E-02  0.9422423E-01
        2   -1    0    0  501    0  0.00000000000E+00  0.00000000000E+00  0.13483013232E+04  0.13483013232E+04  0.25500000920E-02 0.  1.
       -2   -1    0    0    0  501  0.00000000000E+00  0.00000000000E+00 -0.15103487997E+03  0.15103487999E+03  0.25500000920E-02 0. -1.
    10030    2    1    2    0    0  0.00000000000E+00  0.00000000000E+00  0.11972664432E+04  0.14993362032E+04  0.90253094912E+03 0.  0.
        1    1    3    3  502    0  0.30764093209E+02 -0.35197309772E+03  0.10649971331E+04  0.11220741439E+04  0.50400001928E-02 0.  1.
       -1    1    3    3    0  502 -0.30764093209E+02  0.35197309772E+03  0.13226931016E+03  0.37726205929E+03  0.50400001928E-02 0. -1.
</event>
<event>
 5   0  0.3626546E-03  0.8947986E+03  0.7818609E-02  0.9432107E-01
        2   -1    0    0  501    0  0.00000000000E+00  0.00000000000E+00  0.21974197430E+04  0.21974197430E+04  0.25500000920E-02 0. -1.
       -2   -1    0    0    0  501  0.00000000000E+00  0.00000000000E+00 -0.91091433482E+02  0.91091433518E+02  0.25500000920E-02 0.  1.
    10030    2    1    2    0    0  0.00000000000E+00  0.00000000000E+00  0.21063283095E+04  0.22885111765E+04  0.89479855698E+03 0.  0.
        3    1    3    3  502    0 -0.30833048429E+02 -0.44630134176E+03  0.10390303242E+04  0.11312469179E+04  0.10100000352E+00 0. -1.
       -3    1    3    3    0  502  0.30833048429E+02  0.44630134176E+03  0.10672979853E+04  0.11572642586E+04  0.10100000352E+00 0.  1.
</event>
<event>
 5   0  0.2295158E-03  0.8959982E+03  0.7818609E-02  0.9430598E-01
        1   -1    0    0  501    0  0.00000000000E+00  0.00000000000E+00  0.67250602048E+03  0.67250602049E+03  0.50400001928E-02 0.  1.
       -1   -1    0    0    0  501  0.00000000000E+00  0.00000000000E+00 -0.29844074860E+03  0.29844074864E+03  0.50400001928E-02 0. -1.
    10030    2    1    2    0    0  0.00000000000E+00  0.00000000000E+00  0.37406527188E+03  0.97094676913E+03  0.89599821476E+03 0.  0.
        4    1    3    3  502    0  0.22987636378E+03 -0.92604129466E+02  0.59145690377E+03  0.64128117806E+03  0.12699999809E+01 0.  1.
       -4    1    3    3    0  502 -0.22987636378E+03  0.92604129466E+02 -0.21739163189E+03  0.32966559107E+03  0.12699999809E+01 0. -1.
</event>
<event>
 5   0  0.3626546E-03  0.8994532E+03  0.7818609E-02  0.9426265E-01
       -2   -1    0    0    0  501  0.00000000000E+00  0.00000000000E+00  0.27914371395E+03  0.27914371396E+03  0.25500000920E-02 0. -1.
        2   -1    0    0  501    0  0.00000000000E+00  0.00000000000E+00 -0.72455158350E+03  0.72455158350E+03  0.25500000920E-02 0.  1.
    10030    2    1    2    0    0  0.00000000000E+00  0.00000000000E+00 -0.44540786955E+03  0.10036952975E+04  0.89945321162E+03 0.  0.
        3    1    3    3  502    0  0.34066395884E+03 -0.82286692840E+02 -0.53720220783E+03  0.64141192300E+03  0.10100000352E+00 0.  1.
       -3    1    3    3    0  502 -0.34066395884E+03  0.82286692840E+02  0.91794338278E+02  0.36228337446E+03  0.10100000352E+00 0. -1.
</event>
<event>
 5   0  0.2074970E-03  0.8930904E+03  0.7818609E-02  0.9434260E-01
        1   -1    0    0  501    0  0.00000000000E+00  0.00000000000E+00  0.95619071672E+03  0.95619071674E+03  0.50400001928E-02 0.  1.
       -1   -1    0    0    0  501  0.00000000000E+00  0.00000000000E+00 -0.20853854201E+03  0.20853854207E+03  0.50400001928E-02 0. -1.
    10030    2    1    2    0    0  0.00000000000E+00  0.00000000000E+00  0.74765217471E+03  0.11647292588E+04  0.89309040526E+03 0.  0.
        2    1    3    3  502    0 -0.39035834526E+03  0.96701520783E+02  0.62695265223E+03  0.74484928004E+03  0.25500000920E-02 0.  1.
       -2    1    3    3    0  502  0.39035834526E+03 -0.96701520783E+02  0.12069952249E+03  0.41987997877E+03  0.25500000920E-02 0. -1.
</event>
<event>
 5   0  0.1436000E-03  0.9001877E+03  0.7818609E-02  0.9425347E-01
        4   -1    0    0  501    0  0.00000000000E+00  0.00000000000E+00  0.53114620655E+03  0.53114772487E+03  0.12699999809E+01 0.  1.
       -4   -1    0    0    0  501  0.00000000000E+00  0.00000000000E+00 -0.38140688132E+03  0.38140899572E+03  0.12699999809E+01 0. -1.
    10030    2    1    2    0    0  0.00000000000E+00  0.00000000000E+00  0.14973932523E+03  0.91255672059E+03  0.90018770419E+03 0.  0.
        2    1    3    3  502    0  0.22002544015E+03 -0.16695631841E+03 -0.28539902893E+03  0.39716270254E+03  0.25500000920E-02 0. -1.
       -2    1    3    3    0  502 -0.22002544015E+03  0.16695631841E+03  0.43513835416E+03  0.51539401805E+03  0.25500000920E-02 0.  1.
</event>
<event>
 5   0  0.3626546E-03  0.8999586E+03  0.7818609E-02  0.9425633E-01
       -2   -1    0    0    0  501  0.00000000000E+00  0.00000000000E+00  0.24860267805E+04  0.24860267805E+04  0.25500000920E-02 0. -1.
        2   -1    0    0  501    0  0.00000000000E+00  0.00000000000E+00 -0.81447777301E+02  0.81447777341E+02  0.25500000920E-02 0.  1.
    10030    2    1    2    0    0  0.00000000000E+00  0.00000000000E+00  0.24045790032E+04  0.25674745578E+04  0.89995856712E+03 0.  0.
        3    1    3    3  502    0 -0.31093930903E+03 -0.27876717486E+03  0.72417055641E+03  0.83595298711E+03  0.10100000352E+00 0.  1.
       -3    1    3    3    0  502  0.31093930903E+03  0.27876717486E+03  0.16804084468E+04  0.17315215707E+04  0.10100000352E+00 0. -1.
</event>
<event>
 5   0  0.2074970E-03  0.8955994E+03  0.7818609E-02  0.9431099E-01
        1   -1    0    0  501    0  0.00000000000E+00  0.00000000000E+00  0.24705991572E+03  0.24705991577E+03  0.50400001928E-02 0. -1.
       -1   -1    0    0    0  501  0.00000000000E+00  0.00000000000E+00 -0.81164345224E+03  0.81164345225E+03  0.50400001928E-02 0.  1.
    10030    2    1    2    0    0  0.00000000000E+00  0.00000000000E+00 -0.56458353652E+03  0.10587033680E+04  0.89559938129E+03 0.  0.
        2    1    3    3  502    0 -0.19466058302E+03  0.28982336897E+03 -0.61377864768E+03  0.70612644486E+03  0.25500000920E-02 0.  1.
       -2    1    3    3    0  502  0.19466058302E+03 -0.28982336897E+03  0.49195111155E+02  0.35257692317E+03  0.25500000920E-02 0. -1.
</event>
<event>
 5   0  0.2074970E-03  0.8991711E+03  0.7818609E-02  0.9426618E-01
        1   -1    0    0  501    0  0.00000000000E+00  0.00000000000E+00  0.74178149937E+03  0.74178149939E+03  0.50400001928E-02 0. -1.
       -1   -1    0    0    0  501  0.00000000000E+00  0.00000000000E+00 -0.27248880863E+03  0.27248880868E+03  0.50400001928E-02 0.  1.
    10030    2    1    2    0    0  0.00000000000E+00  0.00000000000E+00  0.46929269074E+03  0.10142703081E+04  0.89917107841E+03 0.  0.
        2    1    3    3  502    0 -0.53435792237E+02  0.43635592653E+03  0.12843826111E+03  0.45799373952E+03  0.25500000920E-02 0. -1.
       -2    1    3    3    0  502  0.53435792237E+02 -0.43635592653E+03  0.34085442963E+03  0.55627656855E+03  0.25500000920E-02 0.  1.
</event>
<event>
 5   0  0.1436000E-03  0.9019686E+03  0.7818609E-02  0.9423124E-01
        3   -1    0    0  501    0  0.00000000000E+00  0.00000000000E+00  0.50863501764E+03  0.50863502767E+03  0.10100000352E+00 0.  1.
       -3   -1    0    0    0  501  0.00000000000E+00  0.00000000000E+00 -0.39986790820E+03  0.39986792096E+03  0.10100000352E+00 0. -1.
    10030    2    1    2    0    0  0.00000000000E+00  0.00000000000E+00  0.10876710944E+03  0.90850294863E+03  0.90196858236E+03 0.  0.
        5    1    3    3  502    0  0.16926928916E+03 -0.11150374173E+03 -0.35137421735E+03  0.40567364628E+03  0.46999998093E+01 0. -1.
       -5    1    3    3    0  502 -0.16926928916E+03  0.11150374173E+03  0.46014132679E+03  0.50282930234E+03  0.46999998093E+01 0.  1.
</event>
<event>
 5   0  0.2130975E-03  0.9009313E+03  0.7818609E-02  0.9424418E-01
        1   -1    0    0  501    0  0.00000000000E+00  0.00000000000E+00  0.17935075976E+04  0.17935075976E+04  0.50400001928E-02 0.  1.
       -1   -1    0    0    0  501  0.00000000000E+00  0.00000000000E+00 -0.11314104352E+03  0.11314104363E+03  0.50400001928E-02 0. -1.
    10030    2    1    2    0    0  0.00000000000E+00  0.00000000000E+00  0.16803665540E+04  0.19066486412E+04  0.90093134315E+03 0.  0.
        5    1    3    3  502    0 -0.35084126568E+03 -0.21346335601E+03  0.44857451305E+03  0.60819189555E+03  0.46999998093E+01 0.  1.
       -5    1    3    3    0  502  0.35084126568E+03  0.21346335601E+03  0.12317920410E+04  0.12984567457E+04  0.46999998093E+01 0. -1.
</event>
<event>
 5   0  0.3806019E-03  0.9016661E+03  0.7818609E-02  0.9423501E-01
        2   -1    0    0  501    0  0.00000000000E+00  0.00000000000E+00  0.44329217043E+03  0.44329217043E+03  0.25500000920E-02 0.  1.
       -2   -1    0    0    0  501  0.00000000000E+00  0.00000000000E+00 -0.45850217963E+03  0.45850217964E+03  0.25500000920E-02 0. -1.
    10030    2    1    2    0    0  0.00000000000E+00  0.00000000000E+00 -0.15210009208E+02  0.90179435008E+03  0.90166607203E+03 0.  0.
        2    1    3    3  502    0 -0.15793314416E+03 -0.27372074774E+02 -0.42904164647E+03  0.45800528700E+03  0.25500000920E-02 0. -1.
       -2    1    3    3    0  502  0.15793314416E+03  0.27372074774E+02  0.41383163727E+03  0.44378906308E+03  0.25500000920E-02 0.  1.
</event>
<event>
 5   0  0.3806019E-03  0.9015038E+03  0.7818609E-02  0.9423704E-01
        2   -1    0    0  501    0  0.00000000000E+00  0.00000000000E+00  0.14825893775E+04  0.14825893775E+04  0.25500000920E-02 0. -1.
       -2   -1    0    0    0  501  0.00000000000E+00  0.00000000000E+00 -0.13704217938E+03  0.13704217940E+03  0.25500000920E-02 0.  1.
    10030    2    1    2    0    0  0.00000000000E+00  0.00000000000E+00  0.13455471981E+04  0.16196315569E+04  0.90150380904E+03 0.  0.
        2    1    3    3  502    0  0.46528857842E+02  0.17636021790E+03  0.14133287218E+04  0.14250494507E+04  0.25500000920E-02 0. -1.
       -2    1    3    3    0  502 -0.46528857842E+02 -0.17636021790E+03 -0.67781523721E+02  0.19458210616E+03  0.25500000920E-02 0.  1.
</event>
<event>
 5   0  0.2129280E-03  0.8782666E+03  0.7818609E-02  0.9453165E-01
       -1   -1    0    0    0  501  0.00000000000E+00  0.00000000000E+00  0.39954002596E+03  0.39954002599E+03  0.50400001928E-02 0. -1.
        1   -1    0    0  501    0  0.00000000000E+00  0.00000000000E+00 -0.48265013391E+03  0.48265013393E+03  0.50400001928E-02 0.  1.
    10030    2    1    2    0    0  0.00000000000E+00  0.00000000000E+00 -0.83110107949E+02  0.88219015992E+03  0.87826658152E+03 0.  0.
        3    1    3    3  502    0  0.47203998017E+02 -0.18209903540E+03  0.35701700837E+03  0.40354606997E+03  0.10100000352E+00 0. -1.
       -3    1    3    3    0  502 -0.47203998017E+02  0.18209903540E+03 -0.44012711632E+03  0.47864408995E+03  0.10100000352E+00 0.  1.
</event>
<event>
 5   0  0.3663255E-03  0.9026538E+03  0.7818609E-02  0.9422270E-01
       -2   -1    0    0    0  501  0.00000000000E+00  0.00000000000E+00  0.21744539876E+03  0.21744539878E+03  0.25500000920E-02 0. -1.
        2   -1    0    0  501    0  0.00000000000E+00  0.00000000000E+00 -0.93676840994E+03  0.93676840994E+03  0.25500000920E-02 0.  1.
    10030    2    1    2    0    0  0.00000000000E+00  0.00000000000E+00 -0.71932301117E+03  0.11542138087E+04  0.90265382171E+03 0.  0.
        4    1    3    3  502    0  0.27467493107E+03  0.20231646072E+03 -0.73750522193E+03  0.81258466224E+03  0.12699999809E+01 0.  1.
       -4    1    3    3    0  502 -0.27467493107E+03 -0.20231646072E+03  0.18182210753E+02  0.34162914648E+03  0.12699999809E+01 0. -1.
</event>
<event>
 5   0  0.2134145E-03  0.8961688E+03  0.7818609E-02  0.9430383E-01
       -1   -1    0    0    0  501  0.00000000000E+00  0.00000000000E+00  0.27256185426E+03  0.27256185431E+03  0.50400001928E-02 0.  1.
        1   -1    0    0  501    0  0.00000000000E+00  0.00000000000E+00 -0.73663870225E+03  0.73663870227E+03  0.50400001928E-02 0. -1.
    10030    2    1    2    0    0  0.00000000000E+00  0.00000000000E+00 -0.46407684798E+03  0.10092005566E+04  0.89616875786E+03 0.  0.
        1    1    3    3  502    0  0.29447984161E+03 -0.53641939276E+02  0.14346023576E+03  0.33192871830E+03  0.50400001928E-02 0.  1.
       -1    1    3    3    0  502 -0.29447984161E+03  0.53641939276E+02 -0.60753708375E+03  0.67727183827E+03  0.50400001928E-02 0. -1.
</event>
<event>
 5   0  0.3806019E-03  0.8977338E+03  0.7818609E-02  0.9428419E-01
       -2   -1    0    0    0  501  0.00000000000E+00  0.00000000000E+00  0.31285284993E+03  0.31285284994E+03  0.25500000920E-02 0. -1.
        2   -1    0    0  501    0  0.00000000000E+00  0.00000000000E+00 -0.64401362684E+03  0.64401362684E+03  0.25500000920E-02 0.  1.
    10030    2    1    2    0    0  0.00000000000E+00  0.00000000000E+00 -0.33116077691E+03  0.95686647678E+03  0.89773381034E+03 0.  0.
        2    1    3    3  502    0 -0.90226656969E+02  0.79753799109E+02  0.29531388573E+03  0.31892288913E+03  0.25500000920E-02 0. -1.
       -2    1    3    3    0  502  0.90226656969E+02 -0.79753799109E+02 -0.62647466263E+03  0.63794358765E+03  0.25500000920E-02 0.  1.
</event>
<event>
 5   0  0.2129280E-03  0.8978574E+03  0.7818609E-02  0.9428264E-01
       -1   -1    0    0    0  501  0.00000000000E+00  0.00000000000E+00  0.40390894030E+03  0.40390894033E+03  0.50400001928E-02 0. -1.
        1   -1    0    0  501    0  0.00000000000E+00  0.00000000000E+00 -0.49896639380E+03  0.49896639383E+03  0.50400001928E-02 0.  1.
    10030    2    1    2    0    0  0.00000000000E+00  0.00000000000E+00 -0.95057453502E+02  0.90287533416E+03  0.89785742163E+03 0.  0.
        3    1    3    3  502    0 -0.11465978699E+03  0.56635154250E+02  0.38520472106E+03  0.40587817726E+03  0.10100000352E+00 0. -1.
       -3    1    3    3    0  502  0.11465978699E+03 -0.56635154250E+02 -0.48026217456E+03  0.49699715690E+03  0.10100000352E+00 0.  1.
</event>
<event>
 5   0  0.3685879E-03  0.9014469E+03  0.7818609E-02  0.9423774E-01
        2   -1    0    0  501    0  0.00000000000E+00  0.00000000000E+00  0.71694072378E+03  0.71694072378E+03  0.25500000920E-02 0. -1.
       -2   -1    0    0    0  501  0.00000000000E+00  0.00000000000E+00 -0.28335905156E+03  0.28335905157E+03  0.25500000920E-02 0.  1.
    10030    2    1    2    0    0  0.00000000000E+00  0.00000000000E+00  0.43358167222E+03  0.10002997753E+04  0.90144693359E+03 0.  0.
        1    1    3    3  502    0  0.35583096551E+02 -0.16543510557E+03  0.68035357189E+03  0.70108195935E+03  0.50400001928E-02 0. -1.
       -1    1    3    3    0  502 -0.35583096551E+02  0.16543510557E+03 -0.24677189967E+03  0.29921781600E+03  0.50400001928E-02 0.  1.
</event>
<event>
 5   0  0.1436000E-03  0.9005815E+03  0.7818609E-02  0.9424855E-01
       -4   -1    0    0    0  501  0.00000000000E+00  0.00000000000E+00  0.58361431534E+03  0.58361569716E+03  0.12699999809E+01 0. -1.
        4   -1    0    0  501    0  0.00000000000E+00  0.00000000000E+00 -0.34742130971E+03  0.34742363095E+03  0.12699999809E+01 0.  1.
    10030    2    1    2    0    0  0.00000000000E+00  0.00000000000E+00  0.23619300563E+03  0.93103932811E+03  0.90058153134E+03 0.  0.
        4    1    3    3  502    0  0.15994550234E+03 -0.11368723054E+03 -0.30089131402E+03  0.35922770754E+03  0.12699999809E+01 0.  1.
       -4    1    3    3    0  502 -0.15994550234E+03  0.11368723054E+03  0.53708431966E+03  0.57181162058E+03  0.12699999809E+01 0. -1.
</event>
<event>
 5   0  0.2134145E-03  0.9004779E+03  0.7818609E-02  0.9424984E-01
        1   -1    0    0  501    0  0.00000000000E+00  0.00000000000E+00  0.12336902682E+04  0.12336902682E+04  0.50400001928E-02 0.  1.
       -1   -1    0    0    0  501  0.00000000000E+00  0.00000000000E+00 -0.16431605004E+03  0.16431605012E+03  0.50400001928E-02 0. -1.
    10030    2    1    2    0    0  0.00000000000E+00  0.00000000000E+00  0.10693742182E+04  0.13980063184E+04  0.90047789958E+03 0.  0.
        1    1    3    3  502    0 -0.15296508549E+03  0.12904052406E+03 -0.91470388720E+02  0.22003773828E+03  0.50400001928E-02 0. -1.
       -1    1    3    3    0  502  0.15296508549E+03 -0.12904052406E+03  0.11608446069E+04  0.11779685801E+04  0.50400001928E-02 0.  1.
</event>
<event>
 5   0  0.2295158E-03  0.9020249E+03  0.7818609E-02  0.9423054E-01
        1   -1    0    0  501    0  0.00000000000E+00  0.00000000000E+00  0.74180657440E+03  0.74180657441E+03  0.50400001928E-02 0.  1.
       -1   -1    0    0    0  501  0.00000000000E+00  0.00000000000E+00 -0.27421194574E+03  0.27421194578E+03  0.50400001928E-02 0. -1.
    10030    2    1    2    0    0  0.00000000000E+00  0.00000000000E+00  0.46759462866E+03  0.10160185202E+04  0.90202488692E+03 0.  0.
        4    1    3    3  502    0 -0.23519874247E+03 -0.37575140263E+02  0.66518620553E+03  0.70654415329E+03  0.12699999809E+01 0.  1.
       -4    1    3    3    0  502  0.23519874247E+03  0.37575140263E+02 -0.19759157687E+03  0.30947436691E+03  0.12699999809E+01 0. -1.
</event>
<event>
 5   0  0.2295158E-03  0.8989082E+03  0.7818609E-02  0.9426947E-01
       -1   -1    0    0    0  501  0.00000000000E+00  0.00000000000E+00  0.21168835581E+03  0.21168835587E+03  0.50400001928E-02 0. -1.
        1   -1    0    0  501    0  0.00000000000E+00  0.00000000000E+00 -0.95427546643E+03  0.95427546644E+03  0.50400001928E-02 0.  1.
    10030    2    1    2    0    0  0.00000000000E+00  0.00000000000E+00 -0.74258711062E+03  0.11659638223E+04  0.89890823674E+03 0.  0.
        4    1    3    3  502    0  0.55551797801E+02  0.87772872809E+02  0.19590265442E+03  0.22174206265E+03  0.12699999809E+01 0. -1.
       -4    1    3    3    0  502 -0.55551797801E+02 -0.87772872809E+02 -0.93848976504E+03  0.94422175966E+03  0.12699999809E+01 0.  1.
</event>
<event>
 5   0  0.3806019E-03  0.8929587E+03  0.7818609E-02  0.9434426E-01
       -2   -1    0    0    0  501  0.00000000000E+00  0.00000000000E+00  0.31558134659E+03  0.31558134660E+03  0.25500000920E-02 0.  1.
        2   -1    0    0  501    0  0.00000000000E+00  0.00000000000E+00 -0.63167166292E+03  0.63167166293E+03  0.25500000920E-02 0. -1.
    10030    2    1    2    0    0  0.00000000000E+00  0.00000000000E+00 -0.31609031634E+03  0.94725300953E+03  0.89295866421E+03 0.  0.
        2    1    3    3  502    0 -0.43039113299E+03  0.11457934833E+03 -0.12485644623E+03  0.46255171234E+03  0.25500000920E-02 0. -1.
       -2    1    3    3    0  502  0.43039113299E+03 -0.11457934833E+03 -0.19123387011E+03  0.48470129719E+03  0.25500000920E-02 0.  1.
</event>
<event>
 5   0  0.3806019E-03  0.8968634E+03  0.7818609E-02  0.9429511E-01
       -2   -1    0    0    0  501  0.00000000000E+00  0.00000000000E+00  0.73473128898E+02  0.73473128942E+02  0.25500000920E-02 0.  1.
        2   -1    0    0  501    0  0.00000000000E+00  0.00000000000E+00 -0.27369324250E+04  0.27369324250E+04  0.25500000920E-02 0. -1.
    10030    2    1    2    0    0  0.00000000000E+00  0.00000000000E+00 -0.26634592961E+04  0.28104055539E+04  0.89686339854E+03 0.  0.
        2    1    3    3  502    0 -0.25359607794E+03  0.36452091134E+03 -0.11359233275E+04  0.12196344827E+04  0.25500000920E-02 0. -1.
       -2    1    3    3    0  502  0.25359607794E+03 -0.36452091134E+03 -0.15275359686E+04  0.15907710712E+04  0.25500000920E-02 0.  1.
</event>
<event>
 5   0  0.3663255E-03  0.8983928E+03  0.7818609E-02  0.9427593E-01
       -2   -1    0    0    0  501  0.00000000000E+00  0.00000000000E+00  0.86529338232E+02  0.86529338269E+02  0.25500000920E-02 0. -1.
        2   -1    0    0  501    0  0.00000000000E+00  0.00000000000E+00 -0.23318956307E+04  0.23318956307E+04  0.25500000920E-02 0.  1.
    10030    2    1    2    0    0  0.00000000000E+00  0.00000000000E+00 -0.22453662925E+04  0.24184249690E+04  0.89839275553E+03 0.  0.
        4    1    3    3  502    0  0.32329823755E+03  0.13904809979E+03 -0.37125082900E+03  0.51155147874E+03  0.12699999809E+01 0. -1.
       -4    1    3    3    0  502 -0.32329823755E+03 -0.13904809979E+03 -0.18741154635E+04  0.19068734902E+04  0.12699999809E+01 0.  1.
</event>
<event>
 5   0  0.3815269E-03  0.9017544E+03  0.7818609E-02  0.9423391E-01
        2   -1    0    0  501    0  0.00000000000E+00  0.00000000000E+00  0.70797718875E+03  0.70797718876E+03  0.25500000920E-02 0. -1.
       -2   -1    0    0    0  501  0.00000000000E+00  0.00000000000E+00 -0.28714238331E+03  0.28714238332E+03  0.25500000920E-02 0.  1.
    10030    2    1    2    0    0  0.00000000000E+00  0.00000000000E+00  0.42083480544E+03  0.99511957208E+03  0.90175441738E+03 0.  0.
        5    1    3    3  502    0  0.16163411719E+03  0.28838658142E+03  0.54871188235E+03  0.64062409259E+03  0.46999998093E+01 0. -1.
       -5    1    3    3    0  502 -0.16163411719E+03 -0.28838658142E+03 -0.12787707691E+03  0.35449547949E+03  0.46999998093E+01 0.  1.
</event>
<event>
 5   0  0.3806019E-03  0.9010327E+03  0.7818609E-02  0.9424291E-01
        2   -1    0    0  501    0  0.00000000000E+00  0.00000000000E+00  0.10573118320E+04  0.10573118320E+04  0.25500000920E-02 0.  1.
       -2   -1    0    0    0  501  0.00000000000E+00  0.00000000000E+00 -0.19196323282E+03  0.19196323283E+03  0.25500000920E-02 0. -1.
    10030    2    1    2    0    0  0.00000000000E+00  0.00000000000E+00  0.86534859923E+03  0.12492750649E+04  0.90103273500E+03 0.  0.
        2    1    3    3  502    0 -0.26679083747E+03 -0.21014888062E+03  0.22251241835E+02  0.34034544327E+03  0.25500000920E-02 0. -1.
       -2    1    3    3    0  502  0.26679083747E+03  0.21014888062E+03  0.84309735739E+03  0.90892962161E+03  0.25500000920E-02 0.  1.
</event>
<event>
 5   0  0.3685879E-03  0.9005095E+03  0.7818609E-02  0.9424945E-01
       -2   -1    0    0    0  501  0.00000000000E+00  0.00000000000E+00  0.33595539753E+03  0.33595539754E+03  0.25500000920E-02 0.  1.
        2   -1    0    0  501    0  0.00000000000E+00  0.00000000000E+00 -0.60344123420E+03  0.60344123421E+03  0.25500000920E-02 0. -1.
    10030    2    1    2    0    0  0.00000000000E+00  0.00000000000E+00 -0.26748583667E+03  0.93939663175E+03  0.90050949963E+03 0.  0.
        1    1    3    3  502    0  0.29198396365E+03  0.17739799630E+03 -0.43967264631E+03  0.55680941089E+03  0.50400001928E-02 0. -1.
       -1    1    3    3    0  502 -0.29198396365E+03 -0.17739799630E+03  0.17218680964E+03  0.38258722085E+03  0.50400001928E-02 0.  1.
</event>
<event>
 5   0  0.3663255E-03  0.8994790E+03  0.7818609E-02  0.9426233E-01
        2   -1    0    0  501    0  0.00000000000E+00  0.00000000000E+00  0.68619776088E+03  0.68619776089E+03  0.25500000920E-02 0. -1.
       -2   -1    0    0    0  501  0.00000000000E+00  0.00000000000E+00 -0.29476285562E+03  0.29476285563E+03  0.25500000920E-02 0.  1.
    10030    2    1    2    0    0  0.00000000000E+00  0.00000000000E+00  0.39143490526E+03  0.98096061652E+03  0.89947898592E+03 0.  0.
        4    1    3    3  502    0 -0.10917657303E+03  0.44609222894E+02  0.66903057024E+03  0.67934749847E+03  0.12699999809E+01 0. -1.
       -4    1    3    3    0  502  0.10917657303E+03 -0.44609222894E+02 -0.27759566498E+03  0.30161311805E+03  0.12699999809E+01 0.  1.
</event>
<event>
 5   0  0.3663255E-03  0.9002122E+03  0.7818609E-02  0.9425316E-01
       -2   -1    0    0    0  501  0.00000000000E+00  0.00000000000E+00  0.14915742878E+03  0.14915742881E+03  0.25500000920E-02 0.  1.
        2   -1    0    0  501    0  0.00000000000E+00  0.00000000000E+00 -0.13582661191E+04  0.13582661191E+04  0.25500000920E-02 0. -1.
    10030    2    1    2    0    0  0.00000000000E+00  0.00000000000E+00 -0.12091086903E+04  0.15074235479E+04  0.90021215709E+03 0.  0.
        4    1    3    3  502    0 -0.18661615547E+03 -0.29099915113E+03 -0.12187470252E+03  0.36655306772E+03  0.12699999809E+01 0.  1.
       -4    1    3    3    0  502  0.18661615547E+03  0.29099915113E+03 -0.10872339878E+04  0.11408704802E+04  0.12699999809E+01 0. -1.
</event>
<event>
 5   0  0.3815269E-03  0.9162101E+03  0.7818609E-02  0.9405542E-01
        2   -1    0    0  501    0  0.00000000000E+00  0.00000000000E+00  0.11770905530E+04  0.11770905530E+04  0.25500000920E-02 0.  1.
       -2   -1    0    0    0  501  0.00000000000E+00  0.00000000000E+00 -0.17828725748E+03  0.17828725749E+03  0.25500000920E-02 0. -1.
    10030    2    1    2    0    0  0.00000000000E+00  0.00000000000E+00  0.99880329557E+03  0.13553778105E+04  0.91621012113E+03 0.  0.
        5    1    3    3  502    0  0.20698301215E+03  0.16802577128E+02 -0.10461810778E+03  0.23257543377E+03  0.46999998093E+01 0. -1.
       -5    1    3    3    0  502 -0.20698301215E+03 -0.16802577128E+02  0.11034214034E+04  0.11228023768E+04  0.46999998093E+01 0.  1.
</event>
<event>
 5   0  0.2074970E-03  0.8704007E+03  0.7818609E-02  0.9463358E-01
        1   -1    0    0  501    0  0.00000000000E+00  0.00000000000E+00  0.47391191528E+03  0.47391191531E+03  0.50400001928E-02 0. -1.
       -1   -1    0    0    0  501  0.00000000000E+00  0.00000000000E+00 -0.39965093629E+03  0.39965093632E+03  0.50400001928E-02 0.  1.
    10030    2    1    2    0    0  0.00000000000E+00  0.00000000000E+00  0.74260978994E+02  0.87356285163E+03  0.87040069091E+03 0.  0.
        2    1    3    3  502    0 -0.42813305142E+03  0.44640081901E+02  0.10146245666E+03  0.44225024223E+03  0.25500000920E-02 0. -1.
       -2    1    3    3    0  502  0.42813305142E+03 -0.44640081901E+02 -0.27201477670E+02  0.43131260940E+03  0.25500000920E-02 0.  1.
</event>
<event>
 5   0  0.3815269E-03  0.8928698E+03  0.7818609E-02  0.9434539E-01
        2   -1    0    0  501    0  0.00000000000E+00  0.00000000000E+00  0.54185708471E+03  0.54185708472E+03  0.25500000920E-02 0. -1.
       -2   -1    0    0    0  501  0.00000000000E+00  0.00000000000E+00 -0.36781677238E+03  0.36781677239E+03  0.25500000920E-02 0.  1.
    10030    2    1    2    0    0  0.00000000000E+00  0.00000000000E+00  0.17404031234E+03  0.90967385711E+03  0.89286980909E+03 0.  0.
        5    1    3    3  502    0 -0.43428367121E+03  0.12846614709E+02  0.19149117768E+03  0.47482449780E+03  0.46999998093E+01 0.  1.
       -5    1    3    3    0  502  0.43428367121E+03 -0.12846614709E+02 -0.17450865340E+02  0.43484935930E+03  0.46999998093E+01 0. -1.
</event>
<event>
 5   0  0.3626546E-03  0.9001333E+03  0.7818609E-02  0.9425415E-01
        2   -1    0    0  501    0  0.00000000000E+00  0.00000000000E+00  0.73552320775E+03  0.73552320775E+03  0.25500000920E-02 0.  1.
       -2   -1    0    0    0  501  0.00000000000E+00  0.00000000000E+00 -0.27539579797E+03  0.27539579798E+03  0.25500000920E-02 0. -1.
    10030    2    1    2    0    0  0.00000000000E+00  0.00000000000E+00  0.46012740978E+03  0.10109190057E+04  0.90013332508E+03 0.  0.
        3    1    3    3  502    0 -0.13631590771E+03 -0.15342210600E+02  0.71147295020E+03  0.72457655164E+03  0.10100000352E+00 0.  1.
       -3    1    3    3    0  502  0.13631590771E+03  0.15342210600E+02 -0.25134554042E+03  0.28634245409E+03  0.10100000352E+00 0. -1.
</event>
<event>
 5   0  0.1436000E-03  0.8989706E+03  0.7818609E-02  0.9426869E-01
        4   -1    0    0  501    0  0.00000000000E+00  0.00000000000E+00  0.10144956859E+04  0.10144964808E+04  0.12699999809E+01 0.  1.
       -4   -1    0    0    0  501  0.00000000000E+00  0.00000000000E+00 -0.19914732360E+03  0.19915137307E+03  0.12699999809E+01 0. -1.
    10030    2    1    2    0    0  0.00000000000E+00  0.00000000000E+00  0.81534836232E+03  0.12136478539E+04  0.89897061208E+03 0.  0.
        4    1    3    3  502    0 -0.24961480714E+03  0.13889632551E+03 -0.60842214432E+02  0.29206699427E+03  0.12699999809E+01 0. -1.
       -4    1    3    3    0  502  0.24961480714E+03 -0.13889632551E+03  0.87619057675E+03  0.92158085965E+03  0.12699999809E+01 0.  1.
</event>
<event>
 5   0  0.2134145E-03  0.9007280E+03  0.7818609E-02  0.9424672E-01
        1   -1    0    0  501    0  0.00000000000E+00  0.00000000000E+00  0.12516599352E+04  0.12516599352E+04  0.50400001928E-02 0. -1.
       -1   -1    0    0    0  501  0.00000000000E+00  0.00000000000E+00 -0.16204700340E+03  0.16204700348E+03  0.50400001928E-02 0.  1.
    10030    2    1    2    0    0  0.00000000000E+00  0.00000000000E+00  0.10896129318E+04  0.14137069387E+04  0.90072802073E+03 0.  0.
        1    1    3    3  502    0 -0.25859702979E+03 -0.22699697095E+03  0.88760962721E+02  0.35535694333E+03  0.50400001928E-02 0.  1.
       -1    1    3    3    0  502  0.25859702979E+03  0.22699697095E+03  0.10008519691E+04  0.10583499953E+04  0.50400001928E-02 0. -1.
</event>
<event>
 5   0  0.2130975E-03  0.8942241E+03  0.7818609E-02  0.9432831E-01
       -1   -1    0    0    0  501  0.00000000000E+00  0.00000000000E+00  0.25472121361E+03  0.25472121366E+03  0.50400001928E-02 0.  1.
        1   -1    0    0  501    0  0.00000000000E+00  0.00000000000E+00 -0.78481553908E+03  0.78481553909E+03  0.50400001928E-02 0. -1.
    10030    2    1    2    0    0  0.00000000000E+00  0.00000000000E+00 -0.53009432547E+03  0.10395367528E+04  0.89422405830E+03 0.  0.
        5    1    3    3  502    0  0.15417650882E+03 -0.16518325002E+03  0.18343012417E+03  0.29107490859E+03  0.46999998093E+01 0.  1.
       -5    1    3    3    0  502 -0.15417650882E+03  0.16518325002E+03 -0.71352444963E+03  0.74846184417E+03  0.46999998093E+01 0. -1.
</event>
<event>
 5   0  0.2130975E-03  0.9011370E+03  0.7818609E-02  0.9424161E-01
       -1   -1    0    0    0  501  0.00000000000E+00  0.00000000000E+00  0.91781751532E+03  0.91781751533E+03  0.50400001928E-02 0. -1.
        1   -1    0    0  501    0  0.00000000000E+00  0.00000000000E+00 -0.22118992838E+03  0.22118992844E+03  0.50400001928E-02 0.  1.
    10030    2    1    2    0    0  0.00000000000E+00  0.00000000000E+00  0.69662758693E+03  0.11390074438E+04  0.90113703846E+03 0.  0.
        5    1    3    3  502    0  0.37025101373E+03  0.41422483486E+02  0.28082668418E+02  0.37364737597E+03  0.46999998093E+01 0.  1.
       -5    1    3    3    0  502 -0.37025101373E+03 -0.41422483486E+02  0.66854491851E+03  0.76536006780E+03  0.46999998093E+01 0. -1.
</event>
<event>
 5   0  0.1436000E-03  0.8979229E+03  0.7818609E-02  0.9428182E-01
       -3   -1    0    0    0  501  0.00000000000E+00  0.00000000000E+00  0.31964838351E+03  0.31964839947E+03  0.10100000352E+00 0.  1.
        3   -1    0    0  501    0  0.00000000000E+00  0.00000000000E+00 -0.63058776354E+03  0.63058777162E+03  0.10100000352E+00 0. -1.
    10030    2    1    2    0    0  0.00000000000E+00  0.00000000000E+00 -0.31093938003E+03  0.95023617109E+03  0.89792287130E+03 0.  0.
        3    1    3    3  502    0 -0.61902260503E+02  0.41234243548E+03  0.20685959320E+02  0.41747585927E+03  0.10100000352E+00 0.  1.
       -3    1    3    3    0  502  0.61902260503E+02 -0.41234243548E+03 -0.33162533935E+03  0.53276031182E+03  0.10100000352E+00 0. -1.
</event>
<event>
 5   0  0.3685879E-03  0.8759177E+03  0.7818609E-02  0.9456197E-01
       -2   -1    0    0    0  501  0.00000000000E+00  0.00000000000E+00  0.12088030492E+03  0.12088030495E+03  0.25500000920E-02 0. -1.
        2   -1    0    0  501    0  0.00000000000E+00  0.00000000000E+00 -0.15867591827E+04  0.15867591827E+04  0.25500000920E-02 0.  1.
    10030    2    1    2    0    0  0.00000000000E+00  0.00000000000E+00 -0.14658788778E+04  0.17076394877E+04  0.87591765337E+03 0.  0.
        1    1    3    3  502    0 -0.33208777977E+02 -0.15172918097E+03  0.65382201463E+02  0.16852121405E+03  0.50400001928E-02 0. -1.
       -1    1    3    3    0  502  0.33208777977E+02  0.15172918097E+03 -0.15312610793E+04  0.15391182736E+04  0.50400001928E-02 0.  1.
</event>
<event>
 5   0  0.3685879E-03  0.9035053E+03  0.7818609E-02  0.9421210E-01
       -2   -1    0    0    0  501  0.00000000000E+00  0.00000000000E+00  0.74382703318E+03  0.74382703319E+03  0.25500000920E-02 0.  1.
        2   -1    0    0  501    0  0.00000000000E+00  0.00000000000E+00 -0.27436548488E+03  0.27436548489E+03  0.25500000920E-02 0. -1.
    10030    2    1    2    0    0  0.00000000000E+00  0.00000000000E+00  0.46946154830E+03  0.10181925181E+04  0.90350531738E+03 0.  0.
        1    1    3    3  502    0  0.19559272052E+03  0.31472917250E+03  0.52592868270E+03  0.64335988658E+03  0.50400001928E-02 0.  1.
       -1    1    3    3    0  502 -0.19559272052E+03 -0.31472917250E+03 -0.56467134405E+02  0.37483263150E+03  0.50400001928E-02 0. -1.
</event>
<event>
 5   0  0.2295158E-03  0.9249044E+03  0.7818609E-02  0.9394974E-01
       -1   -1    0    0    0  501  0.00000000000E+00  0.00000000000E+00  0.87171295642E+02  0.87171295788E+02  0.50400001928E-02 0. -1.
        1   -1    0    0  501    0  0.00000000000E+00  0.00000000000E+00 -0.24533536641E+04  0.24533536641E+04  0.50400001928E-02 0.  1.
    10030    2    1    2    0    0  0.00000000000E+00  0.00000000000E+00 -0.23661823685E+04  0.25405249599E+04  0.92490435778E+03 0.  0.
        4    1    3    3  502    0 -0.23480389564E+03 -0.38494394987E+03 -0.14651659002E+04  0.15329799222E+04  0.12699999809E+01 0.  1.
       -4    1    3    3    0  502  0.23480389564E+03  0.38494394987E+03 -0.90101646831E+03  0.10075450377E+04  0.12699999809E+01 0. -1.
</event>
<event>
 5   0  0.3806019E-03  0.9004135E+03  0.7818609E-02  0.9425065E-01
       -2   -1    0    0    0  501  0.00000000000E+00  0.00000000000E+00  0.12816454281E+03  0.12816454284E+03  0.25500000920E-02 0. -1.
        2   -1    0    0  501    0  0.00000000000E+00  0.00000000000E+00 -0.15814523428E+04  0.15814523428E+04  0.25500000920E-02 0.  1.
    10030    2    1    2    0    0  0.00000000000E+00  0.00000000000E+00 -0.14532877999E+04  0.17096168856E+04  0.90041349725E+03 0.  0.
        2    1    3    3  502    0 -0.87498554231E+01  0.37180204007E+03 -0.24490912204E+03  0.44530191448E+03  0.25500000920E-02 0. -1.
       -2    1    3    3    0  502  0.87498554231E+01 -0.37180204007E+03 -0.12083786779E+04  0.12643149711E+04  0.25500000920E-02 0.  1.
</event>
<event>
 5   0  0.1436000E-03  0.8882651E+03  0.7818609E-02  0.9440371E-01
       -3   -1    0    0    0  501  0.00000000000E+00  0.00000000000E+00  0.97160679700E+03  0.97160680225E+03  0.10100000352E+00 0.  1.
        3   -1    0    0  501    0  0.00000000000E+00  0.00000000000E+00 -0.20301802436E+03  0.20301804948E+03  0.10100000352E+00 0. -1.
    10030    2    1    2    0    0  0.00000000000E+00  0.00000000000E+00  0.76858877264E+03  0.11746248517E+04  0.88826507355E+03 0.  0.
        2    1    3    3  502    0 -0.12061943015E+03 -0.13566429301E+03 -0.15171846146E+03  0.23658473933E+03  0.25500000920E-02 0. -1.
       -2    1    3    3    0  502  0.12061943015E+03  0.13566429301E+03  0.92030723411E+03  0.93804011241E+03  0.25500000920E-02 0.  1.
</event>
<event>
 5   0  0.3815269E-03  0.8970596E+03  0.7818609E-02  0.9429265E-01
       -2   -1    0    0    0  501  0.00000000000E+00  0.00000000000E+00  0.33143801785E+03  0.33143801786E+03  0.25500000920E-02 0. -1.
        2   -1    0    0  501    0  0.00000000000E+00  0.00000000000E+00 -0.60698819595E+03  0.60698819596E+03  0.25500000920E-02 0.  1.
    10030    2    1    2    0    0  0.00000000000E+00  0.00000000000E+00 -0.27555017811E+03  0.93842621382E+03  0.89705956220E+03 0.  0.
        5    1    3    3  502    0  0.30744789561E+03  0.22463843789E+03  0.11015656845E+03  0.39641291082E+03  0.46999998093E+01 0. -1.
       -5    1    3    3    0  502 -0.30744789561E+03 -0.22463843789E+03 -0.38570674655E+03  0.54201330300E+03  0.46999998093E+01 0.  1.
</event>
<event>
 5   0  0.3815269E-03  0.8986027E+03  0.7818609E-02  0.9427330E-01
       -2   -1    0    0    0  501  0.00000000000E+00  0.00000000000E+00  0.25977614543E+03  0.25977614544E+03  0.25500000920E-02 0.  1.
        2   -1    0    0  501    0  0.00000000000E+00  0.00000000000E+00 -0.77709860724E+03  0.77709860725E+03  0.25500000920E-02 0. -1.
    10030    2    1    2    0    0  0.00000000000E+00  0.00000000000E+00 -0.51732246181E+03  0.10368747527E+04  0.89860265038E+03 0.  0.
        5    1    3    3  502    0  0.26253312110E+03 -0.34540862434E+03 -0.39331811409E+03  0.58562102618E+03  0.46999998093E+01 0. -1.
       -5    1    3    3    0  502 -0.26253312110E+03  0.34540862434E+03 -0.12400434773E+03  0.45125372651E+03  0.46999998093E+01 0.  1.
</event>
<event>
 5   0  0.2134145E-03  0.8987615E+03  0.7818609E-02  0.9427131E-01
       -1   -1    0    0    0  501  0.00000000000E+00  0.00000000000E+00  0.10583477313E+03  0.10583477325E+03  0.50400001928E-02 0.  1.
        1   -1    0    0  501    0  0.00000000000E+00  0.00000000000E+00 -0.19080973888E+04  0.19080973888E+04  0.50400001928E-02 0. -1.
    10030    2    1    2    0    0  0.00000000000E+00  0.00000000000E+00 -0.18022626157E+04  0.20139321621E+04  0.89876149092E+03 0.  0.
        1    1    3    3  502    0 -0.61688050009E+01 -0.44433928885E+03 -0.10509056281E+04  0.11409987278E+04  0.50400001928E-02 0. -1.
       -1    1    3    3    0  502  0.61688050009E+01  0.44433928885E+03 -0.75135698764E+03  0.87293343427E+03  0.50400001928E-02 0.  1.
</event>
<event>
 5   0  0.2295158E-03  0.9004749E+03  0.7818609E-02  0.9424988E-01
        1   -1    0    0  501    0  0.00000000000E+00  0.00000000000E+00  0.40742523421E+03  0.40742523424E+03  0.50400001928E-02 0. -1.
       -1   -1    0    0    0  501  0.00000000000E+00  0.00000000000E+00 -0.49754842363E+03  0.49754842365E+03  0.50400001928E-02 0.  1.
    10030    2    1    2    0    0  0.00000000000E+00  0.00000000000E+00 -0.90123189421E+02  0.90497365789E+03  0.90047494813E+03 0.  0.
        4    1    3    3  502    0 -0.22946368446E+02  0.89470485416E+02  0.39779926289E+03  0.40838385135E+03  0.12699999809E+01 0. -1.
       -4    1    3    3    0  502  0.22946368446E+02 -0.89470485416E+02 -0.48792245232E+03  0.49658980654E+03  0.12699999809E+01 0.  1.
</event>
<event>
 5   0  0.3626546E-03  0.9003372E+03  0.7818609E-02  0.9425160E-01
        2   -1    0    0  501    0  0.00000000000E+00  0.00000000000E+00  0.15776263268E+04  0.15776263268E+04  0.25500000920E-02 0.  1.
       -2   -1    0    0    0  501  0.00000000000E+00  0.00000000000E+00 -0.12845358209E+03  0.12845358212E+03  0.25500000920E-02 0. -1.
    10030    2    1    2    0    0  0.00000000000E+00  0.00000000000E+00  0.14491727447E+04  0.17060799089E+04  0.90033716552E+03 0.  0.
        3    1    3    3  502    0 -0.35578324668E+03 -0.27079972873E+03  0.62544071094E+03  0.76882397517E+03  0.10100000352E+00 0.  1.
       -3    1    3    3    0  502  0.35578324668E+03  0.27079972873E+03  0.82373203376E+03  0.93725593374E+03  0.10100000352E+00 0. -1.
</event>
<event>
 5   0  0.3685879E-03  0.8996539E+03  0.7818609E-02  0.9426014E-01
        2   -1    0    0  501    0  0.00000000000E+00  0.00000000000E+00  0.10315198474E+04  0.10315198474E+04  0.25500000920E-02 0.  1.
       -2   -1    0    0    0  501  0.00000000000E+00  0.00000000000E+00 -0.19616128990E+03  0.19616128992E+03  0.25500000920E-02 0. -1.
    10030    2    1    2    0    0  0.00000000000E+00  0.00000000000E+00  0.83535855749E+03  0.12276811373E+04  0.89965385307E+03 0.  0.
        1    1    3    3  502    0  0.35182300224E+03  0.72246119159E+02  0.48109547973E+02  0.36237198467E+03  0.50400001928E-02 0. -1.
       -1    1    3    3    0  502 -0.35182300224E+03 -0.72246119159E+02  0.78724900951E+03  0.86530915264E+03  0.50400001928E-02 0.  1.
</event>
<event>
 5   0  0.3815269E-03  0.9001530E+03  0.7818609E-02  0.9425390E-01
        2   -1    0    0  501    0  0.00000000000E+00  0.00000000000E+00  0.11098891752E+04  0.11098891752E+04  0.25500000920E-02 0.  1.
       -2   -1    0    0    0  501  0.00000000000E+00  0.00000000000E+00 -0.18251267472E+03  0.18251267473E+03  0.25500000920E-02 0. -1.
    10030    2    1    2    0    0  0.00000000000E+00  0.00000000000E+00  0.92737650049E+03  0.12924018499E+04  0.90015296927E+03 0.  0.
        5    1    3    3  502    0  0.19051682951E+03  0.38522921872E+03  0.27187324159E+03  0.50856205400E+03  0.46999998093E+01 0.  1.
       -5    1    3    3    0  502 -0.19051682951E+03 -0.38522921872E+03  0.65550325890E+03  0.78383979594E+03  0.46999998093E+01 0. -1.
</event>
<event>
 5   0  0.1436000E-03  0.9062707E+03  0.7818609E-02  0.9417776E-01
        4   -1    0    0  501    0  0.00000000000E+00  0.00000000000E+00  0.32850076678E+03  0.32850322171E+03  0.12699999809E+01 0. -1.
       -4   -1    0    0    0  501  0.00000000000E+00  0.00000000000E+00 -0.62505141414E+03  0.62505270435E+03  0.12699999809E+01 0.  1.
    10030    2    1    2    0    0  0.00000000000E+00  0.00000000000E+00 -0.29655064736E+03  0.95355592607E+03  0.90627071986E+03 0.  0.
        1    1    3    3  502    0  0.29281999982E+02 -0.38509205555E+03  0.10111099470E+03  0.39922018993E+03  0.50400001928E-02 0. -1.
       -1    1    3    3    0  502 -0.29281999982E+02  0.38509205555E+03 -0.39766164206E+03  0.55433573614E+03  0.50400001928E-02 0.  1.
</event>
<event>
 5   0  0.3626546E-03  0.9034241E+03  0.7818609E-02  0.9421311E-01
       -2   -1    0    0    0  501  0.00000000000E+00  0.00000000000E+00  0.60553357008E+03  0.60553357008E+03  0.25500000920E-02 0. -1.
        2   -1    0    0  501    0  0.00000000000E+00  0.00000000000E+00 -0.33696527664E+03  0.33696527665E+03  0.25500000920E-02 0.  1.
    10030    2    1    2    0    0  0.00000000000E+00  0.00000000000E+00  0.26856829343E+03  0.94249884673E+03  0.90342412402E+03 0.  0.
        3    1    3    3  502    0 -0.24810000133E+03 -0.20041972036E+02 -0.25896572237E+03  0.35919151837E+03  0.10100000352E+00 0.  1.
       -3    1    3    3    0  502  0.24810000133E+03  0.20041972036E+02  0.52753401580E+03  0.58330732837E+03  0.10100000352E+00 0. -1.
</event>
<event>
 5   0  0.3663255E-03  0.9014133E+03  0.7818609E-02  0.9423816E-01
       -2   -1    0    0    0  501  0.00000000000E+00  0.00000000000E+00  0.24045764650E+03  0.24045764652E+03  0.25500000920E-02 0.  1.
        2   -1    0    0  501    0  0.00000000000E+00  0.00000000000E+00 -0.84479113951E+03  0.84479113951E+03  0.25500000920E-02 0. -1.
    10030    2    1    2    0    0  0.00000000000E+00  0.00000000000E+00 -0.60433349301E+03  0.10852487860E+04  0.90141331076E+03 0.  0.
        4    1    3    3  502    0  0.33410625717E+03  0.93668771077E+02 -0.64846274645E+03  0.73546337515E+03  0.12699999809E+01 0. -1.
       -4    1    3    3    0  502 -0.33410625717E+03 -0.93668771077E+02  0.44129253443E+02  0.34978541088E+03  0.12699999809E+01 0.  1.
</event>
<event>
 5   0  0.2130975E-03  0.8983130E+03  0.7818609E-02  0.9427693E-01
        1   -1    0    0  501    0  0.00000000000E+00  0.00000000000E+00  0.45219819861E+03  0.45219819864E+03  0.50400001928E-02 0.  1.
       -1   -1    0    0    0  501  0.00000000000E+00  0.00000000000E+00 -0.44613525562E+03  0.44613525564E+03  0.50400001928E-02 0. -1.
    10030    2    1    2    0    0  0.00000000000E+00  0.00000000000E+00  0.60629429910E+01  0.89833345428E+03  0.89831299434E+03 0.  0.
        5    1    3    3  502    0  0.36025575665E+03  0.25416960400E+02  0.27003799628E+03  0.45096878108E+03  0.46999998093E+01 0.  1.
       -5    1    3    3    0  502 -0.36025575665E+03 -0.25416960400E+02 -0.26397505329E+03  0.44736467320E+03  0.46999998093E+01 0. -1.
</event>
<event>
 5   0  0.3626546E-03  0.9021270E+03  0.7818609E-02  0.9422926E-01
       -2   -1    0    0    0  501  0.00000000000E+00  0.00000000000E+00  0.16177629551E+03  0.16177629553E+03  0.25500000920E-02 0. -1.
        2   -1    0    0  501    0  0.00000000000E+00  0.00000000000E+00 -0.12576521100E+04  0.12576521100E+04  0.25500000920E-02 0.  1.
    10030    2    1    2    0    0  0.00000000000E+00  0.00000000000E+00 -0.10958758145E+04  0.14194284055E+04  0.90212704074E+03 0.  0.
        3    1    3    3  502    0 -0.23927592835E+02  0.61220706871E+02  0.15420033374E+03  0.16762534944E+03  0.10100000352E+00 0. -1.
       -3    1    3    3    0  502  0.23927592835E+02 -0.61220706871E+02 -0.12500761482E+04  0.12518030561E+04  0.10100000352E+00 0.  1.
</event>
<event>
 5   0  0.3663255E-03  0.9019330E+03  0.7818609E-02  0.9423168E-01
       -2   -1    0    0    0  501  0.00000000000E+00  0.00000000000E+00  0.19067242005E+03  0.19067242007E+03  0.25500000920E-02 0.  1.
        2   -1    0    0  501    0  0.00000000000E+00  0.00000000000E+00 -0.10665977439E+04  0.10665977439E+04  0.25500000920E-02 0. -1.
    10030    2    1    2    0    0  0.00000000000E+00  0.00000000000E+00 -0.87592532386E+03  0.12572701640E+04  0.90193297548E+03 0.  0.
        4    1    3    3  502    0  0.32938419188E+03 -0.30587038625E+03 -0.38734548857E+03  0.59337069313E+03  0.12699999809E+01 0. -1.
       -4    1    3    3    0  502 -0.32938419188E+03  0.30587038625E+03 -0.48857983530E+03  0.66389947086E+03  0.12699999809E+01 0.  1.
</event>
<event>
 5   0  0.3685879E-03  0.9163850E+03  0.7818609E-02  0.9405328E-01
        2   -1    0    0  501    0  0.00000000000E+00  0.00000000000E+00  0.46310880900E+03  0.46310880900E+03  0.25500000920E-02 0. -1.
       -2   -1    0    0    0  501  0.00000000000E+00  0.00000000000E+00 -0.45332837919E+03  0.45332837919E+03  0.25500000920E-02 0.  1.
    10030    2    1    2    0    0  0.00000000000E+00  0.00000000000E+00  0.97804298103E+01  0.91643718820E+03  0.91638499720E+03 0.  0.
        1    1    3    3  502    0 -0.43929955010E+03  0.12362113397E+03  0.45808144454E+02  0.45865527971E+03  0.50400001928E-02 0. -1.
       -1    1    3    3    0  502  0.43929955010E+03 -0.12362113397E+03 -0.36027714644E+02  0.45778190848E+03  0.50400001928E-02 0.  1.
</event>
<event>
 5   0  0.2295158E-03  0.9011592E+03  0.7818609E-02  0.9424134E-01
        1   -1    0    0  501    0  0.00000000000E+00  0.00000000000E+00  0.10215590795E+04  0.10215590795E+04  0.50400001928E-02 0.  1.
       -1   -1    0    0    0  501  0.00000000000E+00  0.00000000000E+00 -0.19873736639E+03  0.19873736645E+03  0.50400001928E-02 0. -1.
    10030    2    1    2    0    0  0.00000000000E+00  0.00000000000E+00  0.82282171312E+03  0.12202964460E+04  0.90115916712E+03 0.  0.
        4    1    3    3  502    0  0.84967296115E+02  0.42895291732E+03  0.55851008473E+03  0.70933431774E+03  0.12699999809E+01 0.  1.
       -4    1    3    3    0  502 -0.84967296115E+02 -0.42895291732E+03  0.26431162840E+03  0.51096212823E+03  0.12699999809E+01 0. -1.
</event>
<event>
 5   0  0.3626546E-03  0.8982870E+03  0.7818609E-02  0.9427725E-01
        2   -1    0    0  501    0  0.00000000000E+00  0.00000000000E+00  0.86283939916E+03  0.86283939916E+03  0.25500000920E-02 0. -1.
       -2   -1    0    0    0  501  0.00000000000E+00  0.00000000000E+00 -0.23379773992E+03  0.23379773993E+03  0.25500000920E-02 0.  1.
    10030    2    1    2    0    0  0.00000000000E+00  0.00000000000E+00  0.62904165924E+03  0.10966371391E+04  0.89828703975E+03 0.  0.
        3    1    3    3  502    0 -0.25740656945E+02 -0.23479896382E+03 -0.15184869216E+03  0.28080450556E+03  0.10100000352E+00 0.  1.
       -3    1    3    3    0  502  0.25740656945E+02  0.23479896382E+03  0.78089035140E+03  0.81583263354E+03  0.10100000352E+00 0. -1.
</event>
<event>
 5   0  0.3815269E-03  0.8997663E+03  0.7818609E-02  0.9425874E-01
        2   -1    0    0  501    0  0.00000000000E+00  0.00000000000E+00  0.10930605414E+04  0.10930605414E+04  0.25500000920E-02 0. -1.
       -2   -1    0    0    0  501  0.00000000000E+00  0.00000000000E+00 -0.18516344586E+03  0.18516344588E+03  0.25500000920E-02 0.  1.
    10030    2    1    2    0    0  0.00000000000E+00  0.00000000000E+00  0.90789709553E+03  0.12782239873E+04  0.89976631719E+03 0.  0.
        5    1    3    3  502    0 -0.21388060261E+03  0.15763296498E+03  0.96965372753E+03  0.10054071340E+04  0.46999998093E+01 0. -1.
       -5    1    3    3    0  502  0.21388060261E+03 -0.15763296498E+03 -0.61756632000E+02  0.27281685325E+03  0.46999998093E+01 0.  1.
</event>
<event>
 5   0  0.2129280E-03  0.8988390E+03  0.7818609E-02  0.9427034E-01
        1   -1    0    0  501    0  0.00000000000E+00  0.00000000000E+00  0.26004409575E+03  0.26004409580E+03  0.50400001928E-02 0. -1.
       -1   -1    0    0    0  501  0.00000000000E+00  0.00000000000E+00 -0.77670623558E+03  0.77670623560E+03  0.50400001928E-02 0.  1.
    10030    2    1    2    0    0  0.00000000000E+00  0.00000000000E+00 -0.51666213983E+03  0.10367503314E+04  0.89883896384E+03 0.  0.
        3    1    3    3  502    0  0.40563221116E+03 -0.86910742354E+02 -0.58927617022E+02  0.41900291421E+03  0.10100000352E+00 0. -1.
       -3    1    3    3    0  502 -0.40563221116E+03  0.86910742354E+02 -0.45773452281E+03  0.61774741719E+03  0.10100000352E+00 0.  1.
</event>
<event>
 5   0  0.1436000E-03  0.8990651E+03  0.7818609E-02  0.9426751E-01
        3   -1    0    0  501    0  0.00000000000E+00  0.00000000000E+00  0.19929432033E+03  0.19929434593E+03  0.10100000352E+00 0.  1.
       -3   -1    0    0    0  501  0.00000000000E+00  0.00000000000E+00 -0.10139751130E+04  0.10139751180E+04  0.10100000352E+00 0. -1.
    10030    2    1    2    0    0  0.00000000000E+00  0.00000000000E+00 -0.81468079263E+03  0.12132694639E+04  0.89906506895E+03 0.  0.
        1    1    3    3  502    0 -0.11918316551E+03  0.32850150789E+03 -0.78893916717E+03  0.86286898029E+03  0.50400001928E-02 0. -1.
       -1    1    3    3    0  502  0.11918316551E+03 -0.32850150789E+03 -0.25741625459E+02  0.35040048363E+03  0.50400001928E-02 0.  1.
</event>
<event>
 5   0  0.2295158E-03  0.9064717E+03  0.7818609E-02  0.9417527E-01
        1   -1    0    0  501    0  0.00000000000E+00  0.00000000000E+00  0.58806346563E+03  0.58806346565E+03  0.50400001928E-02 0.  1.
       -1   -1    0    0    0  501  0.00000000000E+00  0.00000000000E+00 -0.34932071413E+03  0.34932071417E+03  0.50400001928E-02 0. -1.
    10030    2    1    2    0    0  0.00000000000E+00  0.00000000000E+00  0.23874275149E+03  0.93738417982E+03  0.90647173104E+03 0.  0.
        4    1    3    3  502    0  0.56110977259E+02  0.19058746473E+03 -0.30188920592E+03  0.36140106396E+03  0.12699999809E+01 0. -1.
       -4    1    3    3    0  502 -0.56110977259E+02 -0.19058746473E+03  0.54063195741E+03  0.57598311586E+03  0.12699999809E+01 0.  1.
</event>
<event>
 5   0  0.3663255E-03  0.8588271E+03  0.7818609E-02  0.9478565E-01
        2   -1    0    0  501    0  0.00000000000E+00  0.00000000000E+00  0.11101625129E+04  0.11101625129E+04  0.25500000920E-02 0. -1.
       -2   -1    0    0    0  501  0.00000000000E+00  0.00000000000E+00 -0.16609821569E+03  0.16609821571E+03  0.25500000920E-02 0.  1.
    10030    2    1    2    0    0  0.00000000000E+00  0.00000000000E+00  0.94406429721E+03  0.12762607286E+04  0.85882713635E+03 0.  0.
        4    1    3    3  502    0  0.10687800310E+03  0.15933835730E+03  0.10429209066E+04  0.10604231467E+04  0.12699999809E+01 0. -1.
       -4    1    3    3    0  502 -0.10687800310E+03 -0.15933835730E+03 -0.98856609404E+02  0.21583758194E+03  0.12699999809E+01 0.  1.
</event>
<event>
 5   0  0.2129280E-03  0.9009001E+03  0.7818609E-02  0.9424457E-01
       -1   -1    0    0    0  501  0.00000000000E+00  0.00000000000E+00  0.12917688040E+03  0.12917688050E+03  0.50400001928E-02 0. -1.
        1   -1    0    0  501    0  0.00000000000E+00  0.00000000000E+00 -0.15707552048E+04  0.15707552048E+04  0.50400001928E-02 0.  1.
    10030    2    1    2    0    0  0.00000000000E+00  0.00000000000E+00 -0.14415783244E+04  0.16999320853E+04  0.90090012168E+03 0.  0.
        3    1    3    3  502    0  0.14785743523E+03  0.15933746591E+03  0.23662425453E+02  0.21865536759E+03  0.10100000352E+00 0. -1.
       -3    1    3    3    0  502 -0.14785743523E+03 -0.15933746591E+03 -0.14652407498E+04  0.14812767177E+04  0.10100000352E+00 0.  1.
</event>
<event>
 5   0  0.3815269E-03  0.8979548E+03  0.7818609E-02  0.9428142E-01
       -2   -1    0    0    0  501  0.00000000000E+00  0.00000000000E+00  0.66137341042E+03  0.66137341043E+03  0.25500000920E-02 0.  1.
        2   -1    0    0  501    0  0.00000000000E+00  0.00000000000E+00 -0.30479103154E+03  0.30479103155E+03  0.25500000920E-02 0. -1.
    10030    2    1    2    0    0  0.00000000000E+00  0.00000000000E+00  0.35658237888E+03  0.96616444198E+03  0.89795475166E+03 0.  0.
        5    1    3    3  502    0  0.13199534664E+03  0.10416516793E+03 -0.26960527483E+03  0.31777704127E+03  0.46999998093E+01 0. -1.
       -5    1    3    3    0  502 -0.13199534664E+03 -0.10416516793E+03  0.62618765371E+03  0.64838740071E+03  0.46999998093E+01 0.  1.
</event>
<event>
 5   0  0.3806019E-03  0.9011441E+03  0.7818609E-02  0.9424152E-01
       -2   -1    0    0    0  501  0.00000000000E+00  0.00000000000E+00  0.17776242435E+03  0.17776242437E+03  0.25500000920E-02 0.  1.
        2   -1    0    0  501    0  0.00000000000E+00  0.00000000000E+00 -0.11420590027E+04  0.11420590027E+04  0.25500000920E-02 0. -1.
    10030    2    1    2    0    0  0.00000000000E+00  0.00000000000E+00 -0.96429657834E+03  0.13198214271E+04  0.90114411074E+03 0.  0.
        2    1    3    3  502    0  0.95753995215E+01  0.44350585490E+03 -0.59771348778E+03  0.74434571610E+03  0.25500000920E-02 0. -1.
       -2    1    3    3    0  502 -0.95753995215E+01 -0.44350585490E+03 -0.36658309056E+03  0.57547571095E+03  0.25500000920E-02 0.  1.
</event>
<event>
 5   0  0.3815269E-03  0.8890382E+03  0.7818609E-02  0.9439389E-01
        2   -1    0    0  501    0  0.00000000000E+00  0.00000000000E+00  0.10106251482E+04  0.10106251482E+04  0.25500000920E-02 0. -1.
       -2   -1    0    0    0  501  0.00000000000E+00  0.00000000000E+00 -0.19551981142E+03  0.19551981144E+03  0.25500000920E-02 0.  1.
    10030    2    1    2    0    0  0.00000000000E+00  0.00000000000E+00  0.81510533679E+03  0.12061449597E+04  0.88903821831E+03 0.  0.
        5    1    3    3  502    0 -0.26951684693E+03  0.28067395391E+03  0.69902835088E+03  0.80004995126E+03  0.46999998093E+01 0. -1.
       -5    1    3    3    0  502  0.26951684693E+03 -0.28067395391E+03  0.11607698591E+03  0.40609500839E+03  0.46999998093E+01 0.  1.
</event>
<event>
 5   0  0.2130975E-03  0.8995524E+03  0.7818609E-02  0.9426141E-01
       -1   -1    0    0    0  501  0.00000000000E+00  0.00000000000E+00  0.87289979561E+02  0.87289979707E+02  0.50400001928E-02 0.  1.
        1   -1    0    0  501    0  0.00000000000E+00  0.00000000000E+00 -0.23175469741E+04  0.23175469741E+04  0.50400001928E-02 0. -1.
    10030    2    1    2    0    0  0.00000000000E+00  0.00000000000E+00 -0.22302569946E+04  0.24048369538E+04  0.89955239577E+03 0.  0.
        5    1    3    3  502    0 -0.11924910945E+01  0.23198063183E+03 -0.85064873577E+02  0.24713267347E+03  0.46999998093E+01 0.  1.
       -5    1    3    3    0  502  0.11924910945E+01 -0.23198063183E+03 -0.21451921210E+04  0.21577042804E+04  0.46999998093E+01 0. -1.
</event>
<event>
 5   0  0.2295158E-03  0.8982902E+03  0.7818609E-02  0.9427721E-01
       -1   -1    0    0    0  501  0.00000000000E+00  0.00000000000E+00  0.32206703703E+03  0.32206703707E+03  0.50400001928E-02 0.  1.
        1   -1    0    0  501    0  0.00000000000E+00  0.00000000000E+00 -0.62636440995E+03  0.62636440997E+03  0.50400001928E-02 0. -1.
    10030    2    1    2    0    0  0.00000000000E+00  0.00000000000E+00 -0.30429737293E+03  0.94843144704E+03  0.89829021957E+03 0.  0.
        4    1    3    3  502    0 -0.26964434886E+03 -0.33507802462E+03 -0.15525773337E+02  0.43038124958E+03  0.12699999809E+01 0. -1.
       -4    1    3    3    0  502  0.26964434886E+03  0.33507802462E+03 -0.28877159959E+03  0.51805019746E+03  0.12699999809E+01 0.  1.
</event>
<event>
 5   0  0.3626546E-03  0.8913000E+03  0.7818609E-02  0.9436523E-01
       -2   -1    0    0    0  501  0.00000000000E+00  0.00000000000E+00  0.10773435048E+03  0.10773435051E+03  0.25500000920E-02 0. -1.
        2   -1    0    0  501    0  0.00000000000E+00  0.00000000000E+00 -0.18434594864E+04  0.18434594864E+04  0.25500000920E-02 0.  1.
    10030    2    1    2    0    0  0.00000000000E+00  0.00000000000E+00 -0.17357251359E+04  0.19511938369E+04  0.89129997293E+03 0.  0.
        3    1    3    3  502    0  0.28379615695E+03 -0.12036583848E+03 -0.15724022747E+04  0.16023348956E+04  0.10100000352E+00 0.  1.
       -3    1    3    3    0  502 -0.28379615695E+03  0.12036583848E+03 -0.16332286121E+03  0.34885894136E+03  0.10100000352E+00 0. -1.
</event>
<event>
 5   0  0.2074970E-03  0.9034921E+03  0.7818609E-02  0.9421227E-01
        1   -1    0    0  501    0  0.00000000000E+00  0.00000000000E+00  0.11253942966E+04  0.11253942966E+04  0.50400001928E-02 0. -1.
       -1   -1    0    0    0  501  0.00000000000E+00  0.00000000000E+00 -0.18133601060E+03  0.18133601067E+03  0.50400001928E-02 0.  1.
    10030    2    1    2    0    0  0.00000000000E+00  0.00000000000E+00  0.94405828596E+03  0.13067303072E+04  0.90349214084E+03 0.  0.
        2    1    3    3  502    0 -0.60887970063E+02 -0.19087672496E+02 -0.17478521680E+03  0.18606868667E+03  0.25500000920E-02 0.  1.
       -2    1    3    3    0  502  0.60887970063E+02  0.19087672496E+02  0.11188435028E+04  0.11206616206E+04  0.25500000920E-02 0. -1.
</event>
<event>
 5   0  0.3663255E-03  0.9063466E+03  0.7818609E-02  0.9417682E-01
       -2   -1    0    0    0  501  0.00000000000E+00  0.00000000000E+00  0.18763327382E+03  0.18763327384E+03  0.25500000920E-02 0.  1.
        2   -1    0    0  501    0  0.00000000000E+00  0.00000000000E+00 -0.10945076264E+04  0.10945076264E+04  0.25500000920E-02 0. -1.
    10030    2    1    2    0    0  0.00000000000E+00  0.00000000000E+00 -0.90687435253E+03  0.12821409002E+04  0.90634662060E+03 0.  0.
        4    1    3    3  502    0  0.37286364979E+03 -0.13251572750E+03 -0.76586357091E+03  0.86205356070E+03  0.12699999809E+01 0. -1.
       -4    1    3    3    0  502 -0.37286364979E+03  0.13251572750E+03 -0.14101078162E+03  0.42008733949E+03  0.12699999809E+01 0.  1.
</event>
<event>
 5   0  0.2295158E-03  0.8957671E+03  0.7818609E-02  0.9430888E-01
        1   -1    0    0  501    0  0.00000000000E+00  0.00000000000E+00  0.21545735747E+03  0.21545735753E+03  0.50400001928E-02 0. -1.
       -1   -1    0    0    0  501  0.00000000000E+00  0.00000000000E+00 -0.93104122076E+03  0.93104122078E+03  0.50400001928E-02 0.  1.
    10030    2    1    2    0    0  0.00000000000E+00  0.00000000000E+00 -0.71558386330E+03  0.11464985783E+04  0.89576711518E+03 0.  0.
        4    1    3    3  502    0 -0.16336108435E+03 -0.36487414831E+03 -0.99332851753E+02  0.41193278131E+03  0.12699999809E+01 0.  1.
       -4    1    3    3    0  502  0.16336108435E+03  0.36487414831E+03 -0.61625101154E+03  0.73456579699E+03  0.12699999809E+01 0. -1.
</event>
<event>
 5   0  0.2134145E-03  0.8997597E+03  0.7818609E-02  0.9425882E-01
       -1   -1    0    0    0  501  0.00000000000E+00  0.00000000000E+00  0.18357367366E+03  0.18357367373E+03  0.50400001928E-02 0. -1.
        1   -1    0    0  501    0  0.00000000000E+00  0.00000000000E+00 -0.11025102587E+04  0.11025102587E+04  0.50400001928E-02 0.  1.
    10030    2    1    2    0    0  0.00000000000E+00  0.00000000000E+00 -0.91893658501E+03  0.12860839324E+04  0.89975965342E+03 0.  0.
        1    1    3    3  502    0  0.24468233262E+03  0.35514101576E+03 -0.64250096362E+03  0.77382302450E+03  0.50400001928E-02 0.  1.
       -1    1    3    3    0  502 -0.24468233262E+03 -0.35514101576E+03 -0.27643562140E+03  0.51226090791E+03  0.50400001928E-02 0. -1.
</event>
<event>
 5   0  0.2130975E-03  0.9098388E+03  0.7818609E-02  0.9413365E-01
       -1   -1    0    0    0  501  0.00000000000E+00  0.00000000000E+00  0.26487164881E+03  0.26487164886E+03  0.50400001928E-02 0. -1.
        1   -1    0    0  501    0  0.00000000000E+00  0.00000000000E+00 -0.78132815852E+03  0.78132815853E+03  0.50400001928E-02 0.  1.
    10030    2    1    2    0    0  0.00000000000E+00  0.00000000000E+00 -0.51645650971E+03  0.10461998074E+04  0.90983883770E+03 0.  0.
        5    1    3    3  502    0 -0.13823400764E+03  0.17690446330E+03 -0.71315667806E+03  0.74767530885E+03  0.46999998093E+01 0. -1.
       -5    1    3    3    0  502  0.13823400764E+03 -0.17690446330E+03  0.19670016836E+03  0.29852449855E+03  0.46999998093E+01 0.  1.
</event>
<event>
 5   0  0.2129280E-03  0.8918468E+03  0.7818609E-02  0.9435831E-01
        1   -1    0    0  501    0  0.00000000000E+00  0.00000000000E+00  0.25494743040E+03  0.25494743045E+03  0.50400001928E-02 0.  1.
       -1   -1    0    0    0  501  0.00000000000E+00  0.00000000000E+00 -0.77995556055E+03  0.77995556056E+03  0.50400001928E-02 0. -1.
    10030    2    1    2    0    0  0.00000000000E+00  0.00000000000E+00 -0.52500813015E+03  0.10349029910E+04  0.89184677164E+03 0.  0.
        3    1    3    3  502    0  0.13311419734E+03 -0.42498419574E+03 -0.28888125236E+03  0.53083268959E+03  0.10100000352E+00 0.  1.
       -3    1    3    3    0  502 -0.13311419734E+03  0.42498419574E+03 -0.23612687779E+03  0.50407030143E+03  0.10100000352E+00 0. -1.
</event>
<event>
 5   0  0.3806019E-03  0.9007824E+03  0.7818609E-02  0.9424604E-01
        2   -1    0    0  501    0  0.00000000000E+00  0.00000000000E+00  0.59733032055E+03  0.59733032056E+03  0.25500000920E-02 0. -1.
       -2   -1    0    0    0  501  0.00000000000E+00  0.00000000000E+00 -0.33959804743E+03  0.33959804744E+03  0.25500000920E-02 0.  1.
    10030    2    1    2    0    0  0.00000000000E+00  0.00000000000E+00  0.25773227313E+03  0.93692836800E+03  0.90078235004E+03 0.  0.
        2    1    3    3  502    0  0.24103285132E+03 -0.63008724996E+02 -0.26140383645E+03  0.36110787939E+03  0.25500000920E-02 0.  1.
       -2    1    3    3    0  502 -0.24103285132E+03  0.63008724996E+02  0.51913610957E+03  0.57582048861E+03  0.25500000920E-02 0. -1.
</event>
<event>
 5   0  0.2295158E-03  0.9003301E+03  0.7818609E-02  0.9425169E-01
        1   -1    0    0  501    0  0.00000000000E+00  0.00000000000E+00  0.39943092613E+03  0.39943092617E+03  0.50400001928E-02 0. -1.
       -1   -1    0    0    0  501  0.00000000000E+00  0.00000000000E+00 -0.50734323736E+03  0.50734323738E+03  0.50400001928E-02 0.  1.
    10030    2    1    2    0    0  0.00000000000E+00  0.00000000000E+00 -0.10791231122E+03  0.90677416355E+03  0.90033011544E+03 0.  0.
        4    1    3    3  502    0  0.30716760285E+03 -0.41134557812E+02 -0.38279417905E+03  0.49252104980E+03  0.12699999809E+01 0.  1.
       -4    1    3    3    0  502 -0.30716760285E+03  0.41134557812E+02  0.27488186783E+03  0.41425311374E+03  0.12699999809E+01 0. -1.
</event>
<event>
 5   0  0.3815269E-03  0.9060603E+03  0.7818609E-02  0.9418037E-01
        2   -1    0    0  501    0  0.00000000000E+00  0.00000000000E+00  0.89894891600E+03  0.89894891600E+03  0.25500000920E-02 0. -1.
       -2   -1    0    0    0  501  0.00000000000E+00  0.00000000000E+00 -0.22830699903E+03  0.22830699904E+03  0.25500000920E-02 0.  1.
    10030    2    1    2    0    0  0.00000000000E+00  0.00000000000E+00  0.67064191697E+03  0.11272559150E+04  0.90606032758E+03 0.  0.
        5    1    3    3  502    0 -0.16399134497E+03  0.21519875173E+03  0.78735357213E+03  0.83255714610E+03  0.46999998093E+01 0. -1.
       -5    1    3    3    0  502  0.16399134497E+03 -0.21519875173E+03 -0.11671165516E+03  0.29469876895E+03  0.46999998093E+01 0.  1.
</event>
<event>
 5   0  0.1436000E-03  0.8979194E+03  0.7818609E-02  0.9428186E-01
        3   -1    0    0  501    0  0.00000000000E+00  0.00000000000E+00  0.27431829176E+03  0.27431831035E+03  0.10100000352E+00 0.  1.
       -3   -1    0    0    0  501  0.00000000000E+00  0.00000000000E+00 -0.73478436628E+03  0.73478437323E+03  0.10100000352E+00 0. -1.
    10030    2    1    2    0    0  0.00000000000E+00  0.00000000000E+00 -0.46046607453E+03  0.10091026836E+04  0.89791938403E+03 0.  0.
        1    1    3    3  502    0 -0.30228335780E+03 -0.43985738659E+02 -0.59999451013E+03  0.67327808952E+03  0.50400001928E-02 0. -1.
       -1    1    3    3    0  502  0.30228335780E+03  0.43985738659E+02  0.13952843561E+03  0.33582459406E+03  0.50400001928E-02 0.  1.
</event>
<event>
 5   0  0.3663255E-03  0.9001101E+03  0.7818609E-02  0.9425444E-01
        2   -1    0    0  501    0  0.00000000000E+00  0.00000000000E+00  0.56697325336E+03  0.56697325337E+03  0.25500000920E-02 0.  1.
       -2   -1    0    0    0  501  0.00000000000E+00  0.00000000000E+00 -0.35724706835E+03  0.35724706836E+03  0.25500000920E-02 0. -1.
    10030    2    1    2    0    0  0.00000000000E+00  0.00000000000E+00  0.20972618501E+03  0.92422032173E+03  0.90011006572E+03 0.  0.
        4    1    3    3  502    0 -0.24764201322E+03  0.17951288456E+03  0.44385249864E+03  0.53903441067E+03  0.12699999809E+01 0.  1.
       -4    1    3    3    0  502  0.24764201322E+03 -0.17951288456E+03 -0.23412631363E+03  0.38518591105E+03  0.12699999809E+01 0. -1.
</event>
<event>
 5   0  0.2134145E-03  0.9017989E+03  0.7818609E-02  0.9423336E-01
        1   -1    0    0  501    0  0.00000000000E+00  0.00000000000E+00  0.26483509645E+03  0.26483509650E+03  0.50400001928E-02 0.  1.
       -1   -1    0    0    0  501  0.00000000000E+00  0.00000000000E+00 -0.76768641205E+03  0.76768641207E+03  0.50400001928E-02 0. -1.
    10030    2    1    2    0    0  0.00000000000E+00  0.00000000000E+00 -0.50285131560E+03  0.10325215086E+04  0.90179888005E+03 0.  0.
        1    1    3    3  502    0 -0.23319781817E+03  0.71776212749E+02  0.18271905251E+03  0.30482667090E+03  0.50400001928E-02 0.  1.
       -1    1    3    3    0  502  0.23319781817E+03 -0.71776212749E+02 -0.68557036811E+03  0.72769483767E+03  0.50400001928E-02 0. -1.
</event>
<event>
 5   0  0.3815269E-03  0.9007021E+03  0.7818609E-02  0.9424704E-01
        2   -1    0    0  501    0  0.00000000000E+00  0.00000000000E+00  0.25278340981E+04  0.25278340981E+04  0.25500000920E-02 0.  1.
       -2   -1    0    0    0  501  0.00000000000E+00  0.00000000000E+00 -0.80233133764E+02  0.80233133805E+02  0.25500000920E-02 0. -1.
    10030    2    1    2    0    0  0.00000000000E+00  0.00000000000E+00  0.24476009644E+04  0.26080672319E+04  0.90070206258E+03 0.  0.
        5    1    3    3  502    0 -0.37729307706E+03 -0.96289747383E+02  0.56878044620E+03  0.68931492615E+03  0.46999998093E+01 0. -1.
       -5    1    3    3    0  502  0.37729307706E+03  0.96289747383E+02  0.18788205182E+04  0.19187523058E+04  0.46999998093E+01 0.  1.
</event>
<event>
 5   0  0.1436000E-03  0.9005296E+03  0.7818609E-02  0.9424920E-01
        3   -1    0    0  501    0  0.00000000000E+00  0.00000000000E+00  0.13446120858E+03  0.13446124651E+03  0.10100000352E+00 0. -1.
       -3   -1    0    0    0  501  0.00000000000E+00  0.00000000000E+00 -0.15077831950E+04  0.15077831984E+04  0.10100000352E+00 0.  1.
    10030    2    1    2    0    0  0.00000000000E+00  0.00000000000E+00 -0.13733219864E+04  0.16422444449E+04  0.90052958774E+03 0.  0.
        4    1    3    3  502    0  0.24578004423E+03 -0.32492079845E+02 -0.13721014211E+04  0.13943197223E+04  0.12699999809E+01 0.  1.
       -4    1    3    3    0  502 -0.24578004423E+03  0.32492079845E+02 -0.12205653490E+01  0.24792472259E+03  0.12699999809E+01 0. -1.
</event>
<event>
 5   0  0.3685879E-03  0.9422888E+03  0.7818609E-02  0.9374210E-01
        2   -1    0    0  501    0  0.00000000000E+00  0.00000000000E+00  0.31903422966E+03  0.31903422967E+03  0.25500000920E-02 0. -1.
       -2   -1    0    0    0  501  0.00000000000E+00  0.00000000000E+00 -0.69577808794E+03  0.69577808794E+03  0.25500000920E-02 0.  1.
    10030    2    1    2    0    0  0.00000000000E+00  0.00000000000E+00 -0.37674385828E+03  0.10148123176E+04  0.94228875894E+03 0.  0.
        1    1    3    3  502    0 -0.44018242809E+03  0.75802173346E+02 -0.26933114462E+02  0.44747282841E+03  0.50400001928E-02 0.  1.
       -1    1    3    3    0  502  0.44018242809E+03 -0.75802173346E+02 -0.34981074382E+03  0.56733948920E+03  0.50400001928E-02 0. -1.
</event>
<event>
 5   0  0.3626546E-03  0.9055853E+03  0.7818609E-02  0.9418626E-01
        2   -1    0    0  501    0  0.00000000000E+00  0.00000000000E+00  0.15472932354E+04  0.15472932354E+04  0.25500000920E-02 0. -1.
       -2   -1    0    0    0  501  0.00000000000E+00  0.00000000000E+00 -0.13250312468E+03  0.13250312470E+03  0.25500000920E-02 0.  1.
    10030    2    1    2    0    0  0.00000000000E+00  0.00000000000E+00  0.14147901108E+04  0.16797963601E+04  0.90558531019E+03 0.  0.
        3    1    3    3  502    0 -0.10495558285E+03  0.14840833786E+03 -0.61853751877E+02  0.19200678618E+03  0.10100000352E+00 0.  1.
       -3    1    3    3    0  502  0.10495558285E+03 -0.14840833786E+03  0.14766438626E+04  0.14877895740E+04  0.10100000352E+00 0. -1.
</event>
<event>
 5   0  0.2134145E-03  0.8993142E+03  0.7818609E-02  0.9426439E-01
       -1   -1    0    0    0  501  0.00000000000E+00  0.00000000000E+00  0.51927503751E+03  0.51927503754E+03  0.50400001928E-02 0.  1.
        1   -1    0    0  501    0  0.00000000000E+00  0.00000000000E+00 -0.38937269251E+03  0.38937269254E+03  0.50400001928E-02 0. -1.
    10030    2    1    2    0    0  0.00000000000E+00  0.00000000000E+00  0.12990234500E+03  0.90864773008E+03  0.89931422659E+03 0.  0.
        1    1    3    3  502    0  0.69789290124E+02  0.49291844224E+02 -0.38109549171E+03  0.39055601998E+03  0.50400001928E-02 0. -1.
       -1    1    3    3    0  502 -0.69789290124E+02 -0.49291844224E+02  0.51099783671E+03  0.51809171009E+03  0.50400001928E-02 0.  1.
</event>
<event>
 5   0  0.2074970E-03  0.8887685E+03  0.7818609E-02  0.9439731E-01
       -1   -1    0    0    0  501  0.00000000000E+00  0.00000000000E+00  0.10436101944E+03  0.10436101956E+03  0.50400001928E-02 0. -1.
        1   -1    0    0  501    0  0.00000000000E+00  0.00000000000E+00 -0.18922520887E+04  0.18922520887E+04  0.50400001928E-02 0.  1.
    10030    2    1    2    0    0  0.00000000000E+00  0.00000000000E+00 -0.17878910693E+04  0.19966131083E+04  0.88876848986E+03 0.  0.
        2    1    3    3  502    0 -0.22647590849E+03 -0.24262558110E+03 -0.15577791895E+04  0.15927443339E+04  0.25500000920E-02 0.  1.
       -2    1    3    3    0  502  0.22647590849E+03  0.24262558110E+03 -0.23011187972E+03  0.40386877439E+03  0.25500000920E-02 0. -1.
</event>
<event>
 5   0  0.3685879E-03  0.9016608E+03  0.7818609E-02  0.9423508E-01
       -2   -1    0    0    0  501  0.00000000000E+00  0.00000000000E+00  0.45097504506E+03  0.45097504507E+03  0.25500000920E-02 0. -1.
        2   -1    0    0  501    0  0.00000000000E+00  0.00000000000E+00 -0.45068576622E+03  0.45068576623E+03  0.25500000920E-02 0.  1.
    10030    2    1    2    0    0  0.00000000000E+00  0.00000000000E+00  0.28927884078E+00  0.90166081130E+03  0.90166076489E+03 0.  0.
        1    1    3    3  502    0  0.12615973707E+02  0.33435588849E+03  0.30229529745E+03  0.45092734431E+03  0.50400001928E-02 0. -1.
       -1    1    3    3    0  502 -0.12615973707E+02 -0.33435588849E+03 -0.30200601861E+03  0.45073346699E+03  0.50400001928E-02 0.  1.
</event>
<event>
 5   0  0.3626546E-03  0.8974854E+03  0.7818609E-02  0.9428730E-01
       -2   -1    0    0    0  501  0.00000000000E+00  0.00000000000E+00  0.10024938556E+03  0.10024938559E+03  0.25500000920E-02 0.  1.
        2   -1    0    0  501    0  0.00000000000E+00  0.00000000000E+00 -0.20086908878E+04  0.20086908878E+04  0.25500000920E-02 0. -1.
    10030    2    1    2    0    0  0.00000000000E+00  0.00000000000E+00 -0.19084415023E+04  0.21089402734E+04  0.89748543681E+03 0.  0.
        3    1    3    3  502    0 -0.21218388510E+03 -0.97940987876E+02 -0.18544107430E+04  0.18690782895E+04  0.10100000352E+00 0. -1.
       -3    1    3    3    0  502  0.21218388510E+03  0.97940987876E+02 -0.54030759278E+02  0.23986198397E+03  0.10100000352E+00 0.  1.
</event>
<event>
 5   0  0.2130975E-03  0.9085362E+03  0.7818609E-02  0.9414973E-01
       -1   -1    0    0    0  501  0.00000000000E+00  0.00000000000E+00  0.17386669434E+03  0.17386669441E+03  0.50400001928E-02 0.  1.
        1   -1    0    0  501    0  0.00000000000E+00  0.00000000000E+00 -0.11868834450E+04  0.11868834450E+04  0.50400001928E-02 0. -1.
    10030    2    1    2    0    0  0.00000000000E+00  0.00000000000E+00 -0.10130167506E+04  0.13607501394E+04  0.90853618794E+03 0.  0.
        5    1    3    3  502    0  0.18823653982E+03 -0.20702254802E+03 -0.10424522384E+04  0.10793609636E+04  0.46999998093E+01 0. -1.
       -5    1    3    3    0  502 -0.18823653982E+03  0.20702254802E+03  0.29435487814E+02  0.28138917579E+03  0.46999998093E+01 0.  1.
</event>
<event>
 5   0  0.3626546E-03  0.9009790E+03  0.7818609E-02  0.9424358E-01
       -2   -1    0    0    0  501  0.00000000000E+00  0.00000000000E+00  0.17515303142E+03  0.17515303144E+03  0.25500000920E-02 0. -1.
        2   -1    0    0  501    0  0.00000000000E+00  0.00000000000E+00 -0.11586484897E+04  0.11586484897E+04  0.25500000920E-02 0.  1.
    10030    2    1    2    0    0  0.00000000000E+00  0.00000000000E+00 -0.98349545827E+03  0.13338015211E+04  0.90097901270E+03 0.  0.
        3    1    3    3  502    0 -0.15203542300E+03 -0.26193911390E+03  0.19442825337E+01  0.30287069794E+03  0.10100000352E+00 0. -1.
       -3    1    3    3    0  502  0.15203542300E+03  0.26193911390E+03 -0.98543974080E+03  0.10309308232E+04  0.10100000352E+00 0.  1.
</event>
<event>
 5   0  0.2074970E-03  0.9006288E+03  0.7818609E-02  0.9424796E-01
        1   -1    0    0  501    0  0.00000000000E+00  0.00000000000E+00  0.86606279495E+03  0.86606279496E+03  0.50400001928E-02 0. -1.
       -1   -1    0    0    0  501  0.00000000000E+00  0.00000000000E+00 -0.23414360640E+03  0.23414360645E+03  0.50400001928E-02 0.  1.
    10030    2    1    2    0    0  0.00000000000E+00  0.00000000000E+00  0.63191918855E+03  0.11002064014E+04  0.90062881635E+03 0.  0.
        2    1    3    3  502    0  0.38148774730E+03  0.15185874054E+03  0.90082555406E+02  0.42036751208E+03  0.25500000920E-02 0. -1.
       -2    1    3    3    0  502 -0.38148774730E+03 -0.15185874054E+03  0.54183663314E+03  0.67983888933E+03  0.25500000920E-02 0.  1.
</event>
<event>
 5   0  0.2295158E-03  0.8914829E+03  0.7818609E-02  0.9436291E-01
        1   -1    0    0  501    0  0.00000000000E+00  0.00000000000E+00  0.12152189399E+04  0.12152189399E+04  0.50400001928E-02 0.  1.
       -1   -1    0    0    0  501  0.00000000000E+00  0.00000000000E+00 -0.16349763657E+03  0.16349763665E+03  0.50400001928E-02 0. -1.
    10030    2    1    2    0    0  0.00000000000E+00  0.00000000000E+00  0.10517213033E+04  0.13787165765E+04  0.89148286500E+03 0.  0.
        4    1    3    3  502    0 -0.17273247178E+03  0.26181295635E+03  0.10156566545E+04  0.10629875745E+04  0.12699999809E+01 0.  1.
       -4    1    3    3    0  502  0.17273247178E+03 -0.26181295635E+03  0.36064648842E+02  0.31572900202E+03  0.12699999809E+01 0. -1.
</event>
<event>
 5   0  0.3626546E-03  0.9053335E+03  0.7818609E-02  0.9418939E-01
       -2   -1    0    0    0  501  0.00000000000E+00  0.00000000000E+00  0.44731376776E+03  0.44731376776E+03  0.25500000920E-02 0. -1.
        2   -1    0    0  501    0  0.00000000000E+00  0.00000000000E+00 -0.45808374249E+03  0.45808374250E+03  0.25500000920E-02 0.  1.
    10030    2    1    2    0    0  0.00000000000E+00  0.00000000000E+00 -0.10769974734E+02  0.90539751026E+03  0.90533345196E+03 0.  0.
        3    1    3    3  502    0  0.63835015676E+02 -0.14730893981E+03 -0.42865519907E+03  0.45773368115E+03  0.10100000352E+00 0.  1.
       -3    1    3    3    0  502 -0.63835015676E+02  0.14730893981E+03  0.41788522433E+03  0.44766382911E+03  0.10100000352E+00 0. -1.
</event>
<event>
 5   0  0.2129280E-03  0.9087800E+03  0.7818609E-02  0.9414672E-01
       -1   -1    0    0    0  501  0.00000000000E+00  0.00000000000E+00  0.20669919906E+03  0.20669919912E+03  0.50400001928E-02 0.  1.
        1   -1    0    0  501    0  0.00000000000E+00  0.00000000000E+00 -0.99889243974E+03  0.99889243975E+03  0.50400001928E-02 0. -1.
    10030    2    1    2    0    0  0.00000000000E+00  0.00000000000E+00 -0.79219324068E+03  0.12055916389E+04  0.90877998940E+03 0.  0.
        3    1    3    3  502    0 -0.16639463482E+03 -0.38657410650E+03 -0.62334340399E+03  0.75211948772E+03  0.10100000352E+00 0. -1.
       -3    1    3    3    0  502  0.16639463482E+03  0.38657410650E+03 -0.16884983669E+03  0.45347215115E+03  0.10100000352E+00 0.  1.
</event>
<event>
 5   0  0.2134145E-03  0.9105588E+03  0.7818609E-02  0.9412478E-01
       -1   -1    0    0    0  501  0.00000000000E+00  0.00000000000E+00  0.31263947130E+03  0.31263947134E+03  0.50400001928E-02 0. -1.
        1   -1    0    0  501    0  0.00000000000E+00  0.00000000000E+00 -0.66299802691E+03  0.66299802693E+03  0.50400001928E-02 0.  1.
    10030    2    1    2    0    0  0.00000000000E+00  0.00000000000E+00 -0.35035855561E+03  0.97563749828E+03  0.91055884519E+03 0.  0.
        1    1    3    3  502    0 -0.40246574908E+03 -0.18599904392E+03 -0.64319400802E+02  0.44800815714E+03  0.50400001928E-02 0. -1.
       -1    1    3    3    0  502  0.40246574908E+03  0.18599904392E+03 -0.28603915481E+03  0.52762934114E+03  0.50400001928E-02 0.  1.
</event>
<event>
 5   0  0.2295158E-03  0.8715888E+03  0.7818609E-02  0.9461811E-01
       -1   -1    0    0    0  501  0.00000000000E+00  0.00000000000E+00  0.24354839209E+03  0.24354839215E+03  0.50400001928E-02 0.  1.
        1   -1    0    0  501    0  0.00000000000E+00  0.00000000000E+00 -0.77979073589E+03  0.77979073590E+03  0.50400001928E-02 0. -1.
    10030    2    1    2    0    0  0.00000000000E+00  0.00000000000E+00 -0.53624234380E+03  0.10233391281E+04  0.87158884786E+03 0.  0.
        4    1    3    3  502    0  0.41363051382E+03  0.48768718354E+02 -0.11754866573E+03  0.43276771086E+03  0.12699999809E+01 0.  1.
       -4    1    3    3    0  502 -0.41363051382E+03 -0.48768718354E+02 -0.41869367806E+03  0.59057141719E+03  0.12699999809E+01 0. -1.
</event>
<event>
 5   0  0.3806019E-03  0.9008434E+03  0.7818609E-02  0.9424528E-01
        2   -1    0    0  501    0  0.00000000000E+00  0.00000000000E+00  0.40827517219E+03  0.40827517220E+03  0.25500000920E-02 0. -1.
       -2   -1    0    0    0  501  0.00000000000E+00  0.00000000000E+00 -0.49691904079E+03  0.49691904079E+03  0.25500000920E-02 0.  1.
    10030    2    1    2    0    0  0.00000000000E+00  0.00000000000E+00 -0.88643868597E+02  0.90519421299E+03  0.90084339804E+03 0.  0.
        2    1    3    3  502    0 -0.50042449003E+02 -0.33022645280E+02  0.40424756088E+03  0.40866958816E+03  0.25500000920E-02 0. -1.
       -2    1    3    3    0  502  0.50042449003E+02  0.33022645280E+02 -0.49289142948E+03  0.49652462483E+03  0.25500000920E-02 0.  1.
</event>
<event>
 5   0  0.3806019E-03  0.8986937E+03  0.7818609E-02  0.9427216E-01
       -2   -1    0    0    0  501  0.00000000000E+00  0.00000000000E+00  0.15855414411E+03  0.15855414413E+03  0.25500000920E-02 0.  1.
        2   -1    0    0  501    0  0.00000000000E+00  0.00000000000E+00 -0.12734614548E+04  0.12734614548E+04  0.25500000920E-02 0. -1.
    10030    2    1    2    0    0  0.00000000000E+00  0.00000000000E+00 -0.11149073107E+04  0.14320155990E+04  0.89869369875E+03 0.  0.
        2    1    3    3  502    0  0.26581047749E+03 -0.35578289493E+03 -0.66641419678E+03  0.80083990906E+03  0.25500000920E-02 0.  1.
       -2    1    3    3    0  502 -0.26581047749E+03  0.35578289493E+03 -0.44849311396E+03  0.63117568992E+03  0.25500000920E-02 0. -1.
</event>
<event>
 5   0  0.3806019E-03  0.8992233E+03  0.7818609E-02  0.9426553E-01
        2   -1    0    0  501    0  0.00000000000E+00  0.00000000000E+00  0.11376046891E+04  0.11376046891E+04  0.25500000920E-02 0.  1.
       -2   -1    0    0    0  501  0.00000000000E+00  0.00000000000E+00 -0.17769850398E+03  0.17769850399E+03  0.25500000920E-02 0. -1.
    10030    2    1    2    0    0  0.00000000000E+00  0.00000000000E+00  0.95990618511E+03  0.13153031931E+04  0.89922333462E+03 0.  0.
        2    1    3    3  502    0 -0.62674564880E+02  0.16494974581E+03  0.10848401693E+04  0.10990972262E+04  0.25500000920E-02 0.  1.
       -2    1    3    3    0  502  0.62674564880E+02 -0.16494974581E+03 -0.12493398415E+03  0.21620596691E+03  0.25500000920E-02 0. -1.
</event>
<event>
 5   0  0.2074970E-03  0.8977214E+03  0.7818609E-02  0.9428434E-01
        1   -1    0    0  501    0  0.00000000000E+00  0.00000000000E+00  0.89706437128E+03  0.89706437130E+03  0.50400001928E-02 0.  1.
       -1   -1    0    0    0  501  0.00000000000E+00  0.00000000000E+00 -0.22459473921E+03  0.22459473927E+03  0.50400001928E-02 0. -1.
    10030    2    1    2    0    0  0.00000000000E+00  0.00000000000E+00  0.67246963207E+03  0.11216591106E+04  0.89772142353E+03 0.  0.
        2    1    3    3  502    0 -0.17247602508E+03  0.25166362474E+03 -0.75123874535E+02  0.31420718607E+03  0.25500000920E-02 0. -1.
       -2    1    3    3    0  502  0.17247602508E+03 -0.25166362474E+03  0.74759350660E+03  0.80745192449E+03  0.25500000920E-02 0.  1.
</event>
<event>
 5   0  0.2295158E-03  0.9171046E+03  0.7818609E-02  0.9404449E-01
       -1   -1    0    0    0  501  0.00000000000E+00  0.00000000000E+00  0.23995549946E+03  0.23995549951E+03  0.50400001928E-02 0.  1.
        1   -1    0    0  501    0  0.00000000000E+00  0.00000000000E+00 -0.87628834328E+03  0.87628834330E+03  0.50400001928E-02 0. -1.
    10030    2    1    2    0    0  0.00000000000E+00  0.00000000000E+00 -0.63633284382E+03  0.11162438428E+04  0.91710458972E+03 0.  0.
        4    1    3    3  502    0 -0.19138038951E+03  0.28232939734E+03  0.54866856437E+02  0.34546827195E+03  0.12699999809E+01 0.  1.
       -4    1    3    3    0  502  0.19138038951E+03 -0.28232939734E+03 -0.69119970026E+03  0.77077557086E+03  0.12699999809E+01 0. -1.
</event>
<event>
 5   0  0.2129280E-03  0.8882103E+03  0.7818609E-02  0.9440440E-01
        1   -1    0    0  501    0  0.00000000000E+00  0.00000000000E+00  0.15250593599E+04  0.15250593600E+04  0.50400001928E-02 0. -1.
       -1   -1    0    0    0  501  0.00000000000E+00  0.00000000000E+00 -0.12932572099E+03  0.12932572108E+03  0.50400001928E-02 0.  1.
    10030    2    1    2    0    0  0.00000000000E+00  0.00000000000E+00  0.13957336390E+04  0.16543850810E+04  0.88821033851E+03 0.  0.
        3    1    3    3  502    0  0.40244172522E+03 -0.46098712410E+02  0.35876547204E+03  0.54110729770E+03  0.10100000352E+00 0.  1.
       -3    1    3    3    0  502 -0.40244172522E+03  0.46098712410E+02  0.10369681669E+04  0.11132777833E+04  0.10100000352E+00 0. -1.
</event>
<event>
 5   0  0.3815269E-03  0.8931132E+03  0.7818609E-02  0.9434231E-01
       -2   -1    0    0    0  501  0.00000000000E+00  0.00000000000E+00  0.19822343643E+03  0.19822343645E+03  0.25500000920E-02 0.  1.
        2   -1    0    0  501    0  0.00000000000E+00  0.00000000000E+00 -0.10060001347E+04  0.10060001347E+04  0.25500000920E-02 0. -1.
    10030    2    1    2    0    0  0.00000000000E+00  0.00000000000E+00 -0.80777669825E+03  0.12042235711E+04  0.89311321513E+03 0.  0.
        5    1    3    3  502    0  0.11042573167E+03  0.31377718599E+02  0.17795329582E+03  0.21182036949E+03  0.46999998093E+01 0.  1.
       -5    1    3    3    0  502 -0.11042573167E+03 -0.31377718599E+02 -0.98572999406E+03  0.99240320165E+03  0.46999998093E+01 0. -1.
</event>
<event>
 5   0  0.2295158E-03  0.8750122E+03  0.7818609E-02  0.9457368E-01
        1   -1    0    0  501    0  0.00000000000E+00  0.00000000000E+00  0.23528948099E+03  0.23528948104E+03  0.50400001928E-02 0.  1.
       -1   -1    0    0    0  501  0.00000000000E+00  0.00000000000E+00 -0.81351520460E+03  0.81351520462E+03  0.50400001928E-02 0. -1.
    10030    2    1    2    0    0  0.00000000000E+00  0.00000000000E+00 -0.57822572361E+03  0.10488046857E+04  0.87501216061E+03 0.  0.
        4    1    3    3  502    0  0.39532754453E+03 -0.69283279932E+02 -0.49784412514E+03  0.63947980904E+03  0.12699999809E+01 0. -1.
       -4    1    3    3    0  502 -0.39532754453E+03  0.69283279932E+02 -0.80381598476E+02  0.40932487662E+03  0.12699999809E+01 0.  1.
</event>
<event>
 5   0  0.3815269E-03  0.8995963E+03  0.7818609E-02  0.9426086E-01
       -2   -1    0    0    0  501  0.00000000000E+00  0.00000000000E+00  0.34799979793E+03  0.34799979794E+03  0.25500000920E-02 0. -1.
        2   -1    0    0  501    0  0.00000000000E+00  0.00000000000E+00 -0.58137494249E+03  0.58137494249E+03  0.25500000920E-02 0.  1.
    10030    2    1    2    0    0  0.00000000000E+00  0.00000000000E+00 -0.23337514455E+03  0.92937474043E+03  0.89959627059E+03 0.  0.
        5    1    3    3  502    0 -0.31954524018E+03 -0.40861207543E+02 -0.44095240544E+03  0.54611346135E+03  0.46999998093E+01 0.  1.
       -5    1    3    3    0  502  0.31954524018E+03  0.40861207543E+02  0.20757726089E+03  0.38326127908E+03  0.46999998093E+01 0. -1.
</event>
<event>
 5   0  0.2295158E-03  0.9011357E+03  0.7818609E-02  0.9424163E-01
       -1   -1    0    0    0  501  0.00000000000E+00  0.00000000000E+00  0.22593402644E+03  0.22593402650E+03  0.50400001928E-02 0.  1.
        1   -1    0    0  501    0  0.00000000000E+00  0.00000000000E+00 -0.89854285712E+03  0.89854285714E+03  0.50400001928E-02 0. -1.
    10030    2    1    2    0    0  0.00000000000E+00  0.00000000000E+00 -0.67260883068E+03  0.11244768836E+04  0.90113574045E+03 0.  0.
        4    1    3    3  502    0 -0.29081150281E+03  0.32300077888E+03 -0.18808407379E+03  0.47358005135E+03  0.12699999809E+01 0.  1.
       -4    1    3    3    0  502  0.29081150281E+03 -0.32300077888E+03 -0.48452475690E+03  0.65089683228E+03  0.12699999809E+01 0. -1.
</event>
<event>
 5   0  0.2130975E-03  0.9011435E+03  0.7818609E-02  0.9424153E-01
        1   -1    0    0  501    0  0.00000000000E+00  0.00000000000E+00  0.42585246005E+03  0.42585246008E+03  0.50400001928E-02 0. -1.
       -1   -1    0    0    0  501  0.00000000000E+00  0.00000000000E+00 -0.47672594506E+03  0.47672594508E+03  0.50400001928E-02 0.  1.
    10030    2    1    2    0    0  0.00000000000E+00  0.00000000000E+00 -0.50873485004E+02  0.90257840516E+03  0.90114353240E+03 0.  0.
        5    1    3    3  502    0  0.32869868575E+03 -0.22808456873E+03 -0.23295600377E+03  0.46298594601E+03  0.46999998093E+01 0.  1.
       -5    1    3    3    0  502 -0.32869868575E+03  0.22808456873E+03  0.18208251877E+03  0.43959245916E+03  0.46999998093E+01 0. -1.
</event>
<event>
 5   0  0.2129280E-03  0.8973743E+03  0.7818609E-02  0.9428870E-01
        1   -1    0    0  501    0  0.00000000000E+00  0.00000000000E+00  0.35122038804E+03  0.35122038807E+03  0.50400001928E-02 0. -1.
       -1   -1    0    0    0  501  0.00000000000E+00  0.00000000000E+00 -0.57320181236E+03  0.57320181238E+03  0.50400001928E-02 0.  1.
    10030    2    1    2    0    0  0.00000000000E+00  0.00000000000E+00 -0.22198142433E+03  0.92442220046E+03  0.89737430983E+03 0.  0.
        3    1    3    3  502    0  0.50345828725E+01 -0.14103553155E+03 -0.54974351731E+03  0.56756877399E+03  0.10100000352E+00 0.  1.
       -3    1    3    3    0  502 -0.50345828725E+01  0.14103553155E+03  0.32776209298E+03  0.35685342647E+03  0.10100000352E+00 0. -1.
</event>
<event>
 5   0  0.2134145E-03  0.9015714E+03  0.7818609E-02  0.9423619E-01
       -1   -1    0    0    0  501  0.00000000000E+00  0.00000000000E+00  0.46678925113E+03  0.46678925116E+03  0.50400001928E-02 0.  1.
        1   -1    0    0  501    0  0.00000000000E+00  0.00000000000E+00 -0.43533084092E+03  0.43533084095E+03  0.50400001928E-02 0. -1.
    10030    2    1    2    0    0  0.00000000000E+00  0.00000000000E+00  0.31458410213E+02  0.90212009211E+03  0.90157142202E+03 0.  0.
        1    1    3    3  502    0  0.25074530485E+03 -0.34768299401E+03 -0.12382281718E+03  0.44619363769E+03  0.50400001928E-02 0. -1.
       -1    1    3    3    0  502 -0.25074530485E+03  0.34768299401E+03  0.15528122740E+03  0.45592645442E+03  0.50400001928E-02 0.  1.
</event>
<event>
 5   0  0.3663255E-03  0.9008947E+03  0.7818609E-02  0.9424464E-01
       -2   -1    0    0    0  501  0.00000000000E+00  0.00000000000E+00  0.21307789039E+03  0.21307789040E+03  0.25500000920E-02 0. -1.
        2   -1    0    0  501    0  0.00000000000E+00  0.00000000000E+00 -0.95224718600E+03  0.95224718600E+03  0.25500000920E-02 0.  1.
    10030    2    1    2    0    0  0.00000000000E+00  0.00000000000E+00 -0.73916929561E+03  0.11653250764E+04  0.90089471423E+03 0.  0.
        4    1    3    3  502    0 -0.26282689761E+03 -0.85830169175E+02 -0.82956944889E+03  0.87443231840E+03  0.12699999809E+01 0.  1.
       -4    1    3    3    0  502  0.26282689761E+03  0.85830169175E+02  0.90400153273E+02  0.29089275800E+03  0.12699999809E+01 0. -1.
</event>
<event>
 5   0  0.3806019E-03  0.8752751E+03  0.7818609E-02  0.9457028E-01
        2   -1    0    0  501    0  0.00000000000E+00  0.00000000000E+00  0.16705655245E+04  0.16705655245E+04  0.25500000920E-02 0. -1.
       -2   -1    0    0    0  501  0.00000000000E+00  0.00000000000E+00 -0.11464778539E+03  0.11464778542E+03  0.25500000920E-02 0.  1.
    10030    2    1    2    0    0  0.00000000000E+00  0.00000000000E+00  0.15559177391E+04  0.17852133099E+04  0.87527512877E+03 0.  0.
        2    1    3    3  502    0 -0.77128774477E+02 -0.30386172229E+02 -0.98487691364E+02  0.12873225187E+03  0.25500000920E-02 0.  1.
       -2    1    3    3    0  502  0.77128774477E+02  0.30386172229E+02  0.16544054304E+04  0.16564810580E+04  0.25500000920E-02 0. -1.
</event>
<event>
 5   0  0.2129280E-03  0.8982694E+03  0.7818609E-02  0.9427747E-01
       -1   -1    0    0    0  501  0.00000000000E+00  0.00000000000E+00  0.26921509655E+03  0.26921509660E+03  0.50400001928E-02 0.  1.
        1   -1    0    0  501    0  0.00000000000E+00  0.00000000000E+00 -0.74929665101E+03  0.74929665103E+03  0.50400001928E-02 0. -1.
    10030    2    1    2    0    0  0.00000000000E+00  0.00000000000E+00 -0.48008155446E+03  0.10185117476E+04  0.89826938115E+03 0.  0.
        3    1    3    3  502    0  0.76155667375E+02  0.10357289638E+03 -0.72798928274E+03  0.73925329659E+03  0.10100000352E+00 0. -1.
       -3    1    3    3    0  502 -0.76155667375E+02 -0.10357289638E+03  0.24790772827E+03  0.27925845104E+03  0.10100000352E+00 0.  1.
</event>
<event>
 5   0  0.3626546E-03  0.8973500E+03  0.7818609E-02  0.9428900E-01
       -2   -1    0    0    0  501  0.00000000000E+00  0.00000000000E+00  0.23128913778E+03  0.23128913780E+03  0.25500000920E-02 0.  1.
        2   -1    0    0  501    0  0.00000000000E+00  0.00000000000E+00 -0.87037915235E+03  0.87037915235E+03  0.25500000920E-02 0. -1.
    10030    2    1    2    0    0  0.00000000000E+00  0.00000000000E+00 -0.63909001457E+03  0.11016682902E+04  0.89734997343E+03 0.  0.
        3    1    3    3  502    0 -0.32764291429E+03  0.30601049303E+03 -0.34140108835E+03  0.56351310052E+03  0.10100000352E+00 0. -1.
       -3    1    3    3    0  502  0.32764291429E+03 -0.30601049303E+03 -0.29768892622E+03  0.53815518963E+03  0.10100000352E+00 0.  1.
</event>
<event>
 5   0  0.2134145E-03  0.9036036E+03  0.7818609E-02  0.9421088E-01
       -1   -1    0    0    0  501  0.00000000000E+00  0.00000000000E+00  0.29702653245E+03  0.29702653250E+03  0.50400001928E-02 0. -1.
        1   -1    0    0  501    0  0.00000000000E+00  0.00000000000E+00 -0.68722764952E+03  0.68722764954E+03  0.50400001928E-02 0.  1.
    10030    2    1    2    0    0  0.00000000000E+00  0.00000000000E+00 -0.39020111707E+03  0.98425418204E+03  0.90360355416E+03 0.  0.
        1    1    3    3  502    0  0.30626265898E+03  0.77391676606E+02  0.15674474074E+03  0.35264032904E+03  0.50400001928E-02 0. -1.
       -1    1    3    3    0  502 -0.30626265898E+03 -0.77391676606E+02 -0.54694585781E+03  0.63161385299E+03  0.50400001928E-02 0.  1.
</event>
<event>
 5   0  0.2295158E-03  0.8402461E+03  0.7818609E-02  0.9503523E-01
        1   -1    0    0  501    0  0.00000000000E+00  0.00000000000E+00  0.41050617365E+03  0.41050617368E+03  0.50400001928E-02 0. -1.
       -1   -1    0    0    0  501  0.00000000000E+00  0.00000000000E+00 -0.42996522285E+03  0.42996522288E+03  0.50400001928E-02 0.  1.
    10030    2    1    2    0    0  0.00000000000E+00  0.00000000000E+00 -0.19459049199E+02  0.84047139657E+03  0.84024610314E+03 0.  0.
        4    1    3    3  502    0 -0.33328235871E+02  0.41057660840E+03 -0.92321894058E+02  0.42214792158E+03  0.12699999809E+01 0.  1.
       -4    1    3    3    0  502  0.33328235871E+02 -0.41057660840E+03  0.72862844859E+02  0.41832347499E+03  0.12699999809E+01 0. -1.
</event>
<event>
 5   0  0.2130975E-03  0.9028322E+03  0.7818609E-02  0.9422048E-01
       -1   -1    0    0    0  501  0.00000000000E+00  0.00000000000E+00  0.27900846735E+03  0.27900846740E+03  0.50400001928E-02 0. -1.
        1   -1    0    0  501    0  0.00000000000E+00  0.00000000000E+00 -0.73035949248E+03  0.73035949250E+03  0.50400001928E-02 0.  1.
    10030    2    1    2    0    0  0.00000000000E+00  0.00000000000E+00 -0.45135102513E+03  0.10093679599E+04  0.90283217188E+03 0.  0.
        5    1    3    3  502    0 -0.12136303578E+03  0.46063465283E+02  0.25766286408E+03  0.28855341067E+03  0.46999998093E+01 0. -1.
       -5    1    3    3    0  502  0.12136303578E+03 -0.46063465283E+02 -0.70901388921E+03  0.72081454923E+03  0.46999998093E+01 0.  1.
</event>
<event>
 5   0  0.3626546E-03  0.8630218E+03  0.7818609E-02  0.9473024E-01
       -2   -1    0    0    0  501  0.00000000000E+00  0.00000000000E+00  0.61724034209E+03  0.61724034209E+03  0.25500000920E-02 0.  1.
        2   -1    0    0  501    0  0.00000000000E+00  0.00000000000E+00 -0.30166799343E+03  0.30166799344E+03  0.25500000920E-02 0. -1.
    10030    2    1    2    0    0  0.00000000000E+00  0.00000000000E+00  0.31557234866E+03  0.91890833553E+03  0.86302179687E+03 0.  0.
        3    1    3    3  502    0  0.38427817642E+03  0.93170673391E+01 -0.50985243461E+02  0.38775769479E+03  0.10100000352E+00 0. -1.
       -3    1    3    3    0  502 -0.38427817642E+03 -0.93170673391E+01  0.36655759212E+03  0.53115064074E+03  0.10100000352E+00 0.  1.
</event>
<event>
 5   0  0.2134145E-03  0.8984144E+03  0.7818609E-02  0.9427566E-01
       -1   -1    0    0    0  501  0.00000000000E+00  0.00000000000E+00  0.56315351198E+03  0.56315351201E+03  0.50400001928E-02 0. -1.
        1   -1    0    0  501    0  0.00000000000E+00  0.00000000000E+00 -0.35831637857E+03  0.35831637860E+03  0.50400001928E-02 0.  1.
    10030    2    1    2    0    0  0.00000000000E+00  0.00000000000E+00  0.20483713342E+03  0.92146989061E+03  0.89841444115E+03 0.  0.
        1    1    3    3  502    0 -0.16539706123E+03 -0.22204450722E+03  0.46522939997E+03  0.54138557949E+03  0.50400001928E-02 0. -1.
       -1    1    3    3    0  502  0.16539706123E+03  0.22204450722E+03 -0.26039226656E+03  0.38008431112E+03  0.50400001928E-02 0.  1.
</event>
<event>
 5   0  0.3685879E-03  0.9013575E+03  0.7818609E-02  0.9423886E-01
       -2   -1    0    0    0  501  0.00000000000E+00  0.00000000000E+00  0.11288888839E+03  0.11288888842E+03  0.25500000920E-02 0. -1.
        2   -1    0    0  501    0  0.00000000000E+00  0.00000000000E+00 -0.17992145873E+04  0.17992145873E+04  0.25500000920E-02 0.  1.
    10030    2    1    2    0    0  0.00000000000E+00  0.00000000000E+00 -0.16863256989E+04  0.19121034757E+04  0.90135749793E+03 0.  0.
        1    1    3    3  502    0 -0.22170274076E+02 -0.27006340772E+03 -0.16071044178E+04  0.16297884449E+04  0.50400001928E-02 0.  1.
       -1    1    3    3    0  502  0.22170274076E+02  0.27006340772E+03 -0.79221281092E+02  0.28231503086E+03  0.50400001928E-02 0. -1.
</event>
<event>
 5   0  0.2295158E-03  0.9072332E+03  0.7818609E-02  0.9416584E-01
        1   -1    0    0  501    0  0.00000000000E+00  0.00000000000E+00  0.62728864688E+03  0.62728864690E+03  0.50400001928E-02 0.  1.
       -1   -1    0    0    0  501  0.00000000000E+00  0.00000000000E+00 -0.32802764059E+03  0.32802764063E+03  0.50400001928E-02 0. -1.
    10030    2    1    2    0    0  0.00000000000E+00  0.00000000000E+00  0.29926100629E+03  0.95531628753E+03  0.90723318906E+03 0.  0.
        4    1    3    3  502    0  0.73083941235E+02 -0.14098094836E+02 -0.32155172765E+03  0.33005627580E+03  0.12699999809E+01 0. -1.
       -4    1    3    3    0  502 -0.73083941235E+02  0.14098094836E+02  0.62081273394E+03  0.62526001173E+03  0.12699999809E+01 0.  1.
</event>
<event>
 5   0  0.2130975E-03  0.8988347E+03  0.7818609E-02  0.9427039E-01
       -1   -1    0    0    0  501  0.00000000000E+00  0.00000000000E+00  0.10006835556E+03  0.10006835569E+03  0.50400001928E-02 0. -1.
        1   -1    0    0  501    0  0.00000000000E+00  0.00000000000E+00 -0.20183796679E+04  0.20183796679E+04  0.50400001928E-02 0.  1.
    10030    2    1    2    0    0  0.00000000000E+00  0.00000000000E+00 -0.19183113123E+04  0.21184480236E+04  0.89883465533E+03 0.  0.
        5    1    3    3  502    0 -0.23778452172E+03  0.28129319613E+03 -0.15659626251E+04  0.16087039423E+04  0.46999998093E+01 0.  1.
       -5    1    3    3    0  502  0.23778452172E+03 -0.28129319613E+03 -0.35234868725E+03  0.50974408125E+03  0.46999998093E+01 0. -1.
</event>
<event>
 5   0  0.1436000E-03  0.9012755E+03  0.7818609E-02  0.9423988E-01
        3   -1    0    0  501    0  0.00000000000E+00  0.00000000000E+00  0.26376661961E+03  0.26376663895E+03  0.10100000352E+00 0.  1.
       -3   -1    0    0    0  501  0.00000000000E+00  0.00000000000E+00 -0.76990173800E+03  0.76990174463E+03  0.10100000352E+00 0. -1.
    10030    2    1    2    0    0  0.00000000000E+00  0.00000000000E+00 -0.50613511839E+03  0.10336683836E+04  0.90127552342E+03 0.  0.
        5    1    3    3  502    0  0.13971299939E+03 -0.31712261748E+03  0.77281653129E+02  0.35507889352E+03  0.46999998093E+01 0.  1.
       -5    1    3    3    0  502 -0.13971299939E+03  0.31712261748E+03 -0.58341677152E+03  0.67858949005E+03  0.46999998093E+01 0. -1.
</event>
<event>
 5   0  0.2074970E-03  0.8936226E+03  0.7818609E-02  0.9433589E-01
       -1   -1    0    0    0  501  0.00000000000E+00  0.00000000000E+00  0.34251513742E+03  0.34251513745E+03  0.50400001928E-02 0. -1.
        1   -1    0    0  501    0  0.00000000000E+00  0.00000000000E+00 -0.58286577874E+03  0.58286577877E+03  0.50400001928E-02 0.  1.
    10030    2    1    2    0    0  0.00000000000E+00  0.00000000000E+00 -0.24035064133E+03  0.92538091622E+03  0.89362263250E+03 0.  0.
        2    1    3    3  502    0 -0.22209150230E+03  0.14421102634E+03  0.25250198566E+03  0.36589439498E+03  0.25500000920E-02 0. -1.
       -2    1    3    3    0  502  0.22209150230E+03 -0.14421102634E+03 -0.49285262698E+03  0.55948652124E+03  0.25500000920E-02 0.  1.
</event>
<event>
 5   0  0.2074970E-03  0.8923254E+03  0.7818609E-02  0.9435226E-01
       -1   -1    0    0    0  501  0.00000000000E+00  0.00000000000E+00  0.10022433443E+03  0.10022433455E+03  0.50400001928E-02 0.  1.
        1   -1    0    0  501    0  0.00000000000E+00  0.00000000000E+00 -0.19861558386E+04  0.19861558386E+04  0.50400001928E-02 0. -1.
    10030    2    1    2    0    0  0.00000000000E+00  0.00000000000E+00 -0.18859315042E+04  0.20863801732E+04  0.89232538265E+03 0.  0.
        2    1    3    3  502    0 -0.17127047847E+03 -0.40982297035E+03 -0.84452198435E+03  0.95420428938E+03  0.25500000920E-02 0. -1.
       -2    1    3    3    0  502  0.17127047847E+03  0.40982297035E+03 -0.10414095198E+04  0.11321758838E+04  0.25500000920E-02 0.  1.
</event>
<event>
 5   0  0.2130975E-03  0.9092889E+03  0.7818609E-02  0.9414044E-01
        1   -1    0    0  501    0  0.00000000000E+00  0.00000000000E+00  0.13452243093E+04  0.13452243093E+04  0.50400001928E-02 0. -1.
       -1   -1    0    0    0  501  0.00000000000E+00  0.00000000000E+00 -0.15365583543E+03  0.15365583551E+03  0.50400001928E-02 0.  1.
    10030    2    1    2    0    0  0.00000000000E+00  0.00000000000E+00  0.11915684738E+04  0.14988801448E+04  0.90928887632E+03 0.  0.
        5    1    3    3  502    0 -0.26725371015E+03  0.35669764678E+03  0.74342243393E+03  0.86680837679E+03  0.46999998093E+01 0. -1.
       -5    1    3    3    0  502  0.26725371015E+03 -0.35669764678E+03  0.44814603989E+03  0.63207176798E+03  0.46999998093E+01 0.  1.
</event>
<event>
 5   0  0.3806019E-03  0.8981673E+03  0.7818609E-02  0.9427875E-01
       -2   -1    0    0    0  501  0.00000000000E+00  0.00000000000E+00  0.13381941150E+03  0.13381941152E+03  0.25500000920E-02 0.  1.
        2   -1    0    0  501    0  0.00000000000E+00  0.00000000000E+00 -0.15070766206E+04  0.15070766206E+04  0.25500000920E-02 0. -1.
    10030    2    1    2    0    0  0.00000000000E+00  0.00000000000E+00 -0.13732572091E+04  0.16408960321E+04  0.89816725941E+03 0.  0.
        2    1    3    3  502    0 -0.23907567947E+03 -0.16150342753E+03 -0.57897537797E+02  0.29426631222E+03  0.25500000920E-02 0.  1.
       -2    1    3    3    0  502  0.23907567947E+03  0.16150342753E+03 -0.13153596713E+04  0.13466297199E+04  0.25500000920E-02 0. -1.
</event>
<event>
 5   0  0.2295158E-03  0.8965180E+03  0.7818609E-02  0.9429945E-01
        1   -1    0    0  501    0  0.00000000000E+00  0.00000000000E+00  0.55497226900E+03  0.55497226902E+03  0.50400001928E-02 0. -1.
       -1   -1    0    0    0  501  0.00000000000E+00  0.00000000000E+00 -0.36206521168E+03  0.36206521171E+03  0.50400001928E-02 0.  1.
    10030    2    1    2    0    0  0.00000000000E+00  0.00000000000E+00  0.19290705732E+03  0.91703748073E+03  0.89651804684E+03 0.  0.
        4    1    3    3  502    0 -0.20818036443E+01 -0.34109448000E+03  0.39394472161E+03  0.52109868046E+03  0.12699999809E+01 0. -1.
       -4    1    3    3    0  502  0.20818036443E+01  0.34109448000E+03 -0.20103766430E+03  0.39593880027E+03  0.12699999809E+01 0.  1.
</event>
<event>
 5   0  0.2134145E-03  0.9006367E+03  0.7818609E-02  0.9424786E-01
        1   -1    0    0  501    0  0.00000000000E+00  0.00000000000E+00  0.21842511293E+04  0.21842511293E+04  0.50400001928E-02 0. -1.
       -1   -1    0    0    0  501  0.00000000000E+00  0.00000000000E+00 -0.92840349328E+02  0.92840349465E+02  0.50400001928E-02 0.  1.
    10030    2    1    2    0    0  0.00000000000E+00  0.00000000000E+00  0.20914107800E+04  0.22770914788E+04  0.90063674814E+03 0.  0.
        1    1    3    3  502    0  0.33763814147E+03  0.23773218831E+03  0.59151926327E+03  0.72139527777E+03  0.50400001928E-02 0. -1.
       -1    1    3    3    0  502 -0.33763814147E+03 -0.23773218831E+03  0.14998915167E+04  0.15556962010E+04  0.50400001928E-02 0.  1.
</event>
<event>
 5   0  0.2134145E-03  0.8982976E+03  0.7818609E-02  0.9427712E-01
        1   -1    0    0  501    0  0.00000000000E+00  0.00000000000E+00  0.72631664265E+03  0.72631664267E+03  0.50400001928E-02 0.  1.
       -1   -1    0    0    0  501  0.00000000000E+00  0.00000000000E+00 -0.27775028106E+03  0.27775028110E+03  0.50400001928E-02 0. -1.
    10030    2    1    2    0    0  0.00000000000E+00  0.00000000000E+00  0.44856636159E+03  0.10040669238E+04  0.89829761585E+03 0.  0.
        1    1    3    3  502    0 -0.14553864304E+03  0.22055897918E+03 -0.18167019475E+03  0.32067400831E+03  0.50400001928E-02 0. -1.
       -1    1    3    3    0  502  0.14553864304E+03 -0.22055897918E+03  0.63023655635E+03  0.68339291546E+03  0.50400001928E-02 0.  1.
</event>
<event>
 5   0  0.1436000E-03  0.9006510E+03  0.7818609E-02  0.9424768E-01
        3   -1    0    0  501    0  0.00000000000E+00  0.00000000000E+00  0.57450058370E+03  0.57450059258E+03  0.10100000352E+00 0.  1.
       -3   -1    0    0    0  501  0.00000000000E+00  0.00000000000E+00 -0.35299011434E+03  0.35299012879E+03  0.10100000352E+00 0. -1.
    10030    2    1    2    0    0  0.00000000000E+00  0.00000000000E+00  0.22151046936E+03  0.92749072137E+03  0.90065095913E+03 0.  0.
        3    1    3    3  502    0  0.90635935803E+02 -0.31266416914E+03 -0.20967535113E+03  0.38721766307E+03  0.10100000352E+00 0. -1.
       -3    1    3    3    0  502 -0.90635935803E+02  0.31266416914E+03  0.43118582050E+03  0.54027305830E+03  0.10100000352E+00 0.  1.
</event>
<event>
 5   0  0.3663255E-03  0.8982375E+03  0.7818609E-02  0.9427787E-01
        2   -1    0    0  501    0  0.00000000000E+00  0.00000000000E+00  0.41862432856E+03  0.41862432857E+03  0.25500000920E-02 0. -1.
       -2   -1    0    0    0  501  0.00000000000E+00  0.00000000000E+00 -0.48183452608E+03  0.48183452608E+03  0.25500000920E-02 0.  1.
    10030    2    1    2    0    0  0.00000000000E+00  0.00000000000E+00 -0.63210197513E+02  0.90045885466E+03  0.89823750749E+03 0.  0.
        4    1    3    3  502    0  0.36327283723E+03 -0.30383820968E+02  0.23137112731E+03  0.43176908446E+03  0.12699999809E+01 0. -1.
       -4    1    3    3    0  502 -0.36327283723E+03  0.30383820968E+02 -0.29458132482E+03  0.46868977019E+03  0.12699999809E+01 0.  1.
</event>
<event>
 5   0  0.2129280E-03  0.9010654E+03  0.7818609E-02  0.9424251E-01
       -1   -1    0    0    0  501  0.00000000000E+00  0.00000000000E+00  0.75829128807E+03  0.75829128809E+03  0.50400001928E-02 0.  1.
        1   -1    0    0  501    0  0.00000000000E+00  0.00000000000E+00 -0.26768037199E+03  0.26768037204E+03  0.50400001928E-02 0. -1.
    10030    2    1    2    0    0  0.00000000000E+00  0.00000000000E+00  0.49061091607E+03  0.10259716601E+04  0.90106535635E+03 0.  0.
        3    1    3    3  502    0 -0.33997849776E+03 -0.18692893662E+03 -0.15465721698E+02  0.38828727128E+03  0.10100000352E+00 0. -1.
       -3    1    3    3    0  502  0.33997849776E+03  0.18692893662E+03  0.50607663777E+03  0.63768438885E+03  0.10100000352E+00 0.  1.
</event>
<event>
 5   0  0.3663255E-03  0.9024198E+03  0.7818609E-02  0.9422562E-01
        2   -1    0    0  501    0  0.00000000000E+00  0.00000000000E+00  0.10494242285E+04  0.10494242285E+04  0.25500000920E-02 0.  1.
       -2   -1    0    0    0  501  0.00000000000E+00  0.00000000000E+00 -0.19400199189E+03  0.19400199191E+03  0.25500000920E-02 0. -1.
    10030    2    1    2    0    0  0.00000000000E+00  0.00000000000E+00  0.85542223656E+03  0.12434262204E+04  0.90241983726E+03 0.  0.
        4    1    3    3  502    0 -0.59867566330E+02 -0.31880072004E+03  0.85987093826E+03  0.91901994971E+03  0.12699999809E+01 0.  1.
       -4    1    3    3    0  502  0.59867566330E+02  0.31880072004E+03 -0.44487016960E+01  0.32440627066E+03  0.12699999809E+01 0. -1.
</event>
<event>
 5   0  0.3626546E-03  0.9217988E+03  0.7818609E-02  0.9398735E-01
       -2   -1    0    0    0  501  0.00000000000E+00  0.00000000000E+00  0.13207573439E+03  0.13207573441E+03  0.25500000920E-02 0. -1.
        2   -1    0    0  501    0  0.00000000000E+00  0.00000000000E+00 -0.16083823447E+04  0.16083823447E+04  0.25500000920E-02 0.  1.
    10030    2    1    2    0    0  0.00000000000E+00  0.00000000000E+00 -0.14763066103E+04  0.17404580791E+04  0.92179884872E+03 0.  0.
        3    1    3    3  502    0  0.30907780113E+03  0.45275569134E+02 -0.13780230729E+04  0.14129849837E+04  0.10100000352E+00 0.  1.
       -3    1    3    3    0  502 -0.30907780113E+03 -0.45275569134E+02 -0.98283537339E+02  0.32747309542E+03  0.10100000352E+00 0. -1.
</event>
<event>
 5   0  0.3685879E-03  0.9020819E+03  0.7818609E-02  0.9422983E-01
       -2   -1    0    0    0  501  0.00000000000E+00  0.00000000000E+00  0.94154947291E+02  0.94154947325E+02  0.25500000920E-02 0.  1.
        2   -1    0    0  501    0  0.00000000000E+00  0.00000000000E+00 -0.21606719197E+04  0.21606719197E+04  0.25500000920E-02 0. -1.
    10030    2    1    2    0    0  0.00000000000E+00  0.00000000000E+00 -0.20665169724E+04  0.22548268670E+04  0.90208192700E+03 0.  0.
        1    1    3    3  502    0  0.38250001655E+03 -0.27098155620E+02 -0.43965468155E+03  0.58338393167E+03  0.50400001928E-02 0. -1.
       -1    1    3    3    0  502 -0.38250001655E+03  0.27098155620E+02 -0.16268622909E+04  0.16714429354E+04  0.50400001928E-02 0.  1.
</event>
<event>
 5   0  0.3663255E-03  0.8967604E+03  0.7818609E-02  0.9429640E-01
        2   -1    0    0  501    0  0.00000000000E+00  0.00000000000E+00  0.17293458626E+04  0.17293458626E+04  0.25500000920E-02 0. -1.
       -2   -1    0    0    0  501  0.00000000000E+00  0.00000000000E+00 -0.11625482138E+03  0.11625482141E+03  0.25500000920E-02 0.  1.
    10030    2    1    2    0    0  0.00000000000E+00  0.00000000000E+00  0.16130910413E+04  0.18456006841E+04  0.89676037914E+03 0.  0.
        4    1    3    3  502    0 -0.30878345748E+03 -0.79856868219E+02  0.15794521867E+03  0.35591101137E+03  0.12699999809E+01 0.  1.
       -4    1    3    3    0  502  0.30878345748E+03  0.79856868219E+02  0.14551458226E+04  0.14896896727E+04  0.12699999809E+01 0. -1.
</event>
<event>
 5   0  0.2129280E-03  0.8910205E+03  0.7818609E-02  0.9436876E-01
       -1   -1    0    0    0  501  0.00000000000E+00  0.00000000000E+00  0.30053366534E+03  0.30053366538E+03  0.50400001928E-02 0.  1.
        1   -1    0    0  501    0  0.00000000000E+00  0.00000000000E+00 -0.66042310535E+03  0.66042310537E+03  0.50400001928E-02 0. -1.
    10030    2    1    2    0    0  0.00000000000E+00  0.00000000000E+00 -0.35988944001E+03  0.96095677075E+03  0.89102048586E+03 0.  0.
        3    1    3    3  502    0  0.25129760702E+02  0.62002358063E+02 -0.65497470234E+03  0.65838261534E+03  0.10100000352E+00 0. -1.
       -3    1    3    3    0  502 -0.25129760702E+02 -0.62002358063E+02  0.29508526233E+03  0.30257415541E+03  0.10100000352E+00 0.  1.
</event>
<event>
 5   0  0.3626546E-03  0.9013078E+03  0.7818609E-02  0.9423948E-01
        2   -1    0    0  501    0  0.00000000000E+00  0.00000000000E+00  0.96668405583E+03  0.96668405583E+03  0.25500000920E-02 0. -1.
       -2   -1    0    0    0  501  0.00000000000E+00  0.00000000000E+00 -0.21008823542E+03  0.21008823544E+03  0.25500000920E-02 0.  1.
    10030    2    1    2    0    0  0.00000000000E+00  0.00000000000E+00  0.75659582040E+03  0.11767722913E+04  0.90130782202E+03 0.  0.
        3    1    3    3  502    0 -0.33307032381E+03 -0.30165303586E+03  0.42273803896E+03  0.61695855163E+03  0.10100000352E+00 0.  1.
       -3    1    3    3    0  502  0.33307032381E+03  0.30165303586E+03  0.33385778144E+03  0.55981373963E+03  0.10100000352E+00 0. -1.
</event>
<event>
 5   0  0.2134145E-03  0.8981380E+03  0.7818609E-02  0.9427912E-01
       -1   -1    0    0    0  501  0.00000000000E+00  0.00000000000E+00  0.33387520217E+03  0.33387520221E+03  0.50400001928E-02 0. -1.
        1   -1    0    0  501    0  0.00000000000E+00  0.00000000000E+00 -0.60400698691E+03  0.60400698693E+03  0.50400001928E-02 0.  1.
    10030    2    1    2    0    0  0.00000000000E+00  0.00000000000E+00 -0.27013178474E+03  0.93788218915E+03  0.89813797358E+03 0.  0.
        1    1    3    3  502    0  0.22290917104E+03 -0.87740009018E+02 -0.53171136142E+03  0.58318417297E+03  0.50400001928E-02 0.  1.
       -1    1    3    3    0  502 -0.22290917104E+03  0.87740009018E+02  0.26157957668E+03  0.35469801617E+03  0.50400001928E-02 0. -1.
</event>
<event>
 5   0  0.3663255E-03  0.8952252E+03  0.7818609E-02  0.9431570E-01
        2   -1    0    0  501    0  0.00000000000E+00  0.00000000000E+00  0.55275339025E+03  0.55275339026E+03  0.25500000920E-02 0. -1.
       -2   -1    0    0    0  501  0.00000000000E+00  0.00000000000E+00 -0.36247096284E+03  0.36247096285E+03  0.25500000920E-02 0.  1.
    10030    2    1    2    0    0  0.00000000000E+00  0.00000000000E+00  0.19028242741E+03  0.91522435310E+03  0.89522523106E+03 0.  0.
        4    1    3    3  502    0  0.33734217787E+03 -0.74477124681E+02 -0.19583768578E+03  0.39711534740E+03  0.12699999809E+01 0.  1.
       -4    1    3    3    0  502 -0.33734217787E+03  0.74477124681E+02  0.38612011319E+03  0.51810900570E+03  0.12699999809E+01 0. -1.
</event>
<event>
 5   0  0.3806019E-03  0.8999812E+03  0.7818609E-02  0.9425605E-01
       -2   -1    0    0    0  501  0.00000000000E+00  0.00000000000E+00  0.23392091100E+03  0.23392091102E+03  0.25500000920E-02 0.  1.
        2   -1    0    0  501    0  0.00000000000E+00  0.00000000000E+00 -0.86564095675E+03  0.86564095676E+03  0.25500000920E-02 0. -1.
    10030    2    1    2    0    0  0.00000000000E+00  0.00000000000E+00 -0.63172004575E+03  0.10995618678E+04  0.89998115805E+03 0.  0.
        2    1    3    3  502    0 -0.20353486548E+03  0.33098391109E+03 -0.38558682661E+02  0.39046582806E+03  0.25500000920E-02 0.  1.
       -2    1    3    3    0  502  0.20353486548E+03 -0.33098391109E+03 -0.59316136309E+03  0.70909603971E+03  0.25500000920E-02 0. -1.
</event>
<event>
 5   0  0.3685879E-03  0.9031180E+03  0.7818609E-02  0.9421692E-01
        2   -1    0    0  501    0  0.00000000000E+00  0.00000000000E+00  0.96323157677E+03  0.96323157677E+03  0.25500000920E-02 0.  1.
       -2   -1    0    0    0  501  0.00000000000E+00  0.00000000000E+00 -0.21168901483E+03  0.21168901484E+03  0.25500000920E-02 0. -1.
    10030    2    1    2    0    0  0.00000000000E+00  0.00000000000E+00  0.75154256194E+03  0.11749205916E+04  0.90311802894E+03 0.  0.
        1    1    3    3  502    0 -0.41622930029E+03 -0.10736986668E+03  0.55571069852E+03  0.70255924958E+03  0.50400001928E-02 0. -1.
       -1    1    3    3    0  502  0.41622930029E+03  0.10736986668E+03  0.19583186342E+03  0.47236134204E+03  0.50400001928E-02 0.  1.
</event>
<event>
 5   0  0.3626546E-03  0.9019210E+03  0.7818609E-02  0.9423183E-01
        2   -1    0    0  501    0  0.00000000000E+00  0.00000000000E+00  0.17461741917E+04  0.17461741917E+04  0.25500000920E-02 0.  1.
       -2   -1    0    0    0  501  0.00000000000E+00  0.00000000000E+00 -0.11646339677E+03  0.11646339680E+03  0.25500000920E-02 0. -1.
    10030    2    1    2    0    0  0.00000000000E+00  0.00000000000E+00  0.16297107950E+04  0.18626375885E+04  0.90192101150E+03 0.  0.
        3    1    3    3  502    0  0.28916961814E+03 -0.15505972023E+03  0.14537395875E+04  0.14903091570E+04  0.10100000352E+00 0.  1.
       -3    1    3    3    0  502 -0.28916961814E+03  0.15505972023E+03  0.17597120747E+03  0.37232843157E+03  0.10100000352E+00 0. -1.
</event>
<event>
 5   0  0.1436000E-03  0.8965076E+03  0.7818609E-02  0.9429958E-01
       -3   -1    0    0    0  501  0.00000000000E+00  0.00000000000E+00  0.11632935348E+04  0.11632935392E+04  0.10100000352E+00 0.  1.
        3   -1    0    0  501    0  0.00000000000E+00  0.00000000000E+00 -0.17272636768E+03  0.17272639721E+03  0.10100000352E+00 0. -1.
    10030    2    1    2    0    0  0.00000000000E+00  0.00000000000E+00  0.99056716714E+03  0.13360199364E+04  0.89650764520E+03 0.  0.
        3    1    3    3  502    0 -0.41449221667E+03  0.17065535446E+03  0.49842075837E+03  0.67033596820E+03  0.10100000352E+00 0. -1.
       -3    1    3    3    0  502  0.41449221667E+03 -0.17065535446E+03  0.49214640877E+03  0.66568396822E+03  0.10100000352E+00 0.  1.
</event>
<event>
 5   0  0.3806019E-03  0.9049296E+03  0.7818609E-02  0.9419440E-01
       -2   -1    0    0    0  501  0.00000000000E+00  0.00000000000E+00  0.32093563936E+03  0.32093563937E+03  0.25500000920E-02 0. -1.
        2   -1    0    0  501    0  0.00000000000E+00  0.00000000000E+00 -0.63789858655E+03  0.63789858656E+03  0.25500000920E-02 0.  1.
    10030    2    1    2    0    0  0.00000000000E+00  0.00000000000E+00 -0.31696294719E+03  0.95883422593E+03  0.90492959003E+03 0.  0.
        2    1    3    3  502    0 -0.42339004450E+01  0.44417987703E+03 -0.67268124248E+02  0.44926460980E+03  0.25500000920E-02 0. -1.
       -2    1    3    3    0  502  0.42339004450E+01 -0.44417987703E+03 -0.24969482294E+03  0.50956961613E+03  0.25500000920E-02 0.  1.
</event>
<event>
 5   0  0.2074970E-03  0.9015574E+03  0.7818609E-02  0.9423637E-01
        1   -1    0    0  501    0  0.00000000000E+00  0.00000000000E+00  0.86368688170E+03  0.86368688171E+03  0.50400001928E-02 0. -1.
       -1   -1    0    0    0  501  0.00000000000E+00  0.00000000000E+00 -0.23527212850E+03  0.23527212855E+03  0.50400001928E-02 0.  1.
    10030    2    1    2    0    0  0.00000000000E+00  0.00000000000E+00  0.62841475320E+03  0.10989590103E+04  0.90155743256E+03 0.  0.
        2    1    3    3  502    0  0.25966357244E+03  0.13590403121E+02 -0.13464596065E+03  0.29281291746E+03  0.25500000920E-02 0.  1.
       -2    1    3    3    0  502 -0.25966357244E+03 -0.13590403121E+02  0.76306071385E+03  0.80614609280E+03  0.25500000920E-02 0. -1.
</event>
<event>
 5   0  0.2074970E-03  0.8935945E+03  0.7818609E-02  0.9433624E-01
       -1   -1    0    0    0  501  0.00000000000E+00  0.00000000000E+00  0.58942947356E+03  0.58942947358E+03  0.50400001928E-02 0.  1.
        1   -1    0    0  501    0  0.00000000000E+00  0.00000000000E+00 -0.33867970922E+03  0.33867970925E+03  0.50400001928E-02 0. -1.
    10030    2    1    2    0    0  0.00000000000E+00  0.00000000000E+00  0.25074976434E+03  0.92810918283E+03  0.89359454505E+03 0.  0.
        2    1    3    3  502    0  0.11986215075E+03  0.52857071584E+02  0.56903534060E+03  0.58391953560E+03  0.25500000920E-02 0.  1.
       -2    1    3    3    0  502 -0.11986215075E+03 -0.52857071584E+02 -0.31828557626E+03  0.34418964723E+03  0.25500000920E-02 0. -1.
</event>
<event>
 5   0  0.2295158E-03  0.9001482E+03  0.7818609E-02  0.9425396E-01
       -1   -1    0    0    0  501  0.00000000000E+00  0.00000000000E+00  0.41960742092E+03  0.41960742095E+03  0.50400001928E-02 0. -1.
        1   -1    0    0  501    0  0.00000000000E+00  0.00000000000E+00 -0.48275289594E+03  0.48275289597E+03  0.50400001928E-02 0.  1.
    10030    2    1    2    0    0  0.00000000000E+00  0.00000000000E+00 -0.63145475023E+02  0.90236031692E+03  0.90014820476E+03 0.  0.
        4    1    3    3  502    0  0.29524762016E+03  0.44759362401E+02 -0.36913536240E+03  0.47480215501E+03  0.12699999809E+01 0.  1.
       -4    1    3    3    0  502 -0.29524762016E+03 -0.44759362401E+02  0.30598988738E+03  0.42755816190E+03  0.12699999809E+01 0. -1.
</event>
<event>
 5   0  0.2130975E-03  0.9024462E+03  0.7818609E-02  0.9422529E-01
       -1   -1    0    0    0  501  0.00000000000E+00  0.00000000000E+00  0.31610147765E+03  0.31610147769E+03  0.50400001928E-02 0.  1.
        1   -1    0    0  501    0  0.00000000000E+00  0.00000000000E+00 -0.64410413790E+03  0.64410413792E+03  0.50400001928E-02 0. -1.
    10030    2    1    2    0    0  0.00000000000E+00  0.00000000000E+00 -0.32800266024E+03  0.96020561561E+03  0.90244616411E+03 0.  0.
        5    1    3    3  502    0 -0.73410478874E+02 -0.30217052295E+03  0.18385459250E+03  0.36127652087E+03  0.46999998093E+01 0.  1.
       -5    1    3    3    0  502  0.73410478874E+02  0.30217052295E+03 -0.51185725274E+03  0.59892909474E+03  0.46999998093E+01 0. -1.
</event>
<event>
 5   0  0.2130975E-03  0.8991064E+03  0.7818609E-02  0.9426699E-01
        1   -1    0    0  501    0  0.00000000000E+00  0.00000000000E+00  0.27604400297E+03  0.27604400301E+03  0.50400001928E-02 0. -1.
       -1   -1    0    0    0  501  0.00000000000E+00  0.00000000000E+00 -0.73212265155E+03  0.73212265157E+03  0.50400001928E-02 0.  1.
    10030    2    1    2    0    0  0.00000000000E+00  0.00000000000E+00 -0.45607864859E+03  0.10081666546E+04  0.89910637286E+03 0.  0.
        5    1    3    3  502    0 -0.39037469890E+03 -0.13565464009E+03 -0.29720345285E+02  0.41436695795E+03  0.46999998093E+01 0. -1.
       -5    1    3    3    0  502  0.39037469890E+03  0.13565464009E+03 -0.42635830330E+03  0.59379969663E+03  0.46999998093E+01 0.  1.
</event>
<event>
 5   0  0.3626546E-03  0.9140485E+03  0.7818609E-02  0.9408188E-01
        2   -1    0    0  501    0  0.00000000000E+00  0.00000000000E+00  0.61636069815E+03  0.61636069815E+03  0.25500000920E-02 0.  1.
       -2   -1    0    0    0  501  0.00000000000E+00  0.00000000000E+00 -0.33887816058E+03  0.33887816059E+03  0.25500000920E-02 0. -1.
    10030    2    1    2    0    0  0.00000000000E+00  0.00000000000E+00  0.27748253756E+03  0.95523885875E+03  0.91404853187E+03 0.  0.
        3    1    3    3  502    0  0.10739714174E+03 -0.43581615074E+03  0.48833564180E+02  0.45150259190E+03  0.10100000352E+00 0. -1.
       -3    1    3    3    0  502 -0.10739714174E+03  0.43581615074E+03  0.22864897338E+03  0.50373626684E+03  0.10100000352E+00 0.  1.
</event>
<event>
 5   0  0.3626546E-03  0.8995002E+03  0.7818609E-02  0.9426206E-01
       -2   -1    0    0    0  501  0.00000000000E+00  0.00000000000E+00  0.52291667928E+03  0.52291667929E+03  0.25500000920E-02 0.  1.
        2   -1    0    0  501    0  0.00000000000E+00  0.00000000000E+00 -0.38682099645E+03  0.38682099646E+03  0.25500000920E-02 0. -1.
    10030    2    1    2    0    0  0.00000000000E+00  0.00000000000E+00  0.13609568284E+03  0.90973767575E+03  0.89950019666E+03 0.  0.
        3    1    3    3  502    0 -0.26459015670E+02  0.10964713132E+03  0.50837934102E+03  0.52074191064E+03  0.10100000352E+00 0.  1.
       -3    1    3    3    0  502  0.26459015670E+02 -0.10964713132E+03 -0.37228365819E+03  0.38899576511E+03  0.10100000352E+00 0. -1.
</event>
<event>
 5   0  0.2130975E-03  0.9027727E+03  0.7818609E-02  0.9422122E-01
       -1   -1    0    0    0  501  0.00000000000E+00  0.00000000000E+00  0.65740159714E+03  0.65740159716E+03  0.50400001928E-02 0.  1.
        1   -1    0    0  501    0  0.00000000000E+00  0.00000000000E+00 -0.30993173370E+03  0.30993173374E+03  0.50400001928E-02 0. -1.
    10030    2    1    2    0    0  0.00000000000E+00  0.00000000000E+00  0.34746986344E+03  0.96733333090E+03  0.90277265525E+03 0.  0.
        5    1    3    3  502    0 -0.28682936924E+03  0.32936925105E+03  0.29577623976E+03  0.52750437401E+03  0.46999998093E+01 0. -1.
       -5    1    3    3    0  502  0.28682936924E+03 -0.32936925105E+03  0.51693623686E+02  0.43982895689E+03  0.46999998093E+01 0.  1.
</event>
<event>
 5   0  0.3685879E-03  0.9033190E+03  0.7818609E-02  0.9421442E-01
        2   -1    0    0  501    0  0.00000000000E+00  0.00000000000E+00  0.16521334079E+04  0.16521334079E+04  0.25500000920E-02 0.  1.
       -2   -1    0    0    0  501  0.00000000000E+00  0.00000000000E+00 -0.12347448457E+03  0.12347448460E+03  0.25500000920E-02 0. -1.
    10030    2    1    2    0    0  0.00000000000E+00  0.00000000000E+00  0.15286589233E+04  0.17756078925E+04  0.90331903781E+03 0.  0.
        1    1    3    3  502    0 -0.62293027957E+02 -0.83344884643E+01  0.16434963290E+04  0.16446975614E+04  0.50400001928E-02 0.  1.
       -1    1    3    3    0  502  0.62293027957E+02  0.83344884643E+01 -0.11483740566E+03  0.13091033112E+03  0.50400001928E-02 0. -1.
</event>
<event>
 5   0  0.2074970E-03  0.9157798E+03  0.7818609E-02  0.9406068E-01
        1   -1    0    0  501    0  0.00000000000E+00  0.00000000000E+00  0.56853523681E+03  0.56853523684E+03  0.50400001928E-02 0.  1.
       -1   -1    0    0    0  501  0.00000000000E+00  0.00000000000E+00 -0.36877778532E+03  0.36877778536E+03  0.50400001928E-02 0. -1.
    10030    2    1    2    0    0  0.00000000000E+00  0.00000000000E+00  0.19975745149E+03  0.93731302219E+03  0.91577981095E+03 0.  0.
        2    1    3    3  502    0 -0.13283536543E+03  0.23215912074E+02  0.54775092719E+03  0.56410574464E+03  0.25500000920E-02 0.  1.
       -2    1    3    3    0  502  0.13283536543E+03 -0.23215912074E+02 -0.34799347570E+03  0.37320727756E+03  0.25500000920E-02 0. -1.
</event>
<event>
 5   0  0.3626546E-03  0.8985585E+03  0.7818609E-02  0.9427385E-01
        2   -1    0    0  501    0  0.00000000000E+00  0.00000000000E+00  0.13058033121E+04  0.13058033121E+04  0.25500000920E-02 0. -1.
       -2   -1    0    0    0  501  0.00000000000E+00  0.00000000000E+00 -0.15458059794E+03  0.15458059796E+03  0.25500000920E-02 0.  1.
    10030    2    1    2    0    0  0.00000000000E+00  0.00000000000E+00  0.11512227142E+04  0.14603839101E+04  0.89855852743E+03 0.  0.
        3    1    3    3  502    0 -0.25798297057E+03 -0.33184482945E+03  0.31773534100E+03  0.52690792465E+03  0.10100000352E+00 0.  1.
       -3    1    3    3    0  502  0.25798297057E+03  0.33184482945E+03  0.83348737319E+03  0.93347598545E+03  0.10100000352E+00 0. -1.
</event>
<event>
 5   0  0.3663255E-03  0.9027573E+03  0.7818609E-02  0.9422141E-01
       -2   -1    0    0    0  501  0.00000000000E+00  0.00000000000E+00  0.19616438526E+03  0.19616438527E+03  0.25500000920E-02 0.  1.
        2   -1    0    0  501    0  0.00000000000E+00  0.00000000000E+00 -0.10386323766E+04  0.10386323766E+04  0.25500000920E-02 0. -1.
    10030    2    1    2    0    0  0.00000000000E+00  0.00000000000E+00 -0.84246799139E+03  0.12347967619E+04  0.90275729115E+03 0.  0.
        4    1    3    3  502    0 -0.42061498365E+03  0.21962502932E+02 -0.19923714576E+03  0.46593601401E+03  0.12699999809E+01 0.  1.
       -4    1    3    3    0  502  0.42061498365E+03 -0.21962502932E+02 -0.64323084563E+03  0.76886074791E+03  0.12699999809E+01 0. -1.
</event>
<event>
 5   0  0.3815269E-03  0.8975909E+03  0.7818609E-02  0.9428598E-01
       -2   -1    0    0    0  501  0.00000000000E+00  0.00000000000E+00  0.32031106630E+03  0.32031106631E+03  0.25500000920E-02 0. -1.
        2   -1    0    0  501    0  0.00000000000E+00  0.00000000000E+00 -0.62881792388E+03  0.62881792389E+03  0.25500000920E-02 0.  1.
    10030    2    1    2    0    0  0.00000000000E+00  0.00000000000E+00 -0.30850685758E+03  0.94912899020E+03  0.89759086385E+03 0.  0.
        5    1    3    3  502    0 -0.20653089006E+03  0.56790707827E+02  0.26274367316E+03  0.33902289130E+03  0.46999998093E+01 0. -1.
       -5    1    3    3    0  502  0.20653089006E+03 -0.56790707827E+02 -0.57125053074E+03  0.61010609890E+03  0.46999998093E+01 0.  1.
</event>
<event>
 5   0  0.2134145E-03  0.8984755E+03  0.7818609E-02  0.9427489E-01
        1   -1    0    0  501    0  0.00000000000E+00  0.00000000000E+00  0.53115159355E+03  0.53115159357E+03  0.50400001928E-02 0.  1.
       -1   -1    0    0    0  501  0.00000000000E+00  0.00000000000E+00 -0.37995663592E+03  0.37995663596E+03  0.50400001928E-02 0. -1.
    10030    2    1    2    0    0  0.00000000000E+00  0.00000000000E+00  0.15119495763E+03  0.91110822953E+03  0.89847553707E+03 0.  0.
        1    1    3    3  502    0  0.16140355043E+03  0.41847897473E+03  0.10122762106E+03  0.45980733973E+03  0.50400001928E-02 0.  1.
       -1    1    3    3    0  502 -0.16140355043E+03 -0.41847897473E+03  0.49967336566E+02  0.45130088980E+03  0.50400001928E-02 0. -1.
</event>
<event>
 5   0  0.2129280E-03  0.8994595E+03  0.7818609E-02  0.9426257E-01
       -1   -1    0    0    0  501  0.00000000000E+00  0.00000000000E+00  0.20286248554E+03  0.20286248560E+03  0.50400001928E-02 0.  1.
        1   -1    0    0  501    0  0.00000000000E+00  0.00000000000E+00 -0.99701461722E+03  0.99701461723E+03  0.50400001928E-02 0. -1.
    10030    2    1    2    0    0  0.00000000000E+00  0.00000000000E+00 -0.79415213168E+03  0.11998771028E+04  0.89945953419E+03 0.  0.
        3    1    3    3  502    0 -0.26587347425E+02 -0.63953069124E+02 -0.98985760593E+03  0.99227766896E+03  0.10100000352E+00 0. -1.
       -3    1    3    3    0  502  0.26587347425E+02  0.63953069124E+02  0.19570547425E+03  0.20759943387E+03  0.10100000352E+00 0.  1.
</event>
<event>
 5   0  0.2295158E-03  0.9073925E+03  0.7818609E-02  0.9416387E-01
       -1   -1    0    0    0  501  0.00000000000E+00  0.00000000000E+00  0.80972071195E+03  0.80972071196E+03  0.50400001928E-02 0. -1.
        1   -1    0    0  501    0  0.00000000000E+00  0.00000000000E+00 -0.25421145647E+03  0.25421145652E+03  0.50400001928E-02 0.  1.
    10030    2    1    2    0    0  0.00000000000E+00  0.00000000000E+00  0.55550925547E+03  0.10639321685E+04  0.90739248742E+03 0.  0.
        4    1    3    3  502    0  0.46017474920E+02  0.41682604602E+03  0.48076284962E+03  0.63796245274E+03  0.12699999809E+01 0. -1.
       -4    1    3    3    0  502 -0.46017474920E+02 -0.41682604602E+03  0.74746405858E+02  0.42596971574E+03  0.12699999809E+01 0.  1.
</event>
<event>
 5   0  0.2130975E-03  0.9079715E+03  0.7818609E-02  0.9415671E-01
       -1   -1    0    0    0  501  0.00000000000E+00  0.00000000000E+00  0.18756600313E+03  0.18756600319E+03  0.50400001928E-02 0. -1.
        1   -1    0    0  501    0  0.00000000000E+00  0.00000000000E+00 -0.10988294765E+04  0.10988294765E+04  0.50400001928E-02 0.  1.
    10030    2    1    2    0    0  0.00000000000E+00  0.00000000000E+00 -0.91126347334E+03  0.12863954797E+04  0.90797148208E+03 0.  0.
        5    1    3    3  502    0  0.10196242736E+03  0.98451073259E+02 -0.10666433208E+04  0.10760292813E+04  0.46999998093E+01 0.  1.
       -5    1    3    3    0  502 -0.10196242736E+03 -0.98451073259E+02  0.15537984746E+03  0.21036619836E+03  0.46999998093E+01 0. -1.
</event>
<event>
 5   0  0.3626546E-03  0.8969204E+03  0.7818609E-02  0.9429439E-01
       -2   -1    0    0    0  501  0.00000000000E+00  0.00000000000E+00  0.17614471908E+04  0.17614471908E+04  0.25500000920E-02 0.  1.
        2   -1    0    0  501    0  0.00000000000E+00  0.00000000000E+00 -0.11417689441E+03  0.11417689444E+03  0.25500000920E-02 0. -1.
    10030    2    1    2    0    0  0.00000000000E+00  0.00000000000E+00  0.16472702964E+04  0.18756240853E+04  0.89692044230E+03 0.  0.
        3    1    3    3  502    0  0.20113319979E+03  0.87343141807E+02  0.55760716252E+01  0.21935015673E+03  0.10100000352E+00 0. -1.
       -3    1    3    3    0  502 -0.20113319979E+03 -0.87343141807E+02  0.16416942248E+04  0.16562739285E+04  0.10100000352E+00 0.  1.
</event>
<event>
 5   0  0.2074970E-03  0.8992519E+03  0.7818609E-02  0.9426517E-01
       -1   -1    0    0    0  501  0.00000000000E+00  0.00000000000E+00  0.24075471454E+03  0.24075471460E+03  0.50400001928E-02 0.  1.
        1   -1    0    0  501    0  0.00000000000E+00  0.00000000000E+00 -0.83970726730E+03  0.83970726731E+03  0.50400001928E-02 0. -1.
    10030    2    1    2    0    0  0.00000000000E+00  0.00000000000E+00 -0.59895255276E+03  0.10804619819E+04  0.89925187456E+03 0.  0.
        2    1    3    3  502    0 -0.24160028987E+03 -0.12219148134E+03 -0.73078735604E+03  0.77932767045E+03  0.25500000920E-02 0. -1.
       -2    1    3    3    0  502  0.24160028987E+03  0.12219148134E+03  0.13183480328E+03  0.30113431146E+03  0.25500000920E-02 0.  1.
</event>
<event>
 5   0  0.2295158E-03  0.9032075E+03  0.7818609E-02  0.9421581E-01
        1   -1    0    0  501    0  0.00000000000E+00  0.00000000000E+00  0.64633557344E+03  0.64633557346E+03  0.50400001928E-02 0. -1.
       -1   -1    0    0    0  501  0.00000000000E+00  0.00000000000E+00 -0.31554191469E+03  0.31554191473E+03  0.50400001928E-02 0.  1.
    10030    2    1    2    0    0  0.00000000000E+00  0.00000000000E+00  0.33079365875E+03  0.96187748819E+03  0.90320753850E+03 0.  0.
        4    1    3    3  502    0 -0.43453707973E+03 -0.83816617450E+02  0.69570477114E+02  0.44798366399E+03  0.12699999809E+01 0.  1.
       -4    1    3    3    0  502  0.43453707973E+03  0.83816617450E+02  0.26122318164E+03  0.51389382419E+03  0.12699999809E+01 0. -1.
</event>
<event>
 5   0  0.2129280E-03  0.9000380E+03  0.7818609E-02  0.9425534E-01
        1   -1    0    0  501    0  0.00000000000E+00  0.00000000000E+00  0.72937585781E+03  0.72937585782E+03  0.50400001928E-02 0.  1.
       -1   -1    0    0    0  501  0.00000000000E+00  0.00000000000E+00 -0.27765807469E+03  0.27765807474E+03  0.50400001928E-02 0. -1.
    10030    2    1    2    0    0  0.00000000000E+00  0.00000000000E+00  0.45171778312E+03  0.10070339326E+04  0.90003799128E+03 0.  0.
        3    1    3    3  502    0  0.29659652439E+03  0.78318992649E+02  0.59426378727E+03  0.66876963295E+03  0.10100000352E+00 0.  1.
       -3    1    3    3    0  502 -0.29659652439E+03 -0.78318992649E+02 -0.14254600415E+03  0.33826429961E+03  0.10100000352E+00 0. -1.
</event>
<event>
 5   0  0.2295158E-03  0.9021443E+03  0.7818609E-02  0.9422905E-01
        1   -1    0    0  501    0  0.00000000000E+00  0.00000000000E+00  0.69766409430E+03  0.69766409432E+03  0.50400001928E-02 0. -1.
       -1   -1    0    0    0  501  0.00000000000E+00  0.00000000000E+00 -0.29163904923E+03  0.29163904928E+03  0.50400001928E-02 0.  1.
    10030    2    1    2    0    0  0.00000000000E+00  0.00000000000E+00  0.40602504507E+03  0.98930314360E+03  0.90214431923E+03 0.  0.
        4    1    3    3  502    0 -0.37045109086E+03  0.12146079242E+03  0.45181982887E+03  0.59676587157E+03  0.12699999809E+01 0. -1.
       -4    1    3    3    0  502  0.37045109086E+03 -0.12146079242E+03 -0.45794783795E+02  0.39253727203E+03  0.12699999809E+01 0.  1.
</event>
<event>
 5   0  0.3806019E-03  0.8989975E+03  0.7818609E-02  0.9426835E-01
       -2   -1    0    0    0  501  0.00000000000E+00  0.00000000000E+00  0.78215085981E+02  0.78215086023E+02  0.25500000920E-02 0. -1.
        2   -1    0    0  501    0  0.00000000000E+00  0.00000000000E+00 -0.25832499524E+04  0.25832499524E+04  0.25500000920E-02 0.  1.
    10030    2    1    2    0    0  0.00000000000E+00  0.00000000000E+00 -0.25050348664E+04  0.26614650384E+04  0.89899747985E+03 0.  0.
        2    1    3    3  502    0  0.14867382245E+03 -0.21720465529E+03 -0.17379941290E+03  0.31541718991E+03  0.25500000920E-02 0. -1.
       -2    1    3    3    0  502 -0.14867382245E+03  0.21720465529E+03 -0.23312354535E+04  0.23460478485E+04  0.25500000920E-02 0.  1.
</event>
<event>
 5   0  0.3815269E-03  0.8986954E+03  0.7818609E-02  0.9427214E-01
        2   -1    0    0  501    0  0.00000000000E+00  0.00000000000E+00  0.10617610304E+04  0.10617610304E+04  0.25500000920E-02 0. -1.
       -2   -1    0    0    0  501  0.00000000000E+00  0.00000000000E+00 -0.19016836904E+03  0.19016836905E+03  0.25500000920E-02 0.  1.
    10030    2    1    2    0    0  0.00000000000E+00  0.00000000000E+00  0.87159266132E+03  0.12519293994E+04  0.89869541773E+03 0.  0.
        5    1    3    3  502    0  0.16351658780E+03 -0.33952082059E+03  0.94913327884E+02  0.38864211288E+03  0.46999998093E+01 0.  1.
       -5    1    3    3    0  502 -0.16351658780E+03  0.33952082059E+03  0.77667933343E+03  0.86328728653E+03  0.46999998093E+01 0. -1.
</event>
<event>
 5   0  0.3626546E-03  0.8993178E+03  0.7818609E-02  0.9426435E-01
       -2   -1    0    0    0  501  0.00000000000E+00  0.00000000000E+00  0.23032561141E+03  0.23032561142E+03  0.25500000920E-02 0. -1.
        2   -1    0    0  501    0  0.00000000000E+00  0.00000000000E+00 -0.87785775910E+03  0.87785775910E+03  0.25500000920E-02 0.  1.
    10030    2    1    2    0    0  0.00000000000E+00  0.00000000000E+00 -0.64753214769E+03  0.11081833705E+04  0.89931779723E+03 0.  0.
        3    1    3    3  502    0  0.19482963193E+03 -0.13432275673E+03  0.14738494576E+03  0.27878938447E+03  0.10100000352E+00 0. -1.
       -3    1    3    3    0  502 -0.19482963193E+03  0.13432275673E+03 -0.79491709345E+03  0.82939398606E+03  0.10100000352E+00 0.  1.
</event>
<event>
 5   0  0.3815269E-03  0.9018788E+03  0.7818609E-02  0.9423236E-01
        2   -1    0    0  501    0  0.00000000000E+00  0.00000000000E+00  0.88984134495E+03  0.88984134495E+03  0.25500000920E-02 0.  1.
       -2   -1    0    0    0  501  0.00000000000E+00  0.00000000000E+00 -0.22851975933E+03  0.22851975935E+03  0.25500000920E-02 0. -1.
    10030    2    1    2    0    0  0.00000000000E+00  0.00000000000E+00  0.66132158562E+03  0.11183611043E+04  0.90187877235E+03 0.  0.
        5    1    3    3  502    0 -0.11067615881E+03  0.23523220543E+03 -0.12620553569E+03  0.28902133111E+03  0.46999998093E+01 0. -1.
       -5    1    3    3    0  502  0.11067615881E+03 -0.23523220543E+03  0.78752712131E+03  0.82933977319E+03  0.46999998093E+01 0.  1.
</event>
<event>
 5   0  0.2295158E-03  0.8930749E+03  0.7818609E-02  0.9434280E-01
        1   -1    0    0  501    0  0.00000000000E+00  0.00000000000E+00  0.78083199310E+03  0.78083199312E+03  0.50400001928E-02 0.  1.
       -1   -1    0    0    0  501  0.00000000000E+00  0.00000000000E+00 -0.25536314169E+03  0.25536314173E+03  0.50400001928E-02 0. -1.
    10030    2    1    2    0    0  0.00000000000E+00  0.00000000000E+00  0.52546885142E+03  0.10361951349E+04  0.89307493733E+03 0.  0.
        4    1    3    3  502    0 -0.33211756245E+03 -0.26236422463E+03  0.97598486447E+02  0.43435485390E+03  0.12699999809E+01 0.  1.
       -4    1    3    3    0  502  0.33211756245E+03  0.26236422463E+03  0.42787036497E+03  0.60184028095E+03  0.12699999809E+01 0. -1.
</event>
<event>
 5   0  0.2129280E-03  0.9023174E+03  0.7818609E-02  0.9422689E-01
        1   -1    0    0  501    0  0.00000000000E+00  0.00000000000E+00  0.19114543078E+03  0.19114543084E+03  0.50400001928E-02 0. -1.
       -1   -1    0    0    0  501  0.00000000000E+00  0.00000000000E+00 -0.10648655264E+04  0.10648655264E+04  0.50400001928E-02 0.  1.
    10030    2    1    2    0    0  0.00000000000E+00  0.00000000000E+00 -0.87372009566E+03  0.12560109573E+04  0.90231741603E+03 0.  0.
        3    1    3    3  502    0  0.16776628948E+03  0.41876152967E+03 -0.42834468048E+03  0.62208192556E+03  0.10100000352E+00 0.  1.
       -3    1    3    3    0  502 -0.16776628948E+03 -0.41876152967E+03 -0.44537541518E+03  0.63392903173E+03  0.10100000352E+00 0. -1.
</event>
<event>
 5   0  0.2129280E-03  0.8948372E+03  0.7818609E-02  0.9432058E-01
       -1   -1    0    0    0  501  0.00000000000E+00  0.00000000000E+00  0.70137139726E+03  0.70137139728E+03  0.50400001928E-02 0.  1.
        1   -1    0    0  501    0  0.00000000000E+00  0.00000000000E+00 -0.28541713215E+03  0.28541713219E+03  0.50400001928E-02 0. -1.
    10030    2    1    2    0    0  0.00000000000E+00  0.00000000000E+00  0.41595426511E+03  0.98678852947E+03  0.89483722052E+03 0.  0.
        3    1    3    3  502    0 -0.13638713847E+03 -0.70587377800E+02  0.67139698144E+03  0.68873648541E+03  0.10100000352E+00 0.  1.
       -3    1    3    3    0  502  0.13638713847E+03  0.70587377800E+02 -0.25544271633E+03  0.29805204406E+03  0.10100000352E+00 0. -1.
</event>
<event>
 5   0  0.2130975E-03  0.9046751E+03  0.7818609E-02  0.9419756E-01
       -1   -1    0    0    0  501  0.00000000000E+00  0.00000000000E+00  0.13059329220E+03  0.13059329229E+03  0.50400001928E-02 0. -1.
        1   -1    0    0  501    0  0.00000000000E+00  0.00000000000E+00 -0.15667670850E+04  0.15667670850E+04  0.50400001928E-02 0.  1.
    10030    2    1    2    0    0  0.00000000000E+00  0.00000000000E+00 -0.14361737928E+04  0.16973603773E+04  0.90467512803E+03 0.  0.
        5    1    3    3  502    0 -0.72624736997E+02  0.42750966110E+03 -0.47673075596E+03  0.64446347176E+03  0.46999998093E+01 0.  1.
       -5    1    3    3    0  502  0.72624736997E+02 -0.42750966110E+03 -0.95944303680E+03  0.10528969055E+04  0.46999998093E+01 0. -1.
</event>
<event>
 5   0  0.3806019E-03  0.9003248E+03  0.7818609E-02  0.9425176E-01
        2   -1    0    0  501    0  0.00000000000E+00  0.00000000000E+00  0.11310798967E+04  0.11310798967E+04  0.25500000920E-02 0. -1.
       -2   -1    0    0    0  501  0.00000000000E+00  0.00000000000E+00 -0.17916168762E+03  0.17916168763E+03  0.25500000920E-02 0.  1.
    10030    2    1    2    0    0  0.00000000000E+00  0.00000000000E+00  0.95191820910E+03  0.13102415843E+04  0.90032479281E+03 0.  0.
        2    1    3    3  502    0 -0.37036495045E+03 -0.24011763941E+03  0.34726998677E+03  0.56162542766E+03  0.25500000920E-02 0. -1.
       -2    1    3    3    0  502  0.37036495045E+03  0.24011763941E+03  0.60464822233E+03  0.74861615669E+03  0.25500000920E-02 0.  1.
</event>
<event>
 5   0  0.3626546E-03  0.9337180E+03  0.7818609E-02  0.9384387E-01
       -2   -1    0    0    0  501  0.00000000000E+00  0.00000000000E+00  0.54532931473E+03  0.54532931474E+03  0.25500000920E-02 0.  1.
        2   -1    0    0  501    0  0.00000000000E+00  0.00000000000E+00 -0.39968021474E+03  0.39968021475E+03  0.25500000920E-02 0. -1.
    10030    2    1    2    0    0  0.00000000000E+00  0.00000000000E+00  0.14564909999E+03  0.94500952949E+03  0.93371802515E+03 0.  0.
        3    1    3    3  502    0  0.30887970148E+03 -0.12997716504E+03 -0.25615488347E+03  0.42180098144E+03  0.10100000352E+00 0. -1.
       -3    1    3    3    0  502 -0.30887970148E+03  0.12997716504E+03  0.40180398346E+03  0.52320854805E+03  0.10100000352E+00 0.  1.
</event>
<event>
 5   0  0.3626546E-03  0.8953901E+03  0.7818609E-02  0.9431362E-01
       -2   -1    0    0    0  501  0.00000000000E+00  0.00000000000E+00  0.40358692066E+03  0.40358692067E+03  0.25500000920E-02 0.  1.
        2   -1    0    0  501    0  0.00000000000E+00  0.00000000000E+00 -0.49662380363E+03  0.49662380364E+03  0.25500000920E-02 0. -1.
    10030    2    1    2    0    0  0.00000000000E+00  0.00000000000E+00 -0.93036882973E+02  0.90021072430E+03  0.89539013092E+03 0.  0.
        3    1    3    3  502    0  0.21216209702E+03 -0.39422685054E+03 -0.48343798860E+02  0.45029401305E+03  0.10100000352E+00 0.  1.
       -3    1    3    3    0  502 -0.21216209702E+03  0.39422685054E+03 -0.44693084113E+02  0.44991671125E+03  0.10100000352E+00 0. -1.
</event>
<event>
 5   0  0.2074970E-03  0.8972636E+03  0.7818609E-02  0.9429009E-01
        1   -1    0    0  501    0  0.00000000000E+00  0.00000000000E+00  0.59988289671E+03  0.59988289674E+03  0.50400001928E-02 0.  1.
       -1   -1    0    0    0  501  0.00000000000E+00  0.00000000000E+00 -0.33551631976E+03  0.33551631980E+03  0.50400001928E-02 0. -1.
    10030    2    1    2    0    0  0.00000000000E+00  0.00000000000E+00  0.26436657695E+03  0.93539921654E+03  0.89726362196E+03 0.  0.
        2    1    3    3  502    0 -0.42861750320E+02  0.44652172523E+03  0.12468588816E+03  0.46558066053E+03  0.25500000920E-02 0. -1.
       -2    1    3    3    0  502  0.42861750320E+02 -0.44652172523E+03  0.13968068879E+03  0.46981855601E+03  0.25500000920E-02 0.  1.
</event>
<event>
 5   0  0.3663255E-03  0.8966661E+03  0.7818609E-02  0.9429759E-01
        2   -1    0    0  501    0  0.00000000000E+00  0.00000000000E+00  0.43283428425E+03  0.43283428426E+03  0.25500000920E-02 0.  1.
       -2   -1    0    0    0  501  0.00000000000E+00  0.00000000000E+00 -0.46438682619E+03  0.46438682620E+03  0.25500000920E-02 0. -1.
    10030    2    1    2    0    0  0.00000000000E+00  0.00000000000E+00 -0.31552541940E+02  0.89722111046E+03  0.89666613527E+03 0.  0.
        4    1    3    3  502    0 -0.68530586035E+01 -0.42178100741E+03 -0.16770813554E+03  0.45395353755E+03  0.12699999809E+01 0. -1.
       -4    1    3    3    0  502  0.68530586035E+01  0.42178100741E+03  0.13615559360E+03  0.44326757291E+03  0.12699999809E+01 0.  1.
</event>
<event>
 5   0  0.3626546E-03  0.9000269E+03  0.7818609E-02  0.9425548E-01
       -2   -1    0    0    0  501  0.00000000000E+00  0.00000000000E+00  0.33416460778E+03  0.33416460779E+03  0.25500000920E-02 0. -1.
        2   -1    0    0  501    0  0.00000000000E+00  0.00000000000E+00 -0.60602495153E+03  0.60602495154E+03  0.25500000920E-02 0.  1.
    10030    2    1    2    0    0  0.00000000000E+00  0.00000000000E+00 -0.27186034375E+03  0.94018955933E+03  0.90002686680E+03 0.  0.
        3    1    3    3  502    0 -0.19014313410E+03 -0.20825309518E+03  0.23041618704E+03  0.36416396382E+03  0.10100000352E+00 0. -1.
       -3    1    3    3    0  502  0.19014313410E+03  0.20825309518E+03 -0.50227653079E+03  0.57602559551E+03  0.10100000352E+00 0.  1.
</event>
<event>
 5   0  0.3626546E-03  0.8971729E+03  0.7818609E-02  0.9429122E-01
       -2   -1    0    0    0  501  0.00000000000E+00  0.00000000000E+00  0.47358514241E+03  0.47358514242E+03  0.25500000920E-02 0.  1.
        2   -1    0    0  501    0  0.00000000000E+00  0.00000000000E+00 -0.42490730758E+03  0.42490730758E+03  0.25500000920E-02 0. -1.
    10030    2    1    2    0    0  0.00000000000E+00  0.00000000000E+00  0.48677834833E+02  0.89849245000E+03  0.89717286579E+03 0.  0.
        3    1    3    3  502    0 -0.33333191277E+03 -0.19569147615E+03  0.25232361250E+03  0.46159780495E+03  0.10100000352E+00 0.  1.
       -3    1    3    3    0  502  0.33333191277E+03  0.19569147615E+03 -0.20364577766E+03  0.43689464505E+03  0.10100000352E+00 0. -1.
</event>
<event>
 5   0  0.1436000E-03  0.8980010E+03  0.7818609E-02  0.9428084E-01
       -3   -1    0    0    0  501  0.00000000000E+00  0.00000000000E+00  0.30156535771E+03  0.30156537462E+03  0.10100000352E+00 0. -1.
        3   -1    0    0  501    0  0.00000000000E+00  0.00000000000E+00 -0.66851653365E+03  0.66851654128E+03  0.10100000352E+00 0.  1.
    10030    2    1    2    0    0  0.00000000000E+00  0.00000000000E+00 -0.36695117594E+03  0.97008191591E+03  0.89800097886E+03 0.  0.
        3    1    3    3  502    0  0.31771632373E+03  0.30047236260E+03 -0.73446537983E+02  0.44342046321E+03  0.10100000352E+00 0. -1.
       -3    1    3    3    0  502 -0.31771632373E+03 -0.30047236260E+03 -0.29350463796E+03  0.52666145270E+03  0.10100000352E+00 0.  1.
</event>
<event>
 5   0  0.3626546E-03  0.9034465E+03  0.7818609E-02  0.9421283E-01
        2   -1    0    0  501    0  0.00000000000E+00  0.00000000000E+00  0.65529578213E+03  0.65529578213E+03  0.25500000920E-02 0.  1.
       -2   -1    0    0    0  501  0.00000000000E+00  0.00000000000E+00 -0.31139202252E+03  0.31139202253E+03  0.25500000920E-02 0. -1.
    10030    2    1    2    0    0  0.00000000000E+00  0.00000000000E+00  0.34390375961E+03  0.96668780466E+03  0.90344646538E+03 0.  0.
        3    1    3    3  502    0  0.77088808235E+02  0.24821589385E+03  0.56727319261E+03  0.62398132950E+03  0.10100000352E+00 0.  1.
       -3    1    3    3    0  502 -0.77088808235E+02 -0.24821589385E+03 -0.22336943300E+03  0.34270647516E+03  0.10100000352E+00 0. -1.
</event>
<event>
 5   0  0.3815269E-03  0.8683965E+03  0.7818609E-02  0.9465973E-01
        2   -1    0    0  501    0  0.00000000000E+00  0.00000000000E+00  0.76452005209E+03  0.76452005209E+03  0.25500000920E-02 0. -1.
       -2   -1    0    0    0  501  0.00000000000E+00  0.00000000000E+00 -0.24659670154E+03  0.24659670155E+03  0.25500000920E-02 0.  1.
    10030    2    1    2    0    0  0.00000000000E+00  0.00000000000E+00  0.51792335055E+03  0.10111167536E+04  0.86839650647E+03 0.  0.
        5    1    3    3  502    0 -0.15075464051E+03  0.76515148116E+02  0.72459145105E+03  0.74406746365E+03  0.46999998093E+01 0. -1.
       -5    1    3    3    0  502  0.15075464051E+03 -0.76515148116E+02 -0.20666810050E+03  0.26704929000E+03  0.46999998093E+01 0.  1.
</event>
<event>
 5   0  0.2129280E-03  0.9476283E+03  0.7818609E-02  0.9367927E-01
       -1   -1    0    0    0  501  0.00000000000E+00  0.00000000000E+00  0.37118424124E+03  0.37118424127E+03  0.50400001928E-02 0. -1.
        1   -1    0    0  501    0  0.00000000000E+00  0.00000000000E+00 -0.60482055783E+03  0.60482055785E+03  0.50400001928E-02 0.  1.
    10030    2    1    2    0    0  0.00000000000E+00  0.00000000000E+00 -0.23363631659E+03  0.97600479912E+03  0.94762832349E+03 0.  0.
        3    1    3    3  502    0 -0.19653975814E+03  0.17044927712E+03 -0.52468019541E+03  0.58563653426E+03  0.10100000352E+00 0.  1.
       -3    1    3    3    0  502  0.19653975814E+03 -0.17044927712E+03  0.29104387883E+03  0.39036826486E+03  0.10100000352E+00 0. -1.
</event>
<event>
 5   0  0.1436000E-03  0.8990251E+03  0.7818609E-02  0.9426801E-01
        3   -1    0    0  501    0  0.00000000000E+00  0.00000000000E+00  0.14073692274E+04  0.14073692310E+04  0.10100000352E+00 0.  1.
       -3   -1    0    0    0  501  0.00000000000E+00  0.00000000000E+00 -0.14357390432E+03  0.14357393984E+03  0.10100000352E+00 0. -1.
    10030    2    1    2    0    0  0.00000000000E+00  0.00000000000E+00  0.12637953230E+04  0.15509431708E+04  0.89902508341E+03 0.  0.
        1    1    3    3  502    0  0.24967377468E+03  0.20637806863E+03  0.11695563109E+04  0.12135859530E+04  0.50400001928E-02 0.  1.
       -1    1    3    3    0  502 -0.24967377468E+03 -0.20637806863E+03  0.94239012143E+02  0.33735721781E+03  0.50400001928E-02 0. -1.
</event>
<event>
 5   0  0.2074970E-03  0.8987862E+03  0.7818609E-02  0.9427100E-01
       -1   -1    0    0    0  501  0.00000000000E+00  0.00000000000E+00  0.86578739862E+03  0.86578739864E+03  0.50400001928E-02 0.  1.
        1   -1    0    0  501    0  0.00000000000E+00  0.00000000000E+00 -0.23326069297E+03  0.23326069302E+03  0.50400001928E-02 0. -1.
    10030    2    1    2    0    0  0.00000000000E+00  0.00000000000E+00  0.63252670566E+03  0.10990480917E+04  0.89878622287E+03 0.  0.
        2    1    3    3  502    0  0.36177423381E+03 -0.55906264517E+02  0.63501234980E+03  0.73297120753E+03  0.25500000920E-02 0.  1.
       -2    1    3    3    0  502 -0.36177423381E+03  0.55906264517E+02 -0.24856441399E+01  0.36607688413E+03  0.25500000920E-02 0. -1.
</event>
<event>
 5   0  0.2295158E-03  0.8941619E+03  0.7818609E-02  0.9432909E-01
        1   -1    0    0  501    0  0.00000000000E+00  0.00000000000E+00  0.18716517928E+03  0.18716517934E+03  0.50400001928E-02 0.  1.
       -1   -1    0    0    0  501  0.00000000000E+00  0.00000000000E+00 -0.10679410030E+04  0.10679410030E+04  0.50400001928E-02 0. -1.
    10030    2    1    2    0    0  0.00000000000E+00  0.00000000000E+00 -0.88077582372E+03  0.12551061824E+04  0.89416188541E+03 0.  0.
        4    1    3    3  502    0 -0.38426955144E+03 -0.11906172320E+03 -0.71416060681E+03  0.81967418364E+03  0.12699999809E+01 0. -1.
       -4    1    3    3    0  502  0.38426955144E+03  0.11906172320E+03 -0.16661521691E+03  0.43543199871E+03  0.12699999809E+01 0.  1.
</event>
<event>
 5   0  0.3626546E-03  0.9038776E+03  0.7818609E-02  0.9420747E-01
        2   -1    0    0  501    0  0.00000000000E+00  0.00000000000E+00  0.14324432473E+04  0.14324432473E+04  0.25500000920E-02 0.  1.
       -2   -1    0    0    0  501  0.00000000000E+00  0.00000000000E+00 -0.14258763069E+03  0.14258763071E+03  0.25500000920E-02 0. -1.
    10030    2    1    2    0    0  0.00000000000E+00  0.00000000000E+00  0.12898556166E+04  0.15750308780E+04  0.90387762169E+03 0.  0.
        3    1    3    3  502    0 -0.55492259068E-01  0.18654252008E+03  0.13622280004E+04  0.13749411806E+04  0.10100000352E+00 0.  1.
       -3    1    3    3    0  502  0.55492259068E-01 -0.18654252008E+03 -0.72372383771E+02  0.20008969741E+03  0.10100000352E+00 0. -1.
</event>
<event>
 5   0  0.3626546E-03  0.9016352E+03  0.7818609E-02  0.9423540E-01
        2   -1    0    0  501    0  0.00000000000E+00  0.00000000000E+00  0.18006789859E+04  0.18006789859E+04  0.25500000920E-02 0.  1.
       -2   -1    0    0    0  501  0.00000000000E+00  0.00000000000E+00 -0.11286659039E+03  0.11286659041E+03  0.25500000920E-02 0. -1.
    10030    2    1    2    0    0  0.00000000000E+00  0.00000000000E+00  0.16878123955E+04  0.19135455763E+04  0.90163517576E+03 0.  0.
        3    1    3    3  502    0 -0.30256792889E+03 -0.26775380907E+03  0.12683516207E+04  0.13311481127E+04  0.10100000352E+00 0.  1.
       -3    1    3    3    0  502  0.30256792889E+03  0.26775380907E+03  0.41946077475E+03  0.58239746361E+03  0.10100000352E+00 0. -1.
</event>
<event>
 5   0  0.3685879E-03  0.9041066E+03  0.7818609E-02  0.9420463E-01
       -2   -1    0    0    0  501  0.00000000000E+00  0.00000000000E+00  0.21209694094E+03  0.21209694096E+03  0.25500000920E-02 0.  1.
        2   -1    0    0  501    0  0.00000000000E+00  0.00000000000E+00 -0.96348473753E+03  0.96348473753E+03  0.25500000920E-02 0. -1.
    10030    2    1    2    0    0  0.00000000000E+00  0.00000000000E+00 -0.75138779659E+03  0.11755816785E+04  0.90410655453E+03 0.  0.
        1    1    3    3  502    0  0.29948242381E+03 -0.25723732339E+03 -0.66202304887E+03  0.77080171249E+03  0.50400001928E-02 0.  1.
       -1    1    3    3    0  502 -0.29948242381E+03  0.25723732339E+03 -0.89364747713E+02  0.40477996600E+03  0.50400001928E-02 0. -1.
</event>
<event>
 5   0  0.2134145E-03  0.8897451E+03  0.7818609E-02  0.9438492E-01
        1   -1    0    0  501    0  0.00000000000E+00  0.00000000000E+00  0.38756541018E+03  0.38756541021E+03  0.50400001928E-02 0.  1.
       -1   -1    0    0    0  501  0.00000000000E+00  0.00000000000E+00 -0.51065336137E+03  0.51065336139E+03  0.50400001928E-02 0. -1.
    10030    2    1    2    0    0  0.00000000000E+00  0.00000000000E+00 -0.12308795119E+03  0.89821877160E+03  0.88974508593E+03 0.  0.
        1    1    3    3  502    0 -0.26172915036E+03 -0.30169297694E+03 -0.25934566252E+03  0.47621525929E+03  0.50400001928E-02 0. -1.
       -1    1    3    3    0  502  0.26172915036E+03  0.30169297694E+03  0.13625771133E+03  0.42200351232E+03  0.50400001928E-02 0.  1.
</event>
<event>
 5   0  0.3806019E-03  0.8996939E+03  0.7818609E-02  0.9425964E-01
        2   -1    0    0  501    0  0.00000000000E+00  0.00000000000E+00  0.21487259960E+03  0.21487259962E+03  0.25500000920E-02 0.  1.
       -2   -1    0    0    0  501  0.00000000000E+00  0.00000000000E+00 -0.94177802175E+03  0.94177802175E+03  0.25500000920E-02 0. -1.
    10030    2    1    2    0    0  0.00000000000E+00  0.00000000000E+00 -0.72690542215E+03  0.11566506214E+04  0.89969392972E+03 0.  0.
        2    1    3    3  502    0 -0.93585200081E+02 -0.23811345318E+03 -0.83913697168E+03  0.87727251382E+03  0.25500000920E-02 0. -1.
       -2    1    3    3    0  502  0.93585200081E+02  0.23811345318E+03  0.11223154953E+03  0.27937810755E+03  0.25500000920E-02 0.  1.
</event>
<event>
 5   0  0.3626546E-03  0.8997505E+03  0.7818609E-02  0.9425893E-01
       -2   -1    0    0    0  501  0.00000000000E+00  0.00000000000E+00  0.33127497374E+03  0.33127497375E+03  0.25500000920E-02 0.  1.
        2   -1    0    0  501    0  0.00000000000E+00  0.00000000000E+00 -0.61093581039E+03  0.61093581039E+03  0.25500000920E-02 0. -1.
    10030    2    1    2    0    0  0.00000000000E+00  0.00000000000E+00 -0.27966083665E+03  0.94221078414E+03  0.89975050886E+03 0.  0.
        3    1    3    3  502    0 -0.96716986805E+02 -0.33754738633E+03 -0.43434131341E+03  0.55852018790E+03  0.10100000352E+00 0. -1.
       -3    1    3    3    0  502  0.96716986805E+02  0.33754738633E+03  0.15468047676E+03  0.38369059624E+03  0.10100000352E+00 0.  1.
</event>
<event>
 5   0  0.2134145E-03  0.8964179E+03  0.7818609E-02  0.9430070E-01
        1   -1    0    0  501    0  0.00000000000E+00  0.00000000000E+00  0.40718050149E+03  0.40718050153E+03  0.50400001928E-02 0. -1.
       -1   -1    0    0    0  501  0.00000000000E+00  0.00000000000E+00 -0.49337156483E+03  0.49337156485E+03  0.50400001928E-02 0.  1.
    10030    2    1    2    0    0  0.00000000000E+00  0.00000000000E+00 -0.86191063332E+02  0.90055206638E+03  0.89641794095E+03 0.  0.
        1    1    3    3  502    0 -0.43625616651E+03 -0.59528542814E+02 -0.12731646769E+03  0.45833674650E+03  0.50400001928E-02 0. -1.
       -1    1    3    3    0  502  0.43625616651E+03  0.59528542814E+02  0.41125404357E+02  0.44221531988E+03  0.50400001928E-02 0.  1.
</event>
<event>
 5   0  0.3663255E-03  0.9017631E+03  0.7818609E-02  0.9423380E-01
        2   -1    0    0  501    0  0.00000000000E+00  0.00000000000E+00  0.33008719790E+03  0.33008719791E+03  0.25500000920E-02 0.  1.
       -2   -1    0    0    0  501  0.00000000000E+00  0.00000000000E+00 -0.61588014580E+03  0.61588014581E+03  0.25500000920E-02 0. -1.
    10030    2    1    2    0    0  0.00000000000E+00  0.00000000000E+00 -0.28579294790E+03  0.94596734372E+03  0.90176305441E+03 0.  0.
        4    1    3    3  502    0 -0.36003588366E+03 -0.17071585781E+03  0.78451181406E+02  0.40611075140E+03  0.12699999809E+01 0.  1.
       -4    1    3    3    0  502  0.36003588366E+03  0.17071585781E+03 -0.36424412931E+03  0.53985659232E+03  0.12699999809E+01 0. -1.
</event>
<event>
 5   0  0.2130975E-03  0.8996396E+03  0.7818609E-02  0.9426032E-01
        1   -1    0    0  501    0  0.00000000000E+00  0.00000000000E+00  0.34753866380E+03  0.34753866383E+03  0.50400001928E-02 0.  1.
       -1   -1    0    0    0  501  0.00000000000E+00  0.00000000000E+00 -0.58220243352E+03  0.58220243354E+03  0.50400001928E-02 0. -1.
    10030    2    1    2    0    0  0.00000000000E+00  0.00000000000E+00 -0.23466376972E+03  0.92974109737E+03  0.89963960747E+03 0.  0.
        5    1    3    3  502    0 -0.16289998254E+03  0.26875540155E+03 -0.44989056963E+03  0.54880732941E+03  0.46999998093E+01 0. -1.
       -5    1    3    3    0  502  0.16289998254E+03 -0.26875540155E+03  0.21522679991E+03  0.38093376796E+03  0.46999998093E+01 0.  1.
</event>
<event>
 5   0  0.3815269E-03  0.8973218E+03  0.7818609E-02  0.9428935E-01
       -2   -1    0    0    0  501  0.00000000000E+00  0.00000000000E+00  0.30244825451E+03  0.30244825452E+03  0.25500000920E-02 0. -1.
        2   -1    0    0  501    0  0.00000000000E+00  0.00000000000E+00 -0.66555720244E+03  0.66555720245E+03  0.25500000920E-02 0.  1.
    10030    2    1    2    0    0  0.00000000000E+00  0.00000000000E+00 -0.36310894793E+03  0.96800545697E+03  0.89732182446E+03 0.  0.
        5    1    3    3  502    0 -0.11961279073E+03 -0.42524138152E+03 -0.26606487851E+03  0.51570346309E+03  0.46999998093E+01 0. -1.
       -5    1    3    3    0  502  0.11961279073E+03  0.42524138152E+03 -0.97044069420E+02  0.45230199389E+03  0.46999998093E+01 0.  1.
</event>
<event>
 5   0  0.3663255E-03  0.8962161E+03  0.7818609E-02  0.9430324E-01
        2   -1    0    0  501    0  0.00000000000E+00  0.00000000000E+00  0.12468087048E+04  0.12468087048E+04  0.25500000920E-02 0. -1.
       -2   -1    0    0    0  501  0.00000000000E+00  0.00000000000E+00 -0.16105182686E+03  0.16105182688E+03  0.25500000920E-02 0.  1.
    10030    2    1    2    0    0  0.00000000000E+00  0.00000000000E+00  0.10857568779E+04  0.14078605317E+04  0.89621608927E+03 0.  0.
        4    1    3    3  502    0 -0.26408037001E+03 -0.67301496317E+02  0.11016648516E+04  0.11348722357E+04  0.12699999809E+01 0. -1.
       -4    1    3    3    0  502  0.26408037001E+03  0.67301496317E+02 -0.15907973623E+02  0.27298829601E+03  0.12699999809E+01 0.  1.
</event>
<event>
 5   0  0.3626546E-03  0.9000171E+03  0.7818609E-02  0.9425560E-01
       -2   -1    0    0    0  501  0.00000000000E+00  0.00000000000E+00  0.22909508730E+03  0.22909508732E+03  0.25500000920E-02 0.  1.
        2   -1    0    0  501    0  0.00000000000E+00  0.00000000000E+00 -0.88394606079E+03  0.88394606079E+03  0.25500000920E-02 0. -1.
    10030    2    1    2    0    0  0.00000000000E+00  0.00000000000E+00 -0.65485097349E+03  0.11130411481E+04  0.90001711090E+03 0.  0.
        3    1    3    3  502    0  0.42231594064E+02 -0.39988448545E+03 -0.77575826589E+02  0.40952304979E+03  0.10100000352E+00 0.  1.
       -3    1    3    3    0  502 -0.42231594064E+02  0.39988448545E+03 -0.57727514690E+03  0.70351809832E+03  0.10100000352E+00 0. -1.
</event>
<event>
 5   0  0.3626546E-03  0.8955997E+03  0.7818609E-02  0.9431099E-01
        2   -1    0    0  501    0  0.00000000000E+00  0.00000000000E+00  0.14244727058E+04  0.14244727058E+04  0.25500000920E-02 0. -1.
       -2   -1    0    0    0  501  0.00000000000E+00  0.00000000000E+00 -0.14077116850E+03  0.14077116852E+03  0.25500000920E-02 0.  1.
    10030    2    1    2    0    0  0.00000000000E+00  0.00000000000E+00  0.12837015373E+04  0.15652438743E+04  0.89559965903E+03 0.  0.
        3    1    3    3  502    0  0.21605355010E+03  0.37312912381E+02 -0.40545258521E+02  0.22296932105E+03  0.10100000352E+00 0.  1.
       -3    1    3    3    0  502 -0.21605355010E+03 -0.37312912381E+02  0.13242467958E+04  0.13422745533E+04  0.10100000352E+00 0. -1.
</event>
<event>
 5   0  0.3663255E-03  0.9013131E+03  0.7818609E-02  0.9423941E-01
        2   -1    0    0  501    0  0.00000000000E+00  0.00000000000E+00  0.23763512219E+03  0.23763512220E+03  0.25500000920E-02 0. -1.
       -2   -1    0    0    0  501  0.00000000000E+00  0.00000000000E+00 -0.85463523202E+03  0.85463523202E+03  0.25500000920E-02 0.  1.
    10030    2    1    2    0    0  0.00000000000E+00  0.00000000000E+00 -0.61700010983E+03  0.10922703542E+04  0.90131314824E+03 0.  0.
        4    1    3    3  502    0  0.25795741109E+03 -0.19037470920E+03 -0.69230990712E+03  0.76294113550E+03  0.12699999809E+01 0.  1.
       -4    1    3    3    0  502 -0.25795741109E+03  0.19037470920E+03  0.75309797291E+02  0.32932921873E+03  0.12699999809E+01 0. -1.
</event>
<event>
 5   0  0.3626546E-03  0.9005159E+03  0.7818609E-02  0.9424937E-01
        2   -1    0    0  501    0  0.00000000000E+00  0.00000000000E+00  0.27149276330E+03  0.27149276332E+03  0.25500000920E-02 0. -1.
       -2   -1    0    0    0  501  0.00000000000E+00  0.00000000000E+00 -0.74673151903E+03  0.74673151903E+03  0.25500000920E-02 0.  1.
    10030    2    1    2    0    0  0.00000000000E+00  0.00000000000E+00 -0.47523875572E+03  0.10182242823E+04  0.90051586006E+03 0.  0.
        3    1    3    3  502    0 -0.44296223828E+03  0.79675876658E+02 -0.22294608352E+03  0.50226363219E+03  0.10100000352E+00 0. -1.
       -3    1    3    3    0  502  0.44296223828E+03 -0.79675876658E+02 -0.25229267220E+03  0.51596065016E+03  0.10100000352E+00 0.  1.
</event>
<event>
 5   0  0.1436000E-03  0.8992656E+03  0.7818609E-02  0.9426500E-01
       -3   -1    0    0    0  501  0.00000000000E+00  0.00000000000E+00  0.21882615200E+03  0.21882617531E+03  0.10100000352E+00 0.  1.
        3   -1    0    0  501    0  0.00000000000E+00  0.00000000000E+00 -0.92388237972E+03  0.92388238524E+03  0.10100000352E+00 0. -1.
    10030    2    1    2    0    0  0.00000000000E+00  0.00000000000E+00 -0.70505622772E+03  0.11427085605E+04  0.89926557263E+03 0.  0.
        3    1    3    3  502    0  0.30614217584E+02 -0.11743535903E+03 -0.90267695441E+03  0.91079854419E+03  0.10100000352E+00 0. -1.
       -3    1    3    3    0  502 -0.30614217584E+02  0.11743535903E+03  0.19762072669E+03  0.23191001636E+03  0.10100000352E+00 0.  1.
</event>
<event>
 5   0  0.2130975E-03  0.8904141E+03  0.7818609E-02  0.9437644E-01
       -1   -1    0    0    0  501  0.00000000000E+00  0.00000000000E+00  0.45081827701E+03  0.45081827704E+03  0.50400001928E-02 0.  1.
        1   -1    0    0  501    0  0.00000000000E+00  0.00000000000E+00 -0.43966568431E+03  0.43966568434E+03  0.50400001928E-02 0. -1.
    10030    2    1    2    0    0  0.00000000000E+00  0.00000000000E+00  0.11152592699E+02  0.89048396137E+03  0.89041412002E+03 0.  0.
        5    1    3    3  502    0  0.33501645134E+03 -0.37100952762E+02 -0.28526386768E+03  0.44159944244E+03  0.46999998093E+01 0. -1.
       -5    1    3    3    0  502 -0.33501645134E+03  0.37100952762E+02  0.29641646037E+03  0.44888451894E+03  0.46999998093E+01 0.  1.
</event>
<event>
 5   0  0.3685879E-03  0.9018402E+03  0.7818609E-02  0.9423284E-01
       -2   -1    0    0    0  501  0.00000000000E+00  0.00000000000E+00  0.17104476073E+03  0.17104476074E+03  0.25500000920E-02 0. -1.
        2   -1    0    0  501    0  0.00000000000E+00  0.00000000000E+00 -0.11887470179E+04  0.11887470179E+04  0.25500000920E-02 0.  1.
    10030    2    1    2    0    0  0.00000000000E+00  0.00000000000E+00 -0.10177022571E+04  0.13597917786E+04  0.90184022809E+03 0.  0.
        1    1    3    3  502    0 -0.36746767658E+03 -0.14474629332E+03 -0.18077116060E+03  0.43435261630E+03  0.50400001928E-02 0. -1.
       -1    1    3    3    0  502  0.36746767658E+03  0.14474629332E+03 -0.83693109654E+03  0.92543916231E+03  0.50400001928E-02 0.  1.
</event>
<event>
 5   0  0.2134145E-03  0.8980905E+03  0.7818609E-02  0.9427972E-01
        1   -1    0    0  501    0  0.00000000000E+00  0.00000000000E+00  0.50710959338E+03  0.50710959341E+03  0.50400001928E-02 0. -1.
       -1   -1    0    0    0  501  0.00000000000E+00  0.00000000000E+00 -0.39762928130E+03  0.39762928133E+03  0.50400001928E-02 0.  1.
    10030    2    1    2    0    0  0.00000000000E+00  0.00000000000E+00  0.10948031208E+03  0.90473887474E+03  0.89809047024E+03 0.  0.
        1    1    3    3  502    0  0.25755405500E+03 -0.19804370090E+03 -0.25753233506E+03  0.41458208155E+03  0.50400001928E-02 0.  1.
       -1    1    3    3    0  502 -0.25755405500E+03  0.19804370090E+03  0.36701264715E+03  0.49015679319E+03  0.50400001928E-02 0. -1.
</event>
<event>
 5   0  0.3663255E-03  0.8988935E+03  0.7818609E-02  0.9426966E-01
        2   -1    0    0  501    0  0.00000000000E+00  0.00000000000E+00  0.12367375901E+04  0.12367375901E+04  0.25500000920E-02 0.  1.
       -2   -1    0    0    0  501  0.00000000000E+00  0.00000000000E+00 -0.16333487584E+03  0.16333487586E+03  0.25500000920E-02 0. -1.
    10030    2    1    2    0    0  0.00000000000E+00  0.00000000000E+00  0.10734027143E+04  0.14000724660E+04  0.89889349922E+03 0.  0.
        4    1    3    3  502    0  0.18011920762E+03 -0.24884835470E+03  0.10476928344E+04  0.10918014108E+04  0.12699999809E+01 0.  1.
       -4    1    3    3    0  502 -0.18011920762E+03  0.24884835470E+03  0.25709879865E+02  0.30827105510E+03  0.12699999809E+01 0. -1.
</event>
<event>
 5   0  0.3663255E-03  0.8978246E+03  0.7818609E-02  0.9428305E-01
       -2   -1    0    0    0  501  0.00000000000E+00  0.00000000000E+00  0.28106487062E+03  0.28106487064E+03  0.25500000920E-02 0. -1.
        2   -1    0    0  501    0  0.00000000000E+00  0.00000000000E+00 -0.71699551419E+03  0.71699551420E+03  0.25500000920E-02 0.  1.
    10030    2    1    2    0    0  0.00000000000E+00  0.00000000000E+00 -0.43593064357E+03  0.99806038483E+03  0.89782459633E+03 0.  0.
        4    1    3    3  502    0  0.39720588032E+02  0.27574488487E+03  0.17333879542E+03  0.32811723140E+03  0.12699999809E+01 0. -1.
       -4    1    3    3    0  502 -0.39720588032E+02 -0.27574488487E+03 -0.60926943899E+03  0.66994315343E+03  0.12699999809E+01 0.  1.
</event>
<event>
 5   0  0.1436000E-03  0.8993457E+03  0.7818609E-02  0.9426400E-01
        3   -1    0    0  501    0  0.00000000000E+00  0.00000000000E+00  0.27392284079E+03  0.27392285941E+03  0.10100000352E+00 0.  1.
       -3   -1    0    0    0  501  0.00000000000E+00  0.00000000000E+00 -0.73818469268E+03  0.73818469959E+03  0.10100000352E+00 0. -1.
    10030    2    1    2    0    0  0.00000000000E+00  0.00000000000E+00 -0.46426185189E+03  0.10121075590E+04  0.89934567540E+03 0.  0.
        2    1    3    3  502    0 -0.25829592238E+03 -0.44427224843E+02 -0.64334238557E+03  0.69467977292E+03  0.25500000920E-02 0.  1.
       -2    1    3    3    0  502  0.25829592238E+03  0.44427224843E+02  0.17908053368E+03  0.31742778608E+03  0.25500000920E-02 0. -1.
</event>
<event>
 5   0  0.3663255E-03  0.9036400E+03  0.7818609E-02  0.9421043E-01
        2   -1    0    0  501    0  0.00000000000E+00  0.00000000000E+00  0.46602735253E+03  0.46602735254E+03  0.25500000920E-02 0. -1.
       -2   -1    0    0    0  501  0.00000000000E+00  0.00000000000E+00 -0.43804580407E+03  0.43804580407E+03  0.25500000920E-02 0.  1.
    10030    2    1    2    0    0  0.00000000000E+00  0.00000000000E+00  0.27981548465E+02  0.90407315661E+03  0.90364003090E+03 0.  0.
        4    1    3    3  502    0  0.31847505256E+03  0.22017363281E+03 -0.21900907786E+03  0.44482510808E+03  0.12699999809E+01 0.  1.
       -4    1    3    3    0  502 -0.31847505256E+03 -0.22017363281E+03  0.24699062632E+03  0.45924804853E+03  0.12699999809E+01 0. -1.
</event>
<event>
 5   0  0.3685879E-03  0.8942776E+03  0.7818609E-02  0.9432763E-01
       -2   -1    0    0    0  501  0.00000000000E+00  0.00000000000E+00  0.22214506994E+03  0.22214506996E+03  0.25500000920E-02 0. -1.
        2   -1    0    0  501    0  0.00000000000E+00  0.00000000000E+00 -0.90001141343E+03  0.90001141343E+03  0.25500000920E-02 0.  1.
    10030    2    1    2    0    0  0.00000000000E+00  0.00000000000E+00 -0.67786634348E+03  0.11221564834E+04  0.89427758195E+03 0.  0.
        1    1    3    3  502    0  0.13049361860E+03  0.16550917450E+03 -0.83376993009E+03  0.85999660911E+03  0.50400001928E-02 0.  1.
       -1    1    3    3    0  502 -0.13049361860E+03 -0.16550917450E+03  0.15590358660E+03  0.26215987427E+03  0.50400001928E-02 0. -1.
</event>
<event>
 5   0  0.2295158E-03  0.9060286E+03  0.7818609E-02  0.9418077E-01
        1   -1    0    0  501    0  0.00000000000E+00  0.00000000000E+00  0.43445927237E+03  0.43445927240E+03  0.50400001928E-02 0. -1.
       -1   -1    0    0    0  501  0.00000000000E+00  0.00000000000E+00 -0.47236176051E+03  0.47236176053E+03  0.50400001928E-02 0.  1.
    10030    2    1    2    0    0  0.00000000000E+00  0.00000000000E+00 -0.37902488130E+02  0.90682103294E+03  0.90602857966E+03 0.  0.
        4    1    3    3  502    0  0.13685865831E+03 -0.26007794274E+03 -0.36399833996E+03  0.46783248396E+03  0.12699999809E+01 0.  1.
       -4    1    3    3    0  502 -0.13685865831E+03  0.26007794274E+03  0.32609585183E+03  0.43898854898E+03  0.12699999809E+01 0. -1.
</event>
<event>
 5   0  0.1436000E-03  0.9111644E+03  0.7818609E-02  0.9411732E-01
        3   -1    0    0  501    0  0.00000000000E+00  0.00000000000E+00  0.48118818191E+03  0.48118819251E+03  0.10100000352E+00 0. -1.
       -3   -1    0    0    0  501  0.00000000000E+00  0.00000000000E+00 -0.43133883401E+03  0.43133884583E+03  0.10100000352E+00 0.  1.
    10030    2    1    2    0    0  0.00000000000E+00  0.00000000000E+00  0.49849347901E+02  0.91252703834E+03  0.91116444082E+03 0.  0.
        4    1    3    3  502    0 -0.41038682054E+03  0.10504188177E+03  0.19281309340E+03  0.46543489479E+03  0.12699999809E+01 0. -1.
       -4    1    3    3    0  502  0.41038682054E+03 -0.10504188177E+03 -0.14296374550E+03  0.44709214355E+03  0.12699999809E+01 0.  1.
</event>
<event>
 5   0  0.2130975E-03  0.8991548E+03  0.7818609E-02  0.9426639E-01
        1   -1    0    0  501    0  0.00000000000E+00  0.00000000000E+00  0.55489385102E+03  0.55489385105E+03  0.50400001928E-02 0. -1.
       -1   -1    0    0    0  501  0.00000000000E+00  0.00000000000E+00 -0.36424957327E+03  0.36424957330E+03  0.50400001928E-02 0.  1.
    10030    2    1    2    0    0  0.00000000000E+00  0.00000000000E+00  0.19064427775E+03  0.91914342435E+03  0.89915482198E+03 0.  0.
        5    1    3    3  502    0  0.58525174705E+02 -0.44208140111E+03  0.37166325615E+02  0.44750931503E+03  0.46999998093E+01 0.  1.
       -5    1    3    3    0  502 -0.58525174705E+02  0.44208140111E+03  0.15347795214E+03  0.47163410932E+03  0.46999998093E+01 0. -1.
</event>
<event>
 5   0  0.3663255E-03  0.8981246E+03  0.7818609E-02  0.9427929E-01
        2   -1    0    0  501    0  0.00000000000E+00  0.00000000000E+00  0.32141803963E+03  0.32141803964E+03  0.25500000920E-02 0.  1.
       -2   -1    0    0    0  501  0.00000000000E+00  0.00000000000E+00 -0.62739779639E+03  0.62739779640E+03  0.25500000920E-02 0. -1.
    10030    2    1    2    0    0  0.00000000000E+00  0.00000000000E+00 -0.30597975676E+03  0.94881583604E+03  0.89812464568E+03 0.  0.
        4    1    3    3  502    0 -0.29872821108E+02  0.34888816818E+03 -0.44999834147E+03  0.57018896829E+03  0.12699999809E+01 0. -1.
       -4    1    3    3    0  502  0.29872821108E+02 -0.34888816818E+03  0.14401858471E+03  0.37862686775E+03  0.12699999809E+01 0.  1.
</event>
<event>
 5   0  0.3685879E-03  0.9049367E+03  0.7818609E-02  0.9419431E-01
        2   -1    0    0  501    0  0.00000000000E+00  0.00000000000E+00  0.46848082329E+03  0.46848082329E+03  0.25500000920E-02 0.  1.
       -2   -1    0    0    0  501  0.00000000000E+00  0.00000000000E+00 -0.43700319139E+03  0.43700319139E+03  0.25500000920E-02 0. -1.
    10030    2    1    2    0    0  0.00000000000E+00  0.00000000000E+00  0.31477631900E+02  0.90548401469E+03  0.90493671577E+03 0.  0.
        1    1    3    3  502    0 -0.10125306956E+03  0.21560614288E+03 -0.36918777683E+03  0.43936068045E+03  0.50400001928E-02 0. -1.
       -1    1    3    3    0  502  0.10125306956E+03 -0.21560614288E+03  0.40066540873E+03  0.46612333424E+03  0.50400001928E-02 0.  1.
</event>
<event>
 5   0  0.3663255E-03  0.9054777E+03  0.7818609E-02  0.9418760E-01
        2   -1    0    0  501    0  0.00000000000E+00  0.00000000000E+00  0.61607456365E+03  0.61607456366E+03  0.25500000920E-02 0.  1.
       -2   -1    0    0    0  501  0.00000000000E+00  0.00000000000E+00 -0.33270720454E+03  0.33270720455E+03  0.25500000920E-02 0. -1.
    10030    2    1    2    0    0  0.00000000000E+00  0.00000000000E+00  0.28336735911E+03  0.94878176821E+03  0.90547765487E+03 0.  0.
        4    1    3    3  502    0  0.15908380719E+03  0.39208302947E+03 -0.27058618742E+02  0.42399356299E+03  0.12699999809E+01 0. -1.
       -4    1    3    3    0  502 -0.15908380719E+03 -0.39208302947E+03  0.31042597785E+03  0.52478820522E+03  0.12699999809E+01 0.  1.
</event>
<event>
 5   0  0.3815269E-03  0.9002291E+03  0.7818609E-02  0.9425295E-01
        2   -1    0    0  501    0  0.00000000000E+00  0.00000000000E+00  0.45624220756E+03  0.45624220757E+03  0.25500000920E-02 0.  1.
       -2   -1    0    0    0  501  0.00000000000E+00  0.00000000000E+00 -0.44406917693E+03  0.44406917694E+03  0.25500000920E-02 0. -1.
    10030    2    1    2    0    0  0.00000000000E+00  0.00000000000E+00  0.12173030624E+02  0.90031138451E+03  0.90022908551E+03 0.  0.
        5    1    3    3  502    0 -0.36893865403E+03  0.11574392224E+03 -0.22430083057E+03  0.44704064532E+03  0.46999998093E+01 0. -1.
       -5    1    3    3    0  502  0.36893865403E+03 -0.11574392224E+03  0.23647386119E+03  0.45327073919E+03  0.46999998093E+01 0.  1.
</event>
<event>
 5   0  0.3806019E-03  0.9019312E+03  0.7818609E-02  0.9423171E-01
       -2   -1    0    0    0  501  0.00000000000E+00  0.00000000000E+00  0.19291511252E+03  0.19291511254E+03  0.25500000920E-02 0.  1.
        2   -1    0    0  501    0  0.00000000000E+00  0.00000000000E+00 -0.10541940109E+04  0.10541940109E+04  0.25500000920E-02 0. -1.
    10030    2    1    2    0    0  0.00000000000E+00  0.00000000000E+00 -0.86127889842E+03  0.12471091235E+04  0.90193116424E+03 0.  0.
        2    1    3    3  502    0  0.17724814933E+02  0.36774677944E+03 -0.79072347147E+03  0.87223590341E+03  0.25500000920E-02 0. -1.
       -2    1    3    3    0  502 -0.17724814933E+02 -0.36774677944E+03 -0.70555426950E+02  0.37487322008E+03  0.25500000920E-02 0.  1.
</event>
<event>
 5   0  0.2129280E-03  0.8996238E+03  0.7818609E-02  0.9426052E-01
       -1   -1    0    0    0  501  0.00000000000E+00  0.00000000000E+00  0.14160351450E+03  0.14160351459E+03  0.50400001928E-02 0.  1.
        1   -1    0    0  501    0  0.00000000000E+00  0.00000000000E+00 -0.14288538275E+04  0.14288538275E+04  0.50400001928E-02 0. -1.
    10030    2    1    2    0    0  0.00000000000E+00  0.00000000000E+00 -0.12872503130E+04  0.15704573421E+04  0.89962375194E+03 0.  0.
        3    1    3    3  502    0 -0.23177961746E+03  0.11624027769E+03 -0.19898149799E+01  0.25930206862E+03  0.10100000352E+00 0.  1.
       -3    1    3    3    0  502  0.23177961746E+03 -0.11624027769E+03 -0.12852604980E+04  0.13111552735E+04  0.10100000352E+00 0. -1.
</event>
<event>
 5   0  0.3685879E-03  0.8997077E+03  0.7818609E-02  0.9425947E-01
        2   -1    0    0  501    0  0.00000000000E+00  0.00000000000E+00  0.52240160398E+03  0.52240160399E+03  0.25500000920E-02 0. -1.
       -2   -1    0    0    0  501  0.00000000000E+00  0.00000000000E+00 -0.38738102111E+03  0.38738102112E+03  0.25500000920E-02 0.  1.
    10030    2    1    2    0    0  0.00000000000E+00  0.00000000000E+00  0.13502058287E+03  0.90978262511E+03  0.89970765649E+03 0.  0.
        1    1    3    3  502    0 -0.10551333125E+03  0.34542992184E+03 -0.20365971726E+03  0.41464704802E+03  0.50400001928E-02 0.  1.
       -1    1    3    3    0  502  0.10551333125E+03 -0.34542992184E+03  0.33868030013E+03  0.49513557709E+03  0.50400001928E-02 0. -1.
</event>
<event>
 5   0  0.2074970E-03  0.8946101E+03  0.7818609E-02  0.9432344E-01
        1   -1    0    0  501    0  0.00000000000E+00  0.00000000000E+00  0.34430776582E+03  0.34430776586E+03  0.50400001928E-02 0.  1.
       -1   -1    0    0    0  501  0.00000000000E+00  0.00000000000E+00 -0.58111327408E+03  0.58111327410E+03  0.50400001928E-02 0. -1.
    10030    2    1    2    0    0  0.00000000000E+00  0.00000000000E+00 -0.23680550826E+03  0.92542103995E+03  0.89461011197E+03 0.  0.
        2    1    3    3  502    0  0.29854074859E+03 -0.15123002444E+03  0.18860959260E+03  0.38414929036E+03  0.25500000920E-02 0.  1.
       -2    1    3    3    0  502 -0.29854074859E+03  0.15123002444E+03 -0.42541510086E+03  0.54127174959E+03  0.25500000920E-02 0. -1.
</event>
<event>
 5   0  0.2295158E-03  0.8947985E+03  0.7818609E-02  0.9432107E-01
       -1   -1    0    0    0  501  0.00000000000E+00  0.00000000000E+00  0.34493687201E+03  0.34493687205E+03  0.50400001928E-02 0. -1.
        1   -1    0    0  501    0  0.00000000000E+00  0.00000000000E+00 -0.58029772707E+03  0.58029772709E+03  0.50400001928E-02 0.  1.
    10030    2    1    2    0    0  0.00000000000E+00  0.00000000000E+00 -0.23536085506E+03  0.92523459914E+03  0.89479848644E+03 0.  0.
        4    1    3    3  502    0  0.41523789844E+03 -0.12744187691E+03 -0.22856866215E+03  0.49082501007E+03  0.12699999809E+01 0.  1.
       -4    1    3    3    0  502 -0.41523789844E+03  0.12744187691E+03 -0.67921929031E+01  0.43440958907E+03  0.12699999809E+01 0. -1.
</event>
<event>
 5   0  0.3626546E-03  0.9023674E+03  0.7818609E-02  0.9422627E-01
        2   -1    0    0  501    0  0.00000000000E+00  0.00000000000E+00  0.52128998246E+03  0.52128998247E+03  0.25500000920E-02 0. -1.
       -2   -1    0    0    0  501  0.00000000000E+00  0.00000000000E+00 -0.39050576839E+03  0.39050576840E+03  0.25500000920E-02 0.  1.
    10030    2    1    2    0    0  0.00000000000E+00  0.00000000000E+00  0.13078421407E+03  0.91179575086E+03  0.90236743106E+03 0.  0.
        3    1    3    3  502    0 -0.21794513881E+03 -0.27170890598E+03 -0.22438103959E+03  0.41433401290E+03  0.10100000352E+00 0.  1.
       -3    1    3    3    0  502  0.21794513881E+03  0.27170890598E+03  0.35516525367E+03  0.49746173796E+03  0.10100000352E+00 0. -1.
</event>
<event>
 5   0  0.3815269E-03  0.9018164E+03  0.7818609E-02  0.9423314E-01
       -2   -1    0    0    0  501  0.00000000000E+00  0.00000000000E+00  0.14297572136E+03  0.14297572138E+03  0.25500000920E-02 0.  1.
        2   -1    0    0  501    0  0.00000000000E+00  0.00000000000E+00 -0.14220470077E+04  0.14220470077E+04  0.25500000920E-02 0. -1.
    10030    2    1    2    0    0  0.00000000000E+00  0.00000000000E+00 -0.12790712864E+04  0.15650227291E+04  0.90181638210E+03 0.  0.
        5    1    3    3  502    0 -0.37903520090E+03 -0.20427754115E+03 -0.87171213270E+03  0.97226597679E+03  0.46999998093E+01 0. -1.
       -5    1    3    3    0  502  0.37903520090E+03  0.20427754115E+03 -0.40735915368E+03  0.59275675232E+03  0.46999998093E+01 0.  1.
</event>
<event>
 5   0  0.1436000E-03  0.8948390E+03  0.7818609E-02  0.9432056E-01
       -3   -1    0    0    0  501  0.00000000000E+00  0.00000000000E+00  0.20278688365E+03  0.20278690880E+03  0.10100000352E+00 0.  1.
        3   -1    0    0  501    0  0.00000000000E+00  0.00000000000E+00 -0.98716541625E+03  0.98716542142E+03  0.10100000352E+00 0. -1.
    10030    2    1    2    0    0  0.00000000000E+00  0.00000000000E+00 -0.78437853260E+03  0.11899523302E+04  0.89483901669E+03 0.  0.
        3    1    3    3  502    0  0.75875169525E+02  0.17374466547E+03 -0.93110896965E+03  0.95021480398E+03  0.10100000352E+00 0. -1.
       -3    1    3    3    0  502 -0.75875169525E+02 -0.17374466547E+03  0.14673043705E+03  0.23973752624E+03  0.10100000352E+00 0.  1.
</event>
<event>
 5   0  0.1436000E-03  0.9000963E+03  0.7818609E-02  0.9425461E-01
        3   -1    0    0  501    0  0.00000000000E+00  0.00000000000E+00  0.36747026976E+03  0.36747028364E+03  0.10100000352E+00 0.  1.
       -3   -1    0    0    0  501  0.00000000000E+00  0.00000000000E+00 -0.55118295471E+03  0.55118296396E+03  0.10100000352E+00 0. -1.
    10030    2    1    2    0    0  0.00000000000E+00  0.00000000000E+00 -0.18371268495E+03  0.91865324760E+03  0.90009634969E+03 0.  0.
        4    1    3    3  502    0 -0.82471390445E+02  0.30502596710E+03 -0.41893071472E+03  0.52473510220E+03  0.12699999809E+01 0. -1.
       -4    1    3    3    0  502  0.82471390445E+02 -0.30502596710E+03  0.23521802977E+03  0.39391814540E+03  0.12699999809E+01 0.  1.
</event>
<event>
 5   0  0.3815269E-03  0.8978768E+03  0.7818609E-02  0.9428239E-01
        2   -1    0    0  501    0  0.00000000000E+00  0.00000000000E+00  0.21096366544E+03  0.21096366546E+03  0.25500000920E-02 0.  1.
       -2   -1    0    0    0  501  0.00000000000E+00  0.00000000000E+00 -0.95535735199E+03  0.95535735199E+03  0.25500000920E-02 0. -1.
    10030    2    1    2    0    0  0.00000000000E+00  0.00000000000E+00 -0.74439368655E+03  0.11663210174E+04  0.89787680401E+03 0.  0.
        5    1    3    3  502    0  0.80164897491E+02  0.15233857129E+03 -0.91074785013E+03  0.92688574680E+03  0.46999998093E+01 0. -1.
       -5    1    3    3    0  502 -0.80164897491E+02 -0.15233857129E+03  0.16635416359E+03  0.23943527065E+03  0.46999998093E+01 0.  1.
</event>
<event>
 5   0  0.3685879E-03  0.8957907E+03  0.7818609E-02  0.9430859E-01
       -2   -1    0    0    0  501  0.00000000000E+00  0.00000000000E+00  0.29186862370E+03  0.29186862371E+03  0.25500000920E-02 0.  1.
        2   -1    0    0  501    0  0.00000000000E+00  0.00000000000E+00 -0.68733058873E+03  0.68733058873E+03  0.25500000920E-02 0. -1.
    10030    2    1    2    0    0  0.00000000000E+00  0.00000000000E+00 -0.39546196503E+03  0.97919921245E+03  0.89579067414E+03 0.  0.
        1    1    3    3  502    0 -0.11220198444E+03 -0.54887406871E+02 -0.66790664881E+03  0.67948598536E+03  0.50400001928E-02 0. -1.
       -1    1    3    3    0  502  0.11220198444E+03  0.54887406871E+02  0.27244468379E+03  0.29971322709E+03  0.50400001928E-02 0.  1.
</event>
<event>
 5   0  0.2295158E-03  0.8984705E+03  0.7818609E-02  0.9427495E-01
       -1   -1    0    0    0  501  0.00000000000E+00  0.00000000000E+00  0.83407065028E+03  0.83407065030E+03  0.50400001928E-02 0.  1.
        1   -1    0    0  501    0  0.00000000000E+00  0.00000000000E+00 -0.24196070791E+03  0.24196070797E+03  0.50400001928E-02 0. -1.
    10030    2    1    2    0    0  0.00000000000E+00  0.00000000000E+00  0.59210994237E+03  0.10760313583E+04  0.89847053381E+03 0.  0.
        4    1    3    3  502    0 -0.27364745023E+03 -0.32478566626E+03  0.47142456797E+03  0.63451666031E+03  0.12699999809E+01 0.  1.
       -4    1    3    3    0  502  0.27364745023E+03  0.32478566626E+03  0.12068537440E+03  0.44151469796E+03  0.12699999809E+01 0. -1.
</event>
<event>
 5   0  0.2130975E-03  0.8998074E+03  0.7818609E-02  0.9425822E-01
       -1   -1    0    0    0  501  0.00000000000E+00  0.00000000000E+00  0.41674932023E+03  0.41674932026E+03  0.50400001928E-02 0. -1.
        1   -1    0    0  501    0  0.00000000000E+00  0.00000000000E+00 -0.48569563556E+03  0.48569563558E+03  0.50400001928E-02 0.  1.
    10030    2    1    2    0    0  0.00000000000E+00  0.00000000000E+00 -0.68946315328E+02  0.90244495585E+03  0.89980737046E+03 0.  0.
        5    1    3    3  502    0 -0.33676228936E+03  0.27983192358E+03 -0.13810314488E+03  0.45913975391E+03  0.46999998093E+01 0.  1.
       -5    1    3    3    0  502  0.33676228936E+03 -0.27983192358E+03  0.69156829549E+02  0.44330520194E+03  0.46999998093E+01 0. -1.
</event>
<event>
 5   0  0.3815269E-03  0.8824108E+03  0.7818609E-02  0.9447840E-01
       -2   -1    0    0    0  501  0.00000000000E+00  0.00000000000E+00  0.46830066870E+03  0.46830066870E+03  0.25500000920E-02 0. -1.
        2   -1    0    0  501    0  0.00000000000E+00  0.00000000000E+00 -0.41567785397E+03  0.41567785397E+03  0.25500000920E-02 0.  1.
    10030    2    1    2    0    0  0.00000000000E+00  0.00000000000E+00  0.52622814732E+02  0.88397852268E+03  0.88241082718E+03 0.  0.
        5    1    3    3  502    0  0.24574037787E+03  0.24811004274E+02 -0.33990091772E+03  0.42018881841E+03  0.46999998093E+01 0.  1.
       -5    1    3    3    0  502 -0.24574037787E+03 -0.24811004274E+02  0.39252373245E+03  0.46378970427E+03  0.46999998093E+01 0. -1.
</event>
<event>
 5   0  0.3806019E-03  0.8998037E+03  0.7818609E-02  0.9425827E-01
       -2   -1    0    0    0  501  0.00000000000E+00  0.00000000000E+00  0.10953904762E+03  0.10953904765E+03  0.25500000920E-02 0.  1.
        2   -1    0    0  501    0  0.00000000000E+00  0.00000000000E+00 -0.18478496032E+04  0.18478496032E+04  0.25500000920E-02 0. -1.
    10030    2    1    2    0    0  0.00000000000E+00  0.00000000000E+00 -0.17383105556E+04  0.19573886508E+04  0.89980372463E+03 0.  0.
        2    1    3    3  502    0  0.35631928551E+03 -0.57683938198E+02 -0.14533526438E+04  0.14975061860E+04  0.25500000920E-02 0. -1.
       -2    1    3    3    0  502 -0.35631928551E+03  0.57683938198E+02 -0.28495791176E+03  0.45988246480E+03  0.25500000920E-02 0.  1.
</event>
<event>
 5   0  0.3626546E-03  0.9335015E+03  0.7818609E-02  0.9384645E-01
       -2   -1    0    0    0  501  0.00000000000E+00  0.00000000000E+00  0.20636371690E+03  0.20636371691E+03  0.25500000920E-02 0. -1.
        2   -1    0    0  501    0  0.00000000000E+00  0.00000000000E+00 -0.10556906335E+04  0.10556906335E+04  0.25500000920E-02 0.  1.
    10030    2    1    2    0    0  0.00000000000E+00  0.00000000000E+00 -0.84932691659E+03  0.12620543504E+04  0.93350145802E+03 0.  0.
        3    1    3    3  502    0 -0.10741494901E+03  0.92288132109E+02 -0.10259444534E+04  0.10356722948E+04  0.10100000352E+00 0.  1.
       -3    1    3    3    0  502  0.10741494901E+03 -0.92288132109E+02  0.17661753678E+03  0.22638205561E+03  0.10100000352E+00 0. -1.
</event>
<event>
 5   0  0.2134145E-03  0.8819837E+03  0.7818609E-02  0.9448387E-01
       -1   -1    0    0    0  501  0.00000000000E+00  0.00000000000E+00  0.39466850667E+03  0.39466850670E+03  0.50400001928E-02 0.  1.
        1   -1    0    0  501    0  0.00000000000E+00  0.00000000000E+00 -0.49275228092E+03  0.49275228094E+03  0.50400001928E-02 0. -1.
    10030    2    1    2    0    0  0.00000000000E+00  0.00000000000E+00 -0.98083774246E+02  0.88742078765E+03  0.88198368895E+03 0.  0.
        1    1    3    3  502    0  0.13628419216E+03  0.81743481232E+02  0.36485568012E+03  0.39796362283E+03  0.50400001928E-02 0.  1.
       -1    1    3    3    0  502 -0.13628419216E+03 -0.81743481232E+02 -0.46293945436E+03  0.48945716482E+03  0.50400001928E-02 0. -1.
</event>
<event>
 5   0  0.3626546E-03  0.8975226E+03  0.7818609E-02  0.9428684E-01
       -2   -1    0    0    0  501  0.00000000000E+00  0.00000000000E+00  0.94721761956E+02  0.94721761990E+02  0.25500000920E-02 0. -1.
        2   -1    0    0  501    0  0.00000000000E+00  0.00000000000E+00 -0.21260868990E+04  0.21260868990E+04  0.25500000920E-02 0.  1.
    10030    2    1    2    0    0  0.00000000000E+00  0.00000000000E+00 -0.20313651371E+04  0.22208086610E+04  0.89752258398E+03 0.  0.
        3    1    3    3  502    0 -0.92111086409E+02 -0.37752802537E+03 -0.46032520891E+03  0.60242109055E+03  0.10100000352E+00 0. -1.
       -3    1    3    3    0  502  0.92111086409E+02  0.37752802537E+03 -0.15710399282E+04  0.16183875705E+04  0.10100000352E+00 0.  1.
</event>
<event>
 5   0  0.3815269E-03  0.8975294E+03  0.7818609E-02  0.9428675E-01
       -2   -1    0    0    0  501  0.00000000000E+00  0.00000000000E+00  0.11896999683E+03  0.11896999686E+03  0.25500000920E-02 0. -1.
        2   -1    0    0  501    0  0.00000000000E+00  0.00000000000E+00 -0.16927775865E+04  0.16927775865E+04  0.25500000920E-02 0.  1.
    10030    2    1    2    0    0  0.00000000000E+00  0.00000000000E+00 -0.15738075897E+04  0.18117475834E+04  0.89752937362E+03 0.  0.
        5    1    3    3  502    0 -0.16963280454E+03 -0.36618440316E+03 -0.11829875139E+04  0.12499391399E+04  0.46999998093E+01 0.  1.
       -5    1    3    3    0  502  0.16963280454E+03  0.36618440316E+03 -0.39082007580E+03  0.56180844346E+03  0.46999998093E+01 0. -1.
</event>
<event>
 5   0  0.2134145E-03  0.9046548E+03  0.7818609E-02  0.9419781E-01
       -1   -1    0    0    0  501  0.00000000000E+00  0.00000000000E+00  0.17724265463E+03  0.17724265470E+03  0.50400001928E-02 0. -1.
        1   -1    0    0  501    0  0.00000000000E+00  0.00000000000E+00 -0.11543501290E+04  0.11543501291E+04  0.50400001928E-02 0.  1.
    10030    2    1    2    0    0  0.00000000000E+00  0.00000000000E+00 -0.97710747441E+03  0.13315927838E+04  0.90465480998E+03 0.  0.
        1    1    3    3  502    0 -0.11777953737E+03 -0.36105387322E+03 -0.85020710585E+03  0.93117347559E+03  0.50400001928E-02 0.  1.
       -1    1    3    3    0  502  0.11777953737E+03  0.36105387322E+03 -0.12690036857E+03  0.40041930817E+03  0.50400001928E-02 0. -1.
</event>
<event>
 5   0  0.2074970E-03  0.8938585E+03  0.7818609E-02  0.9433291E-01
        1   -1    0    0  501    0  0.00000000000E+00  0.00000000000E+00  0.17714251742E+03  0.17714251749E+03  0.50400001928E-02 0.  1.
       -1   -1    0    0    0  501  0.00000000000E+00  0.00000000000E+00 -0.11275991830E+04  0.11275991831E+04  0.50400001928E-02 0. -1.
    10030    2    1    2    0    0  0.00000000000E+00  0.00000000000E+00 -0.95045666562E+03  0.13047417005E+04  0.89385850777E+03 0.  0.
        2    1    3    3  502    0 -0.26983983792E+03 -0.27746502406E+03 -0.14901370836E+03  0.41473541323E+03  0.25500000920E-02 0.  1.
       -2    1    3    3    0  502  0.26983983792E+03  0.27746502406E+03 -0.80144295726E+03  0.89000628731E+03  0.25500000920E-02 0. -1.
</event>
<event>
 5   0  0.3663255E-03  0.8985076E+03  0.7818609E-02  0.9427449E-01
        2   -1    0    0  501    0  0.00000000000E+00  0.00000000000E+00  0.22205320968E+04  0.22205320968E+04  0.25500000920E-02 0.  1.
       -2   -1    0    0    0  501  0.00000000000E+00  0.00000000000E+00 -0.90892176536E+02  0.90892176571E+02  0.25500000920E-02 0. -1.
    10030    2    1    2    0    0  0.00000000000E+00  0.00000000000E+00  0.21296399202E+04  0.23114242733E+04  0.89850764133E+03 0.  0.
        4    1    3    3  502    0  0.23296309808E+03  0.35162691028E+02  0.20488503211E+04  0.20623524119E+04  0.12699999809E+01 0.  1.
       -4    1    3    3    0  502 -0.23296309808E+03 -0.35162691028E+02  0.80789599128E+02  0.24907186139E+03  0.12699999809E+01 0. -1.
</event>
<event>
 5   0  0.3663255E-03  0.8978826E+03  0.7818609E-02  0.9428232E-01
        2   -1    0    0  501    0  0.00000000000E+00  0.00000000000E+00  0.26794402055E+03  0.26794402056E+03  0.25500000920E-02 0. -1.
       -2   -1    0    0    0  501  0.00000000000E+00  0.00000000000E+00 -0.75220291734E+03  0.75220291735E+03  0.25500000920E-02 0.  1.
    10030    2    1    2    0    0  0.00000000000E+00  0.00000000000E+00 -0.48425889679E+03  0.10201469379E+04  0.89788256236E+03 0.  0.
        4    1    3    3  502    0  0.15328183550E+03 -0.30576697390E+03  0.88255521063E+02  0.35324129617E+03  0.12699999809E+01 0. -1.
       -4    1    3    3    0  502 -0.15328183550E+03  0.30576697390E+03 -0.57251441786E+03  0.66690564174E+03  0.12699999809E+01 0.  1.
</event>
<event>
 5   0  0.3806019E-03  0.9046473E+03  0.7818609E-02  0.9419791E-01
        2   -1    0    0  501    0  0.00000000000E+00  0.00000000000E+00  0.16315602513E+04  0.16315602514E+04  0.25500000920E-02 0.  1.
       -2   -1    0    0    0  501  0.00000000000E+00  0.00000000000E+00 -0.12539941242E+03  0.12539941245E+03  0.25500000920E-02 0. -1.
    10030    2    1    2    0    0  0.00000000000E+00  0.00000000000E+00  0.15061608389E+04  0.17569596638E+04  0.90464732770E+03 0.  0.
        2    1    3    3  502    0 -0.34939747354E+03 -0.18559468127E+03  0.11789060705E+04  0.12435206083E+04  0.25500000920E-02 0.  1.
       -2    1    3    3    0  502  0.34939747354E+03  0.18559468127E+03  0.32725476840E+03  0.51343905547E+03  0.25500000920E-02 0. -1.
</event>
<event>
 5   0  0.3685879E-03  0.9018716E+03  0.7818609E-02  0.9423245E-01
       -2   -1    0    0    0  501  0.00000000000E+00  0.00000000000E+00  0.11667899102E+03  0.11667899104E+03  0.25500000920E-02 0.  1.
        2   -1    0    0  501    0  0.00000000000E+00  0.00000000000E+00 -0.17427566706E+04  0.17427566706E+04  0.25500000920E-02 0. -1.
    10030    2    1    2    0    0  0.00000000000E+00  0.00000000000E+00 -0.16260776796E+04  0.18594356616E+04  0.90187158717E+03 0.  0.
        1    1    3    3  502    0 -0.19612614700E+03  0.35749963415E+03 -0.12100085102E+04  0.12768680624E+04  0.50400001928E-02 0. -1.
       -1    1    3    3    0  502  0.19612614700E+03 -0.35749963415E+03 -0.41606916934E+03  0.58256759922E+03  0.50400001928E-02 0.  1.
</event>
<event>
 5   0  0.3663255E-03  0.8998958E+03  0.7818609E-02  0.9425712E-01
       -2   -1    0    0    0  501  0.00000000000E+00  0.00000000000E+00  0.20284126178E+03  0.20284126180E+03  0.25500000920E-02 0. -1.
        2   -1    0    0  501    0  0.00000000000E+00  0.00000000000E+00 -0.99808649704E+03  0.99808649705E+03  0.25500000920E-02 0.  1.
    10030    2    1    2    0    0  0.00000000000E+00  0.00000000000E+00 -0.79524523526E+03  0.12009277588E+04  0.89989582605E+03 0.  0.
        4    1    3    3  502    0  0.17056978690E+03 -0.26476142095E+02 -0.95214116741E+03  0.96766184893E+03  0.12699999809E+01 0.  1.
       -4    1    3    3    0  502 -0.17056978690E+03  0.26476142095E+02  0.15689593214E+03  0.23326590991E+03  0.12699999809E+01 0. -1.
</event>
<event>
 5   0  0.3815269E-03  0.9096951E+03  0.7818609E-02  0.9413543E-01
        2   -1    0    0  501    0  0.00000000000E+00  0.00000000000E+00  0.65898424808E+03  0.65898424808E+03  0.25500000920E-02 0. -1.
       -2   -1    0    0    0  501  0.00000000000E+00  0.00000000000E+00 -0.31394723199E+03  0.31394723200E+03  0.25500000920E-02 0.  1.
    10030    2    1    2    0    0  0.00000000000E+00  0.00000000000E+00  0.34503701608E+03  0.97293148008E+03  0.90969507115E+03 0.  0.
        5    1    3    3  502    0 -0.20752760673E+03  0.25582682965E+03  0.50792513948E+03  0.60541317432E+03  0.46999998093E+01 0. -1.
       -5    1    3    3    0  502  0.20752760673E+03 -0.25582682965E+03 -0.16288812340E+03  0.36751830576E+03  0.46999998093E+01 0.  1.
</event>
<event>
 5   0  0.2134145E-03  0.9006454E+03  0.7818609E-02  0.9424775E-01
       -1   -1    0    0    0  501  0.00000000000E+00  0.00000000000E+00  0.92280917676E+03  0.92280917677E+03  0.50400001928E-02 0. -1.
        1   -1    0    0  501    0  0.00000000000E+00  0.00000000000E+00 -0.21975350189E+03  0.21975350195E+03  0.50400001928E-02 0.  1.
    10030    2    1    2    0    0  0.00000000000E+00  0.00000000000E+00  0.70305567487E+03  0.11425626787E+04  0.90064543126E+03 0.  0.
        1    1    3    3  502    0 -0.12025707467E+03 -0.33118107329E+03  0.70729814258E+03  0.79019828514E+03  0.50400001928E-02 0. -1.
       -1    1    3    3    0  502  0.12025707467E+03  0.33118107329E+03 -0.42424677131E+01  0.35236439359E+03  0.50400001928E-02 0.  1.
</event>
<event>
 5   0  0.2129280E-03  0.9037742E+03  0.7818609E-02  0.9420876E-01
        1   -1    0    0  501    0  0.00000000000E+00  0.00000000000E+00  0.22000878926E+03  0.22000878932E+03  0.50400001928E-02 0. -1.
       -1   -1    0    0    0  501  0.00000000000E+00  0.00000000000E+00 -0.92815361689E+03  0.92815361691E+03  0.50400001928E-02 0.  1.
    10030    2    1    2    0    0  0.00000000000E+00  0.00000000000E+00 -0.70814482763E+03  0.11481624062E+04  0.90377420531E+03 0.  0.
        3    1    3    3  502    0  0.65772544502E+02 -0.26581034456E+03  0.10260502218E+03  0.29241916433E+03  0.10100000352E+00 0. -1.
       -3    1    3    3    0  502 -0.65772544502E+02  0.26581034456E+03 -0.81074984981E+03  0.85574324190E+03  0.10100000352E+00 0.  1.
</event>
<event>
 5   0  0.2295158E-03  0.9009581E+03  0.7818609E-02  0.9424385E-01
       -1   -1    0    0    0  501  0.00000000000E+00  0.00000000000E+00  0.18273938128E+03  0.18273938134E+03  0.50400001928E-02 0.  1.
        1   -1    0    0  501    0  0.00000000000E+00  0.00000000000E+00 -0.11104960577E+04  0.11104960577E+04  0.50400001928E-02 0. -1.
    10030    2    1    2    0    0  0.00000000000E+00  0.00000000000E+00 -0.92775667643E+03  0.12932354391E+04  0.90095807349E+03 0.  0.
        4    1    3    3  502    0 -0.39984452598E+03  0.60581391939E+02 -0.74873929281E+03  0.85097467148E+03  0.12699999809E+01 0. -1.
       -4    1    3    3    0  502  0.39984452598E+03 -0.60581391939E+02 -0.17901738363E+03  0.44226076759E+03  0.12699999809E+01 0.  1.
</event>
<event>
 5   0  0.2134145E-03  0.8936732E+03  0.7818609E-02  0.9433525E-01
        1   -1    0    0  501    0  0.00000000000E+00  0.00000000000E+00  0.18224106136E+04  0.18224106136E+04  0.50400001928E-02 0. -1.
       -1   -1    0    0    0  501  0.00000000000E+00  0.00000000000E+00 -0.10955980231E+03  0.10955980243E+03  0.50400001928E-02 0.  1.
    10030    2    1    2    0    0  0.00000000000E+00  0.00000000000E+00  0.17128508113E+04  0.19319704161E+04  0.89367319905E+03 0.  0.
        1    1    3    3  502    0 -0.40833675305E+02 -0.33940627236E+03  0.14784880558E+04  0.15174949549E+04  0.50400001928E-02 0. -1.
       -1    1    3    3    0  502  0.40833675305E+02  0.33940627236E+03  0.23436275549E+03  0.41447546121E+03  0.50400001928E-02 0.  1.
</event>
<event>
 5   0  0.3685879E-03  0.9048862E+03  0.7818609E-02  0.9419494E-01
       -2   -1    0    0    0  501  0.00000000000E+00  0.00000000000E+00  0.14835457570E+03  0.14835457572E+03  0.25500000920E-02 0.  1.
        2   -1    0    0  501    0  0.00000000000E+00  0.00000000000E+00 -0.13798346042E+04  0.13798346042E+04  0.25500000920E-02 0. -1.
    10030    2    1    2    0    0  0.00000000000E+00  0.00000000000E+00 -0.12314800284E+04  0.15281891799E+04  0.90488624093E+03 0.  0.
        1    1    3    3  502    0  0.28367213267E+02 -0.14146824230E+03  0.10845983640E+03  0.18050345843E+03  0.50400001928E-02 0.  1.
       -1    1    3    3    0  502 -0.28367213267E+02  0.14146824230E+03 -0.13399398648E+04  0.13476857214E+04  0.50400001928E-02 0. -1.
</event>
<event>
 5   0  0.3663255E-03  0.9003201E+03  0.7818609E-02  0.9425181E-01
        2   -1    0    0  501    0  0.00000000000E+00  0.00000000000E+00  0.92267597787E+03  0.92267597787E+03  0.25500000920E-02 0.  1.
       -2   -1    0    0    0  501  0.00000000000E+00  0.00000000000E+00 -0.21962648149E+03  0.21962648151E+03  0.25500000920E-02 0. -1.
    10030    2    1    2    0    0  0.00000000000E+00  0.00000000000E+00  0.70304949637E+03  0.11423024594E+04  0.90032011771E+03 0.  0.
        4    1    3    3  502    0  0.96130029282E+02  0.40193525453E+03  0.12509384406E+03  0.43179047475E+03  0.12699999809E+01 0. -1.
       -4    1    3    3    0  502 -0.96130029282E+02 -0.40193525453E+03  0.57795565231E+03  0.71051198463E+03  0.12699999809E+01 0.  1.
</event>
<event>
 5   0  0.3806019E-03  0.8935531E+03  0.7818609E-02  0.9433676E-01
       -2   -1    0    0    0  501  0.00000000000E+00  0.00000000000E+00  0.15145663603E+03  0.15145663605E+03  0.25500000920E-02 0. -1.
        2   -1    0    0  501    0  0.00000000000E+00  0.00000000000E+00 -0.13179303080E+04  0.13179303080E+04  0.25500000920E-02 0.  1.
    10030    2    1    2    0    0  0.00000000000E+00  0.00000000000E+00 -0.11664736720E+04  0.14693869440E+04  0.89355311200E+03 0.  0.
        2    1    3    3  502    0  0.41123512989E+03  0.79166314014E+02 -0.32727720031E+03  0.53149976781E+03  0.25500000920E-02 0. -1.
       -2    1    3    3    0  502 -0.41123512989E+03 -0.79166314014E+02 -0.83919647165E+03  0.93788717624E+03  0.25500000920E-02 0.  1.
</event>
<event>
 5   0  0.2130975E-03  0.8991201E+03  0.7818609E-02  0.9426682E-01
       -1   -1    0    0    0  501  0.00000000000E+00  0.00000000000E+00  0.35229818032E+03  0.35229818035E+03  0.50400001928E-02 0.  1.
        1   -1    0    0  501    0  0.00000000000E+00  0.00000000000E+00 -0.57367384664E+03  0.57367384666E+03  0.50400001928E-02 0. -1.
    10030    2    1    2    0    0  0.00000000000E+00  0.00000000000E+00 -0.22137566633E+03  0.92597202702E+03  0.89912013056E+03 0.  0.
        5    1    3    3  502    0  0.95801498275E+02  0.25054896059E+03  0.26081997753E+03  0.37416822340E+03  0.46999998093E+01 0.  1.
       -5    1    3    3    0  502 -0.95801498275E+02 -0.25054896059E+03 -0.48219564386E+03  0.55180380361E+03  0.46999998093E+01 0. -1.
</event>
<event>
 5   0  0.2129280E-03  0.8964200E+03  0.7818609E-02  0.9430068E-01
       -1   -1    0    0    0  501  0.00000000000E+00  0.00000000000E+00  0.24690015240E+03  0.24690015245E+03  0.50400001928E-02 0. -1.
        1   -1    0    0  501    0  0.00000000000E+00  0.00000000000E+00 -0.81365769762E+03  0.81365769763E+03  0.50400001928E-02 0.  1.
    10030    2    1    2    0    0  0.00000000000E+00  0.00000000000E+00 -0.56675754521E+03  0.10605578501E+04  0.89642001222E+03 0.  0.
        3    1    3    3  502    0  0.32246322117E+03 -0.52520959804E+02  0.79645608308E+02  0.33628026013E+03  0.10100000352E+00 0. -1.
       -3    1    3    3    0  502 -0.32246322117E+03  0.52520959804E+02 -0.64640315352E+03  0.72427758996E+03  0.10100000352E+00 0.  1.
</event>
<event>
 5   0  0.3685879E-03  0.8974145E+03  0.7818609E-02  0.9428819E-01
        2   -1    0    0  501    0  0.00000000000E+00  0.00000000000E+00  0.38734609021E+03  0.38734609022E+03  0.25500000920E-02 0. -1.
       -2   -1    0    0    0  501  0.00000000000E+00  0.00000000000E+00 -0.51978891546E+03  0.51978891547E+03  0.25500000920E-02 0.  1.
    10030    2    1    2    0    0  0.00000000000E+00  0.00000000000E+00 -0.13244282525E+03  0.90713500568E+03  0.89741451770E+03 0.  0.
        1    1    3    3  502    0  0.43217966938E+03  0.11741380297E+02 -0.18760995336E+03  0.47129037892E+03  0.50400001928E-02 0.  1.
       -1    1    3    3    0  502 -0.43217966938E+03 -0.11741380297E+02  0.55167128111E+02  0.43584462677E+03  0.50400001928E-02 0. -1.
</event>
<event>
 5   0  0.2295158E-03  0.9048331E+03  0.7818609E-02  0.9419560E-01
       -1   -1    0    0    0  501  0.00000000000E+00  0.00000000000E+00  0.16160588833E+03  0.16160588841E+03  0.50400001928E-02 0.  1.
        1   -1    0    0  501    0  0.00000000000E+00  0.00000000000E+00 -0.12665424611E+04  0.12665424611E+04  0.50400001928E-02 0. -1.
    10030    2    1    2    0    0  0.00000000000E+00  0.00000000000E+00 -0.11049365728E+04  0.14281483495E+04  0.90483306660E+03 0.  0.
        4    1    3    3  502    0 -0.95847982033E+01 -0.44927632081E+03 -0.46987901492E+03  0.65017611642E+03  0.12699999809E+01 0.  1.
       -4    1    3    3    0  502  0.95847982033E+01  0.44927632081E+03 -0.63505755784E+03  0.77797223310E+03  0.12699999809E+01 0. -1.
</event>
<event>
 5   0  0.2129280E-03  0.8976083E+03  0.7818609E-02  0.9428576E-01
        1   -1    0    0  501    0  0.00000000000E+00  0.00000000000E+00  0.36228203831E+03  0.36228203834E+03  0.50400001928E-02 0.  1.
       -1   -1    0    0    0  501  0.00000000000E+00  0.00000000000E+00 -0.55598996901E+03  0.55598996903E+03  0.50400001928E-02 0. -1.
    10030    2    1    2    0    0  0.00000000000E+00  0.00000000000E+00 -0.19370793070E+03  0.91827200738E+03  0.89760833169E+03 0.  0.
        3    1    3    3  502    0  0.38180858117E+03  0.76476136611E+02  0.13143967257E+03  0.41097784593E+03  0.10100000352E+00 0.  1.
       -3    1    3    3    0  502 -0.38180858117E+03 -0.76476136611E+02 -0.32514760327E+03  0.50729416144E+03  0.10100000352E+00 0. -1.
</event>
<event>
 5   0  0.2134145E-03  0.8989689E+03  0.7818609E-02  0.9426871E-01
       -1   -1    0    0    0  501  0.00000000000E+00  0.00000000000E+00  0.78274488803E+03  0.78274488804E+03  0.50400001928E-02 0.  1.
        1   -1    0    0  501    0  0.00000000000E+00  0.00000000000E+00 -0.25811252476E+03  0.25811252481E+03  0.50400001928E-02 0. -1.
    10030    2    1    2    0    0  0.00000000000E+00  0.00000000000E+00  0.52463236327E+03  0.10408574128E+04  0.89896887448E+03 0.  0.
        1    1    3    3  502    0  0.36582031352E+03 -0.23255240232E+03  0.39995316592E+03  0.58980306592E+03  0.50400001928E-02 0.  1.
       -1    1    3    3    0  502 -0.36582031352E+03  0.23255240232E+03  0.12467919735E+03  0.45105434693E+03  0.50400001928E-02 0. -1.
</event>
<event>
 5   0  0.1436000E-03  0.8977730E+03  0.7818609E-02  0.9428370E-01
        3   -1    0    0  501    0  0.00000000000E+00  0.00000000000E+00  0.68503429058E+03  0.68503429803E+03  0.10100000352E+00 0. -1.
       -3   -1    0    0    0  501  0.00000000000E+00  0.00000000000E+00 -0.29414449794E+03  0.29414451528E+03  0.10100000352E+00 0.  1.
    10030    2    1    2    0    0  0.00000000000E+00  0.00000000000E+00  0.39088979264E+03  0.97917881331E+03  0.89777297712E+03 0.  0.
        3    1    3    3  502    0  0.11352935764E+03  0.42127703307E+03  0.80349885621E+02  0.44364328910E+03  0.10100000352E+00 0.  1.
       -3    1    3    3    0  502 -0.11352935764E+03 -0.42127703307E+03  0.31053990702E+03  0.53553552421E+03  0.10100000352E+00 0. -1.
</event>
<event>
 5   0  0.2130975E-03  0.9001145E+03  0.7818609E-02  0.9425438E-01
       -1   -1    0    0    0  501  0.00000000000E+00  0.00000000000E+00  0.15310380162E+03  0.15310380170E+03  0.50400001928E-02 0.  1.
        1   -1    0    0  501    0  0.00000000000E+00  0.00000000000E+00 -0.13229687785E+04  0.13229687785E+04  0.50400001928E-02 0. -1.
    10030    2    1    2    0    0  0.00000000000E+00  0.00000000000E+00 -0.11698649769E+04  0.14760725802E+04  0.90011454710E+03 0.  0.
        5    1    3    3  502    0  0.13831429272E+03 -0.15431754368E+03 -0.12400294329E+04  0.12572349949E+04  0.46999998093E+01 0. -1.
       -5    1    3    3    0  502 -0.13831429272E+03  0.15431754368E+03  0.70164456042E+02  0.21883758532E+03  0.46999998093E+01 0.  1.
</event>
<event>
 5   0  0.2129280E-03  0.8998163E+03  0.7818609E-02  0.9425811E-01
        1   -1    0    0  501    0  0.00000000000E+00  0.00000000000E+00  0.13288795082E+04  0.13288795082E+04  0.50400001928E-02 0.  1.
       -1   -1    0    0    0  501  0.00000000000E+00  0.00000000000E+00 -0.15232182782E+03  0.15232182791E+03  0.50400001928E-02 0. -1.
    10030    2    1    2    0    0  0.00000000000E+00  0.00000000000E+00  0.11765576803E+04  0.14812013361E+04  0.89981632727E+03 0.  0.
        3    1    3    3  502    0  0.34365971910E+03  0.10370082600E+03  0.14181585373E+03  0.38596322417E+03  0.10100000352E+00 0. -1.
       -3    1    3    3    0  502 -0.34365971910E+03 -0.10370082600E+03  0.10347418266E+04  0.10952381119E+04  0.10100000352E+00 0.  1.
</event>
<event>
 5   0  0.3663255E-03  0.8987704E+03  0.7818609E-02  0.9427120E-01
        2   -1    0    0  501    0  0.00000000000E+00  0.00000000000E+00  0.69032612083E+03  0.69032612083E+03  0.25500000920E-02 0.  1.
       -2   -1    0    0    0  501  0.00000000000E+00  0.00000000000E+00 -0.29253866040E+03  0.29253866041E+03  0.25500000920E-02 0. -1.
    10030    2    1    2    0    0  0.00000000000E+00  0.00000000000E+00  0.39778746043E+03  0.98286478124E+03  0.89877044596E+03 0.  0.
        4    1    3    3  502    0 -0.19917798994E+03  0.13466844629E+03 -0.21628418280E+03  0.32340056082E+03  0.12699999809E+01 0. -1.
       -4    1    3    3    0  502  0.19917798994E+03 -0.13466844629E+03  0.61407164323E+03  0.65946422043E+03  0.12699999809E+01 0.  1.
</event>
<event>
 5   0  0.3685879E-03  0.8997170E+03  0.7818609E-02  0.9425935E-01
       -2   -1    0    0    0  501  0.00000000000E+00  0.00000000000E+00  0.36467168796E+03  0.36467168797E+03  0.25500000920E-02 0.  1.
        2   -1    0    0  501    0  0.00000000000E+00  0.00000000000E+00 -0.55494485863E+03  0.55494485864E+03  0.25500000920E-02 0. -1.
    10030    2    1    2    0    0  0.00000000000E+00  0.00000000000E+00 -0.19027317068E+03  0.91961654661E+03  0.89971701846E+03 0.  0.
        1    1    3    3  502    0 -0.44970305922E+03  0.49529475592E+01 -0.84161063724E+02  0.45753738409E+03  0.50400001928E-02 0. -1.
       -1    1    3    3    0  502  0.44970305922E+03 -0.49529475592E+01 -0.10611210695E+03  0.46207916252E+03  0.50400001928E-02 0.  1.
</event>
<event>
 5   0  0.2295158E-03  0.8981893E+03  0.7818609E-02  0.9427848E-01
        1   -1    0    0  501    0  0.00000000000E+00  0.00000000000E+00  0.63981185536E+03  0.63981185538E+03  0.50400001928E-02 0.  1.
       -1   -1    0    0    0  501  0.00000000000E+00  0.00000000000E+00 -0.31522707193E+03  0.31522707197E+03  0.50400001928E-02 0. -1.
    10030    2    1    2    0    0  0.00000000000E+00  0.00000000000E+00  0.32458478343E+03  0.95503892735E+03  0.89818932921E+03 0.  0.
        4    1    3    3  502    0  0.11251384221E+03 -0.41300143999E+03  0.17845416725E+02  0.42842692016E+03  0.12699999809E+01 0. -1.
       -4    1    3    3    0  502 -0.11251384221E+03  0.41300143999E+03  0.30673936671E+03  0.52661200718E+03  0.12699999809E+01 0.  1.
</event>
<event>
 5   0  0.3815269E-03  0.9019053E+03  0.7818609E-02  0.9423203E-01
       -2   -1    0    0    0  501  0.00000000000E+00  0.00000000000E+00  0.17758298741E+03  0.17758298743E+03  0.25500000920E-02 0.  1.
        2   -1    0    0  501    0  0.00000000000E+00  0.00000000000E+00 -0.11451451090E+04  0.11451451090E+04  0.25500000920E-02 0. -1.
    10030    2    1    2    0    0  0.00000000000E+00  0.00000000000E+00 -0.96756212157E+03  0.13227280964E+04  0.90190529322E+03 0.  0.
        5    1    3    3  502    0  0.40566057560E+03  0.19381536247E+03 -0.53482402518E+03  0.69870145644E+03  0.46999998093E+01 0.  1.
       -5    1    3    3    0  502 -0.40566057560E+03 -0.19381536247E+03 -0.43273809639E+03  0.62402663997E+03  0.46999998093E+01 0. -1.
</event>
<event>
 5   0  0.2295158E-03  0.9027645E+03  0.7818609E-02  0.9422132E-01
       -1   -1    0    0    0  501  0.00000000000E+00  0.00000000000E+00  0.16218222606E+03  0.16218222614E+03  0.50400001928E-02 0.  1.
        1   -1    0    0  501    0  0.00000000000E+00  0.00000000000E+00 -0.12562778056E+04  0.12562778057E+04  0.50400001928E-02 0. -1.
    10030    2    1    2    0    0  0.00000000000E+00  0.00000000000E+00 -0.10940955796E+04  0.14184600318E+04  0.90276449007E+03 0.  0.
        4    1    3    3  502    0  0.20062619428E+03  0.20521553208E+03  0.36666652645E+00  0.28699482884E+03  0.12699999809E+01 0.  1.
       -4    1    3    3    0  502 -0.20062619428E+03 -0.20521553208E+03 -0.10944622461E+04  0.11314652030E+04  0.12699999809E+01 0. -1.
</event>
<event>
 5   0  0.2134145E-03  0.9032224E+03  0.7818609E-02  0.9421562E-01
       -1   -1    0    0    0  501  0.00000000000E+00  0.00000000000E+00  0.33328958380E+03  0.33328958384E+03  0.50400001928E-02 0. -1.
        1   -1    0    0  501    0  0.00000000000E+00  0.00000000000E+00 -0.61193838979E+03  0.61193838981E+03  0.50400001928E-02 0.  1.
    10030    2    1    2    0    0  0.00000000000E+00  0.00000000000E+00 -0.27864880599E+03  0.94522797365E+03  0.90322243390E+03 0.  0.
        1    1    3    3  502    0  0.11990752680E+03  0.10380619863E+03 -0.58183591582E+03  0.60306432063E+03  0.50400001928E-02 0.  1.
       -1    1    3    3    0  502 -0.11990752680E+03 -0.10380619863E+03  0.30318710983E+03  0.34216365302E+03  0.50400001928E-02 0. -1.
</event>
<event>
 5   0  0.2134145E-03  0.9016595E+03  0.7818609E-02  0.9423509E-01
        1   -1    0    0  501    0  0.00000000000E+00  0.00000000000E+00  0.21292211173E+03  0.21292211179E+03  0.50400001928E-02 0.  1.
       -1   -1    0    0    0  501  0.00000000000E+00  0.00000000000E+00 -0.95456241191E+03  0.95456241193E+03  0.50400001928E-02 0. -1.
    10030    2    1    2    0    0  0.00000000000E+00  0.00000000000E+00 -0.74164030019E+03  0.11674845237E+04  0.90165945803E+03 0.  0.
        1    1    3    3  502    0 -0.21751893268E+03  0.36318565671E+03 -0.17010614437E+03  0.45623941927E+03  0.50400001928E-02 0.  1.
       -1    1    3    3    0  502  0.21751893268E+03 -0.36318565671E+03 -0.57153415581E+03  0.71124510445E+03  0.50400001928E-02 0. -1.
</event>
<event>
 5   0  0.2129280E-03  0.8936213E+03  0.7818609E-02  0.9433590E-01
       -1   -1    0    0    0  501  0.00000000000E+00  0.00000000000E+00  0.47016777217E+03  0.47016777219E+03  0.50400001928E-02 0. -1.
        1   -1    0    0  501    0  0.00000000000E+00  0.00000000000E+00 -0.42461387936E+03  0.42461387939E+03  0.50400001928E-02 0.  1.
    10030    2    1    2    0    0  0.00000000000E+00  0.00000000000E+00  0.45553892809E+02  0.89478165158E+03  0.89362131066E+03 0.  0.
        3    1    3    3  502    0  0.35764734533E+03 -0.24548484305E+03 -0.84438322163E+02  0.44193242950E+03  0.10100000352E+00 0.  1.
       -3    1    3    3    0  502 -0.35764734533E+03  0.24548484305E+03  0.12999221497E+03  0.45284922209E+03  0.10100000352E+00 0. -1.
</event>
<event>
 5   0  0.3815269E-03  0.8941438E+03  0.7818609E-02  0.9432932E-01
        2   -1    0    0  501    0  0.00000000000E+00  0.00000000000E+00  0.20884315342E+04  0.20884315342E+04  0.25500000920E-02 0.  1.
       -2   -1    0    0    0  501  0.00000000000E+00  0.00000000000E+00 -0.95704979996E+02  0.95704980030E+02  0.25500000920E-02 0. -1.
    10030    2    1    2    0    0  0.00000000000E+00  0.00000000000E+00  0.19927265542E+04  0.21841365143E+04  0.89414383238E+03 0.  0.
        5    1    3    3  502    0 -0.37397101463E+03 -0.19778655764E+02  0.39999262146E+03  0.54796140579E+03  0.46999998093E+01 0. -1.
       -5    1    3    3    0  502  0.37397101463E+03  0.19778655764E+02  0.15927339328E+04  0.16361751085E+04  0.46999998093E+01 0.  1.
</event>
<event>
 5   0  0.3685879E-03  0.9015771E+03  0.7818609E-02  0.9423612E-01
        2   -1    0    0  501    0  0.00000000000E+00  0.00000000000E+00  0.84690880263E+03  0.84690880264E+03  0.25500000920E-02 0.  1.
       -2   -1    0    0    0  501  0.00000000000E+00  0.00000000000E+00 -0.23994354530E+03  0.23994354531E+03  0.25500000920E-02 0. -1.
    10030    2    1    2    0    0  0.00000000000E+00  0.00000000000E+00  0.60696525734E+03  0.10868523479E+04  0.90157706416E+03 0.  0.
        1    1    3    3  502    0 -0.25150147330E+02 -0.44991493104E+03  0.31845831041E+03  0.55178951655E+03  0.50400001928E-02 0.  1.
       -1    1    3    3    0  502  0.25150147330E+02  0.44991493104E+03  0.28850694693E+03  0.53506283139E+03  0.50400001928E-02 0. -1.
</event>
<event>
 5   0  0.2295158E-03  0.9040628E+03  0.7818609E-02  0.9420517E-01
        1   -1    0    0  501    0  0.00000000000E+00  0.00000000000E+00  0.11938692949E+04  0.11938692949E+04  0.50400001928E-02 0. -1.
       -1   -1    0    0    0  501  0.00000000000E+00  0.00000000000E+00 -0.17115138556E+03  0.17115138563E+03  0.50400001928E-02 0.  1.
    10030    2    1    2    0    0  0.00000000000E+00  0.00000000000E+00  0.10227179093E+04  0.13650206806E+04  0.90406279441E+03 0.  0.
        4    1    3    3  502    0 -0.30729971190E+03  0.71332950559E+02  0.10001694016E+04  0.10487430322E+04  0.12699999809E+01 0. -1.
       -4    1    3    3    0  502  0.30729971190E+03 -0.71332950559E+02  0.22548507778E+02  0.31627764839E+03  0.12699999809E+01 0.  1.
</event>
<event>
 5   0  0.2129280E-03  0.9010771E+03  0.7818609E-02  0.9424236E-01
       -1   -1    0    0    0  501  0.00000000000E+00  0.00000000000E+00  0.69604976283E+03  0.69604976285E+03  0.50400001928E-02 0. -1.
        1   -1    0    0  501    0  0.00000000000E+00  0.00000000000E+00 -0.29162427316E+03  0.29162427320E+03  0.50400001928E-02 0.  1.
    10030    2    1    2    0    0  0.00000000000E+00  0.00000000000E+00  0.40442548968E+03  0.98767403605E+03  0.90107714697E+03 0.  0.
        3    1    3    3  502    0 -0.25735624988E+03 -0.25592877992E+03 -0.90373495330E+02  0.37403095941E+03  0.10100000352E+00 0.  1.
       -3    1    3    3    0  502  0.25735624988E+03  0.25592877992E+03  0.49479898501E+03  0.61364307664E+03  0.10100000352E+00 0. -1.
</event>
<event>
 5   0  0.3815269E-03  0.8959385E+03  0.7818609E-02  0.9430673E-01
        2   -1    0    0  501    0  0.00000000000E+00  0.00000000000E+00  0.59584017115E+03  0.59584017115E+03  0.25500000920E-02 0. -1.
       -2   -1    0    0    0  501  0.00000000000E+00  0.00000000000E+00 -0.33679577579E+03  0.33679577580E+03  0.25500000920E-02 0.  1.
    10030    2    1    2    0    0  0.00000000000E+00  0.00000000000E+00  0.25904439536E+03  0.93263594695E+03  0.89593850837E+03 0.  0.
        5    1    3    3  502    0 -0.10082018535E+03 -0.37548297314E+03 -0.10208185403E+03  0.40198876578E+03  0.46999998093E+01 0.  1.
       -5    1    3    3    0  502  0.10082018535E+03  0.37548297314E+03  0.36112624939E+03  0.53064718117E+03  0.46999998093E+01 0. -1.
</event>
<event>
 5   0  0.2129280E-03  0.8956517E+03  0.7818609E-02  0.9431033E-01
       -1   -1    0    0    0  501  0.00000000000E+00  0.00000000000E+00  0.44129195261E+03  0.44129195264E+03  0.50400001928E-02 0. -1.
        1   -1    0    0  501    0  0.00000000000E+00  0.00000000000E+00 -0.45445647922E+03  0.45445647925E+03  0.50400001928E-02 0.  1.
    10030    2    1    2    0    0  0.00000000000E+00  0.00000000000E+00 -0.13164526614E+02  0.89574843189E+03  0.89565168926E+03 0.  0.
        3    1    3    3  502    0 -0.68460893775E+02 -0.31828237119E+03 -0.31411737223E+03  0.45239396053E+03  0.10100000352E+00 0.  1.
       -3    1    3    3    0  502  0.68460893775E+02  0.31828237119E+03  0.30095284561E+03  0.44335447136E+03  0.10100000352E+00 0. -1.
</event>
<event>
 5   0  0.2129280E-03  0.8987356E+03  0.7818609E-02  0.9427163E-01
        1   -1    0    0  501    0  0.00000000000E+00  0.00000000000E+00  0.55803980987E+03  0.55803980989E+03  0.50400001928E-02 0. -1.
       -1   -1    0    0    0  501  0.00000000000E+00  0.00000000000E+00 -0.36185845360E+03  0.36185845364E+03  0.50400001928E-02 0.  1.
    10030    2    1    2    0    0  0.00000000000E+00  0.00000000000E+00  0.19618135627E+03  0.91989826353E+03  0.89873560667E+03 0.  0.
        3    1    3    3  502    0  0.34294915357E+03  0.15177475269E+03  0.35147124661E+03  0.51398613297E+03  0.10100000352E+00 0. -1.
       -3    1    3    3    0  502 -0.34294915357E+03 -0.15177475269E+03 -0.15528989034E+03  0.40591213056E+03  0.10100000352E+00 0.  1.
</event>
<event>
 5   0  0.3663255E-03  0.8997058E+03  0.7818609E-02  0.9425949E-01
       -2   -1    0    0    0  501  0.00000000000E+00  0.00000000000E+00  0.31579040790E+03  0.31579040791E+03  0.25500000920E-02 0. -1.
        2   -1    0    0  501    0  0.00000000000E+00  0.00000000000E+00 -0.64082896017E+03  0.64082896018E+03  0.25500000920E-02 0.  1.
    10030    2    1    2    0    0  0.00000000000E+00  0.00000000000E+00 -0.32503855228E+03  0.95661936809E+03  0.89970581577E+03 0.  0.
        4    1    3    3  502    0 -0.10575945468E+03 -0.13079224220E+03 -0.60613408607E+03  0.62904039304E+03  0.12699999809E+01 0.  1.
       -4    1    3    3    0  502  0.10575945468E+03  0.13079224220E+03  0.28109553380E+03  0.32757897505E+03  0.12699999809E+01 0. -1.
</event>
<event>
 5   0  0.3806019E-03  0.9045784E+03  0.7818609E-02  0.9419876E-01
        2   -1    0    0  501    0  0.00000000000E+00  0.00000000000E+00  0.49475258485E+03  0.49475258486E+03  0.25500000920E-02 0.  1.
       -2   -1    0    0    0  501  0.00000000000E+00  0.00000000000E+00 -0.41347037727E+03  0.41347037728E+03  0.25500000920E-02 0. -1.
    10030    2    1    2    0    0  0.00000000000E+00  0.00000000000E+00  0.81282207575E+02  0.90822296214E+03  0.90457843866E+03 0.  0.
        2    1    3    3  502    0 -0.48280419809E+02  0.10693962821E+03 -0.39792359644E+03  0.41486175002E+03  0.25500000920E-02 0. -1.
       -2    1    3    3    0  502  0.48280419809E+02 -0.10693962821E+03  0.47920580401E+03  0.49336121212E+03  0.25500000920E-02 0.  1.
</event>
<event>
 5   0  0.2074970E-03  0.8647824E+03  0.7818609E-02  0.9470708E-01
       -1   -1    0    0    0  501  0.00000000000E+00  0.00000000000E+00  0.54470838642E+03  0.54470838644E+03  0.50400001928E-02 0. -1.
        1   -1    0    0  501    0  0.00000000000E+00  0.00000000000E+00 -0.34323350498E+03  0.34323350502E+03  0.50400001928E-02 0.  1.
    10030    2    1    2    0    0  0.00000000000E+00  0.00000000000E+00  0.20147488144E+03  0.88794189146E+03  0.86478244360E+03 0.  0.
        2    1    3    3  502    0  0.38352613707E+03 -0.27685265319E+02 -0.10230411147E+03  0.39790061945E+03  0.25500000920E-02 0.  1.
       -2    1    3    3    0  502 -0.38352613707E+03  0.27685265319E+02  0.30377899290E+03  0.49004127200E+03  0.25500000920E-02 0. -1.
</event>
<event>
 5   0  0.3806019E-03  0.8998059E+03  0.7818609E-02  0.9425824E-01
        2   -1    0    0  501    0  0.00000000000E+00  0.00000000000E+00  0.18549676245E+04  0.18549676245E+04  0.25500000920E-02 0. -1.
       -2   -1    0    0    0  501  0.00000000000E+00  0.00000000000E+00 -0.10911923177E+03  0.10911923180E+03  0.25500000920E-02 0.  1.
    10030    2    1    2    0    0  0.00000000000E+00  0.00000000000E+00  0.17458483927E+04  0.19640868563E+04  0.89980585055E+03 0.  0.
        2    1    3    3  502    0  0.44164182930E+03 -0.33496529499E+02  0.70045454195E+03  0.82873764740E+03  0.25500000920E-02 0.  1.
       -2    1    3    3    0  502 -0.44164182930E+03  0.33496529499E+02  0.10453938508E+04  0.11353492089E+04  0.25500000920E-02 0. -1.
</event>
<event>
 5   0  0.2074970E-03  0.9007271E+03  0.7818609E-02  0.9424673E-01
        1   -1    0    0  501    0  0.00000000000E+00  0.00000000000E+00  0.13696939908E+03  0.13696939917E+03  0.50400001928E-02 0. -1.
       -1   -1    0    0    0  501  0.00000000000E+00  0.00000000000E+00 -0.14808222335E+04  0.14808222335E+04  0.50400001928E-02 0.  1.
    10030    2    1    2    0    0  0.00000000000E+00  0.00000000000E+00 -0.13438528344E+04  0.16177916326E+04  0.90072710970E+03 0.  0.
        2    1    3    3  502    0  0.32963638441E+03  0.26937522103E+03 -0.93592293778E+03  0.10281901094E+04  0.25500000920E-02 0. -1.
       -2    1    3    3    0  502 -0.32963638441E+03 -0.26937522103E+03 -0.40792989660E+03  0.58960152322E+03  0.25500000920E-02 0.  1.
</event>
<event>
 5   0  0.1436000E-03  0.9002999E+03  0.7818609E-02  0.9425207E-01
       -3   -1    0    0    0  501  0.00000000000E+00  0.00000000000E+00  0.60385989257E+03  0.60385990101E+03  0.10100000352E+00 0.  1.
        3   -1    0    0  501    0  0.00000000000E+00  0.00000000000E+00 -0.33556617753E+03  0.33556619273E+03  0.10100000352E+00 0. -1.
    10030    2    1    2    0    0  0.00000000000E+00  0.00000000000E+00  0.26829371504E+03  0.93942609375E+03  0.90029987675E+03 0.  0.
        2    1    3    3  502    0  0.18593488766E+03  0.34804091305E+03 -0.91902865221E+02  0.40515478061E+03  0.25500000920E-02 0. -1.
       -2    1    3    3    0  502 -0.18593488766E+03 -0.34804091305E+03  0.36019658026E+03  0.53427131314E+03  0.25500000920E-02 0.  1.
</event>
<event>
 5   0  0.2134145E-03  0.9000677E+03  0.7818609E-02  0.9425497E-01
       -1   -1    0    0    0  501  0.00000000000E+00  0.00000000000E+00  0.21650507173E+03  0.21650507179E+03  0.50400001928E-02 0.  1.
        1   -1    0    0  501    0  0.00000000000E+00  0.00000000000E+00 -0.93545357983E+03  0.93545357984E+03  0.50400001928E-02 0. -1.
    10030    2    1    2    0    0  0.00000000000E+00  0.00000000000E+00 -0.71894850810E+03  0.11519586516E+04  0.90006765177E+03 0.  0.
        1    1    3    3  502    0  0.42832077167E+03  0.35024935169E+02 -0.18850414267E+03  0.46927522986E+03  0.50400001928E-02 0.  1.
       -1    1    3    3    0  502 -0.42832077167E+03 -0.35024935169E+02 -0.53044436542E+03  0.68268342177E+03  0.50400001928E-02 0. -1.
</event>
<event>
 5   0  0.3806019E-03  0.9001847E+03  0.7818609E-02  0.9425351E-01
        2   -1    0    0  501    0  0.00000000000E+00  0.00000000000E+00  0.19713435445E+04  0.19713435445E+04  0.25500000920E-02 0.  1.
       -2   -1    0    0    0  501  0.00000000000E+00  0.00000000000E+00 -0.10276398926E+03  0.10276398929E+03  0.25500000920E-02 0. -1.
    10030    2    1    2    0    0  0.00000000000E+00  0.00000000000E+00  0.18685795552E+04  0.20741075338E+04  0.90018470741E+03 0.  0.
        2    1    3    3  502    0 -0.13599377524E+03  0.10159331306E+03  0.18947603497E+04  0.19023491507E+04  0.25500000920E-02 0.  1.
       -2    1    3    3    0  502  0.13599377524E+03 -0.10159331306E+03 -0.26180794489E+02  0.17175838311E+03  0.25500000920E-02 0. -1.
</event>
<event>
 5   0  0.3663255E-03  0.9000785E+03  0.7818609E-02  0.9425483E-01
       -2   -1    0    0    0  501  0.00000000000E+00  0.00000000000E+00  0.25069601839E+03  0.25069601841E+03  0.25500000920E-02 0.  1.
        2   -1    0    0  501    0  0.00000000000E+00  0.00000000000E+00 -0.80789208626E+03  0.80789208626E+03  0.25500000920E-02 0. -1.
    10030    2    1    2    0    0  0.00000000000E+00  0.00000000000E+00 -0.55719606787E+03  0.10585881047E+04  0.90007850619E+03 0.  0.
        4    1    3    3  502    0  0.31210883016E+03 -0.76841121787E+01 -0.65981392730E+03  0.72994999760E+03  0.12699999809E+01 0. -1.
       -4    1    3    3    0  502 -0.31210883016E+03  0.76841121787E+01  0.10261785943E+03  0.32863810707E+03  0.12699999809E+01 0.  1.
</event>
<event>
 5   0  0.3685879E-03  0.8970564E+03  0.7818609E-02  0.9429269E-01
        2   -1    0    0  501    0  0.00000000000E+00  0.00000000000E+00  0.80126090519E+03  0.80126090519E+03  0.25500000920E-02 0.  1.
       -2   -1    0    0    0  501  0.00000000000E+00  0.00000000000E+00 -0.25107620495E+03  0.25107620497E+03  0.25500000920E-02 0. -1.
    10030    2    1    2    0    0  0.00000000000E+00  0.00000000000E+00  0.55018470024E+03  0.10523371102E+04  0.89705640238E+03 0.  0.
        1    1    3    3  502    0  0.17910025235E+03  0.21832725368E+03 -0.13370213723E+03  0.31244191719E+03  0.50400001928E-02 0. -1.
       -1    1    3    3    0  502 -0.17910025235E+03 -0.21832725368E+03  0.68388683747E+03  0.73989519297E+03  0.50400001928E-02 0.  1.
</event>
<event>
 5   0  0.3685879E-03  0.8978878E+03  0.7818609E-02  0.9428226E-01
       -2   -1    0    0    0  501  0.00000000000E+00  0.00000000000E+00  0.73742661830E+03  0.73742661831E+03  0.25500000920E-02 0. -1.
        2   -1    0    0  501    0  0.00000000000E+00  0.00000000000E+00 -0.27331616122E+03  0.27331616123E+03  0.25500000920E-02 0.  1.
    10030    2    1    2    0    0  0.00000000000E+00  0.00000000000E+00  0.46411045708E+03  0.10107427795E+04  0.89788777140E+03 0.  0.
        1    1    3    3  502    0  0.31973307095E+03  0.11378725434E+03  0.56288889349E+03  0.65728280241E+03  0.50400001928E-02 0. -1.
       -1    1    3    3    0  502 -0.31973307095E+03 -0.11378725434E+03 -0.98778436404E+02  0.35345997713E+03  0.50400001928E-02 0.  1.
</event>
<event>
 5   0  0.2074970E-03  0.8993246E+03  0.7818609E-02  0.9426426E-01
        1   -1    0    0  501    0  0.00000000000E+00  0.00000000000E+00  0.45802303506E+03  0.45802303509E+03  0.50400001928E-02 0.  1.
       -1   -1    0    0    0  501  0.00000000000E+00  0.00000000000E+00 -0.44145417364E+03  0.44145417367E+03  0.50400001928E-02 0. -1.
    10030    2    1    2    0    0  0.00000000000E+00  0.00000000000E+00  0.16568861420E+02  0.89947720876E+03  0.89932459208E+03 0.  0.
        2    1    3    3  502    0  0.12149579937E+03 -0.35843282033E+03 -0.23457535950E+03  0.44526499441E+03  0.25500000920E-02 0. -1.
       -2    1    3    3    0  502 -0.12149579937E+03  0.35843282033E+03  0.25114422092E+03  0.45421221435E+03  0.25500000920E-02 0.  1.
</event>
<event>
 5   0  0.1436000E-03  0.9162976E+03  0.7818609E-02  0.9405435E-01
       -4   -1    0    0    0  501  0.00000000000E+00  0.00000000000E+00  0.14300382663E+04  0.14300388302E+04  0.12699999809E+01 0.  1.
        4   -1    0    0  501    0  0.00000000000E+00  0.00000000000E+00 -0.14677616555E+03  0.14678165986E+03  0.12699999809E+01 0. -1.
    10030    2    1    2    0    0  0.00000000000E+00  0.00000000000E+00  0.12832621007E+04  0.15768204901E+04  0.91629757107E+03 0.  0.
        1    1    3    3  502    0 -0.51272422033E+02  0.32005094387E+03  0.84436543158E+02  0.33494924657E+03  0.50400001928E-02 0. -1.
       -1    1    3    3    0  502  0.51272422033E+02 -0.32005094387E+03  0.11988255576E+04  0.12418712435E+04  0.50400001928E-02 0.  1.
</event>
<event>
 5   0  0.3685879E-03  0.8971395E+03  0.7818609E-02  0.9429164E-01
       -2   -1    0    0    0  501  0.00000000000E+00  0.00000000000E+00  0.19946124822E+03  0.19946124824E+03  0.25500000920E-02 0.  1.
        2   -1    0    0  501    0  0.00000000000E+00  0.00000000000E+00 -0.10087916325E+04  0.10087916325E+04  0.25500000920E-02 0. -1.
    10030    2    1    2    0    0  0.00000000000E+00  0.00000000000E+00 -0.80933038427E+03  0.12082528807E+04  0.89713953925E+03 0.  0.
        1    1    3    3  502    0 -0.44530172382E+02  0.79245341318E+02 -0.99625757226E+03  0.10003958770E+04  0.50400001928E-02 0. -1.
       -1    1    3    3    0  502  0.44530172382E+02 -0.79245341318E+02  0.18692718799E+03  0.20785700375E+03  0.50400001928E-02 0.  1.
</event>
<event>
 5   0  0.3815269E-03  0.9045744E+03  0.7818609E-02  0.9419881E-01
       -2   -1    0    0    0  501  0.00000000000E+00  0.00000000000E+00  0.25822226704E+03  0.25822226706E+03  0.25500000920E-02 0. -1.
        2   -1    0    0  501    0  0.00000000000E+00  0.00000000000E+00 -0.79220013810E+03  0.79220013810E+03  0.25500000920E-02 0.  1.
    10030    2    1    2    0    0  0.00000000000E+00  0.00000000000E+00 -0.53397787106E+03  0.10504224052E+04  0.90457440959E+03 0.  0.
        5    1    3    3  502    0  0.15998778145E+02  0.72478338717E+02  0.25107306510E+03  0.26185653420E+03  0.46999998093E+01 0. -1.
       -5    1    3    3    0  502 -0.15998778145E+02 -0.72478338717E+02 -0.78505093616E+03  0.78856587096E+03  0.46999998093E+01 0.  1.
</event>
<event>
 5   0  0.3663255E-03  0.9024919E+03  0.7818609E-02  0.9422472E-01
       -2   -1    0    0    0  501  0.00000000000E+00  0.00000000000E+00  0.25357184009E+03  0.25357184011E+03  0.25500000920E-02 0.  1.
        2   -1    0    0  501    0  0.00000000000E+00  0.00000000000E+00 -0.80301868856E+03  0.80301868856E+03  0.25500000920E-02 0. -1.
    10030    2    1    2    0    0  0.00000000000E+00  0.00000000000E+00 -0.54944684847E+03  0.10565905287E+04  0.90249194234E+03 0.  0.
        4    1    3    3  502    0  0.19128076905E+03 -0.68671834569E+02  0.19695455158E+03  0.28301388970E+03  0.12699999809E+01 0.  1.
       -4    1    3    3    0  502 -0.19128076905E+03  0.68671834569E+02 -0.74640140005E+03  0.77357663897E+03  0.12699999809E+01 0. -1.
</event>
<event>
 5   0  0.2134145E-03  0.8997781E+03  0.7818609E-02  0.9425859E-01
       -1   -1    0    0    0  501  0.00000000000E+00  0.00000000000E+00  0.44110648180E+03  0.44110648183E+03  0.50400001928E-02 0. -1.
        1   -1    0    0  501    0  0.00000000000E+00  0.00000000000E+00 -0.45884648567E+03  0.45884648570E+03  0.50400001928E-02 0.  1.
    10030    2    1    2    0    0  0.00000000000E+00  0.00000000000E+00 -0.17740003869E+02  0.89995296753E+03  0.89977810377E+03 0.  0.
        1    1    3    3  502    0 -0.14624028881E+03  0.39587260928E+03 -0.16478106492E+03  0.45304982533E+03  0.50400001928E-02 0.  1.
       -1    1    3    3    0  502  0.14624028881E+03 -0.39587260928E+03  0.14704106105E+03  0.44690314220E+03  0.50400001928E-02 0. -1.
</event>
<event>
 5   0  0.3626546E-03  0.8525366E+03  0.7818609E-02  0.9486939E-01
        2   -1    0    0  501    0  0.00000000000E+00  0.00000000000E+00  0.71426977657E+03  0.71426977657E+03  0.25500000920E-02 0.  1.
       -2   -1    0    0    0  501  0.00000000000E+00  0.00000000000E+00 -0.25439223189E+03  0.25439223191E+03  0.25500000920E-02 0. -1.
    10030    2    1    2    0    0  0.00000000000E+00  0.00000000000E+00  0.45987754467E+03  0.96866200848E+03  0.85253664471E+03 0.  0.
        3    1    3    3  502    0 -0.12653204983E+03  0.11507654059E+03  0.67357331159E+03  0.69494890900E+03  0.10100000352E+00 0.  1.
       -3    1    3    3    0  502  0.12653204983E+03 -0.11507654059E+03 -0.21369576692E+03  0.27371309948E+03  0.10100000352E+00 0. -1.
</event>
<event>
 5   0  0.3685879E-03  0.8984973E+03  0.7818609E-02  0.9427462E-01
        2   -1    0    0  501    0  0.00000000000E+00  0.00000000000E+00  0.52802655640E+03  0.52802655641E+03  0.25500000920E-02 0. -1.
       -2   -1    0    0    0  501  0.00000000000E+00  0.00000000000E+00 -0.38222388431E+03  0.38222388432E+03  0.25500000920E-02 0.  1.
    10030    2    1    2    0    0  0.00000000000E+00  0.00000000000E+00  0.14580267209E+03  0.91025044073E+03  0.89849732646E+03 0.  0.
        1    1    3    3  502    0 -0.31295904813E+03 -0.27095033474E+03 -0.10392963246E+03  0.42680067740E+03  0.50400001928E-02 0.  1.
       -1    1    3    3    0  502  0.31295904813E+03  0.27095033474E+03  0.24973230454E+03  0.48344976333E+03  0.50400001928E-02 0. -1.
</event>
<event>
 5   0  0.2295158E-03  0.9043510E+03  0.7818609E-02  0.9420159E-01
       -1   -1    0    0    0  501  0.00000000000E+00  0.00000000000E+00  0.47414058197E+03  0.47414058199E+03  0.50400001928E-02 0.  1.
        1   -1    0    0  501    0  0.00000000000E+00  0.00000000000E+00 -0.43122796886E+03  0.43122796889E+03  0.50400001928E-02 0. -1.
    10030    2    1    2    0    0  0.00000000000E+00  0.00000000000E+00  0.42912613111E+02  0.90536855088E+03  0.90435099412E+03 0.  0.
        4    1    3    3  502    0 -0.33316599703E+03 -0.14336479050E+03  0.29177497769E+03  0.46549682624E+03  0.12699999809E+01 0.  1.
       -4    1    3    3    0  502  0.33316599703E+03  0.14336479050E+03 -0.24886236458E+03  0.43987172464E+03  0.12699999809E+01 0. -1.
</event>
<event>
 5   0  0.3626546E-03  0.9173226E+03  0.7818609E-02  0.9404183E-01
        2   -1    0    0  501    0  0.00000000000E+00  0.00000000000E+00  0.35662359733E+03  0.35662359734E+03  0.25500000920E-02 0.  1.
       -2   -1    0    0    0  501  0.00000000000E+00  0.00000000000E+00 -0.58989425161E+03  0.58989425161E+03  0.25500000920E-02 0. -1.
    10030    2    1    2    0    0  0.00000000000E+00  0.00000000000E+00 -0.23327065427E+03  0.94651784895E+03  0.91732264784E+03 0.  0.
        3    1    3    3  502    0  0.25334817917E+03 -0.38185138497E+03 -0.13660109770E+03  0.47817951669E+03  0.10100000352E+00 0.  1.
       -3    1    3    3    0  502 -0.25334817917E+03  0.38185138497E+03 -0.96669556577E+02  0.46833833226E+03  0.10100000352E+00 0. -1.
</event>
<event>
 5   0  0.3685879E-03  0.8922226E+03  0.7818609E-02  0.9435356E-01
       -2   -1    0    0    0  501  0.00000000000E+00  0.00000000000E+00  0.22068962962E+03  0.22068962964E+03  0.25500000920E-02 0. -1.
        2   -1    0    0  501    0  0.00000000000E+00  0.00000000000E+00 -0.90178811357E+03  0.90178811358E+03  0.25500000920E-02 0.  1.
    10030    2    1    2    0    0  0.00000000000E+00  0.00000000000E+00 -0.68109848395E+03  0.11224777432E+04  0.89222258387E+03 0.  0.
        1    1    3    3  502    0 -0.79514471407E+02  0.31642470401E+01 -0.89278676454E+03  0.89632626347E+03  0.50400001928E-02 0.  1.
       -1    1    3    3    0  502  0.79514471407E+02 -0.31642470401E+01  0.21168828059E+03  0.22615147974E+03  0.50400001928E-02 0. -1.
</event>
<event>
 5   0  0.2074970E-03  0.8840458E+03  0.7818609E-02  0.9445748E-01
        1   -1    0    0  501    0  0.00000000000E+00  0.00000000000E+00  0.86775765040E+03  0.86775765042E+03  0.50400001928E-02 0. -1.
       -1   -1    0    0    0  501  0.00000000000E+00  0.00000000000E+00 -0.22515989878E+03  0.22515989884E+03  0.50400001928E-02 0.  1.
    10030    2    1    2    0    0  0.00000000000E+00  0.00000000000E+00  0.64259775162E+03  0.10929175493E+04  0.88404575622E+03 0.  0.
        2    1    3    3  502    0 -0.11002393556E+02 -0.42951805154E+03  0.19295653110E+03  0.47099791099E+03  0.25500000920E-02 0.  1.
       -2    1    3    3    0  502  0.11002393556E+02  0.42951805154E+03  0.44964122052E+03  0.62191963826E+03  0.25500000920E-02 0. -1.
</event>
<event>
 5   0  0.3815269E-03  0.9002258E+03  0.7818609E-02  0.9425299E-01
        2   -1    0    0  501    0  0.00000000000E+00  0.00000000000E+00  0.98833299291E+03  0.98833299292E+03  0.25500000920E-02 0.  1.
       -2   -1    0    0    0  501  0.00000000000E+00  0.00000000000E+00 -0.20499327309E+03  0.20499327310E+03  0.25500000920E-02 0. -1.
    10030    2    1    2    0    0  0.00000000000E+00  0.00000000000E+00  0.78333971982E+03  0.11933262660E+04  0.90022578308E+03 0.  0.
        5    1    3    3  502    0  0.14667400989E+03  0.15780067969E+03  0.91551134752E+03  0.94053040202E+03  0.46999998093E+01 0.  1.
       -5    1    3    3    0  502 -0.14667400989E+03 -0.15780067969E+03 -0.13217162770E+03  0.25279586400E+03  0.46999998093E+01 0. -1.
</event>
<event>
 5   0  0.2134145E-03  0.8980799E+03  0.7818609E-02  0.9427985E-01
        1   -1    0    0  501    0  0.00000000000E+00  0.00000000000E+00  0.13727120011E+04  0.13727120011E+04  0.50400001928E-02 0. -1.
       -1   -1    0    0    0  501  0.00000000000E+00  0.00000000000E+00 -0.14688942924E+03  0.14688942933E+03  0.50400001928E-02 0.  1.
    10030    2    1    2    0    0  0.00000000000E+00  0.00000000000E+00  0.12258225718E+04  0.15196014304E+04  0.89807991276E+03 0.  0.
        1    1    3    3  502    0  0.15420992726E+03 -0.21161884097E+03 -0.43382050357E+01  0.26188175875E+03  0.50400001928E-02 0.  1.
       -1    1    3    3    0  502 -0.15420992726E+03  0.21161884097E+03  0.12301607769E+04  0.12577196717E+04  0.50400001928E-02 0. -1.
</event>
<event>
 5   0  0.3685879E-03  0.8994440E+03  0.7818609E-02  0.9426277E-01
        2   -1    0    0  501    0  0.00000000000E+00  0.00000000000E+00  0.28092185377E+03  0.28092185378E+03  0.25500000920E-02 0.  1.
       -2   -1    0    0    0  501  0.00000000000E+00  0.00000000000E+00 -0.71995070452E+03  0.71995070452E+03  0.25500000920E-02 0. -1.
    10030    2    1    2    0    0  0.00000000000E+00  0.00000000000E+00 -0.43902885074E+03  0.10008725583E+04  0.89944402059E+03 0.  0.
        1    1    3    3  502    0  0.32744745431E+03 -0.25190122248E+03 -0.21786393352E+02  0.41370364777E+03  0.50400001928E-02 0.  1.
       -1    1    3    3    0  502 -0.32744745431E+03  0.25190122248E+03 -0.41724245739E+03  0.58716891053E+03  0.50400001928E-02 0. -1.
</event>
<event>
 5   0  0.3806019E-03  0.9004026E+03  0.7818609E-02  0.9425078E-01
        2   -1    0    0  501    0  0.00000000000E+00  0.00000000000E+00  0.49323176167E+03  0.49323176168E+03  0.25500000920E-02 0. -1.
       -2   -1    0    0    0  501  0.00000000000E+00  0.00000000000E+00 -0.41092493116E+03  0.41092493117E+03  0.25500000920E-02 0.  1.
    10030    2    1    2    0    0  0.00000000000E+00  0.00000000000E+00  0.82306830509E+02  0.90415669285E+03  0.90040263820E+03 0.  0.
        2    1    3    3  502    0 -0.53299240974E+02  0.31448671703E+03  0.36018627463E+03  0.48112041811E+03  0.25500000920E-02 0. -1.
       -2    1    3    3    0  502  0.53299240974E+02 -0.31448671703E+03 -0.27787944412E+03  0.42303627475E+03  0.25500000920E-02 0.  1.
</event>
<event>
 5   0  0.2130975E-03  0.8874280E+03  0.7818609E-02  0.9441435E-01
        1   -1    0    0  501    0  0.00000000000E+00  0.00000000000E+00  0.77782869433E+03  0.77782869435E+03  0.50400001928E-02 0. -1.
       -1   -1    0    0    0  501  0.00000000000E+00  0.00000000000E+00 -0.25311755120E+03  0.25311755125E+03  0.50400001928E-02 0.  1.
    10030    2    1    2    0    0  0.00000000000E+00  0.00000000000E+00  0.52471114313E+03  0.10309462456E+04  0.88742795628E+03 0.  0.
        5    1    3    3  502    0  0.15879808297E+03  0.27797429943E+03 -0.94529070434E+02  0.33383285856E+03  0.46999998093E+01 0.  1.
       -5    1    3    3    0  502 -0.15879808297E+03 -0.27797429943E+03  0.61924021357E+03  0.69711338704E+03  0.46999998093E+01 0. -1.
</event>
<event>
 5   0  0.2129280E-03  0.9015870E+03  0.7818609E-02  0.9423600E-01
       -1   -1    0    0    0  501  0.00000000000E+00  0.00000000000E+00  0.58336967964E+03  0.58336967967E+03  0.50400001928E-02 0. -1.
        1   -1    0    0  501    0  0.00000000000E+00  0.00000000000E+00 -0.34834645880E+03  0.34834645883E+03  0.50400001928E-02 0.  1.
    10030    2    1    2    0    0  0.00000000000E+00  0.00000000000E+00  0.23502322085E+03  0.93171613850E+03  0.90158696108E+03 0.  0.
        3    1    3    3  502    0 -0.27735248619E+03 -0.12685720740E+03 -0.22554205373E+03  0.37932358332E+03  0.10100000352E+00 0.  1.
       -3    1    3    3    0  502  0.27735248619E+03  0.12685720740E+03  0.46056527457E+03  0.55239255517E+03  0.10100000352E+00 0. -1.
</event>
<event>
 5   0  0.3626546E-03  0.9003414E+03  0.7818609E-02  0.9425155E-01
       -2   -1    0    0    0  501  0.00000000000E+00  0.00000000000E+00  0.27765230636E+03  0.27765230637E+03  0.25500000920E-02 0. -1.
        2   -1    0    0  501    0  0.00000000000E+00  0.00000000000E+00 -0.72988285526E+03  0.72988285527E+03  0.25500000920E-02 0.  1.
    10030    2    1    2    0    0  0.00000000000E+00  0.00000000000E+00 -0.45223054890E+03  0.10075351616E+04  0.90034139780E+03 0.  0.
        3    1    3    3  502    0 -0.32026595008E+03 -0.29678242844E+03 -0.10351032190E+03  0.44873654359E+03  0.10100000352E+00 0. -1.
       -3    1    3    3    0  502  0.32026595008E+03  0.29678242844E+03 -0.34872022700E+03  0.55879861805E+03  0.10100000352E+00 0.  1.
</event>
<event>
 5   0  0.3815269E-03  0.9011223E+03  0.7818609E-02  0.9424180E-01
        2   -1    0    0  501    0  0.00000000000E+00  0.00000000000E+00  0.25334183157E+03  0.25334183158E+03  0.25500000920E-02 0.  1.
       -2   -1    0    0    0  501  0.00000000000E+00  0.00000000000E+00 -0.80130994199E+03  0.80130994199E+03  0.25500000920E-02 0. -1.
    10030    2    1    2    0    0  0.00000000000E+00  0.00000000000E+00 -0.54796811042E+03  0.10546517736E+04  0.90112225223E+03 0.  0.
        5    1    3    3  502    0 -0.36930994098E+03 -0.20613589871E+03 -0.92287588309E+02  0.43292139032E+03  0.46999998093E+01 0.  1.
       -5    1    3    3    0  502  0.36930994098E+03  0.20613589871E+03 -0.45568052211E+03  0.62173038326E+03  0.46999998093E+01 0. -1.
</event>
<event>
 5   0  0.2130975E-03  0.9013905E+03  0.7818609E-02  0.9423845E-01
       -1   -1    0    0    0  501  0.00000000000E+00  0.00000000000E+00  0.24430182468E+03  0.24430182473E+03  0.50400001928E-02 0. -1.
        1   -1    0    0  501    0  0.00000000000E+00  0.00000000000E+00 -0.83145591204E+03  0.83145591206E+03  0.50400001928E-02 0.  1.
    10030    2    1    2    0    0  0.00000000000E+00  0.00000000000E+00 -0.58715408736E+03  0.10757577368E+04  0.90139047364E+03 0.  0.
        5    1    3    3  502    0  0.25022398694E+03  0.43681345999E+02  0.15070428801E+03  0.29538784005E+03  0.46999998093E+01 0. -1.
       -5    1    3    3    0  502 -0.25022398694E+03 -0.43681345999E+02 -0.73785837538E+03  0.78036989674E+03  0.46999998093E+01 0.  1.
</event>
<event>
 5   0  0.3685879E-03  0.9008709E+03  0.7818609E-02  0.9424493E-01
        2   -1    0    0  501    0  0.00000000000E+00  0.00000000000E+00  0.64499965978E+03  0.64499965978E+03  0.25500000920E-02 0.  1.
       -2   -1    0    0    0  501  0.00000000000E+00  0.00000000000E+00 -0.31456154443E+03  0.31456154444E+03  0.25500000920E-02 0. -1.
    10030    2    1    2    0    0  0.00000000000E+00  0.00000000000E+00  0.33043811535E+03  0.95956120422E+03  0.90087088785E+03 0.  0.
        1    1    3    3  502    0 -0.35038215020E+03 -0.43749199537E+02  0.46309985520E+03  0.58235995703E+03  0.50400001928E-02 0.  1.
       -1    1    3    3    0  502  0.35038215020E+03  0.43749199537E+02 -0.13266173985E+03  0.37720124719E+03  0.50400001928E-02 0. -1.
</event>
<event>
 5   0  0.2134145E-03  0.8920785E+03  0.7818609E-02  0.9435538E-01
        1   -1    0    0  501    0  0.00000000000E+00  0.00000000000E+00  0.15724928718E+04  0.15724928718E+04  0.50400001928E-02 0.  1.
       -1   -1    0    0    0  501  0.00000000000E+00  0.00000000000E+00 -0.12651948630E+03  0.12651948640E+03  0.50400001928E-02 0. -1.
    10030    2    1    2    0    0  0.00000000000E+00  0.00000000000E+00  0.14459733855E+04  0.16990123582E+04  0.89207845045E+03 0.  0.
        1    1    3    3  502    0  0.31229068379E+03  0.28725536892E+03  0.46108531267E+03  0.62661055189E+03  0.50400001928E-02 0. -1.
       -1    1    3    3    0  502 -0.31229068379E+03 -0.28725536892E+03  0.98488807284E+03  0.10724018063E+04  0.50400001928E-02 0.  1.
</event>
<event>
 5   0  0.3626546E-03  0.9037974E+03  0.7818609E-02  0.9420847E-01
        2   -1    0    0  501    0  0.00000000000E+00  0.00000000000E+00  0.12592782913E+04  0.12592782913E+04  0.25500000920E-02 0.  1.
       -2   -1    0    0    0  501  0.00000000000E+00  0.00000000000E+00 -0.16216623173E+03  0.16216623175E+03  0.25500000920E-02 0. -1.
    10030    2    1    2    0    0  0.00000000000E+00  0.00000000000E+00  0.10971120596E+04  0.14214445231E+04  0.90379735608E+03 0.  0.
        3    1    3    3  502    0 -0.24133762764E+02  0.12004433773E+03  0.12326906854E+04  0.12387572069E+04  0.10100000352E+00 0.  1.
       -3    1    3    3    0  502  0.24133762764E+02 -0.12004433773E+03 -0.13557862580E+03  0.18268731620E+03  0.10100000352E+00 0. -1.
</event>
<event>
 5   0  0.3663255E-03  0.8991858E+03  0.7818609E-02  0.9426600E-01
       -2   -1    0    0    0  501  0.00000000000E+00  0.00000000000E+00  0.26386210272E+03  0.26386210273E+03  0.25500000920E-02 0. -1.
        2   -1    0    0  501    0  0.00000000000E+00  0.00000000000E+00 -0.76605833707E+03  0.76605833707E+03  0.25500000920E-02 0.  1.
    10030    2    1    2    0    0  0.00000000000E+00  0.00000000000E+00 -0.50219623435E+03  0.10299204398E+04  0.89918577309E+03 0.  0.
        4    1    3    3  502    0  0.78346644400E+02 -0.54918173143E+02  0.25206418178E+03  0.26961484949E+03  0.12699999809E+01 0. -1.
       -4    1    3    3    0  502 -0.78346644400E+02  0.54918173143E+02 -0.75426041613E+03  0.76030559032E+03  0.12699999809E+01 0.  1.
</event>
<event>
 5   0  0.3806019E-03  0.9057278E+03  0.7818609E-02  0.9418450E-01
       -2   -1    0    0    0  501  0.00000000000E+00  0.00000000000E+00  0.22382405111E+03  0.22382405112E+03  0.25500000920E-02 0.  1.
        2   -1    0    0  501    0  0.00000000000E+00  0.00000000000E+00 -0.91628103190E+03  0.91628103191E+03  0.25500000920E-02 0. -1.
    10030    2    1    2    0    0  0.00000000000E+00  0.00000000000E+00 -0.69245698080E+03  0.11401050830E+04  0.90572784549E+03 0.  0.
        2    1    3    3  502    0 -0.73193056449E+02 -0.44036735921E+03 -0.25032113009E+03  0.51180201518E+03  0.25500000920E-02 0. -1.
       -2    1    3    3    0  502  0.73193056449E+02  0.44036735921E+03 -0.44213585071E+03  0.62830306784E+03  0.25500000920E-02 0.  1.
</event>
<event>
 5   0  0.3663255E-03  0.9006659E+03  0.7818609E-02  0.9424749E-01
       -2   -1    0    0    0  501  0.00000000000E+00  0.00000000000E+00  0.13787589720E+04  0.13787589720E+04  0.25500000920E-02 0.  1.
        2   -1    0    0  501    0  0.00000000000E+00  0.00000000000E+00 -0.14708863172E+03  0.14708863175E+03  0.25500000920E-02 0. -1.
    10030    2    1    2    0    0  0.00000000000E+00  0.00000000000E+00  0.12316703403E+04  0.15258476038E+04  0.90066591073E+03 0.  0.
        4    1    3    3  502    0 -0.13368941807E+02  0.47026823540E+02 -0.14257624445E+03  0.15073104895E+03  0.12699999809E+01 0. -1.
       -4    1    3    3    0  502  0.13368941807E+02 -0.47026823540E+02  0.13742465847E+04  0.13751165548E+04  0.12699999809E+01 0.  1.
</event>
<event>
 5   0  0.3685879E-03  0.9128776E+03  0.7818609E-02  0.9409626E-01
       -2   -1    0    0    0  501  0.00000000000E+00  0.00000000000E+00  0.20838462612E+03  0.20838462614E+03  0.25500000920E-02 0. -1.
        2   -1    0    0  501    0  0.00000000000E+00  0.00000000000E+00 -0.99976835960E+03  0.99976835960E+03  0.25500000920E-02 0.  1.
    10030    2    1    2    0    0  0.00000000000E+00  0.00000000000E+00 -0.79138373348E+03  0.12081529857E+04  0.91287755111E+03 0.  0.
        1    1    3    3  502    0  0.17908083469E+03 -0.41529839934E+03 -0.31417677305E+03  0.55068116964E+03  0.50400001928E-02 0. -1.
       -1    1    3    3    0  502 -0.17908083469E+03  0.41529839934E+03 -0.47720696042E+03  0.65747181609E+03  0.50400001928E-02 0.  1.
</event>
<event>
 5   0  0.2130975E-03  0.9015356E+03  0.7818609E-02  0.9423664E-01
       -1   -1    0    0    0  501  0.00000000000E+00  0.00000000000E+00  0.24970084676E+03  0.24970084681E+03  0.50400001928E-02 0. -1.
        1   -1    0    0  501    0  0.00000000000E+00  0.00000000000E+00 -0.81374021269E+03  0.81374021270E+03  0.50400001928E-02 0.  1.
    10030    2    1    2    0    0  0.00000000000E+00  0.00000000000E+00 -0.56403936593E+03  0.10634410595E+04  0.90153562367E+03 0.  0.
        5    1    3    3  502    0 -0.29345689248E+03  0.31212613363E+03 -0.44728781706E+03  0.61937722942E+03  0.46999998093E+01 0.  1.
       -5    1    3    3    0  502  0.29345689248E+03 -0.31212613363E+03 -0.11675154887E+03  0.44406383009E+03  0.46999998093E+01 0. -1.
</event>
<event>
 5   0  0.2134145E-03  0.9023005E+03  0.7818609E-02  0.9422710E-01
        1   -1    0    0  501    0  0.00000000000E+00  0.00000000000E+00  0.82541012046E+03  0.82541012048E+03  0.50400001928E-02 0.  1.
       -1   -1    0    0    0  501  0.00000000000E+00  0.00000000000E+00 -0.24658837925E+03  0.24658837930E+03  0.50400001928E-02 0. -1.
    10030    2    1    2    0    0  0.00000000000E+00  0.00000000000E+00  0.57882174122E+03  0.10719984998E+04  0.90230049065E+03 0.  0.
        1    1    3    3  502    0  0.41305683927E+02  0.42170726996E+02 -0.24198043956E+03  0.24907641979E+03  0.50400001928E-02 0. -1.
       -1    1    3    3    0  502 -0.41305683927E+02 -0.42170726996E+02  0.82080218078E+03  0.82292207999E+03  0.50400001928E-02 0.  1.
</event>
<event>
 5   0  0.3685879E-03  0.9026400E+03  0.7818609E-02  0.9422287E-01
        2   -1    0    0  501    0  0.00000000000E+00  0.00000000000E+00  0.33903057150E+03  0.33903057151E+03  0.25500000920E-02 0.  1.
       -2   -1    0    0    0  501  0.00000000000E+00  0.00000000000E+00 -0.60080046875E+03  0.60080046875E+03  0.25500000920E-02 0. -1.
    10030    2    1    2    0    0  0.00000000000E+00  0.00000000000E+00 -0.26176989725E+03  0.93983104026E+03  0.90263996429E+03 0.  0.
        1    1    3    3  502    0  0.45928849328E+02 -0.79339502319E+02 -0.59100402277E+03  0.59807187761E+03  0.50400001928E-02 0. -1.
       -1    1    3    3    0  502 -0.45928849328E+02  0.79339502319E+02  0.32923412552E+03  0.34175916266E+03  0.50400001928E-02 0.  1.
</event>
<event>
 5   0  0.2074970E-03  0.8952451E+03  0.7818609E-02  0.9431545E-01
        1   -1    0    0  501    0  0.00000000000E+00  0.00000000000E+00  0.60059878331E+03  0.60059878333E+03  0.50400001928E-02 0. -1.
       -1   -1    0    0    0  501  0.00000000000E+00  0.00000000000E+00 -0.33361032455E+03  0.33361032458E+03  0.50400001928E-02 0.  1.
    10030    2    1    2    0    0  0.00000000000E+00  0.00000000000E+00  0.26698845877E+03  0.93420910792E+03  0.89524511739E+03 0.  0.
        2    1    3    3  502    0 -0.42685654810E+03 -0.77284854282E+02  0.24869132239E+03  0.50002683448E+03  0.25500000920E-02 0. -1.
       -2    1    3    3    0  502  0.42685654810E+03  0.77284854282E+02  0.18297136373E+02  0.43418227344E+03  0.25500000920E-02 0.  1.
</event>
<event>
 5   0  0.2129280E-03  0.8985164E+03  0.7818609E-02  0.9427438E-01
       -1   -1    0    0    0  501  0.00000000000E+00  0.00000000000E+00  0.19143687641E+03  0.19143687648E+03  0.50400001928E-02 0. -1.
        1   -1    0    0  501    0  0.00000000000E+00  0.00000000000E+00 -0.10543052820E+04  0.10543052820E+04  0.50400001928E-02 0.  1.
    10030    2    1    2    0    0  0.00000000000E+00  0.00000000000E+00 -0.86286840561E+03  0.12457421585E+04  0.89851635494E+03 0.  0.
        3    1    3    3  502    0 -0.66395579838E+01 -0.44983980394E+02 -0.10511066058E+04  0.10520897058E+04  0.10100000352E+00 0.  1.
       -3    1    3    3    0  502  0.66395579838E+01  0.44983980394E+02  0.18823820017E+03  0.19365245267E+03  0.10100000352E+00 0. -1.
</event>
<event>
 5   0  0.2295158E-03  0.9042756E+03  0.7818609E-02  0.9420252E-01
       -1   -1    0    0    0  501  0.00000000000E+00  0.00000000000E+00  0.38814241961E+03  0.38814241964E+03  0.50400001928E-02 0. -1.
        1   -1    0    0  501    0  0.00000000000E+00  0.00000000000E+00 -0.52668449810E+03  0.52668449813E+03  0.50400001928E-02 0.  1.
    10030    2    1    2    0    0  0.00000000000E+00  0.00000000000E+00 -0.13854207849E+03  0.91482691777E+03  0.90427561172E+03 0.  0.
        4    1    3    3  502    0  0.16130344286E+03 -0.28900520849E+02  0.35703993393E+03  0.39285260353E+03  0.12699999809E+01 0. -1.
       -4    1    3    3    0  502 -0.16130344286E+03  0.28900520849E+02 -0.49558201242E+03  0.52197431423E+03  0.12699999809E+01 0.  1.
</event>
<event>
 5   0  0.3685879E-03  0.8993860E+03  0.7818609E-02  0.9426349E-01
       -2   -1    0    0    0  501  0.00000000000E+00  0.00000000000E+00  0.13831338186E+03  0.13831338189E+03  0.25500000920E-02 0.  1.
        2   -1    0    0  501    0  0.00000000000E+00  0.00000000000E+00 -0.14620696395E+04  0.14620696395E+04  0.25500000920E-02 0. -1.
    10030    2    1    2    0    0  0.00000000000E+00  0.00000000000E+00 -0.13237562577E+04  0.16003830214E+04  0.89938600474E+03 0.  0.
        1    1    3    3  502    0 -0.10244858658E+03 -0.34781055015E+02  0.11480921635E+03  0.15775484419E+03  0.50400001928E-02 0.  1.
       -1    1    3    3    0  502  0.10244858658E+03  0.34781055015E+02 -0.14385654740E+04  0.14426281772E+04  0.50400001928E-02 0. -1.
</event>
<event>
 5   0  0.2074970E-03  0.9045444E+03  0.7818609E-02  0.9419918E-01
       -1   -1    0    0    0  501  0.00000000000E+00  0.00000000000E+00  0.66932795334E+03  0.66932795336E+03  0.50400001928E-02 0.  1.
        1   -1    0    0  501    0  0.00000000000E+00  0.00000000000E+00 -0.30560528802E+03  0.30560528807E+03  0.50400001928E-02 0. -1.
    10030    2    1    2    0    0  0.00000000000E+00  0.00000000000E+00  0.36372266532E+03  0.97493324143E+03  0.90454444223E+03 0.  0.
        2    1    3    3  502    0 -0.40058680317E+03 -0.20329703617E+03  0.12533304779E+03  0.46637736294E+03  0.25500000920E-02 0.  1.
       -2    1    3    3    0  502  0.40058680317E+03  0.20329703617E+03  0.23838961753E+03  0.50855587849E+03  0.25500000920E-02 0. -1.
</event>
<event>
 5   0  0.2129280E-03  0.9020410E+03  0.7818609E-02  0.9423034E-01
        1   -1    0    0  501    0  0.00000000000E+00  0.00000000000E+00  0.91700185421E+03  0.91700185423E+03  0.50400001928E-02 0.  1.
       -1   -1    0    0    0  501  0.00000000000E+00  0.00000000000E+00 -0.22183104598E+03  0.22183104603E+03  0.50400001928E-02 0. -1.
    10030    2    1    2    0    0  0.00000000000E+00  0.00000000000E+00  0.69517080823E+03  0.11388329003E+04  0.90204097584E+03 0.  0.
        3    1    3    3  502    0 -0.25173954020E+03  0.33011717949E+03  0.57012107094E+03  0.70525753738E+03  0.10100000352E+00 0.  1.
       -3    1    3    3    0  502  0.25173954020E+03 -0.33011717949E+03  0.12504973730E+03  0.43357536288E+03  0.10100000352E+00 0. -1.
</event>
<event>
 5   0  0.2130975E-03  0.8959968E+03  0.7818609E-02  0.9430599E-01
       -1   -1    0    0    0  501  0.00000000000E+00  0.00000000000E+00  0.26440153204E+03  0.26440153209E+03  0.50400001928E-02 0. -1.
        1   -1    0    0  501    0  0.00000000000E+00  0.00000000000E+00 -0.75908251715E+03  0.75908251716E+03  0.50400001928E-02 0.  1.
    10030    2    1    2    0    0  0.00000000000E+00  0.00000000000E+00 -0.49468098510E+03  0.10234840493E+04  0.89599683150E+03 0.  0.
        5    1    3    3  502    0  0.10099750306E+03  0.20667806714E+03  0.19175519950E+03  0.29951371520E+03  0.46999998093E+01 0. -1.
       -5    1    3    3    0  502 -0.10099750306E+03 -0.20667806714E+03 -0.68643618460E+03  0.72397033405E+03  0.46999998093E+01 0.  1.
</event>
<event>
 5   0  0.3685879E-03  0.9052500E+03  0.7818609E-02  0.9419042E-01
       -2   -1    0    0    0  501  0.00000000000E+00  0.00000000000E+00  0.25329777306E+03  0.25329777308E+03  0.25500000920E-02 0.  1.
        2   -1    0    0  501    0  0.00000000000E+00  0.00000000000E+00 -0.80880853342E+03  0.80880853342E+03  0.25500000920E-02 0. -1.
    10030    2    1    2    0    0  0.00000000000E+00  0.00000000000E+00 -0.55551076035E+03  0.10621063065E+04  0.90525002150E+03 0.  0.
        1    1    3    3  502    0 -0.15624620042E+03 -0.42462349345E+03 -0.29219256276E+03  0.53860419614E+03  0.50400001928E-02 0.  1.
       -1    1    3    3    0  502  0.15624620042E+03  0.42462349345E+03 -0.26331819760E+03  0.52350211036E+03  0.50400001928E-02 0. -1.
</event>
<event>
 5   0  0.1436000E-03  0.9034018E+03  0.7818609E-02  0.9421339E-01
        3   -1    0    0  501    0  0.00000000000E+00  0.00000000000E+00  0.80859004342E+03  0.80859004973E+03  0.10100000352E+00 0. -1.
       -3   -1    0    0    0  501  0.00000000000E+00  0.00000000000E+00 -0.25233266752E+03  0.25233268773E+03  0.10100000352E+00 0.  1.
    10030    2    1    2    0    0  0.00000000000E+00  0.00000000000E+00  0.55625737590E+03  0.10609227375E+04  0.90340178581E+03 0.  0.
        1    1    3    3  502    0  0.18209953987E+03  0.21329734114E+03  0.69395595042E+03  0.74848571083E+03  0.50400001928E-02 0. -1.
       -1    1    3    3    0  502 -0.18209953987E+03 -0.21329734114E+03 -0.13769857452E+03  0.31243702663E+03  0.50400001928E-02 0.  1.
</event>
<event>
 5   0  0.2130975E-03  0.8964374E+03  0.7818609E-02  0.9430046E-01
       -1   -1    0    0    0  501  0.00000000000E+00  0.00000000000E+00  0.12364866794E+03  0.12364866804E+03  0.50400001928E-02 0. -1.
        1   -1    0    0  501    0  0.00000000000E+00  0.00000000000E+00 -0.16247649275E+04  0.16247649276E+04  0.50400001928E-02 0.  1.
    10030    2    1    2    0    0  0.00000000000E+00  0.00000000000E+00 -0.15011162596E+04  0.17484135956E+04  0.89643743586E+03 0.  0.
        5    1    3    3  502    0  0.52933376922E+02  0.11967537718E+03 -0.15866275591E+04  0.15920217460E+04  0.46999998093E+01 0.  1.
       -5    1    3    3    0  502 -0.52933376922E+02 -0.11967537718E+03  0.85511299497E+02  0.15639184964E+03  0.46999998093E+01 0. -1.
</event>
<event>
 5   0  0.3806019E-03  0.8970354E+03  0.7818609E-02  0.9429295E-01
        2   -1    0    0  501    0  0.00000000000E+00  0.00000000000E+00  0.11322938360E+04  0.11322938360E+04  0.25500000920E-02 0.  1.
       -2   -1    0    0    0  501  0.00000000000E+00  0.00000000000E+00 -0.17766423751E+03  0.17766423753E+03  0.25500000920E-02 0. -1.
    10030    2    1    2    0    0  0.00000000000E+00  0.00000000000E+00  0.95462959849E+03  0.13099580735E+04  0.89703538620E+03 0.  0.
        2    1    3    3  502    0 -0.35219163352E+03 -0.27563712717E+03  0.42772091968E+03  0.61883758591E+03  0.25500000920E-02 0.  1.
       -2    1    3    3    0  502  0.35219163352E+03  0.27563712717E+03  0.52690867881E+03  0.69112048762E+03  0.25500000920E-02 0. -1.
</event>
<event>
 5   0  0.2074970E-03  0.9026854E+03  0.7818609E-02  0.9422231E-01
       -1   -1    0    0    0  501  0.00000000000E+00  0.00000000000E+00  0.23512940464E+03  0.23512940470E+03  0.50400001928E-02 0. -1.
        1   -1    0    0  501    0  0.00000000000E+00  0.00000000000E+00 -0.86637501495E+03  0.86637501497E+03  0.50400001928E-02 0.  1.
    10030    2    1    2    0    0  0.00000000000E+00  0.00000000000E+00 -0.63124561031E+03  0.11015044197E+04  0.90268541918E+03 0.  0.
        2    1    3    3  502    0  0.30844302060E+03  0.10466787497E+03  0.65631082648E+02  0.33226480407E+03  0.25500000920E-02 0. -1.
       -2    1    3    3    0  502 -0.30844302060E+03 -0.10466787497E+03 -0.69687669296E+03  0.76923961560E+03  0.25500000920E-02 0.  1.
</event>
<event>
 5   0  0.3815269E-03  0.9103081E+03  0.7818609E-02  0.9412787E-01
       -2   -1    0    0    0  501  0.00000000000E+00  0.00000000000E+00  0.16375500989E+03  0.16375500991E+03  0.25500000920E-02 0. -1.
        2   -1    0    0  501    0  0.00000000000E+00  0.00000000000E+00 -0.12650923115E+04  0.12650923115E+04  0.25500000920E-02 0.  1.
    10030    2    1    2    0    0  0.00000000000E+00  0.00000000000E+00 -0.11013373016E+04  0.14288473214E+04  0.91030808848E+03 0.  0.
        5    1    3    3  502    0 -0.22874363885E+03  0.33696086759E+03 -0.23177151393E+03  0.46862181263E+03  0.46999998093E+01 0. -1.
       -5    1    3    3    0  502  0.22874363885E+03 -0.33696086759E+03 -0.86956578765E+03  0.96022550874E+03  0.46999998093E+01 0.  1.
</event>
<event>
 5   0  0.3663255E-03  0.8970048E+03  0.7818609E-02  0.9429333E-01
        2   -1    0    0  501    0  0.00000000000E+00  0.00000000000E+00  0.41154046240E+03  0.41154046240E+03  0.25500000920E-02 0. -1.
       -2   -1    0    0    0  501  0.00000000000E+00  0.00000000000E+00 -0.48878405549E+03  0.48878405549E+03  0.25500000920E-02 0.  1.
    10030    2    1    2    0    0  0.00000000000E+00  0.00000000000E+00 -0.77243593089E+02  0.90032451790E+03  0.89700482989E+03 0.  0.
        4    1    3    3  502    0 -0.29032882226E+03  0.34046779256E+03 -0.69454541168E+02  0.45280756287E+03  0.12699999809E+01 0.  1.
       -4    1    3    3    0  502  0.29032882226E+03 -0.34046779256E+03 -0.77890519209E+01  0.44751695503E+03  0.12699999809E+01 0. -1.
</event>
<event>
 5   0  0.3663255E-03  0.8962856E+03  0.7818609E-02  0.9430237E-01
        2   -1    0    0  501    0  0.00000000000E+00  0.00000000000E+00  0.17124072056E+04  0.17124072056E+04  0.25500000920E-02 0.  1.
       -2   -1    0    0    0  501  0.00000000000E+00  0.00000000000E+00 -0.11728049244E+03  0.11728049247E+03  0.25500000920E-02 0. -1.
    10030    2    1    2    0    0  0.00000000000E+00  0.00000000000E+00  0.15951267132E+04  0.18296876981E+04  0.89628558031E+03 0.  0.
        4    1    3    3  502    0 -0.26104561987E+03  0.33913878861E+03  0.10689284108E+04  0.11514206416E+04  0.12699999809E+01 0.  1.
       -4    1    3    3    0  502  0.26104561987E+03 -0.33913878861E+03  0.52619830233E+03  0.67826705645E+03  0.12699999809E+01 0. -1.
</event>
<event>
 5   0  0.2130975E-03  0.8368275E+03  0.7818609E-02  0.9508189E-01
       -1   -1    0    0    0  501  0.00000000000E+00  0.00000000000E+00  0.24000426235E+03  0.24000426241E+03  0.50400001928E-02 0. -1.
        1   -1    0    0  501    0  0.00000000000E+00  0.00000000000E+00 -0.72944560786E+03  0.72944560788E+03  0.50400001928E-02 0.  1.
    10030    2    1    2    0    0  0.00000000000E+00  0.00000000000E+00 -0.48944134551E+03  0.96944987029E+03  0.83682747344E+03 0.  0.
        5    1    3    3  502    0 -0.23921085816E+03  0.29464248623E+03 -0.44873180427E+03  0.58772302279E+03  0.46999998093E+01 0.  1.
       -5    1    3    3    0  502  0.23921085816E+03 -0.29464248623E+03 -0.40709541237E+02  0.38172684750E+03  0.46999998093E+01 0. -1.
</event>
<event>
 5   0  0.2130975E-03  0.8985341E+03  0.7818609E-02  0.9427416E-01
        1   -1    0    0  501    0  0.00000000000E+00  0.00000000000E+00  0.48886301060E+03  0.48886301063E+03  0.50400001928E-02 0. -1.
       -1   -1    0    0    0  501  0.00000000000E+00  0.00000000000E+00 -0.41287821424E+03  0.41287821427E+03  0.50400001928E-02 0.  1.
    10030    2    1    2    0    0  0.00000000000E+00  0.00000000000E+00  0.75984796357E+02  0.90174122490E+03  0.89853411032E+03 0.  0.
        5    1    3    3  502    0  0.51773756783E+02  0.23297700369E+02  0.48522355283E+03  0.48855633344E+03  0.46999998093E+01 0. -1.
       -5    1    3    3    0  502 -0.51773756783E+02 -0.23297700369E+02 -0.40923875647E+03  0.41318489146E+03  0.46999998093E+01 0.  1.
</event>
<event>
 5   0  0.2130975E-03  0.9005489E+03  0.7818609E-02  0.9424896E-01
        1   -1    0    0  501    0  0.00000000000E+00  0.00000000000E+00  0.52290839142E+03  0.52290839144E+03  0.50400001928E-02 0.  1.
       -1   -1    0    0    0  501  0.00000000000E+00  0.00000000000E+00 -0.38772964347E+03  0.38772964350E+03  0.50400001928E-02 0. -1.
    10030    2    1    2    0    0  0.00000000000E+00  0.00000000000E+00  0.13517874794E+03  0.91063803494E+03  0.90054890861E+03 0.  0.
        5    1    3    3  502    0  0.85285896812E+02  0.42443299316E+03  0.19270078393E+03  0.47389105499E+03  0.46999998093E+01 0.  1.
       -5    1    3    3    0  502 -0.85285896812E+02 -0.42443299316E+03 -0.57522035990E+02  0.43674697995E+03  0.46999998093E+01 0. -1.
</event>
<event>
 5   0  0.3685879E-03  0.9018026E+03  0.7818609E-02  0.9423331E-01
       -2   -1    0    0    0  501  0.00000000000E+00  0.00000000000E+00  0.56296248563E+03  0.56296248564E+03  0.25500000920E-02 0. -1.
        2   -1    0    0  501    0  0.00000000000E+00  0.00000000000E+00 -0.36114655459E+03  0.36114655460E+03  0.25500000920E-02 0.  1.
    10030    2    1    2    0    0  0.00000000000E+00  0.00000000000E+00  0.20181593104E+03  0.92410904024E+03  0.90180255501E+03 0.  0.
        1    1    3    3  502    0 -0.10643899819E+02  0.58870982753E+02  0.55887744483E+03  0.56207035465E+03  0.50400001928E-02 0. -1.
       -1    1    3    3    0  502  0.10643899819E+02 -0.58870982753E+02 -0.35706151378E+03  0.36203868559E+03  0.50400001928E-02 0.  1.
</event>
<event>
 5   0  0.3815269E-03  0.8855890E+03  0.7818609E-02  0.9443777E-01
       -2   -1    0    0    0  501  0.00000000000E+00  0.00000000000E+00  0.29989320163E+03  0.29989320164E+03  0.25500000920E-02 0. -1.
        2   -1    0    0  501    0  0.00000000000E+00  0.00000000000E+00 -0.65378937649E+03  0.65378937649E+03  0.25500000920E-02 0.  1.
    10030    2    1    2    0    0  0.00000000000E+00  0.00000000000E+00 -0.35389617486E+03  0.95368257813E+03  0.88558904536E+03 0.  0.
        5    1    3    3  502    0 -0.15660623516E+03  0.29007796046E+03 -0.49526750258E+03  0.59496447385E+03  0.46999998093E+01 0. -1.
       -5    1    3    3    0  502  0.15660623516E+03 -0.29007796046E+03  0.14137132772E+03  0.35871810428E+03  0.46999998093E+01 0.  1.
</event>
<event>
 5   0  0.2129280E-03  0.8992981E+03  0.7818609E-02  0.9426459E-01
        1   -1    0    0  501    0  0.00000000000E+00  0.00000000000E+00  0.49879254480E+03  0.49879254482E+03  0.50400001928E-02 0. -1.
       -1   -1    0    0    0  501  0.00000000000E+00  0.00000000000E+00 -0.40534744418E+03  0.40534744421E+03  0.50400001928E-02 0.  1.
    10030    2    1    2    0    0  0.00000000000E+00  0.00000000000E+00  0.93445100613E+02  0.90413998904E+03  0.89929813352E+03 0.  0.
        3    1    3    3  502    0  0.38831994010E+03  0.20281734464E+03  0.14854478556E+03  0.46259357398E+03  0.10100000352E+00 0. -1.
       -3    1    3    3    0  502 -0.38831994010E+03 -0.20281734464E+03 -0.55099684945E+02  0.44154641506E+03  0.10100000352E+00 0.  1.
</event>
<event>
 5   0  0.3663255E-03  0.9113601E+03  0.7818609E-02  0.9411491E-01
        2   -1    0    0  501    0  0.00000000000E+00  0.00000000000E+00  0.15878619272E+04  0.15878619272E+04  0.25500000920E-02 0. -1.
       -2   -1    0    0    0  501  0.00000000000E+00  0.00000000000E+00 -0.13076976074E+03  0.13076976076E+03  0.25500000920E-02 0.  1.
    10030    2    1    2    0    0  0.00000000000E+00  0.00000000000E+00  0.14570921665E+04  0.17186316880E+04  0.91136013591E+03 0.  0.
        4    1    3    3  502    0 -0.76766920507E+02 -0.15790194342E+03 -0.64419276305E+02  0.18702309985E+03  0.12699999809E+01 0.  1.
       -4    1    3    3    0  502  0.76766920507E+02  0.15790194342E+03  0.15215114428E+04  0.15316085881E+04  0.12699999809E+01 0. -1.
</event>
<event>
 5   0  0.3685879E-03  0.9034498E+03  0.7818609E-02  0.9421279E-01
        2   -1    0    0  501    0  0.00000000000E+00  0.00000000000E+00  0.79694668642E+03  0.79694668643E+03  0.25500000920E-02 0. -1.
       -2   -1    0    0    0  501  0.00000000000E+00  0.00000000000E+00 -0.25604647035E+03  0.25604647036E+03  0.25500000920E-02 0.  1.
    10030    2    1    2    0    0  0.00000000000E+00  0.00000000000E+00  0.54090021608E+03  0.10529931568E+04  0.90344980187E+03 0.  0.
        1    1    3    3  502    0 -0.43330543844E+03 -0.96972573922E+02  0.36725256048E+03  0.57622194185E+03  0.50400001928E-02 0. -1.
       -1    1    3    3    0  502  0.43330543844E+03  0.96972573922E+02  0.17364765560E+03  0.47677121493E+03  0.50400001928E-02 0.  1.
</event>
<event>
 5   0  0.2134145E-03  0.9009360E+03  0.7818609E-02  0.9424412E-01
       -1   -1    0    0    0  501  0.00000000000E+00  0.00000000000E+00  0.28602875246E+03  0.28602875251E+03  0.50400001928E-02 0. -1.
        1   -1    0    0  501    0  0.00000000000E+00  0.00000000000E+00 -0.70944407932E+03  0.70944407933E+03  0.50400001928E-02 0.  1.
    10030    2    1    2    0    0  0.00000000000E+00  0.00000000000E+00 -0.42341532685E+03  0.99547283184E+03  0.90093596883E+03 0.  0.
        1    1    3    3  502    0 -0.91166616027E+02  0.12117419691E+03  0.25697997037E+03  0.29838438812E+03  0.50400001928E-02 0. -1.
       -1    1    3    3    0  502  0.91166616027E+02 -0.12117419691E+03 -0.68039529722E+03  0.69708844373E+03  0.50400001928E-02 0.  1.
</event>
<event>
 5   0  0.3626546E-03  0.8997587E+03  0.7818609E-02  0.9425883E-01
       -2   -1    0    0    0  501  0.00000000000E+00  0.00000000000E+00  0.47653466984E+03  0.47653466985E+03  0.25500000920E-02 0. -1.
        2   -1    0    0  501    0  0.00000000000E+00  0.00000000000E+00 -0.42471500561E+03  0.42471500562E+03  0.25500000920E-02 0.  1.
    10030    2    1    2    0    0  0.00000000000E+00  0.00000000000E+00  0.51819664230E+02  0.90124967547E+03  0.89975868984E+03 0.  0.
        3    1    3    3  502    0 -0.77948219180E+02 -0.43593069404E+03 -0.53467431594E+02  0.44606083814E+03  0.10100000352E+00 0.  1.
       -3    1    3    3    0  502  0.77948219180E+02  0.43593069404E+03  0.10528709582E+03  0.45518883733E+03  0.10100000352E+00 0. -1.
</event>
<event>
 5   0  0.2129280E-03  0.9034988E+03  0.7818609E-02  0.9421218E-01
       -1   -1    0    0    0  501  0.00000000000E+00  0.00000000000E+00  0.37457556394E+03  0.37457556397E+03  0.50400001928E-02 0.  1.
        1   -1    0    0  501    0  0.00000000000E+00  0.00000000000E+00 -0.54482340549E+03  0.54482340551E+03  0.50400001928E-02 0. -1.
    10030    2    1    2    0    0  0.00000000000E+00  0.00000000000E+00 -0.17024784155E+03  0.91939896949E+03  0.90349883096E+03 0.  0.
        3    1    3    3  502    0  0.36521757772E+03 -0.19315229858E+03  0.10080953312E+03  0.42526963410E+03  0.10100000352E+00 0.  1.
       -3    1    3    3    0  502 -0.36521757772E+03  0.19315229858E+03 -0.27105737467E+03  0.49412933538E+03  0.10100000352E+00 0. -1.
</event>
<event>
 5   0  0.2130975E-03  0.8945778E+03  0.7818609E-02  0.9432385E-01
       -1   -1    0    0    0  501  0.00000000000E+00  0.00000000000E+00  0.16329948879E+03  0.16329948887E+03  0.50400001928E-02 0.  1.
        1   -1    0    0  501    0  0.00000000000E+00  0.00000000000E+00 -0.12251559683E+04  0.12251559683E+04  0.50400001928E-02 0. -1.
    10030    2    1    2    0    0  0.00000000000E+00  0.00000000000E+00 -0.10618564795E+04  0.13884554571E+04  0.89457776267E+03 0.  0.
        5    1    3    3  502    0  0.35032217130E+03 -0.26125827938E+03 -0.38316459330E+03  0.58122173721E+03  0.46999998093E+01 0.  1.
       -5    1    3    3    0  502 -0.35032217130E+03  0.26125827938E+03 -0.67869188616E+03  0.80723371992E+03  0.46999998093E+01 0. -1.
</event>
<event>
 5   0  0.1436000E-03  0.9017845E+03  0.7818609E-02  0.9423353E-01
        3   -1    0    0  501    0  0.00000000000E+00  0.00000000000E+00  0.10266122065E+04  0.10266122114E+04  0.10100000352E+00 0. -1.
       -3   -1    0    0    0  501  0.00000000000E+00  0.00000000000E+00 -0.19803368377E+03  0.19803370953E+03  0.10100000352E+00 0.  1.
    10030    2    1    2    0    0  0.00000000000E+00  0.00000000000E+00  0.82857852269E+03  0.12246459210E+04  0.90178448836E+03 0.  0.
        5    1    3    3  502    0  0.12136120217E+03 -0.41577720724E+03  0.58435444237E+03  0.72738671405E+03  0.46999998093E+01 0. -1.
       -5    1    3    3    0  502 -0.12136120217E+03  0.41577720724E+03  0.24422408031E+03  0.49725920691E+03  0.46999998093E+01 0.  1.
</event>
<event>
 5   0  0.2134145E-03  0.9004408E+03  0.7818609E-02  0.9425031E-01
       -1   -1    0    0    0  501  0.00000000000E+00  0.00000000000E+00  0.53279106928E+03  0.53279106930E+03  0.50400001928E-02 0. -1.
        1   -1    0    0  501    0  0.00000000000E+00  0.00000000000E+00 -0.38044632668E+03  0.38044632671E+03  0.50400001928E-02 0.  1.
    10030    2    1    2    0    0  0.00000000000E+00  0.00000000000E+00  0.15234474260E+03  0.91323739601E+03  0.90044079254E+03 0.  0.
        1    1    3    3  502    0 -0.32273081452E+03  0.70528305211E+02 -0.23406526585E+03  0.40486537167E+03  0.50400001928E-02 0.  1.
       -1    1    3    3    0  502  0.32273081452E+03 -0.70528305211E+02  0.38641000845E+03  0.50837202434E+03  0.50400001928E-02 0. -1.
</event>
<event>
 5   0  0.2134145E-03  0.8975567E+03  0.7818609E-02  0.9428641E-01
        1   -1    0    0  501    0  0.00000000000E+00  0.00000000000E+00  0.13722370843E+04  0.13722370844E+04  0.50400001928E-02 0.  1.
       -1   -1    0    0    0  501  0.00000000000E+00  0.00000000000E+00 -0.14676909742E+03  0.14676909751E+03  0.50400001928E-02 0. -1.
    10030    2    1    2    0    0  0.00000000000E+00  0.00000000000E+00  0.12254679869E+04  0.15190061819E+04  0.89755667987E+03 0.  0.
        1    1    3    3  502    0  0.38355215544E+03 -0.19061325490E+03  0.38595311106E+03  0.57654615847E+03  0.50400001928E-02 0. -1.
       -1    1    3    3    0  502 -0.38355215544E+03  0.19061325490E+03  0.83951487586E+03  0.94246002340E+03  0.50400001928E-02 0.  1.
</event>
<event>
 5   0  0.1436000E-03  0.8946884E+03  0.7818609E-02  0.9432246E-01
        3   -1    0    0  501    0  0.00000000000E+00  0.00000000000E+00  0.42246272519E+03  0.42246273726E+03  0.10100000352E+00 0.  1.
       -3   -1    0    0    0  501  0.00000000000E+00  0.00000000000E+00 -0.47369104179E+03  0.47369105255E+03  0.10100000352E+00 0. -1.
    10030    2    1    2    0    0  0.00000000000E+00  0.00000000000E+00 -0.51228316599E+02  0.89615378982E+03  0.89468836730E+03 0.  0.
        5    1    3    3  502    0 -0.73411294945E+02 -0.41325510461E+03  0.12931863257E+03  0.43922021634E+03  0.46999998093E+01 0.  1.
       -5    1    3    3    0  502  0.73411294945E+02  0.41325510461E+03 -0.18054694917E+03  0.45693357347E+03  0.46999998093E+01 0. -1.
</event>
<event>
 5   0  0.3626546E-03  0.9060432E+03  0.7818609E-02  0.9418059E-01
        2   -1    0    0  501    0  0.00000000000E+00  0.00000000000E+00  0.13366442016E+04  0.13366442016E+04  0.25500000920E-02 0.  1.
       -2   -1    0    0    0  501  0.00000000000E+00  0.00000000000E+00 -0.15354015611E+03  0.15354015613E+03  0.25500000920E-02 0. -1.
    10030    2    1    2    0    0  0.00000000000E+00  0.00000000000E+00  0.11831040454E+04  0.14901843577E+04  0.90604317643E+03 0.  0.
        3    1    3    3  502    0  0.29551780033E+03 -0.18847916221E+03  0.11950576284E+03  0.37031986505E+03  0.10100000352E+00 0. -1.
       -3    1    3    3    0  502 -0.29551780033E+03  0.18847916221E+03  0.10635982826E+04  0.11198644926E+04  0.10100000352E+00 0.  1.
</event>
<event>
 5   0  0.2134145E-03  0.8850865E+03  0.7818609E-02  0.9444418E-01
       -1   -1    0    0    0  501  0.00000000000E+00  0.00000000000E+00  0.34476732753E+03  0.34476732756E+03  0.50400001928E-02 0. -1.
        1   -1    0    0  501    0  0.00000000000E+00  0.00000000000E+00 -0.56804836508E+03  0.56804836511E+03  0.50400001928E-02 0.  1.
    10030    2    1    2    0    0  0.00000000000E+00  0.00000000000E+00 -0.22328103756E+03  0.91281569267E+03  0.88508647434E+03 0.  0.
        1    1    3    3  502    0 -0.31881084158E+03  0.30567023454E+03 -0.14025636446E+03  0.46340748029E+03  0.50400001928E-02 0. -1.
       -1    1    3    3    0  502  0.31881084158E+03 -0.30567023454E+03 -0.83024673101E+02  0.44940821238E+03  0.50400001928E-02 0.  1.
</event>
<event>
 5   0  0.2074970E-03  0.9010369E+03  0.7818609E-02  0.9424286E-01
       -1   -1    0    0    0  501  0.00000000000E+00  0.00000000000E+00  0.75652516697E+02  0.75652516865E+02  0.50400001928E-02 0. -1.
        1   -1    0    0  501    0  0.00000000000E+00  0.00000000000E+00 -0.26828832056E+04  0.26828832056E+04  0.50400001928E-02 0.  1.
    10030    2    1    2    0    0  0.00000000000E+00  0.00000000000E+00 -0.26072306889E+04  0.27585357224E+04  0.90103688436E+03 0.  0.
        2    1    3    3  502    0  0.17656634254E+03 -0.67552841730E+02 -0.51655814936E+02  0.19597801654E+03  0.25500000920E-02 0.  1.
       -2    1    3    3    0  502 -0.17656634254E+03  0.67552841730E+02 -0.25555748739E+04  0.25625577059E+04  0.25500000920E-02 0. -1.
</event>
<event>
 5   0  0.2130975E-03  0.9015221E+03  0.7818609E-02  0.9423681E-01
       -1   -1    0    0    0  501  0.00000000000E+00  0.00000000000E+00  0.22825326650E+03  0.22825326656E+03  0.50400001928E-02 0.  1.
        1   -1    0    0  501    0  0.00000000000E+00  0.00000000000E+00 -0.89017583090E+03  0.89017583092E+03  0.50400001928E-02 0. -1.
    10030    2    1    2    0    0  0.00000000000E+00  0.00000000000E+00 -0.66192256440E+03  0.11184290975E+04  0.90152213773E+03 0.  0.
        5    1    3    3  502    0  0.15730626081E+03 -0.11030263182E+03 -0.83680326966E+03  0.85858822050E+03  0.46999998093E+01 0. -1.
       -5    1    3    3    0  502 -0.15730626081E+03  0.11030263182E+03  0.17488070526E+03  0.25984087697E+03  0.46999998093E+01 0.  1.
</event>
<event>
 5   0  0.3685879E-03  0.9030086E+03  0.7818609E-02  0.9421828E-01
       -2   -1    0    0    0  501  0.00000000000E+00  0.00000000000E+00  0.70789472023E+03  0.70789472024E+03  0.25500000920E-02 0. -1.
        2   -1    0    0  501    0  0.00000000000E+00  0.00000000000E+00 -0.28797519910E+03  0.28797519911E+03  0.25500000920E-02 0.  1.
    10030    2    1    2    0    0  0.00000000000E+00  0.00000000000E+00  0.41991952113E+03  0.99586991934E+03  0.90300857805E+03 0.  0.
        1    1    3    3  502    0  0.44180011944E+03 -0.43595623771E+02  0.30068900608E+03  0.53619194544E+03  0.50400001928E-02 0. -1.
       -1    1    3    3    0  502 -0.44180011944E+03  0.43595623771E+02  0.11923051505E+03  0.45967797390E+03  0.50400001928E-02 0.  1.
</event>
<event>
 5   0  0.3626546E-03  0.9445749E+03  0.7818609E-02  0.9371514E-01
       -2   -1    0    0    0  501  0.00000000000E+00  0.00000000000E+00  0.56161863465E+03  0.56161863465E+03  0.25500000920E-02 0.  1.
        2   -1    0    0  501    0  0.00000000000E+00  0.00000000000E+00 -0.39716532597E+03  0.39716532598E+03  0.25500000920E-02 0. -1.
    10030    2    1    2    0    0  0.00000000000E+00  0.00000000000E+00  0.16445330868E+03  0.95878396063E+03  0.94457492685E+03 0.  0.
        3    1    3    3  502    0 -0.16625349332E+03  0.73322749009E+01  0.53087263738E+03  0.55634499514E+03  0.10100000352E+00 0.  1.
       -3    1    3    3    0  502  0.16625349332E+03 -0.73322749009E+01 -0.36641932870E+03  0.40243896549E+03  0.10100000352E+00 0. -1.
</event>
<event>
 5   0  0.2295158E-03  0.9017775E+03  0.7818609E-02  0.9423362E-01
       -1   -1    0    0    0  501  0.00000000000E+00  0.00000000000E+00  0.11910965175E+03  0.11910965185E+03  0.50400001928E-02 0.  1.
        1   -1    0    0  501    0  0.00000000000E+00  0.00000000000E+00 -0.17068361402E+04  0.17068361402E+04  0.50400001928E-02 0. -1.
    10030    2    1    2    0    0  0.00000000000E+00  0.00000000000E+00 -0.15877264884E+04  0.18259457920E+04  0.90177748552E+03 0.  0.
        4    1    3    3  502    0 -0.18949141452E+03  0.39488179255E+03 -0.57709845209E+03  0.72448800029E+03  0.12699999809E+01 0. -1.
       -4    1    3    3    0  502  0.18949141452E+03 -0.39488179255E+03 -0.10106280363E+04  0.11014577918E+04  0.12699999809E+01 0.  1.
</event>
<event>
 5   0  0.2074970E-03  0.8905040E+03  0.7818609E-02  0.9437530E-01
        1   -1    0    0  501    0  0.00000000000E+00  0.00000000000E+00  0.14268551012E+03  0.14268551021E+03  0.50400001928E-02 0.  1.
       -1   -1    0    0    0  501  0.00000000000E+00  0.00000000000E+00 -0.13894146239E+04  0.13894146239E+04  0.50400001928E-02 0. -1.
    10030    2    1    2    0    0  0.00000000000E+00  0.00000000000E+00 -0.12467291138E+04  0.15321001341E+04  0.89050397966E+03 0.  0.
        2    1    3    3  502    0  0.21235891462E+03  0.12771453334E+03  0.13080664687E+02  0.24814998376E+03  0.25500000920E-02 0.  1.
       -2    1    3    3    0  502 -0.21235891462E+03 -0.12771453334E+03 -0.12598097784E+04  0.12839501503E+04  0.25500000920E-02 0. -1.
</event>
<event>
 5   0  0.2295158E-03  0.9059969E+03  0.7818609E-02  0.9418116E-01
        1   -1    0    0  501    0  0.00000000000E+00  0.00000000000E+00  0.82138568863E+03  0.82138568864E+03  0.50400001928E-02 0.  1.
       -1   -1    0    0    0  501  0.00000000000E+00  0.00000000000E+00 -0.24983098909E+03  0.24983098914E+03  0.50400001928E-02 0. -1.
    10030    2    1    2    0    0  0.00000000000E+00  0.00000000000E+00  0.57155469954E+03  0.10712166778E+04  0.90599690738E+03 0.  0.
        4    1    3    3  502    0 -0.94125260739E+02  0.40149241879E+03  0.64103289723E+02  0.41733268709E+03  0.12699999809E+01 0. -1.
       -4    1    3    3    0  502  0.94125260739E+02 -0.40149241879E+03  0.50745140982E+03  0.65388399069E+03  0.12699999809E+01 0.  1.
</event>
<event>
 5   0  0.2134145E-03  0.8963735E+03  0.7818609E-02  0.9430126E-01
       -1   -1    0    0    0  501  0.00000000000E+00  0.00000000000E+00  0.30546962233E+03  0.30546962238E+03  0.50400001928E-02 0.  1.
        1   -1    0    0  501    0  0.00000000000E+00  0.00000000000E+00 -0.65758214724E+03  0.65758214726E+03  0.50400001928E-02 0. -1.
    10030    2    1    2    0    0  0.00000000000E+00  0.00000000000E+00 -0.35211252491E+03  0.96305176964E+03  0.89637351635E+03 0.  0.
        1    1    3    3  502    0 -0.29185450482E+03 -0.31084808639E+03 -0.27706120274E+02  0.42728586909E+03  0.50400001928E-02 0.  1.
       -1    1    3    3    0  502  0.29185450482E+03  0.31084808639E+03 -0.32440640463E+03  0.53576590055E+03  0.50400001928E-02 0. -1.
</event>
<event>
 5   0  0.1436000E-03  0.8952311E+03  0.7818609E-02  0.9431563E-01
        3   -1    0    0  501    0  0.00000000000E+00  0.00000000000E+00  0.17284834527E+03  0.17284837478E+03  0.10100000352E+00 0.  1.
       -3   -1    0    0    0  501  0.00000000000E+00  0.00000000000E+00 -0.11591643295E+04  0.11591643340E+04  0.10100000352E+00 0. -1.
    10030    2    1    2    0    0  0.00000000000E+00  0.00000000000E+00 -0.98631598428E+03  0.13320127087E+04  0.89523105139E+03 0.  0.
        2    1    3    3  502    0  0.18412275214E+03  0.32396458549E+03 -0.12415497311E+03  0.39277054098E+03  0.25500000920E-02 0.  1.
       -2    1    3    3    0  502 -0.18412275214E+03 -0.32396458549E+03 -0.86216101116E+03  0.93924216775E+03  0.25500000920E-02 0. -1.
</event>
<event>
 5   0  0.2295158E-03  0.8985873E+03  0.7818609E-02  0.9427349E-01
        1   -1    0    0  501    0  0.00000000000E+00  0.00000000000E+00  0.29216416035E+03  0.29216416039E+03  0.50400001928E-02 0. -1.
       -1   -1    0    0    0  501  0.00000000000E+00  0.00000000000E+00 -0.69092932909E+03  0.69092932911E+03  0.50400001928E-02 0.  1.
    10030    2    1    2    0    0  0.00000000000E+00  0.00000000000E+00 -0.39876516874E+03  0.98309348950E+03  0.89858730755E+03 0.  0.
        4    1    3    3  502    0  0.16749970357E+03  0.11732468269E+03 -0.63705728881E+03  0.66907759938E+03  0.12699999809E+01 0.  1.
       -4    1    3    3    0  502 -0.16749970357E+03 -0.11732468269E+03  0.23829212007E+03  0.31401589012E+03  0.12699999809E+01 0. -1.
</event>
<event>
 5   0  0.3663255E-03  0.8877233E+03  0.7818609E-02  0.9441059E-01
        2   -1    0    0  501    0  0.00000000000E+00  0.00000000000E+00  0.93298873153E+03  0.93298873154E+03  0.25500000920E-02 0. -1.
       -2   -1    0    0    0  501  0.00000000000E+00  0.00000000000E+00 -0.21116349951E+03  0.21116349953E+03  0.25500000920E-02 0.  1.
    10030    2    1    2    0    0  0.00000000000E+00  0.00000000000E+00  0.72182523202E+03  0.11441522311E+04  0.88772330276E+03 0.  0.
        4    1    3    3  502    0 -0.35545422748E+02  0.43899675240E+03  0.43185769423E+03  0.61683409979E+03  0.12699999809E+01 0.  1.
       -4    1    3    3    0  502  0.35545422748E+02 -0.43899675240E+03  0.28996753779E+03  0.52731813128E+03  0.12699999809E+01 0. -1.
</event>
<event>
 5   0  0.1436000E-03  0.9003806E+03  0.7818609E-02  0.9425106E-01
       -3   -1    0    0    0  501  0.00000000000E+00  0.00000000000E+00  0.40387669669E+03  0.40387670932E+03  0.10100000352E+00 0. -1.
        3   -1    0    0  501    0  0.00000000000E+00  0.00000000000E+00 -0.50181473419E+03  0.50181474435E+03  0.10100000352E+00 0.  1.
    10030    2    1    2    0    0  0.00000000000E+00  0.00000000000E+00 -0.97938037493E+02  0.90569145367E+03  0.90038055847E+03 0.  0.
        1    1    3    3  502    0 -0.23365954617E+03  0.24748823310E+03  0.24742828726E+03  0.42079444673E+03  0.50400001928E-02 0. -1.
       -1    1    3    3    0  502  0.23365954617E+03 -0.24748823310E+03 -0.34536632476E+03  0.48489700694E+03  0.50400001928E-02 0.  1.
</event>
<event>
 5   0  0.3663255E-03  0.9119483E+03  0.7818609E-02  0.9410768E-01
       -2   -1    0    0    0  501  0.00000000000E+00  0.00000000000E+00  0.72365249426E+03  0.72365249427E+03  0.25500000920E-02 0. -1.
        2   -1    0    0  501    0  0.00000000000E+00  0.00000000000E+00 -0.28730974051E+03  0.28730974052E+03  0.25500000920E-02 0.  1.
    10030    2    1    2    0    0  0.00000000000E+00  0.00000000000E+00  0.43634275375E+03  0.10109622348E+04  0.91194826686E+03 0.  0.
        4    1    3    3  502    0  0.15142516100E+03  0.16774679488E+03  0.65720343713E+03  0.69497232840E+03  0.12699999809E+01 0. -1.
       -4    1    3    3    0  502 -0.15142516100E+03 -0.16774679488E+03 -0.22086068338E+03  0.31598990639E+03  0.12699999809E+01 0.  1.
</event>
<event>
 5   0  0.2134145E-03  0.9032327E+03  0.7818609E-02  0.9421549E-01
       -1   -1    0    0    0  501  0.00000000000E+00  0.00000000000E+00  0.71089037889E+03  0.71089037891E+03  0.50400001928E-02 0.  1.
        1   -1    0    0  501    0  0.00000000000E+00  0.00000000000E+00 -0.28690407709E+03  0.28690407714E+03  0.50400001928E-02 0. -1.
    10030    2    1    2    0    0  0.00000000000E+00  0.00000000000E+00  0.42398630180E+03  0.99779445605E+03  0.90323274542E+03 0.  0.
        1    1    3    3  502    0 -0.30103790338E+03  0.19905061150E+03 -0.87931138090E+02  0.37145235264E+03  0.50400001928E-02 0. -1.
       -1    1    3    3    0  502  0.30103790338E+03 -0.19905061150E+03  0.51191743989E+03  0.62634210341E+03  0.50400001928E-02 0.  1.
</event>
<event>
 5   0  0.2295158E-03  0.8957455E+03  0.7818609E-02  0.9430915E-01
       -1   -1    0    0    0  501  0.00000000000E+00  0.00000000000E+00  0.44361130670E+03  0.44361130673E+03  0.50400001928E-02 0. -1.
        1   -1    0    0  501    0  0.00000000000E+00  0.00000000000E+00 -0.45217516429E+03  0.45217516432E+03  0.50400001928E-02 0.  1.
    10030    2    1    2    0    0  0.00000000000E+00  0.00000000000E+00 -0.85638575868E+01  0.89578647105E+03  0.89574553421E+03 0.  0.
        4    1    3    3  502    0 -0.14971364104E+03 -0.14878881812E+03  0.39075019443E+03  0.44411666716E+03  0.12699999809E+01 0. -1.
       -4    1    3    3    0  502  0.14971364104E+03  0.14878881812E+03 -0.39931405201E+03  0.45166980389E+03  0.12699999809E+01 0.  1.
</event>
<event>
 5   0  0.3663255E-03  0.8993124E+03  0.7818609E-02  0.9426441E-01
       -2   -1    0    0    0  501  0.00000000000E+00  0.00000000000E+00  0.41659621457E+03  0.41659621458E+03  0.25500000920E-02 0. -1.
        2   -1    0    0  501    0  0.00000000000E+00  0.00000000000E+00 -0.48533970867E+03  0.48533970868E+03  0.25500000920E-02 0.  1.
    10030    2    1    2    0    0  0.00000000000E+00  0.00000000000E+00 -0.68743494095E+02  0.90193592326E+03  0.89931237158E+03 0.  0.
        4    1    3    3  502    0 -0.31277423168E+03  0.13508107795E+03  0.25993698341E+03  0.42853642303E+03  0.12699999809E+01 0. -1.
       -4    1    3    3    0  502  0.31277423168E+03 -0.13508107795E+03 -0.32868047750E+03  0.47339950023E+03  0.12699999809E+01 0.  1.
</event>
<event>
 5   0  0.3663255E-03  0.9027703E+03  0.7818609E-02  0.9422125E-01
        2   -1    0    0  501    0  0.00000000000E+00  0.00000000000E+00  0.11353321236E+04  0.11353321236E+04  0.25500000920E-02 0. -1.
       -2   -1    0    0    0  501  0.00000000000E+00  0.00000000000E+00 -0.17946162814E+03  0.17946162815E+03  0.25500000920E-02 0.  1.
    10030    2    1    2    0    0  0.00000000000E+00  0.00000000000E+00  0.95587049551E+03  0.13147937518E+04  0.90277029503E+03 0.  0.
        4    1    3    3  502    0 -0.15622696849E+03 -0.39614708929E+03  0.25992464244E+03  0.49890060602E+03  0.12699999809E+01 0.  1.
       -4    1    3    3    0  502  0.15622696849E+03  0.39614708929E+03  0.69594585307E+03  0.81589314578E+03  0.12699999809E+01 0. -1.
</event>
<event>
 5   0  0.3815269E-03  0.8998886E+03  0.7818609E-02  0.9425721E-01
       -2   -1    0    0    0  501  0.00000000000E+00  0.00000000000E+00  0.14865699671E+04  0.14865699671E+04  0.25500000920E-02 0.  1.
        2   -1    0    0  501    0  0.00000000000E+00  0.00000000000E+00 -0.13618590904E+03  0.13618590906E+03  0.25500000920E-02 0. -1.
    10030    2    1    2    0    0  0.00000000000E+00  0.00000000000E+00  0.13503840580E+04  0.16227558761E+04  0.89988862052E+03 0.  0.
        5    1    3    3  502    0 -0.88222897101E+02 -0.18824706724E+03  0.13947176551E+04  0.14101346267E+04  0.46999998093E+01 0.  1.
       -5    1    3    3    0  502  0.88222897101E+02  0.18824706724E+03 -0.44333597062E+02  0.21262124946E+03  0.46999998093E+01 0. -1.
</event>
<event>
 5   0  0.3685879E-03  0.9457282E+03  0.7818609E-02  0.9370158E-01
       -2   -1    0    0    0  501  0.00000000000E+00  0.00000000000E+00  0.22268791903E+03  0.22268791904E+03  0.25500000920E-02 0.  1.
        2   -1    0    0  501    0  0.00000000000E+00  0.00000000000E+00 -0.10040978791E+04  0.10040978791E+04  0.25500000920E-02 0. -1.
    10030    2    1    2    0    0  0.00000000000E+00  0.00000000000E+00 -0.78140996007E+03  0.12267857981E+04  0.94572822144E+03 0.  0.
        1    1    3    3  502    0  0.12989322170E+03  0.44518920542E+03 -0.51054415160E+03  0.68972531375E+03  0.50400001928E-02 0.  1.
       -1    1    3    3    0  502 -0.12989322170E+03 -0.44518920542E+03 -0.27086580847E+03  0.53706048439E+03  0.50400001928E-02 0. -1.
</event>
<event>
 5   0  0.2130975E-03  0.9000102E+03  0.7818609E-02  0.9425569E-01
        1   -1    0    0  501    0  0.00000000000E+00  0.00000000000E+00  0.24772776000E+03  0.24772776005E+03  0.50400001928E-02 0.  1.
       -1   -1    0    0    0  501  0.00000000000E+00  0.00000000000E+00 -0.81744802699E+03  0.81744802701E+03  0.50400001928E-02 0. -1.
    10030    2    1    2    0    0  0.00000000000E+00  0.00000000000E+00 -0.56972026699E+03  0.10651757871E+04  0.90001015256E+03 0.  0.
        5    1    3    3  502    0 -0.10172761192E+03 -0.43809162580E+03 -0.30199860623E+03  0.54175458262E+03  0.46999998093E+01 0. -1.
       -5    1    3    3    0  502  0.10172761192E+03  0.43809162580E+03 -0.26772166076E+03  0.52342120444E+03  0.46999998093E+01 0.  1.
</event>
<event>
 5   0  0.3815269E-03  0.8927387E+03  0.7818609E-02  0.9434704E-01
        2   -1    0    0  501    0  0.00000000000E+00  0.00000000000E+00  0.82746436903E+03  0.82746436904E+03  0.25500000920E-02 0. -1.
       -2   -1    0    0    0  501  0.00000000000E+00  0.00000000000E+00 -0.24079052711E+03  0.24079052712E+03  0.25500000920E-02 0.  1.
    10030    2    1    2    0    0  0.00000000000E+00  0.00000000000E+00  0.58667384193E+03  0.10682548962E+04  0.89273866633E+03 0.  0.
        5    1    3    3  502    0 -0.20230566832E+03 -0.36192187132E+03  0.49107905141E+03  0.64272525165E+03  0.46999998093E+01 0. -1.
       -5    1    3    3    0  502  0.20230566832E+03  0.36192187132E+03  0.95594790512E+02  0.42552964450E+03  0.46999998093E+01 0.  1.
</event>
<event>
 5   0  0.2074970E-03  0.8980156E+03  0.7818609E-02  0.9428065E-01
       -1   -1    0    0    0  501  0.00000000000E+00  0.00000000000E+00  0.77546147992E+03  0.77546147994E+03  0.50400001928E-02 0. -1.
        1   -1    0    0  501    0  0.00000000000E+00  0.00000000000E+00 -0.25998453371E+03  0.25998453376E+03  0.50400001928E-02 0.  1.
    10030    2    1    2    0    0  0.00000000000E+00  0.00000000000E+00  0.51547694621E+03  0.10354460137E+04  0.89801557070E+03 0.  0.
        2    1    3    3  502    0  0.23101131940E+03 -0.27128864974E+03  0.57276107565E+03  0.67455096987E+03  0.25500000920E-02 0. -1.
       -2    1    3    3    0  502 -0.23101131940E+03  0.27128864974E+03 -0.57284129438E+02  0.36089504383E+03  0.25500000920E-02 0.  1.
</event>
<event>
 5   0  0.3815269E-03  0.8953729E+03  0.7818609E-02  0.9431384E-01
       -2   -1    0    0    0  501  0.00000000000E+00  0.00000000000E+00  0.10442271061E+03  0.10442271064E+03  0.25500000920E-02 0.  1.
        2   -1    0    0  501    0  0.00000000000E+00  0.00000000000E+00 -0.19193443593E+04  0.19193443593E+04  0.25500000920E-02 0. -1.
    10030    2    1    2    0    0  0.00000000000E+00  0.00000000000E+00 -0.18149216487E+04  0.20237670700E+04  0.89537286230E+03 0.  0.
        5    1    3    3  502    0 -0.84886497852E+02 -0.26695773937E+03 -0.11821930696E+03  0.30408887954E+03  0.46999998093E+01 0.  1.
       -5    1    3    3    0  502  0.84886497852E+02  0.26695773937E+03 -0.16967023418E+04  0.17196781904E+04  0.46999998093E+01 0. -1.
</event>
<event>
 5   0  0.2129280E-03  0.8995800E+03  0.7818609E-02  0.9426107E-01
       -1   -1    0    0    0  501  0.00000000000E+00  0.00000000000E+00  0.29936261573E+03  0.29936261577E+03  0.50400001928E-02 0. -1.
        1   -1    0    0  501    0  0.00000000000E+00  0.00000000000E+00 -0.67580602956E+03  0.67580602958E+03  0.50400001928E-02 0.  1.
    10030    2    1    2    0    0  0.00000000000E+00  0.00000000000E+00 -0.37644341383E+03  0.97516864536E+03  0.89958003706E+03 0.  0.
        3    1    3    3  502    0 -0.33913315256E+03  0.14438479240E+03  0.91223406732E+02  0.37971039435E+03  0.10100000352E+00 0. -1.
       -3    1    3    3    0  502  0.33913315256E+03 -0.14438479240E+03 -0.46766682056E+03  0.59545825101E+03  0.10100000352E+00 0.  1.
</event>
<event>
 5   0  0.2295158E-03  0.8969148E+03  0.7818609E-02  0.9429446E-01
        1   -1    0    0  501    0  0.00000000000E+00  0.00000000000E+00  0.41969148592E+03  0.41969148595E+03  0.50400001928E-02 0. -1.
       -1   -1    0    0    0  501  0.00000000000E+00  0.00000000000E+00 -0.47919494754E+03  0.47919494757E+03  0.50400001928E-02 0.  1.
    10030    2    1    2    0    0  0.00000000000E+00  0.00000000000E+00 -0.59503461623E+02  0.89888643351E+03  0.89691479997E+03 0.  0.
        4    1    3    3  502    0  0.23220032702E+03 -0.38203227126E+03  0.56356399404E+01  0.44710068384E+03  0.12699999809E+01 0.  1.
       -4    1    3    3    0  502 -0.23220032702E+03  0.38203227126E+03 -0.65139101563E+02  0.45178574967E+03  0.12699999809E+01 0. -1.
</event>
<event>
 5   0  0.2129280E-03  0.9015770E+03  0.7818609E-02  0.9423612E-01
       -1   -1    0    0    0  501  0.00000000000E+00  0.00000000000E+00  0.58832658518E+03  0.58832658520E+03  0.50400001928E-02 0.  1.
        1   -1    0    0  501    0  0.00000000000E+00  0.00000000000E+00 -0.34540388064E+03  0.34540388068E+03  0.50400001928E-02 0. -1.
    10030    2    1    2    0    0  0.00000000000E+00  0.00000000000E+00  0.24292270453E+03  0.93373046588E+03  0.90157703084E+03 0.  0.
        3    1    3    3  502    0  0.37247206460E+02 -0.26507257627E+03  0.49710817132E+03  0.56459487181E+03  0.10100000352E+00 0.  1.
       -3    1    3    3    0  502 -0.37247206460E+02  0.26507257627E+03 -0.25418546679E+03  0.36913559407E+03  0.10100000352E+00 0. -1.
</event>
<event>
 5   0  0.2129280E-03  0.9009041E+03  0.7818609E-02  0.9424452E-01
        1   -1    0    0  501    0  0.00000000000E+00  0.00000000000E+00  0.54866165901E+03  0.54866165904E+03  0.50400001928E-02 0. -1.
       -1   -1    0    0    0  501  0.00000000000E+00  0.00000000000E+00 -0.36982182301E+03  0.36982182305E+03  0.50400001928E-02 0.  1.
    10030    2    1    2    0    0  0.00000000000E+00  0.00000000000E+00  0.17883983600E+03  0.91848348208E+03  0.90090411250E+03 0.  0.
        3    1    3    3  502    0 -0.39672349006E+03  0.33389918142E+02  0.30425100754E+03  0.50107195092E+03  0.10100000352E+00 0. -1.
       -3    1    3    3    0  502  0.39672349006E+03 -0.33389918142E+02 -0.12541117154E+03  0.41741153117E+03  0.10100000352E+00 0.  1.
</event>
<event>
 5   0  0.3806019E-03  0.8969005E+03  0.7818609E-02  0.9429464E-01
        2   -1    0    0  501    0  0.00000000000E+00  0.00000000000E+00  0.24028076439E+04  0.24028076439E+04  0.25500000920E-02 0. -1.
       -2   -1    0    0    0  501  0.00000000000E+00  0.00000000000E+00 -0.83696924963E+02  0.83696925002E+02  0.25500000920E-02 0.  1.
    10030    2    1    2    0    0  0.00000000000E+00  0.00000000000E+00  0.23191107190E+04  0.24865045689E+04  0.89690046521E+03 0.  0.
        2    1    3    3  502    0  0.32776981397E+03 -0.20775684196E+03  0.53647966457E+03  0.66212263730E+03  0.25500000920E-02 0.  1.
       -2    1    3    3    0  502 -0.32776981397E+03  0.20775684196E+03  0.17826310544E+04  0.18243819316E+04  0.25500000920E-02 0. -1.
</event>
<event>
 5   0  0.2130975E-03  0.9001485E+03  0.7818609E-02  0.9425396E-01
        1   -1    0    0  501    0  0.00000000000E+00  0.00000000000E+00  0.45304331438E+03  0.45304331441E+03  0.50400001928E-02 0. -1.
       -1   -1    0    0    0  501  0.00000000000E+00  0.00000000000E+00 -0.44712461647E+03  0.44712461650E+03  0.50400001928E-02 0.  1.
    10030    2    1    2    0    0  0.00000000000E+00  0.00000000000E+00  0.59186979060E+01  0.90016793091E+03  0.90014847267E+03 0.  0.
        5    1    3    3  502    0  0.16182774009E+03 -0.34888453902E+03  0.23670804161E+03  0.45162088746E+03  0.46999998093E+01 0. -1.
       -5    1    3    3    0  502 -0.16182774009E+03  0.34888453902E+03 -0.23078934370E+03  0.44854704345E+03  0.46999998093E+01 0.  1.
</event>
<event>
 5   0  0.2074970E-03  0.9024647E+03  0.7818609E-02  0.9422506E-01
       -1   -1    0    0    0  501  0.00000000000E+00  0.00000000000E+00  0.32174255084E+03  0.32174255088E+03  0.50400001928E-02 0.  1.
        1   -1    0    0  501    0  0.00000000000E+00  0.00000000000E+00 -0.63283709195E+03  0.63283709197E+03  0.50400001928E-02 0. -1.
    10030    2    1    2    0    0  0.00000000000E+00  0.00000000000E+00 -0.31109454111E+03  0.95457964285E+03  0.90246467025E+03 0.  0.
        2    1    3    3  502    0  0.11419693147E+03 -0.12607541684E+03  0.28652871675E+03  0.33321863006E+03  0.25500000920E-02 0.  1.
       -2    1    3    3    0  502 -0.11419693147E+03  0.12607541684E+03 -0.59762325785E+03  0.62136101280E+03  0.25500000920E-02 0. -1.
</event>
<event>
 5   0  0.2129280E-03  0.9001374E+03  0.7818609E-02  0.9425410E-01
        1   -1    0    0  501    0  0.00000000000E+00  0.00000000000E+00  0.41282364283E+03  0.41282364286E+03  0.50400001928E-02 0. -1.
       -1   -1    0    0    0  501  0.00000000000E+00  0.00000000000E+00 -0.49067403158E+03  0.49067403161E+03  0.50400001928E-02 0.  1.
    10030    2    1    2    0    0  0.00000000000E+00  0.00000000000E+00 -0.77850388752E+02  0.90349767447E+03  0.90013741436E+03 0.  0.
        3    1    3    3  502    0  0.17147759014E+03  0.15679852871E+03  0.34796343197E+03  0.41841235966E+03  0.10100000352E+00 0. -1.
       -3    1    3    3    0  502 -0.17147759014E+03 -0.15679852871E+03 -0.42581382072E+03  0.48508531481E+03  0.10100000352E+00 0.  1.
</event>
<event>
 5   0  0.3685879E-03  0.8993803E+03  0.7818609E-02  0.9426356E-01
        2   -1    0    0  501    0  0.00000000000E+00  0.00000000000E+00  0.61335230375E+03  0.61335230376E+03  0.25500000920E-02 0.  1.
       -2   -1    0    0    0  501  0.00000000000E+00  0.00000000000E+00 -0.32969835777E+03  0.32969835778E+03  0.25500000920E-02 0. -1.
    10030    2    1    2    0    0  0.00000000000E+00  0.00000000000E+00  0.28365394598E+03  0.94305066154E+03  0.89938033620E+03 0.  0.
        1    1    3    3  502    0  0.20941851759E+03 -0.30324017675E+03  0.41204237464E+03  0.55280162701E+03  0.50400001928E-02 0.  1.
       -1    1    3    3    0  502 -0.20941851759E+03  0.30324017675E+03 -0.12838842865E+03  0.39024903452E+03  0.50400001928E-02 0. -1.
</event>
<event>
 5   0  0.3806019E-03  0.8993180E+03  0.7818609E-02  0.9426434E-01
       -2   -1    0    0    0  501  0.00000000000E+00  0.00000000000E+00  0.23476660942E+03  0.23476660943E+03  0.25500000920E-02 0.  1.
        2   -1    0    0  501    0  0.00000000000E+00  0.00000000000E+00 -0.86125196370E+03  0.86125196370E+03  0.25500000920E-02 0. -1.
    10030    2    1    2    0    0  0.00000000000E+00  0.00000000000E+00 -0.62648535428E+03  0.10960185731E+04  0.89931797131E+03 0.  0.
        2    1    3    3  502    0  0.18176969544E+02 -0.10391252921E+03 -0.84595800957E+03  0.85250992364E+03  0.25500000920E-02 0. -1.
       -2    1    3    3    0  502 -0.18176969544E+02  0.10391252921E+03  0.21947265529E+03  0.24350864949E+03  0.25500000920E-02 0.  1.
</event>
<event>
 5   0  0.2129280E-03  0.9013945E+03  0.7818609E-02  0.9423840E-01
        1   -1    0    0  501    0  0.00000000000E+00  0.00000000000E+00  0.98147559201E+03  0.98147559203E+03  0.50400001928E-02 0. -1.
       -1   -1    0    0    0  501  0.00000000000E+00  0.00000000000E+00 -0.20696186758E+03  0.20696186764E+03  0.50400001928E-02 0.  1.
    10030    2    1    2    0    0  0.00000000000E+00  0.00000000000E+00  0.77451372444E+03  0.11884374597E+04  0.90139452305E+03 0.  0.
        3    1    3    3  502    0 -0.15782474526E+03  0.23273784171E+03  0.85162680843E+03  0.89685215293E+03  0.10100000352E+00 0. -1.
       -3    1    3    3    0  502  0.15782474526E+03 -0.23273784171E+03 -0.77113083988E+02  0.29158530674E+03  0.10100000352E+00 0.  1.
</event>
<event>
 5   0  0.3685879E-03  0.8993833E+03  0.7818609E-02  0.9426353E-01
       -2   -1    0    0    0  501  0.00000000000E+00  0.00000000000E+00  0.17889720243E+03  0.17889720245E+03  0.25500000920E-02 0. -1.
        2   -1    0    0  501    0  0.00000000000E+00  0.00000000000E+00 -0.11303842336E+04  0.11303842336E+04  0.25500000920E-02 0.  1.
    10030    2    1    2    0    0  0.00000000000E+00  0.00000000000E+00 -0.95148703117E+03  0.13092814361E+04  0.89938329332E+03 0.  0.
        1    1    3    3  502    0 -0.16137662917E+03  0.17364536955E+03 -0.10320388778E+04  0.10589142440E+04  0.50400001928E-02 0.  1.
       -1    1    3    3    0  502  0.16137662917E+03 -0.17364536955E+03  0.80551846673E+02  0.25036719202E+03  0.50400001928E-02 0. -1.
</event>
<event>
 5   0  0.2134145E-03  0.8872183E+03  0.7818609E-02  0.9441702E-01
       -1   -1    0    0    0  501  0.00000000000E+00  0.00000000000E+00  0.20143191255E+03  0.20143191261E+03  0.50400001928E-02 0.  1.
        1   -1    0    0  501    0  0.00000000000E+00  0.00000000000E+00 -0.97695081595E+03  0.97695081596E+03  0.50400001928E-02 0. -1.
    10030    2    1    2    0    0  0.00000000000E+00  0.00000000000E+00 -0.77551890340E+03  0.11783827286E+04  0.88721828513E+03 0.  0.
        1    1    3    3  502    0  0.27795844447E+03 -0.33909983889E+03 -0.47724618192E+03  0.64808449740E+03  0.50400001928E-02 0.  1.
       -1    1    3    3    0  502 -0.27795844447E+03  0.33909983889E+03 -0.29827272148E+03  0.53029823118E+03  0.50400001928E-02 0. -1.
</event>
<event>
 5   0  0.2129280E-03  0.9034788E+03  0.7818609E-02  0.9421243E-01
       -1   -1    0    0    0  501  0.00000000000E+00  0.00000000000E+00  0.33987014267E+03  0.33987014271E+03  0.50400001928E-02 0. -1.
        1   -1    0    0  501    0  0.00000000000E+00  0.00000000000E+00 -0.60043075294E+03  0.60043075296E+03  0.50400001928E-02 0.  1.
    10030    2    1    2    0    0  0.00000000000E+00  0.00000000000E+00 -0.26056061026E+03  0.94030089567E+03  0.90347880040E+03 0.  0.
        3    1    3    3  502    0  0.12411731742E+03 -0.41098646138E+03 -0.27655555981E+03  0.51068382369E+03  0.10100000352E+00 0.  1.
       -3    1    3    3    0  502 -0.12411731742E+03  0.41098646138E+03  0.15994949551E+02  0.42961707197E+03  0.10100000352E+00 0. -1.
</event>
<event>
 5   0  0.3663255E-03  0.8995778E+03  0.7818609E-02  0.9426109E-01
       -2   -1    0    0    0  501  0.00000000000E+00  0.00000000000E+00  0.90641972234E+02  0.90641972270E+02  0.25500000920E-02 0.  1.
        2   -1    0    0  501    0  0.00000000000E+00  0.00000000000E+00 -0.22319688732E+04  0.22319688732E+04  0.25500000920E-02 0. -1.
    10030    2    1    2    0    0  0.00000000000E+00  0.00000000000E+00 -0.21413269010E+04  0.23226108455E+04  0.89957781359E+03 0.  0.
        4    1    3    3  502    0  0.29706506897E+03  0.95972821928E+02 -0.23463327704E+03  0.39052890462E+03  0.12699999809E+01 0.  1.
       -4    1    3    3    0  502 -0.29706506897E+03 -0.95972821928E+02 -0.19066936239E+04  0.19320819408E+04  0.12699999809E+01 0. -1.
</event>
<event>
 5   0  0.1436000E-03  0.8998670E+03  0.7818609E-02  0.9425748E-01
        4   -1    0    0  501    0  0.00000000000E+00  0.00000000000E+00  0.56470254792E+03  0.56470397602E+03  0.12699999809E+01 0.  1.
       -4   -1    0    0    0  501  0.00000000000E+00  0.00000000000E+00 -0.35848686286E+03  0.35848911244E+03  0.12699999809E+01 0. -1.
    10030    2    1    2    0    0  0.00000000000E+00  0.00000000000E+00  0.20621568506E+03  0.92319308846E+03  0.89986697340E+03 0.  0.
        4    1    3    3  502    0 -0.85631008132E+02  0.96452660650E+02  0.54532979093E+03  0.56037664038E+03  0.12699999809E+01 0.  1.
       -4    1    3    3    0  502  0.85631008132E+02 -0.96452660650E+02 -0.33911410587E+03  0.36281644808E+03  0.12699999809E+01 0. -1.
</event>
<event>
 5   0  0.1436000E-03  0.8996425E+03  0.7818609E-02  0.9426028E-01
       -3   -1    0    0    0  501  0.00000000000E+00  0.00000000000E+00  0.29331042389E+03  0.29331044128E+03  0.10100000352E+00 0.  1.
        3   -1    0    0  501    0  0.00000000000E+00  0.00000000000E+00 -0.68984643594E+03  0.68984644334E+03  0.10100000352E+00 0. -1.
    10030    2    1    2    0    0  0.00000000000E+00  0.00000000000E+00 -0.39653601206E+03  0.98315688461E+03  0.89964251284E+03 0.  0.
        4    1    3    3  502    0  0.21091194506E+03 -0.13752344503E+03 -0.60561833383E+03  0.65587477896E+03  0.12699999809E+01 0. -1.
       -4    1    3    3    0  502 -0.21091194506E+03  0.13752344503E+03  0.20908232177E+03  0.32728210566E+03  0.12699999809E+01 0.  1.
</event>
<event>
 5   0  0.3685879E-03  0.9009893E+03  0.7818609E-02  0.9424346E-01
        2   -1    0    0  501    0  0.00000000000E+00  0.00000000000E+00  0.10018358222E+04  0.10018358223E+04  0.25500000920E-02 0.  1.
       -2   -1    0    0    0  501  0.00000000000E+00  0.00000000000E+00 -0.20257353908E+03  0.20257353910E+03  0.25500000920E-02 0. -1.
    10030    2    1    2    0    0  0.00000000000E+00  0.00000000000E+00  0.79926228317E+03  0.12044093613E+04  0.90098929650E+03 0.  0.
        1    1    3    3  502    0 -0.82722569821E+02 -0.29055238812E+02 -0.19105819222E+03  0.21021527846E+03  0.50400001928E-02 0. -1.
       -1    1    3    3    0  502  0.82722569821E+02  0.29055238812E+02  0.99032047538E+03  0.99419408289E+03  0.50400001928E-02 0.  1.
</event>
<event>
 5   0  0.3815269E-03  0.8995265E+03  0.7818609E-02  0.9426174E-01
        2   -1    0    0  501    0  0.00000000000E+00  0.00000000000E+00  0.16426398200E+04  0.16426398200E+04  0.25500000920E-02 0. -1.
       -2   -1    0    0    0  501  0.00000000000E+00  0.00000000000E+00 -0.12314748933E+03  0.12314748936E+03  0.25500000920E-02 0.  1.
    10030    2    1    2    0    0  0.00000000000E+00  0.00000000000E+00  0.15194923307E+04  0.17657873094E+04  0.89952647486E+03 0.  0.
        5    1    3    3  502    0 -0.30686899532E+03  0.18111975607E+03  0.12983862454E+04  0.13464033120E+04  0.46999998093E+01 0. -1.
       -5    1    3    3    0  502  0.30686899532E+03 -0.18111975607E+03  0.22110608533E+03  0.41938399742E+03  0.46999998093E+01 0.  1.
</event>
<event>
 5   0  0.3663255E-03  0.8998787E+03  0.7818609E-02  0.9425733E-01
        2   -1    0    0  501    0  0.00000000000E+00  0.00000000000E+00  0.15185171727E+04  0.15185171727E+04  0.25500000920E-02 0. -1.
       -2   -1    0    0    0  501  0.00000000000E+00  0.00000000000E+00 -0.13331784110E+03  0.13331784113E+03  0.25500000920E-02 0.  1.
    10030    2    1    2    0    0  0.00000000000E+00  0.00000000000E+00  0.13851993316E+04  0.16518350138E+04  0.89987872775E+03 0.  0.
        4    1    3    3  502    0  0.36170939385E+03 -0.24467792052E+03  0.89151552011E+03  0.99272478860E+03  0.12699999809E+01 0.  1.
       -4    1    3    3    0  502 -0.36170939385E+03  0.24467792052E+03  0.49368381150E+03  0.65911022525E+03  0.12699999809E+01 0. -1.
</event>
<event>
 5   0  0.2129280E-03  0.8967292E+03  0.7818609E-02  0.9429679E-01
       -1   -1    0    0    0  501  0.00000000000E+00  0.00000000000E+00  0.34887598901E+03  0.34887598905E+03  0.50400001928E-02 0. -1.
        1   -1    0    0  501    0  0.00000000000E+00  0.00000000000E+00 -0.57622421860E+03  0.57622421862E+03  0.50400001928E-02 0.  1.
    10030    2    1    2    0    0  0.00000000000E+00  0.00000000000E+00 -0.22734822959E+03  0.92510020767E+03  0.89672915461E+03 0.  0.
        3    1    3    3  502    0 -0.17055204284E+03 -0.19548726354E+03  0.26358337866E+03  0.36983709553E+03  0.10100000352E+00 0. -1.
       -3    1    3    3    0  502  0.17055204284E+03  0.19548726354E+03 -0.49093160825E+03  0.55526311214E+03  0.10100000352E+00 0.  1.
</event>
<event>
 5   0  0.2129280E-03  0.9034721E+03  0.7818609E-02  0.9421252E-01
       -1   -1    0    0    0  501  0.00000000000E+00  0.00000000000E+00  0.58609141923E+03  0.58609141925E+03  0.50400001928E-02 0.  1.
        1   -1    0    0  501    0  0.00000000000E+00  0.00000000000E+00 -0.34818026079E+03  0.34818026082E+03  0.50400001928E-02 0. -1.
    10030    2    1    2    0    0  0.00000000000E+00  0.00000000000E+00  0.23791115844E+03  0.93427168007E+03  0.90347210963E+03 0.  0.
        3    1    3    3  502    0 -0.34251007772E+03 -0.14805652863E+03  0.38225607909E+03  0.53418499531E+03  0.10100000352E+00 0.  1.
       -3    1    3    3    0  502  0.34251007772E+03  0.14805652863E+03 -0.14434492065E+03  0.40008668477E+03  0.10100000352E+00 0. -1.
</event>
<event>
 5   0  0.3626546E-03  0.8989763E+03  0.7818609E-02  0.9426862E-01
        2   -1    0    0  501    0  0.00000000000E+00  0.00000000000E+00  0.73264908871E+03  0.73264908872E+03  0.25500000920E-02 0. -1.
       -2   -1    0    0    0  501  0.00000000000E+00  0.00000000000E+00 -0.27576582097E+03  0.27576582098E+03  0.25500000920E-02 0.  1.
    10030    2    1    2    0    0  0.00000000000E+00  0.00000000000E+00  0.45688326774E+03  0.10084149097E+04  0.89897625651E+03 0.  0.
        3    1    3    3  502    0  0.53597702247E+02  0.20503755680E+03 -0.21620569873E+03  0.30275076837E+03  0.10100000352E+00 0.  1.
       -3    1    3    3    0  502 -0.53597702247E+02 -0.20503755680E+03  0.67308896647E+03  0.70566414134E+03  0.10100000352E+00 0. -1.
</event>
<event>
 5   0  0.3663255E-03  0.8954334E+03  0.7818609E-02  0.9431308E-01
        2   -1    0    0  501    0  0.00000000000E+00  0.00000000000E+00  0.17311533843E+04  0.17311533843E+04  0.25500000920E-02 0. -1.
       -2   -1    0    0    0  501  0.00000000000E+00  0.00000000000E+00 -0.11578998851E+03  0.11578998854E+03  0.25500000920E-02 0.  1.
    10030    2    1    2    0    0  0.00000000000E+00  0.00000000000E+00  0.16153633958E+04  0.18469433729E+04  0.89543337106E+03 0.  0.
        4    1    3    3  502    0 -0.10362368593E+03  0.20081470288E+03  0.16048915255E+04  0.16207229358E+04  0.12699999809E+01 0. -1.
       -4    1    3    3    0  502  0.10362368593E+03 -0.20081470288E+03  0.10471870341E+02  0.22622043706E+03  0.12699999809E+01 0.  1.
</event>
<event>
 5   0  0.2074970E-03  0.8969132E+03  0.7818609E-02  0.9429448E-01
        1   -1    0    0  501    0  0.00000000000E+00  0.00000000000E+00  0.75270810071E+03  0.75270810073E+03  0.50400001928E-02 0.  1.
       -1   -1    0    0    0  501  0.00000000000E+00  0.00000000000E+00 -0.26718635977E+03  0.26718635982E+03  0.50400001928E-02 0. -1.
    10030    2    1    2    0    0  0.00000000000E+00  0.00000000000E+00  0.48552174094E+03  0.10198944605E+04  0.89691323422E+03 0.  0.
        2    1    3    3  502    0  0.26670086743E+01  0.24529430871E+03  0.66965206733E+03  0.71316919598E+03  0.25500000920E-02 0. -1.
       -2    1    3    3    0  502 -0.26670086743E+01 -0.24529430871E+03 -0.18413032638E+03  0.30672526456E+03  0.25500000920E-02 0.  1.
</event>
<event>
 5   0  0.2134145E-03  0.8681727E+03  0.7818609E-02  0.9466266E-01
       -1   -1    0    0    0  501  0.00000000000E+00  0.00000000000E+00  0.31528113957E+03  0.31528113961E+03  0.50400001928E-02 0.  1.
        1   -1    0    0  501    0  0.00000000000E+00  0.00000000000E+00 -0.59766014590E+03  0.59766014592E+03  0.50400001928E-02 0. -1.
    10030    2    1    2    0    0  0.00000000000E+00  0.00000000000E+00 -0.28237900633E+03  0.91294128553E+03  0.86817272913E+03 0.  0.
        1    1    3    3  502    0  0.36699425508E+03  0.22517593317E+03 -0.83191180106E+02  0.43853136332E+03  0.50400001928E-02 0. -1.
       -1    1    3    3    0  502 -0.36699425508E+03 -0.22517593317E+03 -0.19918782623E+03  0.47440992221E+03  0.50400001928E-02 0.  1.
</event>
<event>
 5   0  0.2074970E-03  0.8960579E+03  0.7818609E-02  0.9430523E-01
       -1   -1    0    0    0  501  0.00000000000E+00  0.00000000000E+00  0.21147800714E+03  0.21147800720E+03  0.50400001928E-02 0. -1.
        1   -1    0    0  501    0  0.00000000000E+00  0.00000000000E+00 -0.94917640986E+03  0.94917640988E+03  0.50400001928E-02 0.  1.
    10030    2    1    2    0    0  0.00000000000E+00  0.00000000000E+00 -0.73769840272E+03  0.11606544171E+04  0.89605789015E+03 0.  0.
        2    1    3    3  502    0 -0.37945453031E+02 -0.37731572049E+03 -0.59812211156E+02  0.38390690401E+03  0.25500000920E-02 0. -1.
       -2    1    3    3    0  502  0.37945453031E+02  0.37731572049E+03 -0.67788619157E+03  0.77674751307E+03  0.25500000920E-02 0.  1.
</event>
<event>
 5   0  0.1436000E-03  0.9002746E+03  0.7818609E-02  0.9425238E-01
       -3   -1    0    0    0  501  0.00000000000E+00  0.00000000000E+00  0.87650556816E+03  0.87650557398E+03  0.10100000352E+00 0. -1.
        3   -1    0    0  501    0  0.00000000000E+00  0.00000000000E+00 -0.23117202482E+03  0.23117204688E+03  0.10100000352E+00 0.  1.
    10030    2    1    2    0    0  0.00000000000E+00  0.00000000000E+00  0.64533354334E+03  0.11076776209E+04  0.90027458566E+03 0.  0.
        1    1    3    3  502    0  0.34010191625E+02 -0.44569103872E+03  0.38807828890E+03  0.59194759352E+03  0.50400001928E-02 0.  1.
       -1    1    3    3    0  502 -0.34010191625E+02  0.44569103872E+03  0.25725525444E+03  0.51573002733E+03  0.50400001928E-02 0. -1.
</event>
<event>
 5   0  0.3663255E-03  0.9004082E+03  0.7818609E-02  0.9425071E-01
        2   -1    0    0  501    0  0.00000000000E+00  0.00000000000E+00  0.41222092535E+03  0.41222092536E+03  0.25500000920E-02 0.  1.
       -2   -1    0    0    0  501  0.00000000000E+00  0.00000000000E+00 -0.49168718357E+03  0.49168718357E+03  0.25500000920E-02 0. -1.
    10030    2    1    2    0    0  0.00000000000E+00  0.00000000000E+00 -0.79466258216E+02  0.90390810893E+03  0.90040823141E+03 0.  0.
        4    1    3    3  502    0  0.35678775306E+03 -0.27237640299E+03 -0.74446827838E+02  0.45500587768E+03  0.12699999809E+01 0. -1.
       -4    1    3    3    0  502 -0.35678775306E+03  0.27237640299E+03 -0.50194303777E+01  0.44890223126E+03  0.12699999809E+01 0.  1.
</event>
<event>
 5   0  0.3663255E-03  0.8939894E+03  0.7818609E-02  0.9433126E-01
       -2   -1    0    0    0  501  0.00000000000E+00  0.00000000000E+00  0.35117755407E+03  0.35117755408E+03  0.25500000920E-02 0. -1.
        2   -1    0    0  501    0  0.00000000000E+00  0.00000000000E+00 -0.56895514560E+03  0.56895514561E+03  0.25500000920E-02 0.  1.
    10030    2    1    2    0    0  0.00000000000E+00  0.00000000000E+00 -0.21777759153E+03  0.92013269969E+03  0.89398943264E+03 0.  0.
        4    1    3    3  502    0 -0.14841148511E+03 -0.41170244705E+03 -0.15245805384E+02  0.43790286743E+03  0.12699999809E+01 0. -1.
       -4    1    3    3    0  502  0.14841148511E+03  0.41170244705E+03 -0.20253178614E+03  0.48222983226E+03  0.12699999809E+01 0.  1.
</event>
<event>
 5   0  0.3815269E-03  0.9017106E+03  0.7818609E-02  0.9423446E-01
        2   -1    0    0  501    0  0.00000000000E+00  0.00000000000E+00  0.25892986032E+04  0.25892986032E+04  0.25500000920E-02 0. -1.
       -2   -1    0    0    0  501  0.00000000000E+00  0.00000000000E+00 -0.78504078935E+02  0.78504078976E+02  0.25500000920E-02 0.  1.
    10030    2    1    2    0    0  0.00000000000E+00  0.00000000000E+00  0.25107945243E+04  0.26678026822E+04  0.90171060100E+03 0.  0.
        5    1    3    3  502    0 -0.27626578301E+02 -0.44997688656E+03  0.12626356992E+04  0.13407137745E+04  0.46999998093E+01 0.  1.
       -5    1    3    3    0  502  0.27626578301E+02  0.44997688656E+03  0.12481588251E+04  0.13270889077E+04  0.46999998093E+01 0. -1.
</event>
<event>
 5   0  0.1436000E-03  0.8948947E+03  0.7818609E-02  0.9431986E-01
        3   -1    0    0  501    0  0.00000000000E+00  0.00000000000E+00  0.16461443205E+04  0.16461443236E+04  0.10100000352E+00 0.  1.
       -3   -1    0    0    0  501  0.00000000000E+00  0.00000000000E+00 -0.12162305692E+03  0.12162309886E+03  0.10100000352E+00 0. -1.
    10030    2    1    2    0    0  0.00000000000E+00  0.00000000000E+00  0.15245212636E+04  0.17677674224E+04  0.89489472944E+03 0.  0.
        5    1    3    3  502    0 -0.31913906284E+03 -0.19701095903E+03  0.12442075537E+04  0.12995143655E+04  0.46999998093E+01 0.  1.
       -5    1    3    3    0  502  0.31913906284E+03  0.19701095903E+03  0.28031370983E+03  0.46825305693E+03  0.46999998093E+01 0. -1.
</event>
<event>
 5   0  0.2129280E-03  0.8976298E+03  0.7818609E-02  0.9428549E-01
       -1   -1    0    0    0  501  0.00000000000E+00  0.00000000000E+00  0.15498706912E+03  0.15498706920E+03  0.50400001928E-02 0.  1.
        1   -1    0    0  501    0  0.00000000000E+00  0.00000000000E+00 -0.12996878309E+04  0.12996878309E+04  0.50400001928E-02 0. -1.
    10030    2    1    2    0    0  0.00000000000E+00  0.00000000000E+00 -0.11447007618E+04  0.14546749001E+04  0.89762978503E+03 0.  0.
        3    1    3    3  502    0 -0.42886437188E+03  0.80718869333E+01 -0.35830587410E+03  0.55890331404E+03  0.10100000352E+00 0.  1.
       -3    1    3    3    0  502  0.42886437188E+03 -0.80718869333E+01 -0.78639488770E+03  0.89577158608E+03  0.10100000352E+00 0. -1.
</event>
<event>
 5   0  0.2074970E-03  0.9044158E+03  0.7818609E-02  0.9420078E-01
        1   -1    0    0  501    0  0.00000000000E+00  0.00000000000E+00  0.46189205115E+03  0.46189205118E+03  0.50400001928E-02 0. -1.
       -1   -1    0    0    0  501  0.00000000000E+00  0.00000000000E+00 -0.44272682826E+03  0.44272682829E+03  0.50400001928E-02 0.  1.
    10030    2    1    2    0    0  0.00000000000E+00  0.00000000000E+00  0.19165222891E+02  0.90461887947E+03  0.90441583983E+03 0.  0.
        2    1    3    3  502    0  0.18947514365E+03 -0.41048003706E+03 -0.28428470148E+00  0.45210040003E+03  0.25500000920E-02 0. -1.
       -2    1    3    3    0  502 -0.18947514365E+03  0.41048003706E+03  0.19449507592E+02  0.45251847944E+03  0.25500000920E-02 0.  1.
</event>
<event>
 5   0  0.3685879E-03  0.9031699E+03  0.7818609E-02  0.9421628E-01
       -2   -1    0    0    0  501  0.00000000000E+00  0.00000000000E+00  0.21997943369E+03  0.21997943370E+03  0.25500000920E-02 0. -1.
        2   -1    0    0  501    0  0.00000000000E+00  0.00000000000E+00 -0.92703657351E+03  0.92703657351E+03  0.25500000920E-02 0.  1.
    10030    2    1    2    0    0  0.00000000000E+00  0.00000000000E+00 -0.70705713982E+03  0.11470160072E+04  0.90316992966E+03 0.  0.
        1    1    3    3  502    0 -0.76707851402E+02 -0.10927305075E+03 -0.90139942376E+03  0.91123301919E+03  0.50400001928E-02 0.  1.
       -1    1    3    3    0  502  0.76707851402E+02  0.10927305075E+03  0.19434228394E+03  0.23578298802E+03  0.50400001928E-02 0. -1.
</event>
<event>
 5   0  0.2295158E-03  0.9037496E+03  0.7818609E-02  0.9420906E-01
        1   -1    0    0  501    0  0.00000000000E+00  0.00000000000E+00  0.37197961391E+03  0.37197961395E+03  0.50400001928E-02 0. -1.
       -1   -1    0    0    0  501  0.00000000000E+00  0.00000000000E+00 -0.54893018207E+03  0.54893018210E+03  0.50400001928E-02 0.  1.
    10030    2    1    2    0    0  0.00000000000E+00  0.00000000000E+00 -0.17695056816E+03  0.92090979604E+03  0.90374960519E+03 0.  0.
        4    1    3    3  502    0  0.80221136577E+02  0.40473438483E+02  0.36278295787E+03  0.37374672894E+03  0.12699999809E+01 0. -1.
       -4    1    3    3    0  502 -0.80221136577E+02 -0.40473438483E+02 -0.53973352603E+03  0.54716306710E+03  0.12699999809E+01 0.  1.
</event>
<event>
 5   0  0.3685879E-03  0.8933010E+03  0.7818609E-02  0.9433994E-01
       -2   -1    0    0    0  501  0.00000000000E+00  0.00000000000E+00  0.57656687519E+03  0.57656687519E+03  0.25500000920E-02 0. -1.
        2   -1    0    0  501    0  0.00000000000E+00  0.00000000000E+00 -0.34600783184E+03  0.34600783185E+03  0.25500000920E-02 0.  1.
    10030    2    1    2    0    0  0.00000000000E+00  0.00000000000E+00  0.23055904335E+03  0.92257470704E+03  0.89330096697E+03 0.  0.
        1    1    3    3  502    0 -0.11899810929E+03  0.13504123899E+03  0.53745394946E+03  0.56679223183E+03  0.50400001928E-02 0. -1.
       -1    1    3    3    0  502  0.11899810929E+03 -0.13504123899E+03 -0.30689490611E+03  0.35578247521E+03  0.50400001928E-02 0.  1.
</event>
<event>
 5   0  0.1436000E-03  0.9010394E+03  0.7818609E-02  0.9424283E-01
        3   -1    0    0  501    0  0.00000000000E+00  0.00000000000E+00  0.11954924051E+04  0.11954924094E+04  0.10100000352E+00 0.  1.
       -3   -1    0    0    0  501  0.00000000000E+00  0.00000000000E+00 -0.16977772688E+03  0.16977775692E+03  0.10100000352E+00 0. -1.
    10030    2    1    2    0    0  0.00000000000E+00  0.00000000000E+00  0.10257146782E+04  0.13652701663E+04  0.90103941413E+03 0.  0.
        4    1    3    3  502    0 -0.46457982963E+02  0.10813994212E+03 -0.14606832771E+03  0.18759040626E+03  0.12699999809E+01 0. -1.
       -4    1    3    3    0  502  0.46457982963E+02 -0.10813994212E+03  0.11717830059E+04  0.11776797600E+04  0.12699999809E+01 0.  1.
</event>
<event>
 5   0  0.3806019E-03  0.9042849E+03  0.7818609E-02  0.9420241E-01
       -2   -1    0    0    0  501  0.00000000000E+00  0.00000000000E+00  0.72909160844E+03  0.72909160844E+03  0.25500000920E-02 0. -1.
        2   -1    0    0  501    0  0.00000000000E+00  0.00000000000E+00 -0.28039385079E+03  0.28039385080E+03  0.25500000920E-02 0.  1.
    10030    2    1    2    0    0  0.00000000000E+00  0.00000000000E+00  0.44869775765E+03  0.10094854592E+04  0.90428491898E+03 0.  0.
        2    1    3    3  502    0 -0.35369866505E+02  0.72452146703E+02  0.72100214249E+03  0.72549598931E+03  0.25500000920E-02 0. -1.
       -2    1    3    3    0  502  0.35369866505E+02 -0.72452146703E+02 -0.27230438485E+03  0.28398946993E+03  0.25500000920E-02 0.  1.
</event>
<event>
 5   0  0.2295158E-03  0.9001916E+03  0.7818609E-02  0.9425342E-01
        1   -1    0    0  501    0  0.00000000000E+00  0.00000000000E+00  0.65406905714E+03  0.65406905716E+03  0.50400001928E-02 0.  1.
       -1   -1    0    0    0  501  0.00000000000E+00  0.00000000000E+00 -0.30973214926E+03  0.30973214930E+03  0.50400001928E-02 0. -1.
    10030    2    1    2    0    0  0.00000000000E+00  0.00000000000E+00  0.34433690789E+03  0.96380120646E+03  0.90019156819E+03 0.  0.
        4    1    3    3  502    0  0.35123203014E+03  0.89851092698E+02  0.45775133885E+03  0.58393069706E+03  0.12699999809E+01 0.  1.
       -4    1    3    3    0  502 -0.35123203014E+03 -0.89851092698E+02 -0.11341443096E+03  0.37987050939E+03  0.12699999809E+01 0. -1.
</event>
<event>
 5   0  0.3663255E-03  0.8996201E+03  0.7818609E-02  0.9426056E-01
        2   -1    0    0  501    0  0.00000000000E+00  0.00000000000E+00  0.12277985831E+04  0.12277985831E+04  0.25500000920E-02 0.  1.
       -2   -1    0    0    0  501  0.00000000000E+00  0.00000000000E+00 -0.16479013191E+03  0.16479013193E+03  0.25500000920E-02 0. -1.
    10030    2    1    2    0    0  0.00000000000E+00  0.00000000000E+00  0.10630084511E+04  0.13925887150E+04  0.89962012090E+03 0.  0.
        4    1    3    3  502    0 -0.29924490373E+03  0.25602632900E+03  0.86791888288E+03  0.95309065346E+03  0.12699999809E+01 0.  1.
       -4    1    3    3    0  502  0.29924490373E+03 -0.25602632900E+03  0.19508956827E+03  0.43949806154E+03  0.12699999809E+01 0. -1.
</event>
<event>
 5   0  0.2129280E-03  0.8844253E+03  0.7818609E-02  0.9445263E-01
       -1   -1    0    0    0  501  0.00000000000E+00  0.00000000000E+00  0.50101675051E+03  0.50101675054E+03  0.50400001928E-02 0.  1.
        1   -1    0    0  501    0  0.00000000000E+00  0.00000000000E+00 -0.39031038570E+03  0.39031038573E+03  0.50400001928E-02 0. -1.
    10030    2    1    2    0    0  0.00000000000E+00  0.00000000000E+00  0.11070636481E+03  0.89132713627E+03  0.88442533016E+03 0.  0.
        3    1    3    3  502    0  0.88209672924E+02  0.25270545692E+03 -0.29940379945E+03  0.40160134422E+03  0.10100000352E+00 0. -1.
       -3    1    3    3    0  502 -0.88209672924E+02 -0.25270545692E+03  0.41011016427E+03  0.48972579204E+03  0.10100000352E+00 0.  1.
</event>
<event>
 5   0  0.3815269E-03  0.8967586E+03  0.7818609E-02  0.9429642E-01
        2   -1    0    0  501    0  0.00000000000E+00  0.00000000000E+00  0.11350737328E+04  0.11350737328E+04  0.25500000920E-02 0.  1.
       -2   -1    0    0    0  501  0.00000000000E+00  0.00000000000E+00 -0.17711976112E+03  0.17711976114E+03  0.25500000920E-02 0. -1.
    10030    2    1    2    0    0  0.00000000000E+00  0.00000000000E+00  0.95795397167E+03  0.13121934939E+04  0.89675858161E+03 0.  0.
        5    1    3    3  502    0 -0.16908705520E+03 -0.21724532083E+03 -0.38852556046E+02  0.27806037612E+03  0.46999998093E+01 0. -1.
       -5    1    3    3    0  502  0.16908705520E+03  0.21724532083E+03  0.99680652771E+03  0.10341331178E+04  0.46999998093E+01 0.  1.
</event>
<event>
 5   0  0.3815269E-03  0.8993077E+03  0.7818609E-02  0.9426447E-01
       -2   -1    0    0    0  501  0.00000000000E+00  0.00000000000E+00  0.90130264288E+03  0.90130264288E+03  0.25500000920E-02 0.  1.
        2   -1    0    0  501    0  0.00000000000E+00  0.00000000000E+00 -0.22432927324E+03  0.22432927326E+03  0.25500000920E-02 0. -1.
    10030    2    1    2    0    0  0.00000000000E+00  0.00000000000E+00  0.67697336963E+03  0.11256319161E+04  0.89930766006E+03 0.  0.
        5    1    3    3  502    0  0.24447124911E+03 -0.36601984979E+03  0.22356669561E+03  0.49370120464E+03  0.46999998093E+01 0. -1.
       -5    1    3    3    0  502 -0.24447124911E+03  0.36601984979E+03  0.45340667403E+03  0.63193071150E+03  0.46999998093E+01 0.  1.
</event>
<event>
 5   0  0.3685879E-03  0.8995477E+03  0.7818609E-02  0.9426147E-01
        2   -1    0    0  501    0  0.00000000000E+00  0.00000000000E+00  0.49196155640E+03  0.49196155640E+03  0.25500000920E-02 0.  1.
       -2   -1    0    0    0  501  0.00000000000E+00  0.00000000000E+00 -0.41120394417E+03  0.41120394418E+03  0.25500000920E-02 0. -1.
    10030    2    1    2    0    0  0.00000000000E+00  0.00000000000E+00  0.80757612227E+02  0.90316550058E+03  0.89954773609E+03 0.  0.
        1    1    3    3  502    0 -0.35844006365E+03  0.52333997331E+02 -0.22729875362E+03  0.42764804446E+03  0.50400001928E-02 0. -1.
       -1    1    3    3    0  502  0.35844006365E+03 -0.52333997331E+02  0.30805636585E+03  0.47551745612E+03  0.50400001928E-02 0.  1.
</event>
<event>
 5   0  0.2074970E-03  0.9139467E+03  0.7818609E-02  0.9408313E-01
        1   -1    0    0  501    0  0.00000000000E+00  0.00000000000E+00  0.49774480098E+03  0.49774480101E+03  0.50400001928E-02 0.  1.
       -1   -1    0    0    0  501  0.00000000000E+00  0.00000000000E+00 -0.41954155242E+03  0.41954155245E+03  0.50400001928E-02 0. -1.
    10030    2    1    2    0    0  0.00000000000E+00  0.00000000000E+00  0.78203248561E+02  0.91728635346E+03  0.91394666483E+03 0.  0.
        2    1    3    3  502    0  0.30099356434E+03  0.16240439501E+03  0.34328055526E+03  0.48457595166E+03  0.25500000920E-02 0.  1.
       -2    1    3    3    0  502 -0.30099356434E+03 -0.16240439501E+03 -0.26507730670E+03  0.43271040181E+03  0.25500000920E-02 0. -1.
</event>
<event>
 5   0  0.2129280E-03  0.8944504E+03  0.7818609E-02  0.9432545E-01
       -1   -1    0    0    0  501  0.00000000000E+00  0.00000000000E+00  0.21018822527E+03  0.21018822533E+03  0.50400001928E-02 0.  1.
        1   -1    0    0  501    0  0.00000000000E+00  0.00000000000E+00 -0.95157738574E+03  0.95157738575E+03  0.50400001928E-02 0. -1.
    10030    2    1    2    0    0  0.00000000000E+00  0.00000000000E+00 -0.74138916047E+03  0.11617656111E+04  0.89445036074E+03 0.  0.
        3    1    3    3  502    0 -0.52147597105E+02 -0.43934459212E+03 -0.45554213519E+03  0.63502888883E+03  0.10100000352E+00 0.  1.
       -3    1    3    3    0  502  0.52147597105E+02  0.43934459212E+03 -0.28584702528E+03  0.52673672225E+03  0.10100000352E+00 0. -1.
</event>
<event>
 5   0  0.2134145E-03  0.9025614E+03  0.7818609E-02  0.9422385E-01
        1   -1    0    0  501    0  0.00000000000E+00  0.00000000000E+00  0.13543159254E+04  0.13543159254E+04  0.50400001928E-02 0. -1.
       -1   -1    0    0    0  501  0.00000000000E+00  0.00000000000E+00 -0.15037428703E+03  0.15037428711E+03  0.50400001928E-02 0.  1.
    10030    2    1    2    0    0  0.00000000000E+00  0.00000000000E+00  0.12039416383E+04  0.15046902125E+04  0.90256144779E+03 0.  0.
        1    1    3    3  502    0 -0.33269280832E+03 -0.28193192704E+03  0.40838099923E+03  0.59744887376E+03  0.50400001928E-02 0. -1.
       -1    1    3    3    0  502  0.33269280832E+03  0.28193192704E+03  0.79556063910E+03  0.90724133873E+03  0.50400001928E-02 0.  1.
</event>
<event>
 5   0  0.3663255E-03  0.9071103E+03  0.7818609E-02  0.9416737E-01
       -2   -1    0    0    0  501  0.00000000000E+00  0.00000000000E+00  0.59104874989E+03  0.59104874990E+03  0.25500000920E-02 0. -1.
        2   -1    0    0  501    0  0.00000000000E+00  0.00000000000E+00 -0.34804618996E+03  0.34804618996E+03  0.25500000920E-02 0.  1.
    10030    2    1    2    0    0  0.00000000000E+00  0.00000000000E+00  0.24300255994E+03  0.93909493986E+03  0.90711028102E+03 0.  0.
        4    1    3    3  502    0  0.14101537487E+03 -0.17606842815E+03 -0.28585111264E+03  0.36413994403E+03  0.12699999809E+01 0.  1.
       -4    1    3    3    0  502 -0.14101537487E+03  0.17606842815E+03  0.52885367258E+03  0.57495499584E+03  0.12699999809E+01 0. -1.
</event>
<event>
 5   0  0.2130975E-03  0.8965260E+03  0.7818609E-02  0.9429935E-01
       -1   -1    0    0    0  501  0.00000000000E+00  0.00000000000E+00  0.24114992601E+03  0.24114992606E+03  0.50400001928E-02 0. -1.
        1   -1    0    0  501    0  0.00000000000E+00  0.00000000000E+00 -0.83325638432E+03  0.83325638433E+03  0.50400001928E-02 0.  1.
    10030    2    1    2    0    0  0.00000000000E+00  0.00000000000E+00 -0.59210645831E+03  0.10744063104E+04  0.89652599620E+03 0.  0.
        5    1    3    3  502    0 -0.17389323306E+03 -0.27642216694E+02  0.19794012948E+03  0.26496289081E+03  0.46999998093E+01 0. -1.
       -5    1    3    3    0  502  0.17389323306E+03  0.27642216694E+02 -0.79004658779E+03  0.80944341959E+03  0.46999998093E+01 0.  1.
</event>
<event>
 5   0  0.2295158E-03  0.8950850E+03  0.7818609E-02  0.9431746E-01
        1   -1    0    0  501    0  0.00000000000E+00  0.00000000000E+00  0.17210545262E+04  0.17210545262E+04  0.50400001928E-02 0. -1.
       -1   -1    0    0    0  501  0.00000000000E+00  0.00000000000E+00 -0.11637880830E+03  0.11637880841E+03  0.50400001928E-02 0.  1.
    10030    2    1    2    0    0  0.00000000000E+00  0.00000000000E+00  0.16046757179E+04  0.18374333346E+04  0.89508496778E+03 0.  0.
        4    1    3    3  502    0  0.30895769445E+02 -0.15411854782E+03 -0.57846930989E+02  0.16749613630E+03  0.12699999809E+01 0.  1.
       -4    1    3    3    0  502 -0.30895769445E+02  0.15411854782E+03  0.16625226489E+04  0.16699371983E+04  0.12699999809E+01 0. -1.
</event>
<event>
 5   0  0.2074970E-03  0.9000398E+03  0.7818609E-02  0.9425532E-01
        1   -1    0    0  501    0  0.00000000000E+00  0.00000000000E+00  0.10451884611E+04  0.10451884611E+04  0.50400001928E-02 0.  1.
       -1   -1    0    0    0  501  0.00000000000E+00  0.00000000000E+00 -0.19376210527E+03  0.19376210533E+03  0.50400001928E-02 0. -1.
    10030    2    1    2    0    0  0.00000000000E+00  0.00000000000E+00  0.85142635584E+03  0.12389505664E+04  0.90003981394E+03 0.  0.
        2    1    3    3  502    0 -0.36965303235E+01  0.93853962278E+02 -0.18011885356E+03  0.20313796293E+03  0.25500000920E-02 0. -1.
       -2    1    3    3    0  502  0.36965303235E+01 -0.93853962278E+02  0.10315452094E+04  0.10358126035E+04  0.25500000920E-02 0.  1.
</event>
<event>
 5   0  0.3626546E-03  0.9006205E+03  0.7818609E-02  0.9424806E-01
        2   -1    0    0  501    0  0.00000000000E+00  0.00000000000E+00  0.26078389629E+03  0.26078389630E+03  0.25500000920E-02 0. -1.
       -2   -1    0    0    0  501  0.00000000000E+00  0.00000000000E+00 -0.77757605073E+03  0.77757605073E+03  0.25500000920E-02 0.  1.
    10030    2    1    2    0    0  0.00000000000E+00  0.00000000000E+00 -0.51679215444E+03  0.10383599470E+04  0.90062047985E+03 0.  0.
        3    1    3    3  502    0 -0.37099380036E+03 -0.24238880492E+03 -0.16622898537E+03  0.47330837562E+03  0.10100000352E+00 0. -1.
       -3    1    3    3    0  502  0.37099380036E+03  0.24238880492E+03 -0.35056316907E+03  0.56505157142E+03  0.10100000352E+00 0.  1.
</event>
<event>
 5   0  0.3663255E-03  0.8693930E+03  0.7818609E-02  0.9464672E-01
       -2   -1    0    0    0  501  0.00000000000E+00  0.00000000000E+00  0.11375373601E+03  0.11375373604E+03  0.25500000920E-02 0.  1.
        2   -1    0    0  501    0  0.00000000000E+00  0.00000000000E+00 -0.16611415604E+04  0.16611415604E+04  0.25500000920E-02 0. -1.
    10030    2    1    2    0    0  0.00000000000E+00  0.00000000000E+00 -0.15473878244E+04  0.17748952965E+04  0.86939302636E+03 0.  0.
        4    1    3    3  502    0 -0.60537367584E+01 -0.21880436920E+03 -0.15404181624E+04  0.15558925823E+04  0.12699999809E+01 0. -1.
       -4    1    3    3    0  502  0.60537367584E+01  0.21880436920E+03 -0.69696619712E+01  0.21900271413E+03  0.12699999809E+01 0.  1.
</event>
<event>
 5   0  0.3685879E-03  0.9005586E+03  0.7818609E-02  0.9424883E-01
        2   -1    0    0  501    0  0.00000000000E+00  0.00000000000E+00  0.68804153506E+03  0.68804153506E+03  0.25500000920E-02 0.  1.
       -2   -1    0    0    0  501  0.00000000000E+00  0.00000000000E+00 -0.29467908364E+03  0.29467908365E+03  0.25500000920E-02 0. -1.
    10030    2    1    2    0    0  0.00000000000E+00  0.00000000000E+00  0.39336245142E+03  0.98272061871E+03  0.90055860235E+03 0.  0.
        1    1    3    3  502    0  0.33148982038E+03  0.17804112145E+03  0.46656561805E+03  0.59938937087E+03  0.50400001928E-02 0.  1.
       -1    1    3    3    0  502 -0.33148982038E+03 -0.17804112145E+03 -0.73203166629E+02  0.38333124784E+03  0.50400001928E-02 0. -1.
</event>
<event>
 5   0  0.3626546E-03  0.8990051E+03  0.7818609E-02  0.9426826E-01
       -2   -1    0    0    0  501  0.00000000000E+00  0.00000000000E+00  0.23203020339E+03  0.23203020340E+03  0.25500000920E-02 0. -1.
        2   -1    0    0  501    0  0.00000000000E+00  0.00000000000E+00 -0.87080276279E+03  0.87080276279E+03  0.25500000920E-02 0.  1.
    10030    2    1    2    0    0  0.00000000000E+00  0.00000000000E+00 -0.63877255940E+03  0.11028329662E+04  0.89900509936E+03 0.  0.
        3    1    3    3  502    0  0.20645484414E+03  0.23180694775E+03  0.79430767457E+02  0.32041741637E+03  0.10100000352E+00 0. -1.
       -3    1    3    3    0  502 -0.20645484414E+03 -0.23180694775E+03 -0.71820332686E+03  0.78241554982E+03  0.10100000352E+00 0.  1.
</event>
<event>
 5   0  0.2130975E-03  0.8989597E+03  0.7818609E-02  0.9426883E-01
        1   -1    0    0  501    0  0.00000000000E+00  0.00000000000E+00  0.35988552417E+03  0.35988552421E+03  0.50400001928E-02 0.  1.
       -1   -1    0    0    0  501  0.00000000000E+00  0.00000000000E+00 -0.56137887893E+03  0.56137887896E+03  0.50400001928E-02 0. -1.
    10030    2    1    2    0    0  0.00000000000E+00  0.00000000000E+00 -0.20149335476E+03  0.92126440317E+03  0.89895969238E+03 0.  0.
        5    1    3    3  502    0 -0.37362596472E+03 -0.73071966958E+02  0.14408289111E+03  0.40708456539E+03  0.46999998093E+01 0.  1.
       -5    1    3    3    0  502  0.37362596472E+03  0.73071966958E+02 -0.34557624587E+03  0.51417983778E+03  0.46999998093E+01 0. -1.
</event>
<event>
 5   0  0.2295158E-03  0.8983821E+03  0.7818609E-02  0.9427606E-01
        1   -1    0    0  501    0  0.00000000000E+00  0.00000000000E+00  0.13288304967E+04  0.13288304967E+04  0.50400001928E-02 0.  1.
       -1   -1    0    0    0  501  0.00000000000E+00  0.00000000000E+00 -0.15184223515E+03  0.15184223524E+03  0.50400001928E-02 0. -1.
    10030    2    1    2    0    0  0.00000000000E+00  0.00000000000E+00  0.11769882616E+04  0.14806727320E+04  0.89838208537E+03 0.  0.
        4    1    3    3  502    0  0.14648612437E+03 -0.27885814127E+03  0.11162922059E+04  0.11598835930E+04  0.12699999809E+01 0.  1.
       -4    1    3    3    0  502 -0.14648612437E+03  0.27885814127E+03  0.60696055695E+02  0.32078913894E+03  0.12699999809E+01 0. -1.
</event>
<event>
 5   0  0.2130975E-03  0.9077838E+03  0.7818609E-02  0.9415903E-01
       -1   -1    0    0    0  501  0.00000000000E+00  0.00000000000E+00  0.38740434868E+03  0.38740434872E+03  0.50400001928E-02 0. -1.
        1   -1    0    0  501    0  0.00000000000E+00  0.00000000000E+00 -0.53179030207E+03  0.53179030209E+03  0.50400001928E-02 0.  1.
    10030    2    1    2    0    0  0.00000000000E+00  0.00000000000E+00 -0.14438595338E+03  0.91919465081E+03  0.90778384131E+03 0.  0.
        5    1    3    3  502    0  0.28603806743E+03  0.12455260798E+03  0.26159385410E+03  0.40716650485E+03  0.46999998093E+01 0. -1.
       -5    1    3    3    0  502 -0.28603806743E+03 -0.12455260798E+03 -0.40597980748E+03  0.51202814596E+03  0.46999998093E+01 0.  1.
</event>
<event>
 5   0  0.2134145E-03  0.8963936E+03  0.7818609E-02  0.9430101E-01
        1   -1    0    0  501    0  0.00000000000E+00  0.00000000000E+00  0.76667157919E+03  0.76667157920E+03  0.50400001928E-02 0.  1.
       -1   -1    0    0    0  501  0.00000000000E+00  0.00000000000E+00 -0.26201617448E+03  0.26201617453E+03  0.50400001928E-02 0. -1.
    10030    2    1    2    0    0  0.00000000000E+00  0.00000000000E+00  0.50465540471E+03  0.10286877537E+04  0.89639356154E+03 0.  0.
        1    1    3    3  502    0 -0.33867490028E+03 -0.17115035747E+03  0.52603867108E+03  0.64862147393E+03  0.50400001928E-02 0.  1.
       -1    1    3    3    0  502  0.33867490028E+03  0.17115035747E+03 -0.21383266371E+02  0.38006627981E+03  0.50400001928E-02 0. -1.
</event>
<event>
 5   0  0.3663255E-03  0.9024492E+03  0.7818609E-02  0.9422525E-01
       -2   -1    0    0    0  501  0.00000000000E+00  0.00000000000E+00  0.29228552979E+03  0.29228552980E+03  0.25500000920E-02 0. -1.
        2   -1    0    0  501    0  0.00000000000E+00  0.00000000000E+00 -0.69659153511E+03  0.69659153512E+03  0.25500000920E-02 0.  1.
    10030    2    1    2    0    0  0.00000000000E+00  0.00000000000E+00 -0.40430600532E+03  0.98887706492E+03  0.90244916953E+03 0.  0.
        4    1    3    3  502    0  0.10556583657E+03 -0.29504705503E+03  0.15360147268E+03  0.34898701386E+03  0.12699999809E+01 0. -1.
       -4    1    3    3    0  502 -0.10556583657E+03  0.29504705503E+03 -0.55790747801E+03  0.63989005106E+03  0.12699999809E+01 0.  1.
</event>
<event>
 5   0  0.3685879E-03  0.8982053E+03  0.7818609E-02  0.9427828E-01
       -2   -1    0    0    0  501  0.00000000000E+00  0.00000000000E+00  0.24268252574E+03  0.24268252575E+03  0.25500000920E-02 0.  1.
        2   -1    0    0  501    0  0.00000000000E+00  0.00000000000E+00 -0.83109900652E+03  0.83109900653E+03  0.25500000920E-02 0. -1.
    10030    2    1    2    0    0  0.00000000000E+00  0.00000000000E+00 -0.58841648079E+03  0.10737815323E+04  0.89820533521E+03 0.  0.
        1    1    3    3  502    0 -0.28132874256E+02  0.26390363290E+03 -0.72732093000E+03  0.77423014751E+03  0.50400001928E-02 0. -1.
       -1    1    3    3    0  502  0.28132874256E+02 -0.26390363290E+03  0.13890444922E+03  0.29955138476E+03  0.50400001928E-02 0.  1.
</event>
<event>
 5   0  0.3806019E-03  0.8995508E+03  0.7818609E-02  0.9426143E-01
       -2   -1    0    0    0  501  0.00000000000E+00  0.00000000000E+00  0.27117609164E+03  0.27117609166E+03  0.25500000920E-02 0. -1.
        2   -1    0    0  501    0  0.00000000000E+00  0.00000000000E+00 -0.74600198988E+03  0.74600198988E+03  0.25500000920E-02 0.  1.
    10030    2    1    2    0    0  0.00000000000E+00  0.00000000000E+00 -0.47482589823E+03  0.10171780815E+04  0.89955078563E+03 0.  0.
        2    1    3    3  502    0  0.29947844042E+03 -0.33454586066E+03 -0.20771811556E+03  0.49472728316E+03  0.25500000920E-02 0. -1.
       -2    1    3    3    0  502 -0.29947844042E+03  0.33454586066E+03 -0.26710778267E+03  0.52245079838E+03  0.25500000920E-02 0.  1.
</event>
<event>
 5   0  0.2129280E-03  0.8969760E+03  0.7818609E-02  0.9429369E-01
       -1   -1    0    0    0  501  0.00000000000E+00  0.00000000000E+00  0.29704956239E+03  0.29704956243E+03  0.50400001928E-02 0. -1.
        1   -1    0    0  501    0  0.00000000000E+00  0.00000000000E+00 -0.67713110781E+03  0.67713110783E+03  0.50400001928E-02 0.  1.
    10030    2    1    2    0    0  0.00000000000E+00  0.00000000000E+00 -0.38008154542E+03  0.97418067026E+03  0.89697602930E+03 0.  0.
        3    1    3    3  502    0 -0.25030157202E+03 -0.19290590434E+03 -0.53567446165E+03  0.62194107756E+03  0.10100000352E+00 0.  1.
       -3    1    3    3    0  502  0.25030157202E+03  0.19290590434E+03  0.15559291624E+03  0.35223959270E+03  0.10100000352E+00 0. -1.
</event>
<event>
 5   0  0.3626546E-03  0.9030363E+03  0.7818609E-02  0.9421794E-01
       -2   -1    0    0    0  501  0.00000000000E+00  0.00000000000E+00  0.27755155416E+03  0.27755155417E+03  0.25500000920E-02 0. -1.
        2   -1    0    0  501    0  0.00000000000E+00  0.00000000000E+00 -0.73452533303E+03  0.73452533304E+03  0.25500000920E-02 0.  1.
    10030    2    1    2    0    0  0.00000000000E+00  0.00000000000E+00 -0.45697377887E+03  0.10120768872E+04  0.90303631768E+03 0.  0.
        3    1    3    3  502    0 -0.91891259809E+01  0.45808570421E+02 -0.73180889856E+03  0.73329880633E+03  0.10100000352E+00 0.  1.
       -3    1    3    3    0  502  0.91891259809E+01 -0.45808570421E+02  0.27483511969E+03  0.27877808087E+03  0.10100000352E+00 0. -1.
</event>
<event>
 5   0  0.3815269E-03  0.9021166E+03  0.7818609E-02  0.9422939E-01
        2   -1    0    0  501    0  0.00000000000E+00  0.00000000000E+00  0.23686772595E+03  0.23686772596E+03  0.25500000920E-02 0. -1.
       -2   -1    0    0    0  501  0.00000000000E+00  0.00000000000E+00 -0.85893344076E+03  0.85893344076E+03  0.25500000920E-02 0.  1.
    10030    2    1    2    0    0  0.00000000000E+00  0.00000000000E+00 -0.62206571481E+03  0.10958011667E+04  0.90211664626E+03 0.  0.
        5    1    3    3  502    0  0.31137983275E+03 -0.30944445872E+03 -0.18527620897E+03  0.47651089901E+03  0.46999998093E+01 0. -1.
       -5    1    3    3    0  502 -0.31137983275E+03  0.30944445872E+03 -0.43678950584E+03  0.61929026771E+03  0.46999998093E+01 0.  1.
</event>
<event>
 5   0  0.3685879E-03  0.9011054E+03  0.7818609E-02  0.9424201E-01
       -2   -1    0    0    0  501  0.00000000000E+00  0.00000000000E+00  0.35232281522E+03  0.35232281523E+03  0.25500000920E-02 0.  1.
        2   -1    0    0  501    0  0.00000000000E+00  0.00000000000E+00 -0.57616969871E+03  0.57616969872E+03  0.25500000920E-02 0. -1.
    10030    2    1    2    0    0  0.00000000000E+00  0.00000000000E+00 -0.22384688350E+03  0.92849251395E+03  0.90110538851E+03 0.  0.
        1    1    3    3  502    0 -0.41695898344E+03 -0.11372646441E+03 -0.24310838185E+03  0.49587315710E+03  0.50400001928E-02 0. -1.
       -1    1    3    3    0  502  0.41695898344E+03  0.11372646441E+03  0.19261498353E+02  0.43261935685E+03  0.50400001928E-02 0.  1.
</event>
<event>
 5   0  0.2129280E-03  0.8960255E+03  0.7818609E-02  0.9430563E-01
        1   -1    0    0  501    0  0.00000000000E+00  0.00000000000E+00  0.11695490890E+04  0.11695490890E+04  0.50400001928E-02 0.  1.
       -1   -1    0    0    0  501  0.00000000000E+00  0.00000000000E+00 -0.17161779724E+03  0.17161779731E+03  0.50400001928E-02 0. -1.
    10030    2    1    2    0    0  0.00000000000E+00  0.00000000000E+00  0.99793129176E+03  0.13411668863E+04  0.89602553194E+03 0.  0.
        3    1    3    3  502    0  0.24478688022E+03 -0.35054260938E+03  0.69930537978E+03  0.81965161020E+03  0.10100000352E+00 0.  1.
       -3    1    3    3    0  502 -0.24478688022E+03  0.35054260938E+03  0.29862591198E+03  0.52151527612E+03  0.10100000352E+00 0. -1.
</event>
<event>
 5   0  0.2295158E-03  0.8993468E+03  0.7818609E-02  0.9426398E-01
       -1   -1    0    0    0  501  0.00000000000E+00  0.00000000000E+00  0.15128226979E+03  0.15128226987E+03  0.50400001928E-02 0. -1.
        1   -1    0    0  501    0  0.00000000000E+00  0.00000000000E+00 -0.13366149579E+04  0.13366149579E+04  0.50400001928E-02 0.  1.
    10030    2    1    2    0    0  0.00000000000E+00  0.00000000000E+00 -0.11853326881E+04  0.14878972278E+04  0.89934675124E+03 0.  0.
        4    1    3    3  502    0  0.21730296555E+03  0.69452221818E+02 -0.12337628186E+04  0.12546778453E+04  0.12699999809E+01 0.  1.
       -4    1    3    3    0  502 -0.21730296555E+03 -0.69452221818E+02  0.48430130468E+02  0.23321938254E+03  0.12699999809E+01 0. -1.
</event>
<event>
 5   0  0.2129280E-03  0.9000814E+03  0.7818609E-02  0.9425480E-01
       -1   -1    0    0    0  501  0.00000000000E+00  0.00000000000E+00  0.16494781032E+03  0.16494781039E+03  0.50400001928E-02 0.  1.
        1   -1    0    0  501    0  0.00000000000E+00  0.00000000000E+00 -0.12278832062E+04  0.12278832062E+04  0.50400001928E-02 0. -1.
    10030    2    1    2    0    0  0.00000000000E+00  0.00000000000E+00 -0.10629353959E+04  0.13928310166E+04  0.90008143241E+03 0.  0.
        3    1    3    3  502    0 -0.41720200557E+03 -0.15448664853E+03 -0.42636635613E+03  0.61620769053E+03  0.10100000352E+00 0.  1.
       -3    1    3    3    0  502  0.41720200557E+03  0.15448664853E+03 -0.63656903973E+03  0.77662332605E+03  0.10100000352E+00 0. -1.
</event>
<event>
 5   0  0.3685879E-03  0.9057658E+03  0.7818609E-02  0.9418402E-01
       -2   -1    0    0    0  501  0.00000000000E+00  0.00000000000E+00  0.30643198325E+03  0.30643198326E+03  0.25500000920E-02 0. -1.
        2   -1    0    0  501    0  0.00000000000E+00  0.00000000000E+00 -0.66932605651E+03  0.66932605651E+03  0.25500000920E-02 0.  1.
    10030    2    1    2    0    0  0.00000000000E+00  0.00000000000E+00 -0.36289407326E+03  0.97575803977E+03  0.90576577754E+03 0.  0.
        1    1    3    3  502    0 -0.39491265394E+03  0.12410704520E+03 -0.37933835929E+03  0.56147676155E+03  0.50400001928E-02 0.  1.
       -1    1    3    3    0  502  0.39491265394E+03 -0.12410704520E+03  0.16444286030E+02  0.41428127821E+03  0.50400001928E-02 0. -1.
</event>
<event>
 5   0  0.3815269E-03  0.8988591E+03  0.7818609E-02  0.9427009E-01
       -2   -1    0    0    0  501  0.00000000000E+00  0.00000000000E+00  0.32783261730E+03  0.32783261731E+03  0.25500000920E-02 0.  1.
        2   -1    0    0  501    0  0.00000000000E+00  0.00000000000E+00 -0.61612815810E+03  0.61612815810E+03  0.25500000920E-02 0. -1.
    10030    2    1    2    0    0  0.00000000000E+00  0.00000000000E+00 -0.28829554079E+03  0.94396077542E+03  0.89885906942E+03 0.  0.
        5    1    3    3  502    0 -0.32506330862E+03 -0.30225751028E+03 -0.70342993010E+02  0.44943963309E+03  0.46999998093E+01 0.  1.
       -5    1    3    3    0  502  0.32506330862E+03  0.30225751028E+03 -0.21795254778E+03  0.49452114233E+03  0.46999998093E+01 0. -1.
</event>
<event>
 5   0  0.3806019E-03  0.8907798E+03  0.7818609E-02  0.9437181E-01
       -2   -1    0    0    0  501  0.00000000000E+00  0.00000000000E+00  0.35782963952E+03  0.35782963952E+03  0.25500000920E-02 0.  1.
        2   -1    0    0  501    0  0.00000000000E+00  0.00000000000E+00 -0.55437603141E+03  0.55437603142E+03  0.25500000920E-02 0. -1.
    10030    2    1    2    0    0  0.00000000000E+00  0.00000000000E+00 -0.19654639189E+03  0.91220567094E+03  0.89077982798E+03 0.  0.
        2    1    3    3  502    0 -0.38708603011E+03  0.21815839756E+03 -0.66818025427E+02  0.44932541622E+03  0.25500000920E-02 0. -1.
       -2    1    3    3    0  502  0.38708603011E+03 -0.21815839756E+03 -0.12972836647E+03  0.46288025472E+03  0.25500000920E-02 0.  1.
</event>
<event>
 5   0  0.3626546E-03  0.8955063E+03  0.7818609E-02  0.9431216E-01
       -2   -1    0    0    0  501  0.00000000000E+00  0.00000000000E+00  0.10437906001E+03  0.10437906004E+03  0.25500000920E-02 0.  1.
        2   -1    0    0  501    0  0.00000000000E+00  0.00000000000E+00 -0.19207195521E+04  0.19207195521E+04  0.25500000920E-02 0. -1.
    10030    2    1    2    0    0  0.00000000000E+00  0.00000000000E+00 -0.18163404921E+04  0.20250986121E+04  0.89550634039E+03 0.  0.
        3    1    3    3  502    0 -0.20799922045E+03  0.33498362289E+03 -0.42842707594E+03  0.58226065719E+03  0.10100000352E+00 0. -1.
       -3    1    3    3    0  502  0.20799922045E+03 -0.33498362289E+03 -0.13879134162E+04  0.14428379550E+04  0.10100000352E+00 0.  1.
</event>
<event>
 5   0  0.3806019E-03  0.9008678E+03  0.7818609E-02  0.9424497E-01
       -2   -1    0    0    0  501  0.00000000000E+00  0.00000000000E+00  0.30409343276E+03  0.30409343277E+03  0.25500000920E-02 0. -1.
        2   -1    0    0  501    0  0.00000000000E+00  0.00000000000E+00 -0.66719854003E+03  0.66719854003E+03  0.25500000920E-02 0.  1.
    10030    2    1    2    0    0  0.00000000000E+00  0.00000000000E+00 -0.36310510727E+03  0.97129197281E+03  0.90086779136E+03 0.  0.
        2    1    3    3  502    0  0.37022377230E+03 -0.21715538443E+03 -0.34238384850E+02  0.43057446460E+03  0.25500000920E-02 0. -1.
       -2    1    3    3    0  502 -0.37022377230E+03  0.21715538443E+03 -0.32886672242E+03  0.54071750821E+03  0.25500000920E-02 0.  1.
</event>
<event>
 5   0  0.3626546E-03  0.8987516E+03  0.7818609E-02  0.9427143E-01
        2   -1    0    0  501    0  0.00000000000E+00  0.00000000000E+00  0.56204464065E+03  0.56204464066E+03  0.25500000920E-02 0. -1.
       -2   -1    0    0    0  501  0.00000000000E+00  0.00000000000E+00 -0.35929285986E+03  0.35929285987E+03  0.25500000920E-02 0.  1.
    10030    2    1    2    0    0  0.00000000000E+00  0.00000000000E+00  0.20275178079E+03  0.92133750053E+03  0.89875163715E+03 0.  0.
        3    1    3    3  502    0  0.45737246400E+02 -0.15516294761E+03 -0.32841072667E+03  0.36608885754E+03  0.10100000352E+00 0.  1.
       -3    1    3    3    0  502 -0.45737246400E+02  0.15516294761E+03  0.53116250746E+03  0.55524864300E+03  0.10100000352E+00 0. -1.
</event>
<event>
 5   0  0.3626546E-03  0.9167521E+03  0.7818609E-02  0.9404879E-01
        2   -1    0    0  501    0  0.00000000000E+00  0.00000000000E+00  0.14230138656E+04  0.14230138656E+04  0.25500000920E-02 0.  1.
       -2   -1    0    0    0  501  0.00000000000E+00  0.00000000000E+00 -0.14765044034E+03  0.14765044037E+03  0.25500000920E-02 0. -1.
    10030    2    1    2    0    0  0.00000000000E+00  0.00000000000E+00  0.12753634253E+04  0.15706643060E+04  0.91675214511E+03 0.  0.
        3    1    3    3  502    0 -0.12737859294E+03 -0.21650588195E+03  0.12945868807E+04  0.13187324614E+04  0.10100000352E+00 0.  1.
       -3    1    3    3    0  502  0.12737859294E+03  0.21650588195E+03 -0.19223455464E+02  0.25193184455E+03  0.10100000352E+00 0. -1.
</event>
<event>
 5   0  0.3663255E-03  0.9002524E+03  0.7818609E-02  0.9425266E-01
       -2   -1    0    0    0  501  0.00000000000E+00  0.00000000000E+00  0.12842617561E+03  0.12842617564E+03  0.25500000920E-02 0.  1.
        2   -1    0    0  501    0  0.00000000000E+00  0.00000000000E+00 -0.15776658954E+04  0.15776658954E+04  0.25500000920E-02 0. -1.
    10030    2    1    2    0    0  0.00000000000E+00  0.00000000000E+00 -0.14492397198E+04  0.17060920711E+04  0.90025240320E+03 0.  0.
        4    1    3    3  502    0  0.39666108187E+02  0.20846821854E+03  0.27675101485E+02  0.21400916434E+03  0.12699999809E+01 0.  1.
       -4    1    3    3    0  502 -0.39666108187E+02 -0.20846821854E+03 -0.14769148213E+04  0.14920829067E+04  0.12699999809E+01 0. -1.
</event>
<event>
 5   0  0.2129280E-03  0.8992627E+03  0.7818609E-02  0.9426504E-01
        1   -1    0    0  501    0  0.00000000000E+00  0.00000000000E+00  0.31289106119E+03  0.31289106123E+03  0.50400001928E-02 0. -1.
       -1   -1    0    0    0  501  0.00000000000E+00  0.00000000000E+00 -0.64613015236E+03  0.64613015238E+03  0.50400001928E-02 0.  1.
    10030    2    1    2    0    0  0.00000000000E+00  0.00000000000E+00 -0.33323909117E+03  0.95902121361E+03  0.89926269592E+03 0.  0.
        3    1    3    3  502    0 -0.18992586041E+03 -0.31242338526E+03 -0.44571277772E+03  0.57648945744E+03  0.10100000352E+00 0.  1.
       -3    1    3    3    0  502  0.18992586041E+03  0.31242338526E+03  0.11247368655E+03  0.38253175617E+03  0.10100000352E+00 0. -1.
</event>
<event>
 5   0  0.2074970E-03  0.9002669E+03  0.7818609E-02  0.9425248E-01
       -1   -1    0    0    0  501  0.00000000000E+00  0.00000000000E+00  0.56295602599E+03  0.56295602602E+03  0.50400001928E-02 0. -1.
        1   -1    0    0  501    0  0.00000000000E+00  0.00000000000E+00 -0.35992175933E+03  0.35992175937E+03  0.50400001928E-02 0.  1.
    10030    2    1    2    0    0  0.00000000000E+00  0.00000000000E+00  0.20303426666E+03  0.92287778538E+03  0.90026690115E+03 0.  0.
        2    1    3    3  502    0 -0.40021279986E+03 -0.16756183093E+03 -0.21380826162E+02  0.43440118794E+03  0.25500000920E-02 0. -1.
       -2    1    3    3    0  502  0.40021279986E+03  0.16756183093E+03  0.22441509283E+03  0.48847659744E+03  0.25500000920E-02 0.  1.
</event>
<event>
 5   0  0.2074970E-03  0.8982300E+03  0.7818609E-02  0.9427797E-01
        1   -1    0    0  501    0  0.00000000000E+00  0.00000000000E+00  0.40688663679E+03  0.40688663682E+03  0.50400001928E-02 0.  1.
       -1   -1    0    0    0  501  0.00000000000E+00  0.00000000000E+00 -0.49572596830E+03  0.49572596832E+03  0.50400001928E-02 0. -1.
    10030    2    1    2    0    0  0.00000000000E+00  0.00000000000E+00 -0.88839331512E+02  0.90261260514E+03  0.89822997508E+03 0.  0.
        2    1    3    3  502    0  0.30228978660E+03 -0.15489935241E+03 -0.33967524319E+03  0.48036673002E+03  0.25500000920E-02 0. -1.
       -2    1    3    3    0  502 -0.30228978660E+03  0.15489935241E+03  0.25083591168E+03  0.42224587512E+03  0.25500000920E-02 0.  1.
</event>
<event>
 5   0  0.2129280E-03  0.9006932E+03  0.7818609E-02  0.9424715E-01
       -1   -1    0    0    0  501  0.00000000000E+00  0.00000000000E+00  0.11479487624E+04  0.11479487624E+04  0.50400001928E-02 0.  1.
        1   -1    0    0  501    0  0.00000000000E+00  0.00000000000E+00 -0.17667344547E+03  0.17667344554E+03  0.50400001928E-02 0. -1.
    10030    2    1    2    0    0  0.00000000000E+00  0.00000000000E+00  0.97127531696E+03  0.13246222080E+04  0.90069320667E+03 0.  0.
        3    1    3    3  502    0 -0.21599266197E+03 -0.39353571352E+03  0.53843582912E+03  0.70102520648E+03  0.10100000352E+00 0. -1.
       -3    1    3    3    0  502  0.21599266197E+03  0.39353571352E+03  0.43283948784E+03  0.62359700150E+03  0.10100000352E+00 0.  1.
</event>
<event>
 5   0  0.3685879E-03  0.9033560E+03  0.7818609E-02  0.9421396E-01
       -2   -1    0    0    0  501  0.00000000000E+00  0.00000000000E+00  0.15785902784E+03  0.15785902786E+03  0.25500000920E-02 0.  1.
        2   -1    0    0  501    0  0.00000000000E+00  0.00000000000E+00 -0.12923748098E+04  0.12923748099E+04  0.25500000920E-02 0. -1.
    10030    2    1    2    0    0  0.00000000000E+00  0.00000000000E+00 -0.11345157820E+04  0.14502338377E+04  0.90335603413E+03 0.  0.
        1    1    3    3  502    0  0.39536495806E+03 -0.80785365108E+02 -0.24150599424E+03  0.47028169278E+03  0.50400001928E-02 0.  1.
       -1    1    3    3    0  502 -0.39536495806E+03  0.80785365108E+02 -0.89300978777E+03  0.97995214493E+03  0.50400001928E-02 0. -1.
</event>
<event>
 5   0  0.2129280E-03  0.9017606E+03  0.7818609E-02  0.9423383E-01
        1   -1    0    0  501    0  0.00000000000E+00  0.00000000000E+00  0.75168508963E+03  0.75168508965E+03  0.50400001928E-02 0. -1.
       -1   -1    0    0    0  501  0.00000000000E+00  0.00000000000E+00 -0.27044973507E+03  0.27044973512E+03  0.50400001928E-02 0.  1.
    10030    2    1    2    0    0  0.00000000000E+00  0.00000000000E+00  0.48123535456E+03  0.10221348248E+04  0.90176057439E+03 0.  0.
        3    1    3    3  502    0 -0.34122028593E+03 -0.23662781346E+03  0.41468578556E+02  0.41730523463E+03  0.10100000352E+00 0.  1.
       -3    1    3    3    0  502  0.34122028593E+03  0.23662781346E+03  0.43976677600E+03  0.60482959014E+03  0.10100000352E+00 0. -1.
</event>
<event>
 5   0  0.3626546E-03  0.8985254E+03  0.7818609E-02  0.9427427E-01
        2   -1    0    0  501    0  0.00000000000E+00  0.00000000000E+00  0.14288859507E+04  0.14288859507E+04  0.25500000920E-02 0. -1.
       -2   -1    0    0    0  501  0.00000000000E+00  0.00000000000E+00 -0.14125477471E+03  0.14125477473E+03  0.25500000920E-02 0.  1.
    10030    2    1    2    0    0  0.00000000000E+00  0.00000000000E+00  0.12876311760E+04  0.15701407254E+04  0.89852537653E+03 0.  0.
        3    1    3    3  502    0  0.21481842074E+03  0.18813151060E+03  0.37728840700E+02  0.28803453750E+03  0.10100000352E+00 0.  1.
       -3    1    3    3    0  502 -0.21481842074E+03 -0.18813151060E+03  0.12499023353E+04  0.12821061879E+04  0.10100000352E+00 0. -1.
</event>
<event>
 5   0  0.2134145E-03  0.9007337E+03  0.7818609E-02  0.9424665E-01
        1   -1    0    0  501    0  0.00000000000E+00  0.00000000000E+00  0.32280165726E+03  0.32280165730E+03  0.50400001928E-02 0.  1.
       -1   -1    0    0    0  501  0.00000000000E+00  0.00000000000E+00 -0.62834348810E+03  0.62834348812E+03  0.50400001928E-02 0. -1.
    10030    2    1    2    0    0  0.00000000000E+00  0.00000000000E+00 -0.30554183084E+03  0.95114514541E+03  0.90073374382E+03 0.  0.
        1    1    3    3  502    0 -0.40755882229E+03 -0.15646991390E+02 -0.35446144197E+03  0.54036278169E+03  0.50400001928E-02 0. -1.
       -1    1    3    3    0  502  0.40755882229E+03  0.15646991390E+02  0.48919611134E+02  0.41078236372E+03  0.50400001928E-02 0.  1.
</event>
<event>
 5   0  0.3663255E-03  0.8965456E+03  0.7818609E-02  0.9429910E-01
       -2   -1    0    0    0  501  0.00000000000E+00  0.00000000000E+00  0.70776963208E+02  0.70776963254E+02  0.25500000920E-02 0.  1.
        2   -1    0    0  501    0  0.00000000000E+00  0.00000000000E+00 -0.28391793811E+04  0.28391793811E+04  0.25500000920E-02 0. -1.
    10030    2    1    2    0    0  0.00000000000E+00  0.00000000000E+00 -0.27684024179E+04  0.29099563444E+04  0.89654558092E+03 0.  0.
        4    1    3    3  502    0 -0.12641403850E+03 -0.42410203709E+03 -0.16160807343E+04  0.16755779897E+04  0.12699999809E+01 0.  1.
       -4    1    3    3    0  502  0.12641403850E+03  0.42410203709E+03 -0.11523216836E+04  0.12343783547E+04  0.12699999809E+01 0. -1.
</event>
<event>
 5   0  0.3663255E-03  0.9135994E+03  0.7818609E-02  0.9408739E-01
       -2   -1    0    0    0  501  0.00000000000E+00  0.00000000000E+00  0.30276912623E+03  0.30276912624E+03  0.25500000920E-02 0.  1.
        2   -1    0    0  501    0  0.00000000000E+00  0.00000000000E+00 -0.68919164132E+03  0.68919164133E+03  0.25500000920E-02 0. -1.
    10030    2    1    2    0    0  0.00000000000E+00  0.00000000000E+00 -0.38642251509E+03  0.99196076757E+03  0.91359936746E+03 0.  0.
        4    1    3    3  502    0 -0.19247625629E+03 -0.31534371223E+03 -0.48490950725E+03  0.60961267146E+03  0.12699999809E+01 0. -1.
       -4    1    3    3    0  502  0.19247625629E+03  0.31534371223E+03  0.98486992159E+02  0.38234809611E+03  0.12699999809E+01 0.  1.
</event>
<event>
 5   0  0.2130975E-03  0.8697097E+03  0.7818609E-02  0.9464258E-01
       -1   -1    0    0    0  501  0.00000000000E+00  0.00000000000E+00  0.23181577292E+03  0.23181577297E+03  0.50400001928E-02 0.  1.
        1   -1    0    0  501    0  0.00000000000E+00  0.00000000000E+00 -0.81572858732E+03  0.81572858734E+03  0.50400001928E-02 0. -1.
    10030    2    1    2    0    0  0.00000000000E+00  0.00000000000E+00 -0.58391281440E+03  0.10475443603E+04  0.86970972858E+03 0.  0.
        5    1    3    3  502    0 -0.21774261830E+03  0.25046348236E+03  0.46440988617E+02  0.33514572836E+03  0.46999998093E+01 0.  1.
       -5    1    3    3    0  502  0.21774261830E+03 -0.25046348236E+03 -0.63035380302E+03  0.71239863195E+03  0.46999998093E+01 0. -1.
</event>
<event>
 5   0  0.2129280E-03  0.8996348E+03  0.7818609E-02  0.9426038E-01
        1   -1    0    0  501    0  0.00000000000E+00  0.00000000000E+00  0.11649977752E+04  0.11649977752E+04  0.50400001928E-02 0.  1.
       -1   -1    0    0    0  501  0.00000000000E+00  0.00000000000E+00 -0.17367904641E+03  0.17367904648E+03  0.50400001928E-02 0. -1.
    10030    2    1    2    0    0  0.00000000000E+00  0.00000000000E+00  0.99131872875E+03  0.13386768217E+04  0.89963482083E+03 0.  0.
        3    1    3    3  502    0 -0.11021486587E+03  0.24561393199E+03 -0.40570279320E+02  0.27224892656E+03  0.10100000352E+00 0. -1.
       -3    1    3    3    0  502  0.11021486587E+03 -0.24561393199E+03  0.10318890081E+04  0.10664278951E+04  0.10100000352E+00 0.  1.
</event>
<event>
 5   0  0.2074970E-03  0.8992422E+03  0.7818609E-02  0.9426529E-01
        1   -1    0    0  501    0  0.00000000000E+00  0.00000000000E+00  0.14399235566E+04  0.14399235566E+04  0.50400001928E-02 0.  1.
       -1   -1    0    0    0  501  0.00000000000E+00  0.00000000000E+00 -0.14039574804E+03  0.14039574813E+03  0.50400001928E-02 0. -1.
    10030    2    1    2    0    0  0.00000000000E+00  0.00000000000E+00  0.12995278085E+04  0.15803193047E+04  0.89924222527E+03 0.  0.
        2    1    3    3  502    0  0.10877728098E+03  0.43025598000E+03  0.52295826245E+03  0.68588486604E+03  0.25500000920E-02 0.  1.
       -2    1    3    3    0  502 -0.10877728098E+03 -0.43025598000E+03  0.77656954606E+03  0.89443443866E+03  0.25500000920E-02 0. -1.
</event>
<event>
 5   0  0.3663255E-03  0.9002178E+03  0.7818609E-02  0.9425309E-01
       -2   -1    0    0    0  501  0.00000000000E+00  0.00000000000E+00  0.19593695339E+03  0.19593695341E+03  0.25500000920E-02 0. -1.
        2   -1    0    0  501    0  0.00000000000E+00  0.00000000000E+00 -0.10339960314E+04  0.10339960314E+04  0.25500000920E-02 0.  1.
    10030    2    1    2    0    0  0.00000000000E+00  0.00000000000E+00 -0.83805907800E+03  0.12299329848E+04  0.90021782302E+03 0.  0.
        4    1    3    3  502    0 -0.12191556181E+03 -0.85007502591E+02  0.16144149450E+03  0.21944167507E+03  0.12699999809E+01 0. -1.
       -4    1    3    3    0  502  0.12191556181E+03  0.85007502591E+02 -0.99950057250E+03  0.10104913097E+04  0.12699999809E+01 0.  1.
</event>
<event>
 5   0  0.2129280E-03  0.9042902E+03  0.7818609E-02  0.9420234E-01
       -1   -1    0    0    0  501  0.00000000000E+00  0.00000000000E+00  0.80974176280E+03  0.80974176281E+03  0.50400001928E-02 0.  1.
        1   -1    0    0  501    0  0.00000000000E+00  0.00000000000E+00 -0.25246961553E+03  0.25246961558E+03  0.50400001928E-02 0. -1.
    10030    2    1    2    0    0  0.00000000000E+00  0.00000000000E+00  0.55727214727E+03  0.10622113784E+04  0.90429020025E+03 0.  0.
        3    1    3    3  502    0 -0.22535438602E+03  0.47569688512E+02  0.73566998988E+03  0.77088119628E+03  0.10100000352E+00 0.  1.
       -3    1    3    3    0  502  0.22535438602E+03 -0.47569688512E+02 -0.17839784261E+03  0.29133018212E+03  0.10100000352E+00 0. -1.
</event>
<event>
 5   0  0.3806019E-03  0.8980479E+03  0.7818609E-02  0.9428025E-01
       -2   -1    0    0    0  501  0.00000000000E+00  0.00000000000E+00  0.24149052176E+03  0.24149052177E+03  0.25500000920E-02 0. -1.
        2   -1    0    0  501    0  0.00000000000E+00  0.00000000000E+00 -0.83490848447E+03  0.83490848447E+03  0.25500000920E-02 0.  1.
    10030    2    1    2    0    0  0.00000000000E+00  0.00000000000E+00 -0.59341796271E+03  0.10763990062E+04  0.89804785072E+03 0.  0.
        2    1    3    3  502    0  0.42721796168E+03  0.15838700961E+02 -0.13211892399E+03  0.44746112827E+03  0.25500000920E-02 0. -1.
       -2    1    3    3    0  502 -0.42721796168E+03 -0.15838700961E+02 -0.46129903872E+03  0.62893787798E+03  0.25500000920E-02 0.  1.
</event>
<event>
 5   0  0.3663255E-03  0.8998877E+03  0.7818609E-02  0.9425722E-01
       -2   -1    0    0    0  501  0.00000000000E+00  0.00000000000E+00  0.41658834081E+03  0.41658834081E+03  0.25500000920E-02 0. -1.
        2   -1    0    0  501    0  0.00000000000E+00  0.00000000000E+00 -0.48597003188E+03  0.48597003188E+03  0.25500000920E-02 0.  1.
    10030    2    1    2    0    0  0.00000000000E+00  0.00000000000E+00 -0.69381691070E+02  0.90255837270E+03  0.89988765803E+03 0.  0.
        4    1    3    3  502    0  0.50294789259E+02 -0.17198215392E+03  0.37925721014E+03  0.41945806875E+03  0.12699999809E+01 0. -1.
       -4    1    3    3    0  502 -0.50294789259E+02  0.17198215392E+03 -0.44863890121E+03  0.48310030395E+03  0.12699999809E+01 0.  1.
</event>
<event>
 5   0  0.2130975E-03  0.8997029E+03  0.7818609E-02  0.9425953E-01
        1   -1    0    0  501    0  0.00000000000E+00  0.00000000000E+00  0.16548301171E+04  0.16548301171E+04  0.50400001928E-02 0.  1.
       -1   -1    0    0    0  501  0.00000000000E+00  0.00000000000E+00 -0.12228826846E+03  0.12228826857E+03  0.50400001928E-02 0. -1.
    10030    2    1    2    0    0  0.00000000000E+00  0.00000000000E+00  0.15325418486E+04  0.17771183856E+04  0.89970286143E+03 0.  0.
        5    1    3    3  502    0  0.41548632165E+03  0.15442854637E+03  0.61497360419E+03  0.75808421911E+03  0.46999998093E+01 0.  1.
       -5    1    3    3    0  502 -0.41548632165E+03 -0.15442854637E+03  0.91756824440E+03  0.10190341665E+04  0.46999998093E+01 0. -1.
</event>
<event>
 5   0  0.1436000E-03  0.9033729E+03  0.7818609E-02  0.9421375E-01
        4   -1    0    0  501    0  0.00000000000E+00  0.00000000000E+00  0.22042822494E+03  0.22043188347E+03  0.12699999809E+01 0.  1.
       -4   -1    0    0    0  501  0.00000000000E+00  0.00000000000E+00 -0.92555321689E+03  0.92555408821E+03  0.12699999809E+01 0. -1.
    10030    2    1    2    0    0  0.00000000000E+00  0.00000000000E+00 -0.70512499195E+03  0.11459859717E+04  0.90337289809E+03 0.  0.
        5    1    3    3  502    0  0.35786180290E+03  0.11354493942E+03 -0.34051880341E+02  0.37701345307E+03  0.46999998093E+01 0.  1.
       -5    1    3    3    0  502 -0.35786180290E+03 -0.11354493942E+03 -0.67107311161E+03  0.76897251860E+03  0.46999998093E+01 0. -1.
</event>
<event>
 5   0  0.3806019E-03  0.8850490E+03  0.7818609E-02  0.9444466E-01
       -2   -1    0    0    0  501  0.00000000000E+00  0.00000000000E+00  0.24225795216E+03  0.24225795217E+03  0.25500000920E-02 0.  1.
        2   -1    0    0  501    0  0.00000000000E+00  0.00000000000E+00 -0.80834464228E+03  0.80834464229E+03  0.25500000920E-02 0. -1.
    10030    2    1    2    0    0  0.00000000000E+00  0.00000000000E+00 -0.56608669012E+03  0.10506025945E+04  0.88504896517E+03 0.  0.
        2    1    3    3  502    0 -0.82580947636E+02  0.38282329134E+03 -0.38456152222E+02  0.39351259314E+03  0.25500000920E-02 0.  1.
       -2    1    3    3    0  502  0.82580947636E+02 -0.38282329134E+03 -0.52763053790E+03  0.65709000132E+03  0.25500000920E-02 0. -1.
</event>
<event>
 5   0  0.3626546E-03  0.9005907E+03  0.7818609E-02  0.9424843E-01
        2   -1    0    0  501    0  0.00000000000E+00  0.00000000000E+00  0.65983311754E+03  0.65983311754E+03  0.25500000920E-02 0.  1.
       -2   -1    0    0    0  501  0.00000000000E+00  0.00000000000E+00 -0.30729874561E+03  0.30729874562E+03  0.25500000920E-02 0. -1.
    10030    2    1    2    0    0  0.00000000000E+00  0.00000000000E+00  0.35253437193E+03  0.96713186316E+03  0.90059067137E+03 0.  0.
        3    1    3    3  502    0 -0.33437761870E+03  0.24221431502E+03  0.36923742694E+03  0.55390653899E+03  0.10100000352E+00 0.  1.
       -3    1    3    3    0  502  0.33437761870E+03 -0.24221431502E+03 -0.16703055012E+02  0.41322532417E+03  0.10100000352E+00 0. -1.
</event>
<event>
 5   0  0.3815269E-03  0.8995736E+03  0.7818609E-02  0.9426115E-01
       -2   -1    0    0    0  501  0.00000000000E+00  0.00000000000E+00  0.14340442059E+03  0.14340442061E+03  0.25500000920E-02 0. -1.
        2   -1    0    0  501    0  0.00000000000E+00  0.00000000000E+00 -0.14107527265E+04  0.14107527265E+04  0.25500000920E-02 0.  1.
    10030    2    1    2    0    0  0.00000000000E+00  0.00000000000E+00 -0.12673483059E+04  0.15541571471E+04  0.89957362645E+03 0.  0.
        5    1    3    3  502    0  0.12042440290E+03  0.31936879172E+03 -0.12765082446E+03  0.36443831429E+03  0.46999998093E+01 0. -1.
       -5    1    3    3    0  502 -0.12042440290E+03 -0.31936879172E+03 -0.11396974814E+04  0.11897188328E+04  0.46999998093E+01 0.  1.
</event>
<event>
 5   0  0.2074970E-03  0.8990782E+03  0.7818609E-02  0.9426734E-01
       -1   -1    0    0    0  501  0.00000000000E+00  0.00000000000E+00  0.71542510190E+03  0.71542510192E+03  0.50400001928E-02 0.  1.
        1   -1    0    0  501    0  0.00000000000E+00  0.00000000000E+00 -0.28246901188E+03  0.28246901192E+03  0.50400001928E-02 0. -1.
    10030    2    1    2    0    0  0.00000000000E+00  0.00000000000E+00  0.43295609002E+03  0.99789411384E+03  0.89907824272E+03 0.  0.
        2    1    3    3  502    0  0.10443683600E+03  0.17380925594E+03 -0.22882709352E+03  0.30574261872E+03  0.25500000920E-02 0. -1.
       -2    1    3    3    0  502 -0.10443683600E+03 -0.17380925594E+03  0.66178318354E+03  0.69215149512E+03  0.25500000920E-02 0.  1.
</event>
<event>
 5   0  0.3806019E-03  0.8995319E+03  0.7818609E-02  0.9426167E-01
       -2   -1    0    0    0  501  0.00000000000E+00  0.00000000000E+00  0.11010660693E+03  0.11010660696E+03  0.25500000920E-02 0.  1.
        2   -1    0    0  501    0  0.00000000000E+00  0.00000000000E+00 -0.18372142638E+04  0.18372142638E+04  0.25500000920E-02 0. -1.
    10030    2    1    2    0    0  0.00000000000E+00  0.00000000000E+00 -0.17271076569E+04  0.19473208708E+04  0.89953194232E+03 0.  0.
        2    1    3    3  502    0  0.23798397002E+03  0.74676690147E+02 -0.16737748246E+04  0.16922574099E+04  0.25500000920E-02 0. -1.
       -2    1    3    3    0  502 -0.23798397002E+03 -0.74676690147E+02 -0.53332832274E+02  0.25506346081E+03  0.25500000920E-02 0.  1.
</event>
<event>
 5   0  0.2074970E-03  0.8983050E+03  0.7818609E-02  0.9427703E-01
       -1   -1    0    0    0  501  0.00000000000E+00  0.00000000000E+00  0.99793111647E+02  0.99793111774E+02  0.50400001928E-02 0. -1.
        1   -1    0    0  501    0  0.00000000000E+00  0.00000000000E+00 -0.20215618907E+04  0.20215618907E+04  0.50400001928E-02 0.  1.
    10030    2    1    2    0    0  0.00000000000E+00  0.00000000000E+00 -0.19217687790E+04  0.21213550024E+04  0.89830496291E+03 0.  0.
        2    1    3    3  502    0  0.25320131318E+03  0.20672316232E+02 -0.86170269050E+02  0.26826025596E+03  0.25500000920E-02 0. -1.
       -2    1    3    3    0  502 -0.25320131318E+03 -0.20672316232E+02 -0.18355985100E+04  0.18530947465E+04  0.25500000920E-02 0.  1.
</event>
<event>
 5   0  0.3815269E-03  0.8995537E+03  0.7818609E-02  0.9426139E-01
       -2   -1    0    0    0  501  0.00000000000E+00  0.00000000000E+00  0.15690501865E+03  0.15690501867E+03  0.25500000920E-02 0. -1.
        2   -1    0    0  501    0  0.00000000000E+00  0.00000000000E+00 -0.12893101181E+04  0.12893101181E+04  0.25500000920E-02 0.  1.
    10030    2    1    2    0    0  0.00000000000E+00  0.00000000000E+00 -0.11324050995E+04  0.14462151368E+04  0.89955372969E+03 0.  0.
        5    1    3    3  502    0  0.31680560685E+02  0.36498054300E+03 -0.14677174076E+03  0.39468783688E+03  0.46999998093E+01 0. -1.
       -5    1    3    3    0  502 -0.31680560685E+02 -0.36498054300E+03 -0.98563335869E+03  0.10515272999E+04  0.46999998093E+01 0.  1.
</event>
<event>
 5   0  0.2134145E-03  0.8965204E+03  0.7818609E-02  0.9429942E-01
       -1   -1    0    0    0  501  0.00000000000E+00  0.00000000000E+00  0.63699922248E+03  0.63699922250E+03  0.50400001928E-02 0.  1.
        1   -1    0    0  501    0  0.00000000000E+00  0.00000000000E+00 -0.31544341478E+03  0.31544341482E+03  0.50400001928E-02 0. -1.
    10030    2    1    2    0    0  0.00000000000E+00  0.00000000000E+00  0.32155580770E+03  0.95244263731E+03  0.89652040686E+03 0.  0.
        1    1    3    3  502    0  0.19019558798E+03  0.33973988894E+02 -0.26893830473E+03  0.33114408553E+03  0.50400001928E-02 0. -1.
       -1    1    3    3    0  502 -0.19019558798E+03 -0.33973988894E+02  0.59049411243E+03  0.62129855178E+03  0.50400001928E-02 0.  1.
</event>
<event>
 5   0  0.2074970E-03  0.8978841E+03  0.7818609E-02  0.9428230E-01
       -1   -1    0    0    0  501  0.00000000000E+00  0.00000000000E+00  0.24184182646E+03  0.24184182651E+03  0.50400001928E-02 0. -1.
        1   -1    0    0  501    0  0.00000000000E+00  0.00000000000E+00 -0.83339167134E+03  0.83339167136E+03  0.50400001928E-02 0.  1.
    10030    2    1    2    0    0  0.00000000000E+00  0.00000000000E+00 -0.59154984488E+03  0.10752334979E+04  0.89788409940E+03 0.  0.
        2    1    3    3  502    0 -0.31140528687E+03 -0.79834654625E+02  0.79494327715E+02  0.33115883337E+03  0.25500000920E-02 0. -1.
       -2    1    3    3    0  502  0.31140528687E+03  0.79834654625E+02 -0.67104417260E+03  0.74407466450E+03  0.25500000920E-02 0.  1.
</event>
<event>
 5   0  0.2134145E-03  0.8985070E+03  0.7818609E-02  0.9427450E-01
       -1   -1    0    0    0  501  0.00000000000E+00  0.00000000000E+00  0.27303851285E+03  0.27303851290E+03  0.50400001928E-02 0. -1.
        1   -1    0    0  501    0  0.00000000000E+00  0.00000000000E+00 -0.73919505374E+03  0.73919505376E+03  0.50400001928E-02 0.  1.
    10030    2    1    2    0    0  0.00000000000E+00  0.00000000000E+00 -0.46615654089E+03  0.10122335667E+04  0.89850702437E+03 0.  0.
        1    1    3    3  502    0  0.14612167919E+03 -0.50057115730E+02  0.24218520286E+03  0.28724716269E+03  0.50400001928E-02 0. -1.
       -1    1    3    3    0  502 -0.14612167919E+03  0.50057115730E+02 -0.70834174375E+03  0.72498640396E+03  0.50400001928E-02 0.  1.
</event>
<event>
 5   0  0.3815269E-03  0.9033318E+03  0.7818609E-02  0.9421426E-01
        2   -1    0    0  501    0  0.00000000000E+00  0.00000000000E+00  0.16221577107E+04  0.16221577107E+04  0.25500000920E-02 0. -1.
       -2   -1    0    0    0  501  0.00000000000E+00  0.00000000000E+00 -0.12575970142E+03  0.12575970144E+03  0.25500000920E-02 0.  1.
    10030    2    1    2    0    0  0.00000000000E+00  0.00000000000E+00  0.14963980093E+04  0.17479174121E+04  0.90333176491E+03 0.  0.
        5    1    3    3  502    0  0.36149761686E+03 -0.33270358465E+01  0.22436800352E+03  0.42550521403E+03  0.46999998093E+01 0.  1.
       -5    1    3    3    0  502 -0.36149761686E+03  0.33270358465E+01  0.12720300058E+04  0.13224121981E+04  0.46999998093E+01 0. -1.
</event>
<event>
 5   0  0.2130975E-03  0.8872213E+03  0.7818609E-02  0.9441698E-01
       -1   -1    0    0    0  501  0.00000000000E+00  0.00000000000E+00  0.15337250155E+03  0.15337250163E+03  0.50400001928E-02 0. -1.
        1   -1    0    0  501    0  0.00000000000E+00  0.00000000000E+00 -0.12830880069E+04  0.12830880069E+04  0.50400001928E-02 0.  1.
    10030    2    1    2    0    0  0.00000000000E+00  0.00000000000E+00 -0.11297155054E+04  0.14364605086E+04  0.88722131938E+03 0.  0.
        5    1    3    3  502    0  0.10888795259E+03  0.25416201424E+03 -0.32685584704E+01  0.27656407788E+03  0.46999998093E+01 0. -1.
       -5    1    3    3    0  502 -0.10888795259E+03 -0.25416201424E+03 -0.11264469469E+04  0.11598964307E+04  0.46999998093E+01 0.  1.
</event>
<event>
 5   0  0.2129280E-03  0.8966475E+03  0.7818609E-02  0.9429782E-01
       -1   -1    0    0    0  501  0.00000000000E+00  0.00000000000E+00  0.76772644700E+03  0.76772644702E+03  0.50400001928E-02 0. -1.
        1   -1    0    0  501    0  0.00000000000E+00  0.00000000000E+00 -0.26180440396E+03  0.26180440401E+03  0.50400001928E-02 0.  1.
    10030    2    1    2    0    0  0.00000000000E+00  0.00000000000E+00  0.50592204304E+03  0.10295308510E+04  0.89664745556E+03 0.  0.
        3    1    3    3  502    0 -0.44641426131E+03 -0.20992182835E+02  0.29384388890E+03  0.53485568679E+03  0.10100000352E+00 0. -1.
       -3    1    3    3    0  502  0.44641426131E+03  0.20992182835E+02  0.21207815414E+03  0.49467516423E+03  0.10100000352E+00 0.  1.
</event>
<event>
 5   0  0.3685879E-03  0.9002266E+03  0.7818609E-02  0.9425298E-01
       -2   -1    0    0    0  501  0.00000000000E+00  0.00000000000E+00  0.51290826430E+03  0.51290826431E+03  0.25500000920E-02 0. -1.
        2   -1    0    0  501    0  0.00000000000E+00  0.00000000000E+00 -0.39500627262E+03  0.39500627263E+03  0.25500000920E-02 0.  1.
    10030    2    1    2    0    0  0.00000000000E+00  0.00000000000E+00  0.11790199168E+03  0.90791453693E+03  0.90022659744E+03 0.  0.
        1    1    3    3  502    0 -0.71363699460E+02  0.39719952142E+03  0.26000678921E+03  0.48006642028E+03  0.50400001928E-02 0. -1.
       -1    1    3    3    0  502  0.71363699460E+02 -0.39719952142E+03 -0.14210479752E+03  0.42784811665E+03  0.50400001928E-02 0.  1.
</event>
<event>
 5   0  0.2134145E-03  0.9005075E+03  0.7818609E-02  0.9424947E-01
        1   -1    0    0  501    0  0.00000000000E+00  0.00000000000E+00  0.12134532297E+04  0.12134532297E+04  0.50400001928E-02 0.  1.
       -1   -1    0    0    0  501  0.00000000000E+00  0.00000000000E+00 -0.16706735594E+03  0.16706735601E+03  0.50400001928E-02 0. -1.
    10030    2    1    2    0    0  0.00000000000E+00  0.00000000000E+00  0.10463858737E+04  0.13805205857E+04  0.90050746292E+03 0.  0.
        1    1    3    3  502    0 -0.33475953339E+03 -0.27139533163E+03  0.32325481051E+03  0.53871425057E+03  0.50400001928E-02 0. -1.
       -1    1    3    3    0  502  0.33475953339E+03  0.27139533163E+03  0.72313106321E+03  0.84180633511E+03  0.50400001928E-02 0.  1.
</event>
<event>
 5   0  0.3626546E-03  0.8998194E+03  0.7818609E-02  0.9425807E-01
       -2   -1    0    0    0  501  0.00000000000E+00  0.00000000000E+00  0.17407864818E+03  0.17407864820E+03  0.25500000920E-02 0. -1.
        2   -1    0    0  501    0  0.00000000000E+00  0.00000000000E+00 -0.11628004669E+04  0.11628004669E+04  0.25500000920E-02 0.  1.
    10030    2    1    2    0    0  0.00000000000E+00  0.00000000000E+00 -0.98872181868E+03  0.13368791151E+04  0.89981938942E+03 0.  0.
        3    1    3    3  502    0 -0.47188718131E+02  0.39005265569E+03 -0.16868364851E+03  0.42757693204E+03  0.10100000352E+00 0. -1.
       -3    1    3    3    0  502  0.47188718131E+02 -0.39005265569E+03 -0.82003817017E+03  0.90930218303E+03  0.10100000352E+00 0.  1.
</event>
<event>
 5   0  0.2134145E-03  0.8980314E+03  0.7818609E-02  0.9428046E-01
        1   -1    0    0  501    0  0.00000000000E+00  0.00000000000E+00  0.14199614990E+04  0.14199614990E+04  0.50400001928E-02 0.  1.
       -1   -1    0    0    0  501  0.00000000000E+00  0.00000000000E+00 -0.14198630202E+03  0.14198630211E+03  0.50400001928E-02 0. -1.
    10030    2    1    2    0    0  0.00000000000E+00  0.00000000000E+00  0.12779751970E+04  0.15619478011E+04  0.89803136322E+03 0.  0.
        1    1    3    3  502    0  0.14989583361E+03  0.15474229757E+03  0.13241956681E+04  0.13416065396E+04  0.50400001928E-02 0.  1.
       -1    1    3    3    0  502 -0.14989583361E+03 -0.15474229757E+03 -0.46220471068E+02  0.22034126159E+03  0.50400001928E-02 0. -1.
</event>
<event>
 5   0  0.2134145E-03  0.9055458E+03  0.7818609E-02  0.9418675E-01
       -1   -1    0    0    0  501  0.00000000000E+00  0.00000000000E+00  0.79729487727E+03  0.79729487729E+03  0.50400001928E-02 0. -1.
        1   -1    0    0  501    0  0.00000000000E+00  0.00000000000E+00 -0.25712354848E+03  0.25712354853E+03  0.50400001928E-02 0.  1.
    10030    2    1    2    0    0  0.00000000000E+00  0.00000000000E+00  0.54017132879E+03  0.10544184258E+04  0.90554577591E+03 0.  0.
        1    1    3    3  502    0  0.11392282472E+03  0.96276142808E+02 -0.22769513514E+03  0.27219952288E+03  0.50400001928E-02 0.  1.
       -1    1    3    3    0  502 -0.11392282472E+03 -0.96276142808E+02  0.76786646393E+03  0.78221890294E+03  0.50400001928E-02 0. -1.
</event>
<event>
 5   0  0.3685879E-03  0.9009405E+03  0.7818609E-02  0.9424407E-01
       -2   -1    0    0    0  501  0.00000000000E+00  0.00000000000E+00  0.61885773645E+03  0.61885773645E+03  0.25500000920E-02 0.  1.
        2   -1    0    0  501    0  0.00000000000E+00  0.00000000000E+00 -0.32789998680E+03  0.32789998681E+03  0.25500000920E-02 0. -1.
    10030    2    1    2    0    0  0.00000000000E+00  0.00000000000E+00  0.29095774965E+03  0.94675772326E+03  0.90094049441E+03 0.  0.
        1    1    3    3  502    0  0.13725139726E+03 -0.27015443168E+03  0.49574960288E+03  0.58102412324E+03  0.50400001928E-02 0.  1.
       -1    1    3    3    0  502 -0.13725139726E+03  0.27015443168E+03 -0.20479185323E+03  0.36573360002E+03  0.50400001928E-02 0. -1.
</event>
<event>
 5   0  0.2134145E-03  0.9004478E+03  0.7818609E-02  0.9425022E-01
        1   -1    0    0  501    0  0.00000000000E+00  0.00000000000E+00  0.13373003259E+04  0.13373003260E+04  0.50400001928E-02 0. -1.
       -1   -1    0    0    0  501  0.00000000000E+00  0.00000000000E+00 -0.15157520940E+03  0.15157520949E+03  0.50400001928E-02 0.  1.
    10030    2    1    2    0    0  0.00000000000E+00  0.00000000000E+00  0.11857251165E+04  0.14888755354E+04  0.90044783750E+03 0.  0.
        1    1    3    3  502    0 -0.43650061761E+02  0.10851470206E+03  0.13117396474E+04  0.13169440652E+04  0.50400001928E-02 0. -1.
       -1    1    3    3    0  502  0.43650061761E+02 -0.10851470206E+03 -0.12601453081E+03  0.17193147023E+03  0.50400001928E-02 0.  1.
</event>
<event>
 5   0  0.2134145E-03  0.9005600E+03  0.7818609E-02  0.9424882E-01
       -1   -1    0    0    0  501  0.00000000000E+00  0.00000000000E+00  0.40618397780E+03  0.40618397784E+03  0.50400001928E-02 0. -1.
        1   -1    0    0  501    0  0.00000000000E+00  0.00000000000E+00 -0.49916314670E+03  0.49916314672E+03  0.50400001928E-02 0.  1.
    10030    2    1    2    0    0  0.00000000000E+00  0.00000000000E+00 -0.92979168893E+02  0.90534712456E+03  0.90055998695E+03 0.  0.
        1    1    3    3  502    0 -0.28974335330E+03 -0.19476053965E+03  0.23939717169E+03  0.42331298636E+03  0.50400001928E-02 0. -1.
       -1    1    3    3    0  502  0.28974335330E+03  0.19476053965E+03 -0.33237634058E+03  0.48203413820E+03  0.50400001928E-02 0.  1.
</event>
<event>
 5   0  0.3626546E-03  0.8803048E+03  0.7818609E-02  0.9450542E-01
       -2   -1    0    0    0  501  0.00000000000E+00  0.00000000000E+00  0.17181849526E+03  0.17181849528E+03  0.25500000920E-02 0. -1.
        2   -1    0    0  501    0  0.00000000000E+00  0.00000000000E+00 -0.11275511614E+04  0.11275511614E+04  0.25500000920E-02 0.  1.
    10030    2    1    2    0    0  0.00000000000E+00  0.00000000000E+00 -0.95573266615E+03  0.12993696567E+04  0.88030481970E+03 0.  0.
        3    1    3    3  502    0 -0.34545358934E+02  0.78063951669E+00  0.16981336725E+03  0.17329333836E+03  0.10100000352E+00 0. -1.
       -3    1    3    3    0  502  0.34545358934E+02 -0.78063951669E+00 -0.11255460334E+04  0.11260763183E+04  0.10100000352E+00 0.  1.
</event>
<event>
 5   0  0.3815269E-03  0.9065369E+03  0.7818609E-02  0.9417447E-01
        2   -1    0    0  501    0  0.00000000000E+00  0.00000000000E+00  0.23567472511E+04  0.23567472511E+04  0.25500000920E-02 0. -1.
       -2   -1    0    0    0  501  0.00000000000E+00  0.00000000000E+00 -0.87176210216E+02  0.87176210253E+02  0.25500000920E-02 0.  1.
    10030    2    1    2    0    0  0.00000000000E+00  0.00000000000E+00  0.22695710409E+04  0.24439234613E+04  0.90653691339E+03 0.  0.
        5    1    3    3  502    0 -0.28602638202E+03  0.13593431002E+03  0.26063119727E+03  0.41017062162E+03  0.46999998093E+01 0.  1.
       -5    1    3    3    0  502  0.28602638202E+03 -0.13593431002E+03  0.20089398436E+04  0.20337528397E+04  0.46999998093E+01 0. -1.
</event>
<event>
 5   0  0.3806019E-03  0.9002847E+03  0.7818609E-02  0.9425226E-01
       -2   -1    0    0    0  501  0.00000000000E+00  0.00000000000E+00  0.23122246000E+03  0.23122246001E+03  0.25500000920E-02 0.  1.
        2   -1    0    0  501    0  0.00000000000E+00  0.00000000000E+00 -0.87633419633E+03  0.87633419634E+03  0.25500000920E-02 0. -1.
    10030    2    1    2    0    0  0.00000000000E+00  0.00000000000E+00 -0.64511173633E+03  0.11075566563E+04  0.90028472977E+03 0.  0.
        2    1    3    3  502    0 -0.57889053016E+02  0.16209931355E+02  0.22626188130E+03  0.23411181788E+03  0.25500000920E-02 0.  1.
       -2    1    3    3    0  502  0.57889053016E+02 -0.16209931355E+02 -0.87137361763E+03  0.87344483847E+03  0.25500000920E-02 0. -1.
</event>
<event>
 5   0  0.3806019E-03  0.9079131E+03  0.7818609E-02  0.9415743E-01
       -2   -1    0    0    0  501  0.00000000000E+00  0.00000000000E+00  0.13616297814E+03  0.13616297816E+03  0.25500000920E-02 0.  1.
        2   -1    0    0  501    0  0.00000000000E+00  0.00000000000E+00 -0.15134551561E+04  0.15134551561E+04  0.25500000920E-02 0. -1.
    10030    2    1    2    0    0  0.00000000000E+00  0.00000000000E+00 -0.13772921780E+04  0.16496181343E+04  0.90791312658E+03 0.  0.
        2    1    3    3  502    0 -0.37302872531E+03  0.18981514200E+03 -0.10080150225E+04  0.10914552229E+04  0.25500000920E-02 0.  1.
       -2    1    3    3    0  502  0.37302872531E+03 -0.18981514200E+03 -0.36927715543E+03  0.55816291132E+03  0.25500000920E-02 0. -1.
</event>
<event>
 5   0  0.3626546E-03  0.8967078E+03  0.7818609E-02  0.9429706E-01
       -2   -1    0    0    0  501  0.00000000000E+00  0.00000000000E+00  0.57282751831E+03  0.57282751831E+03  0.25500000920E-02 0.  1.
        2   -1    0    0  501    0  0.00000000000E+00  0.00000000000E+00 -0.35092799792E+03  0.35092799793E+03  0.25500000920E-02 0. -1.
    10030    2    1    2    0    0  0.00000000000E+00  0.00000000000E+00  0.22189952038E+03  0.92375551624E+03  0.89670778777E+03 0.  0.
        3    1    3    3  502    0 -0.41443637542E+03 -0.12657801573E+03 -0.75938053285E+01  0.43340186827E+03  0.10100000352E+00 0.  1.
       -3    1    3    3    0  502  0.41443637542E+03  0.12657801573E+03  0.22949332571E+03  0.49035364798E+03  0.10100000352E+00 0. -1.
</event>
<event>
 5   0  0.2074970E-03  0.9022445E+03  0.7818609E-02  0.9422780E-01
        1   -1    0    0  501    0  0.00000000000E+00  0.00000000000E+00  0.58769142452E+03  0.58769142454E+03  0.50400001928E-02 0.  1.
       -1   -1    0    0    0  501  0.00000000000E+00  0.00000000000E+00 -0.34628935503E+03  0.34628935507E+03  0.50400001928E-02 0. -1.
    10030    2    1    2    0    0  0.00000000000E+00  0.00000000000E+00  0.24140206949E+03  0.93398077960E+03  0.90224449985E+03 0.  0.
        2    1    3    3  502    0  0.42337973281E+02 -0.21493117965E+03 -0.28753517453E+03  0.36147530008E+03  0.25500000920E-02 0. -1.
       -2    1    3    3    0  502 -0.42337973281E+02  0.21493117965E+03  0.52893724402E+03  0.57250547952E+03  0.25500000920E-02 0.  1.
</event>
<event>
 5   0  0.3685879E-03  0.9120860E+03  0.7818609E-02  0.9410598E-01
        2   -1    0    0  501    0  0.00000000000E+00  0.00000000000E+00  0.75950832948E+03  0.75950832949E+03  0.25500000920E-02 0.  1.
       -2   -1    0    0    0  501  0.00000000000E+00  0.00000000000E+00 -0.27382873878E+03  0.27382873879E+03  0.25500000920E-02 0. -1.
    10030    2    1    2    0    0  0.00000000000E+00  0.00000000000E+00  0.48567959071E+03  0.10333370683E+04  0.91208597832E+03 0.  0.
        1    1    3    3  502    0  0.96496822520E+02  0.18481837019E+03 -0.21667210087E+03  0.30069297637E+03  0.50400001928E-02 0. -1.
       -1    1    3    3    0  502 -0.96496822520E+02 -0.18481837019E+03  0.70235169158E+03  0.73264409191E+03  0.50400001928E-02 0.  1.
</event>
<event>
 5   0  0.2129280E-03  0.8831954E+03  0.7818609E-02  0.9446835E-01
        1   -1    0    0  501    0  0.00000000000E+00  0.00000000000E+00  0.11535647420E+04  0.11535647420E+04  0.50400001928E-02 0.  1.
       -1   -1    0    0    0  501  0.00000000000E+00  0.00000000000E+00 -0.16904863764E+03  0.16904863772E+03  0.50400001928E-02 0. -1.
    10030    2    1    2    0    0  0.00000000000E+00  0.00000000000E+00  0.98451610433E+03  0.13226133797E+04  0.88319544410E+03 0.  0.
        3    1    3    3  502    0  0.41962040747E+03 -0.65801143021E+02  0.67318979035E+03  0.79598717378E+03  0.10100000352E+00 0.  1.
       -3    1    3    3    0  502 -0.41962040747E+03  0.65801143021E+02  0.31132631398E+03  0.52662620592E+03  0.10100000352E+00 0. -1.
</event>
<event>
 5   0  0.2129280E-03  0.8920144E+03  0.7818609E-02  0.9435619E-01
        1   -1    0    0  501    0  0.00000000000E+00  0.00000000000E+00  0.23712521671E+03  0.23712521677E+03  0.50400001928E-02 0.  1.
       -1   -1    0    0    0  501  0.00000000000E+00  0.00000000000E+00 -0.83889191556E+03  0.83889191558E+03  0.50400001928E-02 0. -1.
    10030    2    1    2    0    0  0.00000000000E+00  0.00000000000E+00 -0.60176669885E+03  0.10760171323E+04  0.89201441090E+03 0.  0.
        3    1    3    3  502    0  0.11663296017E+03 -0.33066343133E+03  0.31622608874E+02  0.35205333660E+03  0.10100000352E+00 0.  1.
       -3    1    3    3    0  502 -0.11663296017E+03  0.33066343133E+03 -0.63338930773E+03  0.72396379575E+03  0.10100000352E+00 0. -1.
</event>
<event>
 5   0  0.2295158E-03  0.8989958E+03  0.7818609E-02  0.9426838E-01
        1   -1    0    0  501    0  0.00000000000E+00  0.00000000000E+00  0.13536841700E+04  0.13536841700E+04  0.50400001928E-02 0.  1.
       -1   -1    0    0    0  501  0.00000000000E+00  0.00000000000E+00 -0.14925812725E+03  0.14925812733E+03  0.50400001928E-02 0. -1.
    10030    2    1    2    0    0  0.00000000000E+00  0.00000000000E+00  0.12044260427E+04  0.15029422973E+04  0.89899580459E+03 0.  0.
        4    1    3    3  502    0 -0.22863466508E+03  0.35250411647E+03  0.33517560204E+03  0.53747303124E+03  0.12699999809E+01 0. -1.
       -4    1    3    3    0  502  0.22863466508E+03 -0.35250411647E+03  0.86925044070E+03  0.96546926609E+03  0.12699999809E+01 0.  1.
</event>
<event>
 5   0  0.3663255E-03  0.9016757E+03  0.7818609E-02  0.9423489E-01
        2   -1    0    0  501    0  0.00000000000E+00  0.00000000000E+00  0.15145186685E+04  0.15145186685E+04  0.25500000920E-02 0. -1.
       -2   -1    0    0    0  501  0.00000000000E+00  0.00000000000E+00 -0.13420420292E+03  0.13420420295E+03  0.25500000920E-02 0.  1.
    10030    2    1    2    0    0  0.00000000000E+00  0.00000000000E+00  0.13803144655E+04  0.16487228714E+04  0.90167570830E+03 0.  0.
        4    1    3    3  502    0  0.36373747491E+03 -0.26484641903E+03  0.63829128518E+03  0.78093914869E+03  0.12699999809E+01 0.  1.
       -4    1    3    3    0  502 -0.36373747491E+03  0.26484641903E+03  0.74202318035E+03  0.86778372271E+03  0.12699999809E+01 0. -1.
</event>
<event>
 5   0  0.2129280E-03  0.8976737E+03  0.7818609E-02  0.9428494E-01
       -1   -1    0    0    0  501  0.00000000000E+00  0.00000000000E+00  0.19977467776E+04  0.19977467776E+04  0.50400001928E-02 0.  1.
        1   -1    0    0  501    0  0.00000000000E+00  0.00000000000E+00 -0.10084086366E+03  0.10084086379E+03  0.50400001928E-02 0. -1.
    10030    2    1    2    0    0  0.00000000000E+00  0.00000000000E+00  0.18969059139E+04  0.20985876414E+04  0.89767368362E+03 0.  0.
        3    1    3    3  502    0 -0.38274578654E+03 -0.23190504780E+03  0.10287664732E+04  0.11218889227E+04  0.10100000352E+00 0. -1.
       -3    1    3    3    0  502  0.38274578654E+03  0.23190504780E+03  0.86813944068E+03  0.97669871863E+03  0.10100000352E+00 0.  1.
</event>
<event>
 5   0  0.3815269E-03  0.9025618E+03  0.7818609E-02  0.9422385E-01
        2   -1    0    0  501    0  0.00000000000E+00  0.00000000000E+00  0.43220488473E+03  0.43220488474E+03  0.25500000920E-02 0. -1.
       -2   -1    0    0    0  501  0.00000000000E+00  0.00000000000E+00 -0.47119886363E+03  0.47119886363E+03  0.25500000920E-02 0.  1.
    10030    2    1    2    0    0  0.00000000000E+00  0.00000000000E+00 -0.38993978891E+02  0.90340374837E+03  0.90256179965E+03 0.  0.
        5    1    3    3  502    0 -0.73978975903E+02  0.20578123774E+03 -0.41459746871E+03  0.46875575489E+03  0.46999998093E+01 0.  1.
       -5    1    3    3    0  502  0.73978975903E+02 -0.20578123774E+03  0.37560348982E+03  0.43464799349E+03  0.46999998093E+01 0. -1.
</event>
<event>
 5   0  0.2129280E-03  0.8948826E+03  0.7818609E-02  0.9432001E-01
        1   -1    0    0  501    0  0.00000000000E+00  0.00000000000E+00  0.69587024813E+03  0.69587024814E+03  0.50400001928E-02 0. -1.
       -1   -1    0    0    0  501  0.00000000000E+00  0.00000000000E+00 -0.28770266832E+03  0.28770266836E+03  0.50400001928E-02 0.  1.
    10030    2    1    2    0    0  0.00000000000E+00  0.00000000000E+00  0.40816757981E+03  0.98357291650E+03  0.89488262296E+03 0.  0.
        3    1    3    3  502    0  0.80800631359E+01 -0.39656555995E+02 -0.28568679412E+03  0.28853922504E+03  0.10100000352E+00 0.  1.
       -3    1    3    3    0  502 -0.80800631359E+01  0.39656555995E+02  0.69385437392E+03  0.69503369146E+03  0.10100000352E+00 0. -1.
</event>
<event>
 5   0  0.3685879E-03  0.8908414E+03  0.7818609E-02  0.9437103E-01
       -2   -1    0    0    0  501  0.00000000000E+00  0.00000000000E+00  0.85505400943E+03  0.85505400943E+03  0.25500000920E-02 0.  1.
        2   -1    0    0  501    0  0.00000000000E+00  0.00000000000E+00 -0.23203167851E+03  0.23203167852E+03  0.25500000920E-02 0. -1.
    10030    2    1    2    0    0  0.00000000000E+00  0.00000000000E+00  0.62302233092E+03  0.10870856880E+04  0.89084143827E+03 0.  0.
        1    1    3    3  502    0 -0.10343967974E+03 -0.14767455008E+03 -0.18551149517E+03  0.25869297430E+03  0.50400001928E-02 0. -1.
       -1    1    3    3    0  502  0.10343967974E+03  0.14767455008E+03  0.80853382609E+03  0.82839271366E+03  0.50400001928E-02 0.  1.
</event>
<event>
 5   0  0.2129280E-03  0.9021969E+03  0.7818609E-02  0.9422839E-01
        1   -1    0    0  501    0  0.00000000000E+00  0.00000000000E+00  0.23680326339E+04  0.23680326339E+04  0.50400001928E-02 0.  1.
       -1   -1    0    0    0  501  0.00000000000E+00  0.00000000000E+00 -0.85932015274E+02  0.85932015421E+02  0.50400001928E-02 0. -1.
    10030    2    1    2    0    0  0.00000000000E+00  0.00000000000E+00  0.22821006187E+04  0.24539646494E+04  0.90219691122E+03 0.  0.
        3    1    3    3  502    0 -0.18517885707E+03  0.30725461209E+03  0.18849219906E+04  0.19187567658E+04  0.10100000352E+00 0.  1.
       -3    1    3    3    0  502  0.18517885707E+03 -0.30725461209E+03  0.39717862809E+03  0.53520788351E+03  0.10100000352E+00 0. -1.
</event>
<event>
 5   0  0.3815269E-03  0.9031787E+03  0.7818609E-02  0.9421617E-01
        2   -1    0    0  501    0  0.00000000000E+00  0.00000000000E+00  0.26675264615E+04  0.26675264615E+04  0.25500000920E-02 0.  1.
       -2   -1    0    0    0  501  0.00000000000E+00  0.00000000000E+00 -0.76450205287E+02  0.76450205329E+02  0.25500000920E-02 0. -1.
    10030    2    1    2    0    0  0.00000000000E+00  0.00000000000E+00  0.25910762562E+04  0.27439766668E+04  0.90317871022E+03 0.  0.
        5    1    3    3  502    0 -0.28088047111E+03  0.28876420894E+03  0.19154381539E+04  0.19573461674E+04  0.46999998093E+01 0.  1.
       -5    1    3    3    0  502  0.28088047111E+03 -0.28876420894E+03  0.67563810228E+03  0.78663049945E+03  0.46999998093E+01 0. -1.
</event>
<event>
 5   0  0.3626546E-03  0.8897921E+03  0.7818609E-02  0.9438432E-01
        2   -1    0    0  501    0  0.00000000000E+00  0.00000000000E+00  0.89813388298E+03  0.89813388298E+03  0.25500000920E-02 0.  1.
       -2   -1    0    0    0  501  0.00000000000E+00  0.00000000000E+00 -0.22038195788E+03  0.22038195790E+03  0.25500000920E-02 0. -1.
    10030    2    1    2    0    0  0.00000000000E+00  0.00000000000E+00  0.67775192509E+03  0.11185158409E+04  0.88979211861E+03 0.  0.
        3    1    3    3  502    0 -0.10811619814E+03  0.34782482905E+03  0.66000630537E+03  0.75384319148E+03  0.10100000352E+00 0.  1.
       -3    1    3    3    0  502  0.10811619814E+03 -0.34782482905E+03  0.17745619722E+02  0.36467264940E+03  0.10100000352E+00 0. -1.
</event>
<event>
 5   0  0.1436000E-03  0.8987511E+03  0.7818609E-02  0.9427144E-01
       -3   -1    0    0    0  501  0.00000000000E+00  0.00000000000E+00  0.14786948448E+03  0.14786951898E+03  0.10100000352E+00 0.  1.
        3   -1    0    0  501    0  0.00000000000E+00  0.00000000000E+00 -0.13656528083E+04  0.13656528121E+04  0.10100000352E+00 0. -1.
    10030    2    1    2    0    0  0.00000000000E+00  0.00000000000E+00 -0.12177833239E+04  0.15135223311E+04  0.89875114616E+03 0.  0.
        5    1    3    3  502    0  0.26914012988E+03 -0.94458377440E+02 -0.11936097524E+04  0.12272265991E+04  0.46999998093E+01 0. -1.
       -5    1    3    3    0  502 -0.26914012988E+03  0.94458377440E+02 -0.24173571499E+02  0.28629573196E+03  0.46999998093E+01 0.  1.
</event>
<event>
 5   0  0.3626546E-03  0.8936883E+03  0.7818609E-02  0.9433506E-01
       -2   -1    0    0    0  501  0.00000000000E+00  0.00000000000E+00  0.50842667330E+03  0.50842667331E+03  0.25500000920E-02 0. -1.
        2   -1    0    0  501    0  0.00000000000E+00  0.00000000000E+00 -0.39272076815E+03  0.39272076816E+03  0.25500000920E-02 0.  1.
    10030    2    1    2    0    0  0.00000000000E+00  0.00000000000E+00  0.11570590516E+03  0.90114744147E+03  0.89368834320E+03 0.  0.
        3    1    3    3  502    0  0.19188479164E+03  0.26220603977E+03  0.36716709650E+03  0.49028916723E+03  0.10100000352E+00 0. -1.
       -3    1    3    3    0  502 -0.19188479164E+03 -0.26220603977E+03 -0.25146119134E+03  0.41085827423E+03  0.10100000352E+00 0.  1.
</event>
<event>
 5   0  0.2134145E-03  0.9013815E+03  0.7818609E-02  0.9423856E-01
        1   -1    0    0  501    0  0.00000000000E+00  0.00000000000E+00  0.42933772435E+03  0.42933772438E+03  0.50400001928E-02 0.  1.
       -1   -1    0    0    0  501  0.00000000000E+00  0.00000000000E+00 -0.47310575866E+03  0.47310575869E+03  0.50400001928E-02 0. -1.
    10030    2    1    2    0    0  0.00000000000E+00  0.00000000000E+00 -0.43768034314E+02  0.90244348307E+03  0.90138149488E+03 0.  0.
        1    1    3    3  502    0 -0.33257608528E+03  0.89777898292E+01  0.28250493472E+03  0.43645903745E+03  0.50400001928E-02 0.  1.
       -1    1    3    3    0  502  0.33257608528E+03 -0.89777898292E+01 -0.32627296903E+03  0.46598444561E+03  0.50400001928E-02 0. -1.
</event>
<event>
 5   0  0.2295158E-03  0.8957234E+03  0.7818609E-02  0.9430943E-01
       -1   -1    0    0    0  501  0.00000000000E+00  0.00000000000E+00  0.42280805892E+03  0.42280805895E+03  0.50400001928E-02 0. -1.
        1   -1    0    0  501    0  0.00000000000E+00  0.00000000000E+00 -0.47439995033E+03  0.47439995036E+03  0.50400001928E-02 0.  1.
    10030    2    1    2    0    0  0.00000000000E+00  0.00000000000E+00 -0.51591891411E+02  0.89720800931E+03  0.89572344433E+03 0.  0.
        4    1    3    3  502    0 -0.27804810774E+03  0.84255846941E+02 -0.36719615754E+03  0.46823544182E+03  0.12699999809E+01 0.  1.
       -4    1    3    3    0  502  0.27804810774E+03 -0.84255846941E+02  0.31560426613E+03  0.42897256749E+03  0.12699999809E+01 0. -1.
</event>
<event>
 5   0  0.2134145E-03  0.9011318E+03  0.7818609E-02  0.9424168E-01
       -1   -1    0    0    0  501  0.00000000000E+00  0.00000000000E+00  0.11412948622E+03  0.11412948633E+03  0.50400001928E-02 0.  1.
        1   -1    0    0  501    0  0.00000000000E+00  0.00000000000E+00 -0.17787659970E+04  0.17787659971E+04  0.50400001928E-02 0. -1.
    10030    2    1    2    0    0  0.00000000000E+00  0.00000000000E+00 -0.16646365108E+04  0.18928954834E+04  0.90113184265E+03 0.  0.
        1    1    3    3  502    0 -0.41423835266E+03  0.10295506356E+03 -0.11353876389E+04  0.12129708358E+04  0.50400001928E-02 0. -1.
       -1    1    3    3    0  502  0.41423835266E+03 -0.10295506356E+03 -0.52924887193E+03  0.67992464758E+03  0.50400001928E-02 0.  1.
</event>
<event>
 5   0  0.2130975E-03  0.9183578E+03  0.7818609E-02  0.9402920E-01
       -1   -1    0    0    0  501  0.00000000000E+00  0.00000000000E+00  0.56021963314E+03  0.56021963316E+03  0.50400001928E-02 0. -1.
        1   -1    0    0  501    0  0.00000000000E+00  0.00000000000E+00 -0.37636176841E+03  0.37636176844E+03  0.50400001928E-02 0.  1.
    10030    2    1    2    0    0  0.00000000000E+00  0.00000000000E+00  0.18385786473E+03  0.93658140160E+03  0.91835777745E+03 0.  0.
        5    1    3    3  502    0  0.37201737656E+03 -0.90950958833E+02 -0.16638392332E+03  0.41758197436E+03  0.46999998093E+01 0.  1.
       -5    1    3    3    0  502 -0.37201737656E+03  0.90950958833E+02  0.35024178805E+03  0.51899942724E+03  0.46999998093E+01 0. -1.
</event>
<event>
 5   0  0.2129280E-03  0.8933266E+03  0.7818609E-02  0.9433962E-01
       -1   -1    0    0    0  501  0.00000000000E+00  0.00000000000E+00  0.13015176606E+03  0.13015176616E+03  0.50400001928E-02 0.  1.
        1   -1    0    0  501    0  0.00000000000E+00  0.00000000000E+00 -0.15328883263E+04  0.15328883263E+04  0.50400001928E-02 0. -1.
    10030    2    1    2    0    0  0.00000000000E+00  0.00000000000E+00 -0.14027365603E+04  0.16630400925E+04  0.89332664336E+03 0.  0.
        3    1    3    3  502    0  0.81409173302E+02 -0.32544368131E+03 -0.15237143287E+03  0.36845367003E+03  0.10100000352E+00 0.  1.
       -3    1    3    3    0  502 -0.81409173302E+02  0.32544368131E+03 -0.12503651274E+04  0.12945864225E+04  0.10100000352E+00 0. -1.
</event>
<event>
 5   0  0.2295158E-03  0.9110552E+03  0.7818609E-02  0.9411866E-01
        1   -1    0    0  501    0  0.00000000000E+00  0.00000000000E+00  0.11179648338E+04  0.11179648338E+04  0.50400001928E-02 0.  1.
       -1   -1    0    0    0  501  0.00000000000E+00  0.00000000000E+00 -0.18560994346E+03  0.18560994353E+03  0.50400001928E-02 0. -1.
    10030    2    1    2    0    0  0.00000000000E+00  0.00000000000E+00  0.93235489038E+03  0.13035747774E+04  0.91105518966E+03 0.  0.
        4    1    3    3  502    0 -0.25747796423E+03 -0.13145921463E+03  0.96988079981E+03  0.10120507922E+04  0.12699999809E+01 0.  1.
       -4    1    3    3    0  502  0.25747796423E+03  0.13145921463E+03 -0.37525909430E+02  0.29152398521E+03  0.12699999809E+01 0. -1.
</event>
<event>
 5   0  0.2074970E-03  0.9000456E+03  0.7818609E-02  0.9425524E-01
       -1   -1    0    0    0  501  0.00000000000E+00  0.00000000000E+00  0.18395300282E+03  0.18395300289E+03  0.50400001928E-02 0. -1.
        1   -1    0    0  501    0  0.00000000000E+00  0.00000000000E+00 -0.11009360901E+04  0.11009360901E+04  0.50400001928E-02 0.  1.
    10030    2    1    2    0    0  0.00000000000E+00  0.00000000000E+00 -0.91698308724E+03  0.12848890930E+04  0.90004555381E+03 0.  0.
        2    1    3    3  502    0  0.20306264296E+02 -0.29757578988E+03 -0.93956094402E+03  0.98576795577E+03  0.25500000920E-02 0.  1.
       -2    1    3    3    0  502 -0.20306264296E+02  0.29757578988E+03  0.22577856778E+02  0.29912113719E+03  0.25500000920E-02 0. -1.
</event>
<event>
 5   0  0.3806019E-03  0.9006276E+03  0.7818609E-02  0.9424797E-01
       -2   -1    0    0    0  501  0.00000000000E+00  0.00000000000E+00  0.79065769258E+03  0.79065769258E+03  0.25500000920E-02 0.  1.
        2   -1    0    0  501    0  0.00000000000E+00  0.00000000000E+00 -0.25647318542E+03  0.25647318544E+03  0.25500000920E-02 0. -1.
    10030    2    1    2    0    0  0.00000000000E+00  0.00000000000E+00  0.53418450715E+03  0.10471308780E+04  0.90062755233E+03 0.  0.
        2    1    3    3  502    0 -0.38831976348E+03 -0.21881463478E+03  0.34163382005E+03  0.56159215638E+03  0.25500000920E-02 0.  1.
       -2    1    3    3    0  502  0.38831976348E+03  0.21881463478E+03  0.19255068711E+03  0.48553872164E+03  0.25500000920E-02 0. -1.
</event>
<event>
 5   0  0.2130975E-03  0.8990680E+03  0.7818609E-02  0.9426747E-01
       -1   -1    0    0    0  501  0.00000000000E+00  0.00000000000E+00  0.59648566092E+03  0.59648566094E+03  0.50400001928E-02 0. -1.
        1   -1    0    0  501    0  0.00000000000E+00  0.00000000000E+00 -0.33878569641E+03  0.33878569645E+03  0.50400001928E-02 0.  1.
    10030    2    1    2    0    0  0.00000000000E+00  0.00000000000E+00  0.25769996451E+03  0.93527135740E+03  0.89906798422E+03 0.  0.
        5    1    3    3  502    0 -0.27941719933E+03  0.33915915080E+03  0.30404053479E+02  0.44051038276E+03  0.46999998093E+01 0.  1.
       -5    1    3    3    0  502  0.27941719933E+03 -0.33915915080E+03  0.22729591103E+03  0.49476097464E+03  0.46999998093E+01 0. -1.
</event>
<event>
 5   0  0.2129280E-03  0.9024353E+03  0.7818609E-02  0.9422542E-01
        1   -1    0    0  501    0  0.00000000000E+00  0.00000000000E+00  0.27384818606E+03  0.27384818611E+03  0.50400001928E-02 0. -1.
       -1   -1    0    0    0  501  0.00000000000E+00  0.00000000000E+00 -0.74346800945E+03  0.74346800946E+03  0.50400001928E-02 0.  1.
    10030    2    1    2    0    0  0.00000000000E+00  0.00000000000E+00 -0.46961982339E+03  0.10173161956E+04  0.90243529588E+03 0.  0.
        3    1    3    3  502    0  0.24280436776E+03  0.31829768535E+03 -0.15258416583E+00  0.40033412419E+03  0.10100000352E+00 0. -1.
       -3    1    3    3    0  502 -0.24280436776E+03 -0.31829768535E+03 -0.46946723922E+03  0.61698207138E+03  0.10100000352E+00 0.  1.
</event>
<event>
 5   0  0.3806019E-03  0.9009467E+03  0.7818609E-02  0.9424399E-01
       -2   -1    0    0    0  501  0.00000000000E+00  0.00000000000E+00  0.20143743203E+03  0.20143743204E+03  0.25500000920E-02 0. -1.
        2   -1    0    0  501    0  0.00000000000E+00  0.00000000000E+00 -0.10073908400E+04  0.10073908400E+04  0.25500000920E-02 0.  1.
    10030    2    1    2    0    0  0.00000000000E+00  0.00000000000E+00 -0.80595340795E+03  0.12088282720E+04  0.90094666627E+03 0.  0.
        2    1    3    3  502    0  0.27916847484E+03 -0.34626750925E+03 -0.49870147924E+03  0.66823602919E+03  0.25500000920E-02 0.  1.
       -2    1    3    3    0  502 -0.27916847484E+03  0.34626750925E+03 -0.30725192872E+03  0.54059224284E+03  0.25500000920E-02 0. -1.
</event>
<event>
 5   0  0.2074970E-03  0.8936169E+03  0.7818609E-02  0.9433596E-01
       -1   -1    0    0    0  501  0.00000000000E+00  0.00000000000E+00  0.43215692323E+03  0.43215692326E+03  0.50400001928E-02 0.  1.
        1   -1    0    0  501    0  0.00000000000E+00  0.00000000000E+00 -0.46195675727E+03  0.46195675730E+03  0.50400001928E-02 0. -1.
    10030    2    1    2    0    0  0.00000000000E+00  0.00000000000E+00 -0.29799834037E+02  0.89411368056E+03  0.89361694459E+03 0.  0.
        2    1    3    3  502    0 -0.41226514456E+03  0.16575550105E+03 -0.61834150643E+02  0.44862110711E+03  0.25500000920E-02 0. -1.
       -2    1    3    3    0  502  0.41226514456E+03 -0.16575550105E+03  0.32034316605E+02  0.44549257345E+03  0.25500000920E-02 0.  1.
</event>
<event>
 5   0  0.2130975E-03  0.8984146E+03  0.7818609E-02  0.9427565E-01
       -1   -1    0    0    0  501  0.00000000000E+00  0.00000000000E+00  0.80926828661E+02  0.80926828818E+02  0.50400001928E-02 0. -1.
        1   -1    0    0  501    0  0.00000000000E+00  0.00000000000E+00 -0.24934521903E+04  0.24934521903E+04  0.50400001928E-02 0.  1.
    10030    2    1    2    0    0  0.00000000000E+00  0.00000000000E+00 -0.24125253617E+04  0.25743790192E+04  0.89841455551E+03 0.  0.
        5    1    3    3  502    0  0.22077367212E+03  0.89039473988E+02 -0.22977620699E+04  0.23100652939E+04  0.46999998093E+01 0.  1.
       -5    1    3    3    0  502 -0.22077367212E+03 -0.89039473988E+02 -0.11476329180E+03  0.26431372528E+03  0.46999998093E+01 0. -1.
</event>
<event>
 5   0  0.3685879E-03  0.9068290E+03  0.7818609E-02  0.9417085E-01
       -2   -1    0    0    0  501  0.00000000000E+00  0.00000000000E+00  0.10634619833E+03  0.10634619836E+03  0.25500000920E-02 0.  1.
        2   -1    0    0  501    0  0.00000000000E+00  0.00000000000E+00 -0.19331647787E+04  0.19331647787E+04  0.25500000920E-02 0. -1.
    10030    2    1    2    0    0  0.00000000000E+00  0.00000000000E+00 -0.18268185804E+04  0.20395109771E+04  0.90682903571E+03 0.  0.
        1    1    3    3  502    0  0.19588789779E+02 -0.17798977932E+03 -0.18502725408E+04  0.18589170389E+04  0.50400001928E-02 0. -1.
       -1    1    3    3    0  502 -0.19588789779E+02  0.17798977932E+03  0.23453960411E+02  0.18059393820E+03  0.50400001928E-02 0.  1.
</event>
<event>
 5   0  0.3806019E-03  0.8983333E+03  0.7818609E-02  0.9427667E-01
       -2   -1    0    0    0  501  0.00000000000E+00  0.00000000000E+00  0.16362422813E+04  0.16362422813E+04  0.25500000920E-02 0. -1.
        2   -1    0    0  501    0  0.00000000000E+00  0.00000000000E+00 -0.12330122852E+03  0.12330122855E+03  0.25500000920E-02 0.  1.
    10030    2    1    2    0    0  0.00000000000E+00  0.00000000000E+00  0.15129410528E+04  0.17595435099E+04  0.89833330891E+03 0.  0.
        2    1    3    3  502    0  0.14230833927E+03 -0.34130819583E+03  0.12558664885E+04  0.13091766821E+04  0.25500000920E-02 0. -1.
       -2    1    3    3    0  502 -0.14230833927E+03  0.34130819583E+03  0.25707456432E+03  0.45036682781E+03  0.25500000920E-02 0.  1.
</event>
<event>
 5   0  0.3663255E-03  0.9031960E+03  0.7818609E-02  0.9421595E-01
       -2   -1    0    0    0  501  0.00000000000E+00  0.00000000000E+00  0.32462175711E+03  0.32462175712E+03  0.25500000920E-02 0. -1.
        2   -1    0    0  501    0  0.00000000000E+00  0.00000000000E+00 -0.62824115773E+03  0.62824115773E+03  0.25500000920E-02 0.  1.
    10030    2    1    2    0    0  0.00000000000E+00  0.00000000000E+00 -0.30361940061E+03  0.95286291486E+03  0.90319598874E+03 0.  0.
        4    1    3    3  502    0  0.36517450641E+03  0.24999178223E+03 -0.56914377023E+02  0.44619409513E+03  0.12699999809E+01 0.  1.
       -4    1    3    3    0  502 -0.36517450641E+03 -0.24999178223E+03 -0.24670502359E+03  0.50666881973E+03  0.12699999809E+01 0. -1.
</event>
<event>
 5   0  0.3815269E-03  0.8941134E+03  0.7818609E-02  0.9432970E-01
        2   -1    0    0  501    0  0.00000000000E+00  0.00000000000E+00  0.11482171593E+04  0.11482171593E+04  0.25500000920E-02 0.  1.
       -2   -1    0    0    0  501  0.00000000000E+00  0.00000000000E+00 -0.17406087027E+03  0.17406087029E+03  0.25500000920E-02 0. -1.
    10030    2    1    2    0    0  0.00000000000E+00  0.00000000000E+00  0.97415628899E+03  0.13222780295E+04  0.89411336644E+03 0.  0.
        5    1    3    3  502    0 -0.35092736748E+03 -0.12091302150E+03  0.85551469949E+03  0.93257571653E+03  0.46999998093E+01 0.  1.
       -5    1    3    3    0  502  0.35092736748E+03  0.12091302150E+03  0.11864158950E+03  0.38970231302E+03  0.46999998093E+01 0. -1.
</event>
<event>
 5   0  0.3663255E-03  0.9047116E+03  0.7818609E-02  0.9419711E-01
       -2   -1    0    0    0  501  0.00000000000E+00  0.00000000000E+00  0.10264129652E+03  0.10264129655E+03  0.25500000920E-02 0.  1.
        2   -1    0    0  501    0  0.00000000000E+00  0.00000000000E+00 -0.19936006455E+04  0.19936006455E+04  0.25500000920E-02 0. -1.
    10030    2    1    2    0    0  0.00000000000E+00  0.00000000000E+00 -0.18909593489E+04  0.20962419420E+04  0.90471156735E+03 0.  0.
        4    1    3    3  502    0 -0.26578244667E+03 -0.32275286481E+03 -0.13455574769E+04  0.14090196085E+04  0.12699999809E+01 0. -1.
       -4    1    3    3    0  502  0.26578244667E+03  0.32275286481E+03 -0.54540187204E+03  0.68722233348E+03  0.12699999809E+01 0.  1.
</event>
<event>
 5   0  0.3685879E-03  0.9005239E+03  0.7818609E-02  0.9424927E-01
       -2   -1    0    0    0  501  0.00000000000E+00  0.00000000000E+00  0.27455846232E+03  0.27455846233E+03  0.25500000920E-02 0. -1.
        2   -1    0    0  501    0  0.00000000000E+00  0.00000000000E+00 -0.73840674308E+03  0.73840674309E+03  0.25500000920E-02 0.  1.
    10030    2    1    2    0    0  0.00000000000E+00  0.00000000000E+00 -0.46384828076E+03  0.10129652054E+04  0.90052389187E+03 0.  0.
        1    1    3    3  502    0 -0.27559355206E+03  0.33570386556E+03 -0.36543218823E+03  0.56761745525E+03  0.50400001928E-02 0. -1.
       -1    1    3    3    0  502  0.27559355206E+03 -0.33570386556E+03 -0.98416092528E+02  0.44534775017E+03  0.50400001928E-02 0.  1.
</event>
<event>
 5   0  0.2074970E-03  0.9013241E+03  0.7818609E-02  0.9423928E-01
       -1   -1    0    0    0  501  0.00000000000E+00  0.00000000000E+00  0.41927784198E+03  0.41927784201E+03  0.50400001928E-02 0.  1.
        1   -1    0    0  501    0  0.00000000000E+00  0.00000000000E+00 -0.48439550293E+03  0.48439550296E+03  0.50400001928E-02 0. -1.
    10030    2    1    2    0    0  0.00000000000E+00  0.00000000000E+00 -0.65117660951E+02  0.90367334497E+03  0.90132413960E+03 0.  0.
        2    1    3    3  502    0 -0.39569024090E+03  0.46865088001E+02  0.17853493481E+03  0.43662549876E+03  0.25500000920E-02 0.  1.
       -2    1    3    3    0  502  0.39569024090E+03 -0.46865088001E+02 -0.24365259576E+03  0.46704784620E+03  0.25500000920E-02 0. -1.
</event>
<event>
 5   0  0.3806019E-03  0.8998151E+03  0.7818609E-02  0.9425813E-01
        2   -1    0    0  501    0  0.00000000000E+00  0.00000000000E+00  0.13287313868E+04  0.13287313868E+04  0.25500000920E-02 0. -1.
       -2   -1    0    0    0  501  0.00000000000E+00  0.00000000000E+00 -0.15233840683E+03  0.15233840686E+03  0.25500000920E-02 0.  1.
    10030    2    1    2    0    0  0.00000000000E+00  0.00000000000E+00  0.11763929800E+04  0.14810697937E+04  0.89981514235E+03 0.  0.
        2    1    3    3  502    0 -0.14905490109E+03 -0.17205367339E+03 -0.50552721121E+02  0.23318535050E+03  0.25500000920E-02 0.  1.
       -2    1    3    3    0  502  0.14905490109E+03  0.17205367339E+03  0.12269457011E+04  0.12478844432E+04  0.25500000920E-02 0. -1.
</event>
<event>
 5   0  0.3626546E-03  0.9015999E+03  0.7818609E-02  0.9423584E-01
       -2   -1    0    0    0  501  0.00000000000E+00  0.00000000000E+00  0.20062351119E+03  0.20062351121E+03  0.25500000920E-02 0. -1.
        2   -1    0    0  501    0  0.00000000000E+00  0.00000000000E+00 -0.10129450805E+04  0.10129450805E+04  0.25500000920E-02 0.  1.
    10030    2    1    2    0    0  0.00000000000E+00  0.00000000000E+00 -0.81232156932E+03  0.12135685917E+04  0.90159990841E+03 0.  0.
        3    1    3    3  502    0 -0.38940217558E+02  0.23644228460E+03 -0.92011943454E+03  0.95081074800E+03  0.10100000352E+00 0.  1.
       -3    1    3    3    0  502  0.38940217558E+02 -0.23644228460E+03  0.10779786522E+03  0.26275784373E+03  0.10100000352E+00 0. -1.
</event>
<event>
 5   0  0.1436000E-03  0.9002714E+03  0.7818609E-02  0.9425242E-01
        4   -1    0    0  501    0  0.00000000000E+00  0.00000000000E+00  0.39542247787E+03  0.39542451733E+03  0.12699999809E+01 0. -1.
       -4   -1    0    0    0  501  0.00000000000E+00  0.00000000000E+00 -0.51241521836E+03  0.51241679217E+03  0.12699999809E+01 0.  1.
    10030    2    1    2    0    0  0.00000000000E+00  0.00000000000E+00 -0.11699274049E+03  0.90784130950E+03  0.90027137126E+03 0.  0.
        4    1    3    3  502    0  0.18612194094E+03 -0.94354496504E+02  0.34370110800E+03  0.40208980645E+03  0.12699999809E+01 0. -1.
       -4    1    3    3    0  502 -0.18612194094E+03  0.94354496504E+02 -0.46069384849E+03  0.50575150305E+03  0.12699999809E+01 0.  1.
</event>
<event>
 5   0  0.3685879E-03  0.8744657E+03  0.7818609E-02  0.9458076E-01
       -2   -1    0    0    0  501  0.00000000000E+00  0.00000000000E+00  0.12732255086E+03  0.12732255088E+03  0.25500000920E-02 0. -1.
        2   -1    0    0  501    0  0.00000000000E+00  0.00000000000E+00 -0.15014822581E+04  0.15014822581E+04  0.25500000920E-02 0.  1.
    10030    2    1    2    0    0  0.00000000000E+00  0.00000000000E+00 -0.13741597072E+04  0.16288048089E+04  0.87446566813E+03 0.  0.
        1    1    3    3  502    0 -0.20294510698E+03  0.14839896348E+03 -0.20780373869E+02  0.25227126823E+03  0.50400001928E-02 0. -1.
       -1    1    3    3    0  502  0.20294510698E+03 -0.14839896348E+03 -0.13533793333E+04  0.13765335407E+04  0.50400001928E-02 0.  1.
</event>
<event>
 5   0  0.2134145E-03  0.9009090E+03  0.7818609E-02  0.9424446E-01
       -1   -1    0    0    0  501  0.00000000000E+00  0.00000000000E+00  0.90129103846E+03  0.90129103847E+03  0.50400001928E-02 0. -1.
        1   -1    0    0  501    0  0.00000000000E+00  0.00000000000E+00 -0.22513176691E+03  0.22513176697E+03  0.50400001928E-02 0.  1.
    10030    2    1    2    0    0  0.00000000000E+00  0.00000000000E+00  0.67615927155E+03  0.11264228054E+04  0.90090897216E+03 0.  0.
        1    1    3    3  502    0  0.11585967922E+02 -0.34693671279E+02 -0.22327192423E+03  0.22624817713E+03  0.50400001928E-02 0.  1.
       -1    1    3    3    0  502 -0.11585967922E+02  0.34693671279E+02  0.89943119578E+03  0.90017462831E+03  0.50400001928E-02 0. -1.
</event>
<event>
 5   0  0.3806019E-03  0.8988399E+03  0.7818609E-02  0.9427033E-01
        2   -1    0    0  501    0  0.00000000000E+00  0.00000000000E+00  0.23376980571E+04  0.23376980571E+04  0.25500000920E-02 0. -1.
       -2   -1    0    0    0  501  0.00000000000E+00  0.00000000000E+00 -0.86400509235E+02  0.86400509273E+02  0.25500000920E-02 0.  1.
    10030    2    1    2    0    0  0.00000000000E+00  0.00000000000E+00  0.22512975479E+04  0.24240985664E+04  0.89883992483E+03 0.  0.
        2    1    3    3  502    0  0.48796861847E+02  0.18330042101E+03  0.26846598266E+02  0.19157483632E+03  0.25500000920E-02 0.  1.
       -2    1    3    3    0  502 -0.48796861847E+02 -0.18330042101E+03  0.22244509496E+04  0.22325237300E+04  0.25500000920E-02 0. -1.
</event>
<event>
 5   0  0.2129280E-03  0.8986926E+03  0.7818609E-02  0.9427217E-01
        1   -1    0    0  501    0  0.00000000000E+00  0.00000000000E+00  0.76695769423E+03  0.76695769424E+03  0.50400001928E-02 0. -1.
       -1   -1    0    0    0  501  0.00000000000E+00  0.00000000000E+00 -0.26326367665E+03  0.26326367669E+03  0.50400001928E-02 0.  1.
    10030    2    1    2    0    0  0.00000000000E+00  0.00000000000E+00  0.50369401758E+03  0.10302213709E+04  0.89869261140E+03 0.  0.
        3    1    3    3  502    0 -0.22995533814E+03  0.17600563172E+03  0.64572429476E+03  0.70768447417E+03  0.10100000352E+00 0. -1.
       -3    1    3    3    0  502  0.22995533814E+03 -0.17600563172E+03 -0.14203027718E+03  0.32253689676E+03  0.10100000352E+00 0.  1.
</event>
<event>
 5   0  0.3815269E-03  0.8989115E+03  0.7818609E-02  0.9426943E-01
        2   -1    0    0  501    0  0.00000000000E+00  0.00000000000E+00  0.24094587714E+03  0.24094587716E+03  0.25500000920E-02 0. -1.
       -2   -1    0    0    0  501  0.00000000000E+00  0.00000000000E+00 -0.83840606140E+03  0.83840606140E+03  0.25500000920E-02 0.  1.
    10030    2    1    2    0    0  0.00000000000E+00  0.00000000000E+00 -0.59746018426E+03  0.10793519386E+04  0.89891152818E+03 0.  0.
        5    1    3    3  502    0  0.22317583695E+03  0.34062508197E+02 -0.76535116079E+03  0.79796754194E+03  0.46999998093E+01 0.  1.
       -5    1    3    3    0  502 -0.22317583695E+03 -0.34062508197E+02  0.16789097654E+03  0.28138439662E+03  0.46999998093E+01 0. -1.
</event>
<event>
 5   0  0.2074970E-03  0.9017479E+03  0.7818609E-02  0.9423399E-01
       -1   -1    0    0    0  501  0.00000000000E+00  0.00000000000E+00  0.74391471531E+03  0.74391471533E+03  0.50400001928E-02 0.  1.
        1   -1    0    0  501    0  0.00000000000E+00  0.00000000000E+00 -0.27326699518E+03  0.27326699523E+03  0.50400001928E-02 0. -1.
    10030    2    1    2    0    0  0.00000000000E+00  0.00000000000E+00  0.47064772013E+03  0.10171817106E+04  0.90174794474E+03 0.  0.
        2    1    3    3  502    0  0.32962318597E+03  0.18968062508E+03  0.50851957169E+03  0.63499790477E+03  0.25500000920E-02 0.  1.
       -2    1    3    3    0  502 -0.32962318597E+03 -0.18968062508E+03 -0.37871851562E+02  0.38218380579E+03  0.25500000920E-02 0. -1.
</event>
<event>
 5   0  0.3663255E-03  0.8985636E+03  0.7818609E-02  0.9427379E-01
       -2   -1    0    0    0  501  0.00000000000E+00  0.00000000000E+00  0.53309137641E+03  0.53309137642E+03  0.25500000920E-02 0.  1.
        2   -1    0    0  501    0  0.00000000000E+00  0.00000000000E+00 -0.37864828909E+03  0.37864828910E+03  0.25500000920E-02 0. -1.
    10030    2    1    2    0    0  0.00000000000E+00  0.00000000000E+00  0.15444308732E+03  0.91173966552E+03  0.89856360402E+03 0.  0.
        4    1    3    3  502    0 -0.23717216230E+03  0.31107287181E+02 -0.30866316106E+03  0.39050333901E+03  0.12699999809E+01 0. -1.
       -4    1    3    3    0  502  0.23717216230E+03 -0.31107287181E+02  0.46310624838E+03  0.52123632651E+03  0.12699999809E+01 0.  1.
</event>
<event>
 5   0  0.2134145E-03  0.9022421E+03  0.7818609E-02  0.9422783E-01
        1   -1    0    0  501    0  0.00000000000E+00  0.00000000000E+00  0.13090274520E+04  0.13090274520E+04  0.50400001928E-02 0. -1.
       -1   -1    0    0    0  501  0.00000000000E+00  0.00000000000E+00 -0.15546672783E+03  0.15546672791E+03  0.50400001928E-02 0.  1.
    10030    2    1    2    0    0  0.00000000000E+00  0.00000000000E+00  0.11535607241E+04  0.14644941799E+04  0.90224212863E+03 0.  0.
        1    1    3    3  502    0 -0.32694353900E+03 -0.24533866570E+03  0.88657700300E+03  0.97626938949E+03  0.50400001928E-02 0. -1.
       -1    1    3    3    0  502  0.32694353900E+03  0.24533866570E+03  0.26698372112E+03  0.48822479039E+03  0.50400001928E-02 0.  1.
</event>
<event>
 5   0  0.3685879E-03  0.9019537E+03  0.7818609E-02  0.9423143E-01
        2   -1    0    0  501    0  0.00000000000E+00  0.00000000000E+00  0.24102015802E+04  0.24102015802E+04  0.25500000920E-02 0. -1.
       -2   -1    0    0    0  501  0.00000000000E+00  0.00000000000E+00 -0.84383026438E+02  0.84383026477E+02  0.25500000920E-02 0.  1.
    10030    2    1    2    0    0  0.00000000000E+00  0.00000000000E+00  0.23258185537E+04  0.24945846066E+04  0.90195366557E+03 0.  0.
        1    1    3    3  502    0  0.12834671009E+03 -0.41695148391E+03  0.84685349045E+03  0.95261862895E+03  0.50400001928E-02 0. -1.
       -1    1    3    3    0  502 -0.12834671009E+03  0.41695148391E+03  0.14789650633E+04  0.15419659777E+04  0.50400001928E-02 0.  1.
</event>
<event>
 5   0  0.2295158E-03  0.9000322E+03  0.7818609E-02  0.9425541E-01
        1   -1    0    0  501    0  0.00000000000E+00  0.00000000000E+00  0.20155391230E+03  0.20155391236E+03  0.50400001928E-02 0. -1.
       -1   -1    0    0    0  501  0.00000000000E+00  0.00000000000E+00 -0.10047658021E+04  0.10047658021E+04  0.50400001928E-02 0.  1.
    10030    2    1    2    0    0  0.00000000000E+00  0.00000000000E+00 -0.80321188981E+03  0.12063197145E+04  0.90003217367E+03 0.  0.
        4    1    3    3  502    0  0.18143047836E+03 -0.30667943820E+02 -0.95203888869E+03  0.96965829019E+03  0.12699999809E+01 0.  1.
       -4    1    3    3    0  502 -0.18143047836E+03  0.30667943820E+02  0.14882699888E+03  0.23666142430E+03  0.12699999809E+01 0. -1.
</event>
<event>
 5   0  0.1436000E-03  0.8996353E+03  0.7818609E-02  0.9426037E-01
        3   -1    0    0  501    0  0.00000000000E+00  0.00000000000E+00  0.42157325945E+03  0.42157327155E+03  0.10100000352E+00 0. -1.
       -3   -1    0    0    0  501  0.00000000000E+00  0.00000000000E+00 -0.47995434192E+03  0.47995435255E+03  0.10100000352E+00 0.  1.
    10030    2    1    2    0    0  0.00000000000E+00  0.00000000000E+00 -0.58381082471E+02  0.90152762410E+03  0.89963531846E+03 0.  0.
        1    1    3    3  502    0  0.34293497567E+03 -0.11221242599E+03  0.23996313194E+03  0.43333397144E+03  0.50400001928E-02 0. -1.
       -1    1    3    3    0  502 -0.34293497567E+03  0.11221242599E+03 -0.29834421441E+03  0.46819365266E+03  0.50400001928E-02 0.  1.
</event>
<event>
 5   0  0.3626546E-03  0.8967527E+03  0.7818609E-02  0.9429650E-01
        2   -1    0    0  501    0  0.00000000000E+00  0.00000000000E+00  0.36753887431E+03  0.36753887432E+03  0.25500000920E-02 0.  1.
       -2   -1    0    0    0  501  0.00000000000E+00  0.00000000000E+00 -0.54699342770E+03  0.54699342770E+03  0.25500000920E-02 0. -1.
    10030    2    1    2    0    0  0.00000000000E+00  0.00000000000E+00 -0.17945455338E+03  0.91453230202E+03  0.89675269429E+03 0.  0.
        3    1    3    3  502    0  0.21449601997E+03  0.99900252177E+02 -0.47813630949E+03  0.53348190562E+03  0.10100000352E+00 0. -1.
       -3    1    3    3    0  502 -0.21449601997E+03 -0.99900252177E+02  0.29868175611E+03  0.38105039641E+03  0.10100000352E+00 0.  1.
</event>
<event>
 5   0  0.2129280E-03  0.8990045E+03  0.7818609E-02  0.9426827E-01
       -1   -1    0    0    0  501  0.00000000000E+00  0.00000000000E+00  0.29056721499E+03  0.29056721504E+03  0.50400001928E-02 0.  1.
        1   -1    0    0  501    0  0.00000000000E+00  0.00000000000E+00 -0.69537193126E+03  0.69537193128E+03  0.50400001928E-02 0. -1.
    10030    2    1    2    0    0  0.00000000000E+00  0.00000000000E+00 -0.40480471626E+03  0.98593914631E+03  0.89900452831E+03 0.  0.
        3    1    3    3  502    0  0.13378173274E+03  0.42008323449E+03 -0.10626227400E+03  0.45349658984E+03  0.10100000352E+00 0.  1.
       -3    1    3    3    0  502 -0.13378173274E+03 -0.42008323449E+03 -0.29854244226E+03  0.53244255648E+03  0.10100000352E+00 0. -1.
</event>
<event>
 5   0  0.3685879E-03  0.9031348E+03  0.7818609E-02  0.9421671E-01
        2   -1    0    0  501    0  0.00000000000E+00  0.00000000000E+00  0.94254933312E+03  0.94254933312E+03  0.25500000920E-02 0. -1.
       -2   -1    0    0    0  501  0.00000000000E+00  0.00000000000E+00 -0.21634213064E+03  0.21634213066E+03  0.25500000920E-02 0.  1.
    10030    2    1    2    0    0  0.00000000000E+00  0.00000000000E+00  0.72620720248E+03  0.11588914638E+04  0.90313483151E+03 0.  0.
        1    1    3    3  502    0  0.38546902900E+03 -0.68139855601E+02  0.74218990049E+02  0.39841921483E+03  0.50400001928E-02 0.  1.
       -1    1    3    3    0  502 -0.38546902900E+03  0.68139855601E+02  0.65198821243E+03  0.76047224894E+03  0.50400001928E-02 0. -1.
</event>
<event>
 5   0  0.2295158E-03  0.8932654E+03  0.7818609E-02  0.9434039E-01
       -1   -1    0    0    0  501  0.00000000000E+00  0.00000000000E+00  0.34176771027E+03  0.34176771030E+03  0.50400001928E-02 0. -1.
        1   -1    0    0  501    0  0.00000000000E+00  0.00000000000E+00 -0.58367357578E+03  0.58367357580E+03  0.50400001928E-02 0.  1.
    10030    2    1    2    0    0  0.00000000000E+00  0.00000000000E+00 -0.24190586551E+03  0.92544128610E+03  0.89326542878E+03 0.  0.
        4    1    3    3  502    0 -0.20815984790E+03 -0.33535517353E+03  0.95586636196E+02  0.40611824954E+03  0.12699999809E+01 0. -1.
       -4    1    3    3    0  502  0.20815984790E+03  0.33535517353E+03 -0.33749250171E+03  0.51932303656E+03  0.12699999809E+01 0.  1.
</event>
<event>
 5   0  0.3626546E-03  0.9059496E+03  0.7818609E-02  0.9418175E-01
        2   -1    0    0  501    0  0.00000000000E+00  0.00000000000E+00  0.11131052290E+04  0.11131052290E+04  0.25500000920E-02 0.  1.
       -2   -1    0    0    0  501  0.00000000000E+00  0.00000000000E+00 -0.18433671938E+03  0.18433671939E+03  0.25500000920E-02 0. -1.
    10030    2    1    2    0    0  0.00000000000E+00  0.00000000000E+00  0.92876850958E+03  0.12974419484E+04  0.90594959295E+03 0.  0.
        3    1    3    3  502    0 -0.10646831318E+03 -0.43696716965E+03  0.54164453616E+03  0.70402743044E+03  0.10100000352E+00 0.  1.
       -3    1    3    3    0  502  0.10646831318E+03  0.43696716965E+03  0.38712397342E+03  0.59341451791E+03  0.10100000352E+00 0. -1.
</event>
<event>
 5   0  0.2295158E-03  0.9026041E+03  0.7818609E-02  0.9422332E-01
       -1   -1    0    0    0  501  0.00000000000E+00  0.00000000000E+00  0.27852080425E+03  0.27852080430E+03  0.50400001928E-02 0.  1.
        1   -1    0    0  501    0  0.00000000000E+00  0.00000000000E+00 -0.73126871128E+03  0.73126871130E+03  0.50400001928E-02 0. -1.
    10030    2    1    2    0    0  0.00000000000E+00  0.00000000000E+00 -0.45274790703E+03  0.10097895156E+04  0.90260412058E+03 0.  0.
        4    1    3    3  502    0  0.43578336777E+03  0.11732324617E+03 -0.22662161243E+03  0.50500579782E+03  0.12699999809E+01 0. -1.
       -4    1    3    3    0  502 -0.43578336777E+03 -0.11732324617E+03 -0.22612629460E+03  0.50478371777E+03  0.12699999809E+01 0.  1.
</event>
<event>
 5   0  0.2130975E-03  0.8949734E+03  0.7818609E-02  0.9431887E-01
       -1   -1    0    0    0  501  0.00000000000E+00  0.00000000000E+00  0.35962999758E+03  0.35962999762E+03  0.50400001928E-02 0. -1.
        1   -1    0    0  501    0  0.00000000000E+00  0.00000000000E+00 -0.55680658312E+03  0.55680658314E+03  0.50400001928E-02 0.  1.
    10030    2    1    2    0    0  0.00000000000E+00  0.00000000000E+00 -0.19717658554E+03  0.91643658076E+03  0.89497340780E+03 0.  0.
        5    1    3    3  502    0  0.79096791765E+02  0.10672072089E+03  0.33894881992E+03  0.36407967158E+03  0.46999998093E+01 0. -1.
       -5    1    3    3    0  502 -0.79096791765E+02 -0.10672072089E+03 -0.53612540546E+03  0.55235690918E+03  0.46999998093E+01 0.  1.
</event>
<event>
 5   0  0.2295158E-03  0.8942743E+03  0.7818609E-02  0.9432767E-01
        1   -1    0    0  501    0  0.00000000000E+00  0.00000000000E+00  0.27401825726E+03  0.27401825731E+03  0.50400001928E-02 0.  1.
       -1   -1    0    0    0  501  0.00000000000E+00  0.00000000000E+00 -0.72962888969E+03  0.72962888971E+03  0.50400001928E-02 0. -1.
    10030    2    1    2    0    0  0.00000000000E+00  0.00000000000E+00 -0.45561063243E+03  0.10036471470E+04  0.89427431325E+03 0.  0.
        4    1    3    3  502    0 -0.16855870639E+03  0.39371735780E+03 -0.37198802350E+03  0.56727603322E+03  0.12699999809E+01 0. -1.
       -4    1    3    3    0  502  0.16855870639E+03 -0.39371735780E+03 -0.83622608934E+02  0.43637111380E+03  0.12699999809E+01 0.  1.
</event>
<event>
 5   0  0.2129280E-03  0.9003483E+03  0.7818609E-02  0.9425146E-01
       -1   -1    0    0    0  501  0.00000000000E+00  0.00000000000E+00  0.37330916419E+03  0.37330916422E+03  0.50400001928E-02 0.  1.
        1   -1    0    0  501    0  0.00000000000E+00  0.00000000000E+00 -0.54286579054E+03  0.54286579056E+03  0.50400001928E-02 0. -1.
    10030    2    1    2    0    0  0.00000000000E+00  0.00000000000E+00 -0.16955662635E+03  0.91617495478E+03  0.90034832050E+03 0.  0.
        3    1    3    3  502    0  0.14447607895E+03 -0.99447338116E+02 -0.50666690154E+03  0.53616645714E+03  0.10100000352E+00 0. -1.
       -3    1    3    3    0  502 -0.14447607895E+03  0.99447338116E+02  0.33711027519E+03  0.38000849765E+03  0.10100000352E+00 0.  1.
</event>
<event>
 5   0  0.3806019E-03  0.9005989E+03  0.7818609E-02  0.9424833E-01
       -2   -1    0    0    0  501  0.00000000000E+00  0.00000000000E+00  0.15706734515E+03  0.15706734517E+03  0.25500000920E-02 0.  1.
        2   -1    0    0  501    0  0.00000000000E+00  0.00000000000E+00 -0.12909723805E+04  0.12909723805E+04  0.25500000920E-02 0. -1.
    10030    2    1    2    0    0  0.00000000000E+00  0.00000000000E+00 -0.11339050354E+04  0.14480397257E+04  0.90059892181E+03 0.  0.
        2    1    3    3  502    0  0.17815222418E+03 -0.27496422643E+03 -0.10636392495E+04  0.11129564204E+04  0.25500000920E-02 0. -1.
       -2    1    3    3    0  502 -0.17815222418E+03  0.27496422643E+03 -0.70265785931E+02  0.33508330528E+03  0.25500000920E-02 0.  1.
</event>
<event>
 5   0  0.3663255E-03  0.9043093E+03  0.7818609E-02  0.9420211E-01
        2   -1    0    0  501    0  0.00000000000E+00  0.00000000000E+00  0.47140138308E+03  0.47140138309E+03  0.25500000920E-02 0. -1.
       -2   -1    0    0    0  501  0.00000000000E+00  0.00000000000E+00 -0.43369375847E+03  0.43369375848E+03  0.25500000920E-02 0.  1.
    10030    2    1    2    0    0  0.00000000000E+00  0.00000000000E+00  0.37707624607E+02  0.90509514157E+03  0.90430932226E+03 0.  0.
        4    1    3    3  502    0  0.24671839998E+03 -0.17501135499E+03 -0.31750857524E+03  0.43853420792E+03  0.12699999809E+01 0.  1.
       -4    1    3    3    0  502 -0.24671839998E+03  0.17501135499E+03  0.35521619985E+03  0.46656093364E+03  0.12699999809E+01 0. -1.
</event>
<event>
 5   0  0.3815269E-03  0.8987806E+03  0.7818609E-02  0.9427107E-01
       -2   -1    0    0    0  501  0.00000000000E+00  0.00000000000E+00  0.19467929487E+03  0.19467929489E+03  0.25500000920E-02 0.  1.
        2   -1    0    0  501    0  0.00000000000E+00  0.00000000000E+00 -0.10373556265E+04  0.10373556265E+04  0.25500000920E-02 0. -1.
    10030    2    1    2    0    0  0.00000000000E+00  0.00000000000E+00 -0.84267633163E+03  0.12320349214E+04  0.89878064490E+03 0.  0.
        5    1    3    3  502    0  0.24765060433E+03 -0.27105859787E+03 -0.77649047883E+03  0.85893139365E+03  0.46999998093E+01 0. -1.
       -5    1    3    3    0  502 -0.24765060433E+03  0.27105859787E+03 -0.66185852803E+02  0.37310352774E+03  0.46999998093E+01 0.  1.
</event>
<event>
 5   0  0.1436000E-03  0.9069256E+03  0.7818609E-02  0.9416965E-01
       -4   -1    0    0    0  501  0.00000000000E+00  0.00000000000E+00  0.44476364477E+03  0.44476545797E+03  0.12699999809E+01 0.  1.
        4   -1    0    0  501    0  0.00000000000E+00  0.00000000000E+00 -0.46232843072E+03  0.46233017504E+03  0.12699999809E+01 0. -1.
    10030    2    1    2    0    0  0.00000000000E+00  0.00000000000E+00 -0.17564785953E+02  0.90709563301E+03  0.90692555688E+03 0.  0.
        2    1    3    3  502    0 -0.15104018733E+03  0.30998200495E+03  0.28576648346E+03  0.44784424151E+03  0.25500000920E-02 0.  1.
       -2    1    3    3    0  502  0.15104018733E+03 -0.30998200495E+03 -0.30333126942E+03  0.45925139150E+03  0.25500000920E-02 0. -1.
</event>
<event>
 5   0  0.2074970E-03  0.8968649E+03  0.7818609E-02  0.9429509E-01
       -1   -1    0    0    0  501  0.00000000000E+00  0.00000000000E+00  0.14685824501E+03  0.14685824510E+03  0.50400001928E-02 0.  1.
        1   -1    0    0  501    0  0.00000000000E+00  0.00000000000E+00 -0.13692907742E+04  0.13692907742E+04  0.50400001928E-02 0. -1.
    10030    2    1    2    0    0  0.00000000000E+00  0.00000000000E+00 -0.12224325291E+04  0.15161490193E+04  0.89686485063E+03 0.  0.
        2    1    3    3  502    0  0.29762119836E+03 -0.22794768289E+03 -0.19522603100E+03  0.42267212711E+03  0.25500000920E-02 0.  1.
       -2    1    3    3    0  502 -0.29762119836E+03  0.22794768289E+03 -0.10272064981E+04  0.10934768922E+04  0.25500000920E-02 0. -1.
</event>
<event>
 5   0  0.2134145E-03  0.8990930E+03  0.7818609E-02  0.9426716E-01
       -1   -1    0    0    0  501  0.00000000000E+00  0.00000000000E+00  0.22382892664E+03  0.22382892669E+03  0.50400001928E-02 0.  1.
        1   -1    0    0  501    0  0.00000000000E+00  0.00000000000E+00 -0.90288620258E+03  0.90288620259E+03  0.50400001928E-02 0. -1.
    10030    2    1    2    0    0  0.00000000000E+00  0.00000000000E+00 -0.67905727594E+03  0.11267151293E+04  0.89909298660E+03 0.  0.
        1    1    3    3  502    0  0.10472356882E+03  0.14531588311E+03 -0.85623594260E+03  0.87477066776E+03  0.50400001928E-02 0. -1.
       -1    1    3    3    0  502 -0.10472356882E+03 -0.14531588311E+03  0.17717866666E+03  0.25194446153E+03  0.50400001928E-02 0.  1.
</event>
<event>
 5   0  0.3626546E-03  0.9023810E+03  0.7818609E-02  0.9422610E-01
       -2   -1    0    0    0  501  0.00000000000E+00  0.00000000000E+00  0.13278937838E+03  0.13278937840E+03  0.25500000920E-02 0.  1.
        2   -1    0    0  501    0  0.00000000000E+00  0.00000000000E+00 -0.15330507747E+04  0.15330507747E+04  0.25500000920E-02 0. -1.
    10030    2    1    2    0    0  0.00000000000E+00  0.00000000000E+00 -0.14002613964E+04  0.16658401531E+04  0.90238098256E+03 0.  0.
        3    1    3    3  502    0 -0.35147742729E+03  0.29261753272E+02 -0.18067114684E+03  0.39627604722E+03  0.10100000352E+00 0.  1.
       -3    1    3    3    0  502  0.35147742729E+03 -0.29261753272E+02 -0.12195902495E+04  0.12695641059E+04  0.10100000352E+00 0. -1.
</event>
<event>
 5   0  0.3685879E-03  0.8950118E+03  0.7818609E-02  0.9431838E-01
       -2   -1    0    0    0  501  0.00000000000E+00  0.00000000000E+00  0.32075231726E+03  0.32075231727E+03  0.25500000920E-02 0. -1.
        2   -1    0    0  501    0  0.00000000000E+00  0.00000000000E+00 -0.62434944131E+03  0.62434944132E+03  0.25500000920E-02 0.  1.
    10030    2    1    2    0    0  0.00000000000E+00  0.00000000000E+00 -0.30359712405E+03  0.94510175859E+03  0.89501179901E+03 0.  0.
        1    1    3    3  502    0  0.10214293494E+03 -0.17690568312E+03 -0.57224364713E+03  0.60761138204E+03  0.50400001928E-02 0.  1.
       -1    1    3    3    0  502 -0.10214293494E+03  0.17690568312E+03  0.26864652308E+03  0.33749037655E+03  0.50400001928E-02 0. -1.
</event>
<event>
 5   0  0.1436000E-03  0.8992954E+03  0.7818609E-02  0.9426463E-01
       -3   -1    0    0    0  501  0.00000000000E+00  0.00000000000E+00  0.50535442041E+03  0.50535443051E+03  0.10100000352E+00 0.  1.
        3   -1    0    0  501    0  0.00000000000E+00  0.00000000000E+00 -0.40008163913E+03  0.40008165188E+03  0.10100000352E+00 0. -1.
    10030    2    1    2    0    0  0.00000000000E+00  0.00000000000E+00  0.10527278128E+03  0.90543608239E+03  0.89929535794E+03 0.  0.
        4    1    3    3  502    0  0.36351846995E+03  0.12656388885E+02 -0.21350847784E+03  0.42177404518E+03  0.12699999809E+01 0. -1.
       -4    1    3    3    0  502 -0.36351846995E+03 -0.12656388885E+02  0.31878125912E+03  0.48366203721E+03  0.12699999809E+01 0.  1.
</event>
<event>
 5   0  0.3815269E-03  0.9046424E+03  0.7818609E-02  0.9419797E-01
        2   -1    0    0  501    0  0.00000000000E+00  0.00000000000E+00  0.10770118298E+04  0.10770118298E+04  0.25500000920E-02 0.  1.
       -2   -1    0    0    0  501  0.00000000000E+00  0.00000000000E+00 -0.18996492446E+03  0.18996492448E+03  0.25500000920E-02 0. -1.
    10030    2    1    2    0    0  0.00000000000E+00  0.00000000000E+00  0.88704690535E+03  0.12669767543E+04  0.90464240649E+03 0.  0.
        5    1    3    3  502    0 -0.31225039210E+03 -0.17373952355E+03  0.55178935171E+02  0.36159719896E+03  0.46999998093E+01 0. -1.
       -5    1    3    3    0  502  0.31225039210E+03  0.17373952355E+03  0.83186797018E+03  0.90537955533E+03  0.46999998093E+01 0.  1.
</event>
<event>
 5   0  0.2129280E-03  0.9013768E+03  0.7818609E-02  0.9423862E-01
       -1   -1    0    0    0  501  0.00000000000E+00  0.00000000000E+00  0.33705410762E+03  0.33705410765E+03  0.50400001928E-02 0. -1.
        1   -1    0    0  501    0  0.00000000000E+00  0.00000000000E+00 -0.60263335478E+03  0.60263335480E+03  0.50400001928E-02 0.  1.
    10030    2    1    2    0    0  0.00000000000E+00  0.00000000000E+00 -0.26557924717E+03  0.93968746246E+03  0.90137683051E+03 0.  0.
        3    1    3    3  502    0  0.11309006003E+03 -0.25003162139E+03  0.23991752540E+03  0.36450734227E+03  0.10100000352E+00 0. -1.
       -3    1    3    3    0  502 -0.11309006003E+03  0.25003162139E+03 -0.50549677257E+03  0.57518012018E+03  0.10100000352E+00 0.  1.
</event>
<event>
 5   0  0.1436000E-03  0.9005331E+03  0.7818609E-02  0.9424915E-01
       -3   -1    0    0    0  501  0.00000000000E+00  0.00000000000E+00  0.11781616681E+03  0.11781621011E+03  0.10100000352E+00 0. -1.
        3   -1    0    0  501    0  0.00000000000E+00  0.00000000000E+00 -0.17208159297E+04  0.17208159327E+04  0.10100000352E+00 0.  1.
    10030    2    1    2    0    0  0.00000000000E+00  0.00000000000E+00 -0.16029997629E+04  0.18386321428E+04  0.90053312911E+03 0.  0.
        1    1    3    3  502    0 -0.26731123341E+03 -0.10972708475E+03 -0.15065412599E+04  0.15340019219E+04  0.50400001928E-02 0.  1.
       -1    1    3    3    0  502  0.26731123341E+03  0.10972708475E+03 -0.96458502984E+02  0.30463022085E+03  0.50400001928E-02 0. -1.
</event>
<event>
 5   0  0.3806019E-03  0.9015772E+03  0.7818609E-02  0.9423612E-01
        2   -1    0    0  501    0  0.00000000000E+00  0.00000000000E+00  0.23598137979E+03  0.23598137980E+03  0.25500000920E-02 0. -1.
       -2   -1    0    0    0  501  0.00000000000E+00  0.00000000000E+00 -0.86112872843E+03  0.86112872843E+03  0.25500000920E-02 0.  1.
    10030    2    1    2    0    0  0.00000000000E+00  0.00000000000E+00 -0.62514734864E+03  0.10971101082E+04  0.90157716369E+03 0.  0.
        2    1    3    3  502    0 -0.15454390969E+03  0.38829272254E+02  0.20056667702E+03  0.25616112965E+03  0.25500000920E-02 0. -1.
       -2    1    3    3    0  502  0.15454390969E+03 -0.38829272254E+02 -0.82571402566E+03  0.84094897859E+03  0.25500000920E-02 0.  1.
</event>
<event>
 5   0  0.2134145E-03  0.9192331E+03  0.7818609E-02  0.9401853E-01
        1   -1    0    0  501    0  0.00000000000E+00  0.00000000000E+00  0.14218604957E+03  0.14218604966E+03  0.50400001928E-02 0. -1.
       -1   -1    0    0    0  501  0.00000000000E+00  0.00000000000E+00 -0.14857108722E+04  0.14857108722E+04  0.50400001928E-02 0.  1.
    10030    2    1    2    0    0  0.00000000000E+00  0.00000000000E+00 -0.13435248227E+04  0.16278969219E+04  0.91923307123E+03 0.  0.
        1    1    3    3  502    0  0.12656873157E+03  0.23010410157E+03 -0.13397569511E+04  0.13652531741E+04  0.50400001928E-02 0.  1.
       -1    1    3    3    0  502 -0.12656873157E+03 -0.23010410157E+03 -0.37678715537E+01  0.26264374779E+03  0.50400001928E-02 0. -1.
</event>
<event>
 5   0  0.3626546E-03  0.9005501E+03  0.7818609E-02  0.9424894E-01
        2   -1    0    0  501    0  0.00000000000E+00  0.00000000000E+00  0.52388945574E+03  0.52388945575E+03  0.25500000920E-02 0. -1.
       -2   -1    0    0    0  501  0.00000000000E+00  0.00000000000E+00 -0.38700458528E+03  0.38700458528E+03  0.25500000920E-02 0.  1.
    10030    2    1    2    0    0  0.00000000000E+00  0.00000000000E+00  0.13688487046E+03  0.91089404103E+03  0.90055010201E+03 0.  0.
        3    1    3    3  502    0  0.19275005281E+03 -0.12112225078E+03  0.46139465981E+03  0.51449803187E+03  0.10100000352E+00 0. -1.
       -3    1    3    3    0  502 -0.19275005281E+03  0.12112225078E+03 -0.32450978935E+03  0.39639600916E+03  0.10100000352E+00 0.  1.
</event>
<event>
 5   0  0.3806019E-03  0.9054557E+03  0.7818609E-02  0.9418787E-01
        2   -1    0    0  501    0  0.00000000000E+00  0.00000000000E+00  0.43528118631E+03  0.43528118631E+03  0.25500000920E-02 0.  1.
       -2   -1    0    0    0  501  0.00000000000E+00  0.00000000000E+00 -0.47087380570E+03  0.47087380571E+03  0.25500000920E-02 0. -1.
    10030    2    1    2    0    0  0.00000000000E+00  0.00000000000E+00 -0.35592619395E+02  0.90615499202E+03  0.90545570571E+03 0.  0.
        2    1    3    3  502    0 -0.32249503567E+03 -0.18503449599E+03 -0.27630123142E+03  0.46323124164E+03  0.25500000920E-02 0. -1.
       -2    1    3    3    0  502  0.32249503567E+03  0.18503449599E+03  0.24070861202E+03  0.44292375038E+03  0.25500000920E-02 0.  1.
</event>
<event>
 5   0  0.2134145E-03  0.9047516E+03  0.7818609E-02  0.9419661E-01
        1   -1    0    0  501    0  0.00000000000E+00  0.00000000000E+00  0.84458582262E+03  0.84458582264E+03  0.50400001928E-02 0. -1.
       -1   -1    0    0    0  501  0.00000000000E+00  0.00000000000E+00 -0.24230083932E+03  0.24230083937E+03  0.50400001928E-02 0.  1.
    10030    2    1    2    0    0  0.00000000000E+00  0.00000000000E+00  0.60228498330E+03  0.10868866620E+04  0.90475157637E+03 0.  0.
        1    1    3    3  502    0  0.17475078339E+03 -0.30794914676E+03 -0.37092465174E+02  0.35601455628E+03  0.50400001928E-02 0.  1.
       -1    1    3    3    0  502 -0.17475078339E+03  0.30794914676E+03  0.63937744848E+03  0.73087210573E+03  0.50400001928E-02 0. -1.
</event>
<event>
 5   0  0.3815269E-03  0.9009539E+03  0.7818609E-02  0.9424390E-01
       -2   -1    0    0    0  501  0.00000000000E+00  0.00000000000E+00  0.45250571274E+03  0.45250571275E+03  0.25500000920E-02 0.  1.
        2   -1    0    0  501    0  0.00000000000E+00  0.00000000000E+00 -0.44845726751E+03  0.44845726752E+03  0.25500000920E-02 0. -1.
    10030    2    1    2    0    0  0.00000000000E+00  0.00000000000E+00  0.40484452323E+01  0.90096298027E+03  0.90095388445E+03 0.  0.
        5    1    3    3  502    0 -0.28214606038E+03  0.18483843676E+03 -0.29653488072E+03  0.44913992538E+03  0.46999998093E+01 0.  1.
       -5    1    3    3    0  502  0.28214606038E+03 -0.18483843676E+03  0.30058332595E+03  0.45182305489E+03  0.46999998093E+01 0. -1.
</event>
<event>
 5   0  0.3806019E-03  0.9004082E+03  0.7818609E-02  0.9425071E-01
        2   -1    0    0  501    0  0.00000000000E+00  0.00000000000E+00  0.31512400520E+03  0.31512400521E+03  0.25500000920E-02 0. -1.
       -2   -1    0    0    0  501  0.00000000000E+00  0.00000000000E+00 -0.64318723041E+03  0.64318723042E+03  0.25500000920E-02 0.  1.
    10030    2    1    2    0    0  0.00000000000E+00  0.00000000000E+00 -0.32806322522E+03  0.95831123562E+03  0.90040820997E+03 0.  0.
        2    1    3    3  502    0  0.77765979542E+02 -0.28247187193E+03 -0.52784086760E+03  0.60370016359E+03  0.25500000920E-02 0.  1.
       -2    1    3    3    0  502 -0.77765979542E+02  0.28247187193E+03  0.19977764238E+03  0.35461107203E+03  0.25500000920E-02 0. -1.
</event>
<event>
 5   0  0.3815269E-03  0.8910479E+03  0.7818609E-02  0.9436842E-01
        2   -1    0    0  501    0  0.00000000000E+00  0.00000000000E+00  0.35506886406E+03  0.35506886407E+03  0.25500000920E-02 0. -1.
       -2   -1    0    0    0  501  0.00000000000E+00  0.00000000000E+00 -0.55902276703E+03  0.55902276703E+03  0.25500000920E-02 0.  1.
    10030    2    1    2    0    0  0.00000000000E+00  0.00000000000E+00 -0.20395390296E+03  0.91409163111E+03  0.89104787499E+03 0.  0.
        5    1    3    3  502    0 -0.34337269654E+03 -0.24319369006E+03 -0.25212293776E+03  0.49054668010E+03  0.46999998093E+01 0.  1.
       -5    1    3    3    0  502  0.34337269654E+03  0.24319369006E+03  0.48169034796E+02  0.42354495101E+03  0.46999998093E+01 0. -1.
</event>
<event>
 5   0  0.2134145E-03  0.8994162E+03  0.7818609E-02  0.9426312E-01
       -1   -1    0    0    0  501  0.00000000000E+00  0.00000000000E+00  0.28715877327E+03  0.28715877331E+03  0.50400001928E-02 0.  1.
        1   -1    0    0  501    0  0.00000000000E+00  0.00000000000E+00 -0.70427020029E+03  0.70427020031E+03  0.50400001928E-02 0. -1.
    10030    2    1    2    0    0  0.00000000000E+00  0.00000000000E+00 -0.41711142702E+03  0.99142897362E+03  0.89941618130E+03 0.  0.
        1    1    3    3  502    0  0.26603322220E+03  0.20078883197E+03  0.12423666936E+03  0.35570293842E+03  0.50400001928E-02 0.  1.
       -1    1    3    3    0  502 -0.26603322220E+03 -0.20078883197E+03 -0.54134809638E+03  0.63572603521E+03  0.50400001928E-02 0. -1.
</event>
<event>
 5   0  0.3663255E-03  0.9008558E+03  0.7818609E-02  0.9424512E-01
        2   -1    0    0  501    0  0.00000000000E+00  0.00000000000E+00  0.65552584433E+03  0.65552584434E+03  0.25500000920E-02 0. -1.
       -2   -1    0    0    0  501  0.00000000000E+00  0.00000000000E+00 -0.30950005540E+03  0.30950005541E+03  0.25500000920E-02 0.  1.
    10030    2    1    2    0    0  0.00000000000E+00  0.00000000000E+00  0.34602578893E+03  0.96502589975E+03  0.90085578235E+03 0.  0.
        4    1    3    3  502    0  0.81478341743E+02 -0.43963867425E+03  0.11470410837E+03  0.46160538282E+03  0.12699999809E+01 0.  1.
       -4    1    3    3    0  502 -0.81478341743E+02  0.43963867425E+03  0.23132168056E+03  0.50342051693E+03  0.12699999809E+01 0. -1.
</event>
<event>
 5   0  0.3626546E-03  0.9098873E+03  0.7818609E-02  0.9413305E-01
        2   -1    0    0  501    0  0.00000000000E+00  0.00000000000E+00  0.16703691304E+04  0.16703691304E+04  0.25500000920E-02 0.  1.
       -2   -1    0    0    0  501  0.00000000000E+00  0.00000000000E+00 -0.12390898408E+03  0.12390898410E+03  0.25500000920E-02 0. -1.
    10030    2    1    2    0    0  0.00000000000E+00  0.00000000000E+00  0.15464601464E+04  0.17942781145E+04  0.90988733810E+03 0.  0.
        3    1    3    3  502    0  0.43012259296E+01  0.15784659248E+03 -0.68136348250E+02  0.17197854359E+03  0.10100000352E+00 0. -1.
       -3    1    3    3    0  502 -0.43012259296E+01 -0.15784659248E+03  0.16145964946E+04  0.16222995709E+04  0.10100000352E+00 0.  1.
</event>
<event>
 5   0  0.1436000E-03  0.8975457E+03  0.7818609E-02  0.9428655E-01
       -4   -1    0    0    0  501  0.00000000000E+00  0.00000000000E+00  0.44181959290E+03  0.44182141819E+03  0.12699999809E+01 0.  1.
        4   -1    0    0  501    0  0.00000000000E+00  0.00000000000E+00 -0.45583186754E+03  0.45583363672E+03  0.12699999809E+01 0. -1.
    10030    2    1    2    0    0  0.00000000000E+00  0.00000000000E+00 -0.14012274641E+02  0.89765505491E+03  0.89754568338E+03 0.  0.
        2    1    3    3  502    0  0.36241431191E+03  0.22767804216E+03 -0.14198790914E+03  0.45093457475E+03  0.25500000920E-02 0. -1.
       -2    1    3    3    0  502 -0.36241431191E+03 -0.22767804216E+03  0.12797563450E+03  0.44672048015E+03  0.25500000920E-02 0.  1.
</event>
<event>
 5   0  0.3626546E-03  0.8992913E+03  0.7818609E-02  0.9426468E-01
        2   -1    0    0  501    0  0.00000000000E+00  0.00000000000E+00  0.38898014487E+03  0.38898014488E+03  0.25500000920E-02 0.  1.
       -2   -1    0    0    0  501  0.00000000000E+00  0.00000000000E+00 -0.51977254183E+03  0.51977254184E+03  0.25500000920E-02 0. -1.
    10030    2    1    2    0    0  0.00000000000E+00  0.00000000000E+00 -0.13079239696E+03  0.90875268672E+03  0.89929127346E+03 0.  0.
        3    1    3    3  502    0 -0.39443488583E+03 -0.21272573160E+03 -0.28266292058E+02  0.44903241477E+03  0.10100000352E+00 0.  1.
       -3    1    3    3    0  502  0.39443488583E+03  0.21272573160E+03 -0.10252610490E+03  0.45972027195E+03  0.10100000352E+00 0. -1.
</event>
<event>
 5   0  0.2129280E-03  0.8951669E+03  0.7818609E-02  0.9431643E-01
       -1   -1    0    0    0  501  0.00000000000E+00  0.00000000000E+00  0.29837635736E+03  0.29837635740E+03  0.50400001928E-02 0.  1.
        1   -1    0    0  501    0  0.00000000000E+00  0.00000000000E+00 -0.67140352108E+03  0.67140352110E+03  0.50400001928E-02 0. -1.
    10030    2    1    2    0    0  0.00000000000E+00  0.00000000000E+00 -0.37302716372E+03  0.96977987850E+03  0.89516688269E+03 0.  0.
        3    1    3    3  502    0  0.18604554099E+03 -0.31799583438E+03  0.88829457554E+02  0.37897886054E+03  0.10100000352E+00 0.  1.
       -3    1    3    3    0  502 -0.18604554099E+03  0.31799583438E+03 -0.46185662127E+03  0.59080101796E+03  0.10100000352E+00 0. -1.
</event>
<event>
 5   0  0.2129280E-03  0.8973812E+03  0.7818609E-02  0.9428861E-01
       -1   -1    0    0    0  501  0.00000000000E+00  0.00000000000E+00  0.17692682848E+03  0.17692682855E+03  0.50400001928E-02 0. -1.
        1   -1    0    0  501    0  0.00000000000E+00  0.00000000000E+00 -0.11378898925E+04  0.11378898925E+04  0.50400001928E-02 0.  1.
    10030    2    1    2    0    0  0.00000000000E+00  0.00000000000E+00 -0.96096306405E+03  0.13148167211E+04  0.89738118968E+03 0.  0.
        3    1    3    3  502    0  0.40894683057E+03  0.13808611088E+03 -0.30092811996E+03  0.52617775308E+03  0.10100000352E+00 0. -1.
       -3    1    3    3    0  502 -0.40894683057E+03 -0.13808611088E+03 -0.66003494408E+03  0.78863896801E+03  0.10100000352E+00 0.  1.
</event>
<event>
 5   0  0.3663255E-03  0.8995728E+03  0.7818609E-02  0.9426116E-01
       -2   -1    0    0    0  501  0.00000000000E+00  0.00000000000E+00  0.69215721185E+03  0.69215721185E+03  0.25500000920E-02 0. -1.
        2   -1    0    0  501    0  0.00000000000E+00  0.00000000000E+00 -0.29228591034E+03  0.29228591035E+03  0.25500000920E-02 0.  1.
    10030    2    1    2    0    0  0.00000000000E+00  0.00000000000E+00  0.39987130151E+03  0.98444312221E+03  0.89957278921E+03 0.  0.
        4    1    3    3  502    0 -0.25701835277E+03 -0.27621777956E+02 -0.20287374556E+03  0.32860426932E+03  0.12699999809E+01 0.  1.
       -4    1    3    3    0  502  0.25701835277E+03  0.27621777956E+02  0.60274504707E+03  0.65583885288E+03  0.12699999809E+01 0. -1.
</event>
<event>
 5   0  0.2130975E-03  0.8901648E+03  0.7818609E-02  0.9437960E-01
        1   -1    0    0  501    0  0.00000000000E+00  0.00000000000E+00  0.19265384132E+04  0.19265384132E+04  0.50400001928E-02 0.  1.
       -1   -1    0    0    0  501  0.00000000000E+00  0.00000000000E+00 -0.10282606154E+03  0.10282606166E+03  0.50400001928E-02 0. -1.
    10030    2    1    2    0    0  0.00000000000E+00  0.00000000000E+00  0.18237123517E+04  0.20293644749E+04  0.89016483320E+03 0.  0.
        5    1    3    3  502    0 -0.30629728778E+03 -0.82309518991E+00  0.16479673360E+04  0.16761972248E+04  0.46999998093E+01 0.  1.
       -5    1    3    3    0  502  0.30629728778E+03  0.82309518991E+00  0.17574501570E+03  0.35316725008E+03  0.46999998093E+01 0. -1.
</event>
<event>
 5   0  0.1436000E-03  0.9016297E+03  0.7818609E-02  0.9423547E-01
       -3   -1    0    0    0  501  0.00000000000E+00  0.00000000000E+00  0.78195140133E+03  0.78195140785E+03  0.10100000352E+00 0. -1.
        3   -1    0    0  501    0  0.00000000000E+00  0.00000000000E+00 -0.25990619344E+03  0.25990621307E+03  0.10100000352E+00 0.  1.
    10030    2    1    2    0    0  0.00000000000E+00  0.00000000000E+00  0.52204520789E+03  0.10418576209E+04  0.90162969294E+03 0.  0.
        4    1    3    3  502    0 -0.22007140369E+03  0.22081029607E+03  0.63731272347E+03  0.70947708206E+03  0.12699999809E+01 0. -1.
       -4    1    3    3    0  502  0.22007140369E+03 -0.22081029607E+03 -0.11526751558E+03  0.33238053887E+03  0.12699999809E+01 0.  1.
</event>
<event>
 5   0  0.2129280E-03  0.8945492E+03  0.7818609E-02  0.9432421E-01
        1   -1    0    0  501    0  0.00000000000E+00  0.00000000000E+00  0.86936824920E+03  0.86936824922E+03  0.50400001928E-02 0. -1.
       -1   -1    0    0    0  501  0.00000000000E+00  0.00000000000E+00 -0.23011487766E+03  0.23011487772E+03  0.50400001928E-02 0.  1.
    10030    2    1    2    0    0  0.00000000000E+00  0.00000000000E+00  0.63925337154E+03  0.10994831269E+04  0.89454920121E+03 0.  0.
        3    1    3    3  502    0  0.85522277918E+02  0.49183250220E+02 -0.21657511661E+03  0.23798706574E+03  0.10100000352E+00 0.  1.
       -3    1    3    3    0  502 -0.85522277918E+02 -0.49183250220E+02  0.85582848815E+03  0.86149606120E+03  0.10100000352E+00 0. -1.
</event>
<event>
 5   0  0.2130975E-03  0.9019240E+03  0.7818609E-02  0.9423179E-01
       -1   -1    0    0    0  501  0.00000000000E+00  0.00000000000E+00  0.39404220921E+03  0.39404220924E+03  0.50400001928E-02 0.  1.
        1   -1    0    0  501    0  0.00000000000E+00  0.00000000000E+00 -0.51610393916E+03  0.51610393918E+03  0.50400001928E-02 0. -1.
    10030    2    1    2    0    0  0.00000000000E+00  0.00000000000E+00 -0.12206172995E+03  0.91014614842E+03  0.90192402427E+03 0.  0.
        5    1    3    3  502    0  0.32754744060E+03  0.28201335793E+03 -0.19075543777E+03  0.47247072600E+03  0.46999998093E+01 0. -1.
       -5    1    3    3    0  502 -0.32754744060E+03 -0.28201335793E+03  0.68693707825E+02  0.43767542241E+03  0.46999998093E+01 0.  1.
</event>
<event>
 5   0  0.2129280E-03  0.8776406E+03  0.7818609E-02  0.9453972E-01
       -1   -1    0    0    0  501  0.00000000000E+00  0.00000000000E+00  0.41850305168E+03  0.41850305171E+03  0.50400001928E-02 0. -1.
        1   -1    0    0  501    0  0.00000000000E+00  0.00000000000E+00 -0.46012387826E+03  0.46012387828E+03  0.50400001928E-02 0.  1.
    10030    2    1    2    0    0  0.00000000000E+00  0.00000000000E+00 -0.41620826581E+02  0.87862692999E+03  0.87764058070E+03 0.  0.
        3    1    3    3  502    0 -0.14303172627E+03 -0.10252535488E+03  0.38162857210E+03  0.42024980709E+03  0.10100000352E+00 0. -1.
       -3    1    3    3    0  502  0.14303172627E+03  0.10252535488E+03 -0.42324939868E+03  0.45837712290E+03  0.10100000352E+00 0.  1.
</event>
<event>
 5   0  0.3685879E-03  0.9009283E+03  0.7818609E-02  0.9424422E-01
        2   -1    0    0  501    0  0.00000000000E+00  0.00000000000E+00  0.70276588721E+03  0.70276588722E+03  0.25500000920E-02 0.  1.
       -2   -1    0    0    0  501  0.00000000000E+00  0.00000000000E+00 -0.28874190635E+03  0.28874190636E+03  0.25500000920E-02 0. -1.
    10030    2    1    2    0    0  0.00000000000E+00  0.00000000000E+00  0.41402398086E+03  0.99150779358E+03  0.90092832567E+03 0.  0.
        1    1    3    3  502    0 -0.40157187984E+03 -0.19709089225E+03  0.26538387104E+03  0.52012824718E+03  0.50400001928E-02 0. -1.
       -1    1    3    3    0  502  0.40157187984E+03  0.19709089225E+03  0.14864010982E+03  0.47137954639E+03  0.50400001928E-02 0.  1.
</event>
<event>
 5   0  0.2074970E-03  0.8996339E+03  0.7818609E-02  0.9426039E-01
       -1   -1    0    0    0  501  0.00000000000E+00  0.00000000000E+00  0.70067962407E+03  0.70067962408E+03  0.50400001928E-02 0.  1.
        1   -1    0    0  501    0  0.00000000000E+00  0.00000000000E+00 -0.28877007046E+03  0.28877007051E+03  0.50400001928E-02 0. -1.
    10030    2    1    2    0    0  0.00000000000E+00  0.00000000000E+00  0.41190955360E+03  0.98944969459E+03  0.89963393543E+03 0.  0.
        2    1    3    3  502    0 -0.14834075120E+03 -0.24652574394E+03  0.58624263373E+03  0.65303931466E+03  0.25500000920E-02 0.  1.
       -2    1    3    3    0  502  0.14834075120E+03  0.24652574394E+03 -0.17433308013E+03  0.33641037993E+03  0.25500000920E-02 0. -1.
</event>
<event>
 5   0  0.2129280E-03  0.9042892E+03  0.7818609E-02  0.9420236E-01
        1   -1    0    0  501    0  0.00000000000E+00  0.00000000000E+00  0.18108013536E+03  0.18108013543E+03  0.50400001928E-02 0. -1.
       -1   -1    0    0    0  501  0.00000000000E+00  0.00000000000E+00 -0.11289738901E+04  0.11289738902E+04  0.50400001928E-02 0.  1.
    10030    2    1    2    0    0  0.00000000000E+00  0.00000000000E+00 -0.94789375479E+03  0.13100540256E+04  0.90428921235E+03 0.  0.
        3    1    3    3  502    0  0.19963466327E+03  0.31077343602E+02  0.11204733618E+03  0.23102903672E+03  0.10100000352E+00 0. -1.
       -3    1    3    3    0  502 -0.19963466327E+03 -0.31077343602E+02 -0.10599410910E+04  0.10790249889E+04  0.10100000352E+00 0.  1.
</event>
<event>
 5   0  0.2074970E-03  0.9121899E+03  0.7818609E-02  0.9410471E-01
       -1   -1    0    0    0  501  0.00000000000E+00  0.00000000000E+00  0.17268079464E+03  0.17268079472E+03  0.50400001928E-02 0. -1.
        1   -1    0    0  501    0  0.00000000000E+00  0.00000000000E+00 -0.12046654232E+04  0.12046654232E+04  0.50400001928E-02 0.  1.
    10030    2    1    2    0    0  0.00000000000E+00  0.00000000000E+00 -0.10319846286E+04  0.13773462179E+04  0.91218985440E+03 0.  0.
        2    1    3    3  502    0 -0.25544346738E+03 -0.19753552914E+03 -0.10023478767E+04  0.10530778301E+04  0.25500000920E-02 0.  1.
       -2    1    3    3    0  502  0.25544346738E+03  0.19753552914E+03 -0.29636751883E+02  0.32426838786E+03  0.25500000920E-02 0. -1.
</event>
<event>
 5   0  0.2129280E-03  0.8967514E+03  0.7818609E-02  0.9429651E-01
       -1   -1    0    0    0  501  0.00000000000E+00  0.00000000000E+00  0.41618028210E+03  0.41618028214E+03  0.50400001928E-02 0. -1.
        1   -1    0    0  501    0  0.00000000000E+00  0.00000000000E+00 -0.48306177047E+03  0.48306177050E+03  0.50400001928E-02 0.  1.
    10030    2    1    2    0    0  0.00000000000E+00  0.00000000000E+00 -0.66881488367E+02  0.89924205263E+03  0.89675143476E+03 0.  0.
        3    1    3    3  502    0 -0.19180519680E+03 -0.40338371526E+03  0.58230610193E+01  0.44670076506E+03  0.10100000352E+00 0. -1.
       -3    1    3    3    0  502  0.19180519680E+03  0.40338371526E+03 -0.72704549386E+02  0.45254128758E+03  0.10100000352E+00 0.  1.
</event>
<event>
 5   0  0.3815269E-03  0.9056514E+03  0.7818609E-02  0.9418544E-01
        2   -1    0    0  501    0  0.00000000000E+00  0.00000000000E+00  0.13435608976E+03  0.13435608978E+03  0.25500000920E-02 0.  1.
       -2   -1    0    0    0  501  0.00000000000E+00  0.00000000000E+00 -0.15261767123E+04  0.15261767123E+04  0.25500000920E-02 0. -1.
    10030    2    1    2    0    0  0.00000000000E+00  0.00000000000E+00 -0.13918206226E+04  0.16605328021E+04  0.90565144590E+03 0.  0.
        5    1    3    3  502    0 -0.22678638792E+03  0.10104462002E+03 -0.16198326250E+01  0.24832799850E+03  0.46999998093E+01 0.  1.
       -5    1    3    3    0  502  0.22678638792E+03 -0.10104462002E+03 -0.13902007899E+04  0.14122048036E+04  0.46999998093E+01 0. -1.
</event>
<event>
 5   0  0.3685879E-03  0.8988258E+03  0.7818609E-02  0.9427050E-01
       -2   -1    0    0    0  501  0.00000000000E+00  0.00000000000E+00  0.19678144630E+03  0.19678144632E+03  0.25500000920E-02 0. -1.
        2   -1    0    0  501    0  0.00000000000E+00  0.00000000000E+00 -0.10263769617E+04  0.10263769617E+04  0.25500000920E-02 0.  1.
    10030    2    1    2    0    0  0.00000000000E+00  0.00000000000E+00 -0.82959551542E+03  0.12231584080E+04  0.89882577397E+03 0.  0.
        1    1    3    3  502    0 -0.38432056740E+02  0.40749595718E+03 -0.66734995261E+03  0.78287031965E+03  0.50400001928E-02 0.  1.
       -1    1    3    3    0  502  0.38432056740E+02 -0.40749595718E+03 -0.16224556280E+03  0.44028808839E+03  0.50400001928E-02 0. -1.
</event>
<event>
 5   0  0.2134145E-03  0.8969377E+03  0.7818609E-02  0.9429418E-01
        1   -1    0    0  501    0  0.00000000000E+00  0.00000000000E+00  0.35034789155E+03  0.35034789159E+03  0.50400001928E-02 0.  1.
       -1   -1    0    0    0  501  0.00000000000E+00  0.00000000000E+00 -0.57407027436E+03  0.57407027438E+03  0.50400001928E-02 0. -1.
    10030    2    1    2    0    0  0.00000000000E+00  0.00000000000E+00 -0.22372238281E+03  0.92441816597E+03  0.89693770185E+03 0.  0.
        1    1    3    3  502    0  0.24172112757E+03  0.13580452934E+03 -0.47515539937E+03  0.55013146363E+03  0.50400001928E-02 0. -1.
       -1    1    3    3    0  502 -0.24172112757E+03 -0.13580452934E+03  0.25143301656E+03  0.37428670234E+03  0.50400001928E-02 0.  1.
</event>
<event>
 5   0  0.3806019E-03  0.8999642E+03  0.7818609E-02  0.9425626E-01
        2   -1    0    0  501    0  0.00000000000E+00  0.00000000000E+00  0.79904645265E+03  0.79904645266E+03  0.25500000920E-02 0.  1.
       -2   -1    0    0    0  501  0.00000000000E+00  0.00000000000E+00 -0.25340692701E+03  0.25340692702E+03  0.25500000920E-02 0. -1.
    10030    2    1    2    0    0  0.00000000000E+00  0.00000000000E+00  0.54563952564E+03  0.10524533797E+04  0.89996423510E+03 0.  0.
        2    1    3    3  502    0  0.11256134262E+03 -0.37230448609E+03  0.53744194864E+03  0.66341882275E+03  0.25500000920E-02 0.  1.
       -2    1    3    3    0  502 -0.11256134262E+03  0.37230448609E+03  0.81975770037E+01  0.38903455693E+03  0.25500000920E-02 0. -1.
</event>
<event>
 5   0  0.3815269E-03  0.8993373E+03  0.7818609E-02  0.9426410E-01
        2   -1    0    0  501    0  0.00000000000E+00  0.00000000000E+00  0.44612507701E+03  0.44612507702E+03  0.25500000920E-02 0. -1.
       -2   -1    0    0    0  501  0.00000000000E+00  0.00000000000E+00 -0.45324033202E+03  0.45324033203E+03  0.25500000920E-02 0.  1.
    10030    2    1    2    0    0  0.00000000000E+00  0.00000000000E+00 -0.71152550081E+01  0.89936540905E+03  0.89933726273E+03 0.  0.
        5    1    3    3  502    0 -0.12392888712E+00  0.37562395039E+03  0.24360677981E+03  0.44772728377E+03  0.46999998093E+01 0. -1.
       -5    1    3    3    0  502  0.12392888712E+00 -0.37562395039E+03 -0.25072203482E+03  0.45163812528E+03  0.46999998093E+01 0.  1.
</event>
<event>
 5   0  0.2074970E-03  0.8985416E+03  0.7818609E-02  0.9427406E-01
        1   -1    0    0  501    0  0.00000000000E+00  0.00000000000E+00  0.10523454946E+04  0.10523454946E+04  0.50400001928E-02 0. -1.
       -1   -1    0    0    0  501  0.00000000000E+00  0.00000000000E+00 -0.19180416927E+03  0.19180416933E+03  0.50400001928E-02 0.  1.
    10030    2    1    2    0    0  0.00000000000E+00  0.00000000000E+00  0.86054132536E+03  0.12441496640E+04  0.89854160377E+03 0.  0.
        2    1    3    3  502    0  0.22717630830E+03 -0.99567167357E+02  0.94894723789E+03  0.98082799520E+03  0.25500000920E-02 0. -1.
       -2    1    3    3    0  502 -0.22717630830E+03  0.99567167357E+02 -0.88405912525E+02  0.26332166877E+03  0.25500000920E-02 0.  1.
</event>
<event>
 5   0  0.3806019E-03  0.8953337E+03  0.7818609E-02  0.9431433E-01
       -2   -1    0    0    0  501  0.00000000000E+00  0.00000000000E+00  0.14970519341E+03  0.14970519343E+03  0.25500000920E-02 0.  1.
        2   -1    0    0  501    0  0.00000000000E+00  0.00000000000E+00 -0.13386683351E+04  0.13386683351E+04  0.25500000920E-02 0. -1.
    10030    2    1    2    0    0  0.00000000000E+00  0.00000000000E+00 -0.11889631417E+04  0.14883735286E+04  0.89533368536E+03 0.  0.
        2    1    3    3  502    0 -0.11033035539E+03  0.12365446031E+02 -0.13154200692E+04  0.13200968336E+04  0.25500000920E-02 0. -1.
       -2    1    3    3    0  502  0.11033035539E+03 -0.12365446031E+02  0.12645692745E+03  0.16827669501E+03  0.25500000920E-02 0.  1.
</event>
<event>
 5   0  0.3626546E-03  0.9572780E+03  0.7818609E-02  0.9356684E-01
       -2   -1    0    0    0  501  0.00000000000E+00  0.00000000000E+00  0.12312191292E+03  0.12312191294E+03  0.25500000920E-02 0. -1.
        2   -1    0    0  501    0  0.00000000000E+00  0.00000000000E+00 -0.18607188959E+04  0.18607188959E+04  0.25500000920E-02 0.  1.
    10030    2    1    2    0    0  0.00000000000E+00  0.00000000000E+00 -0.17375969830E+04  0.19838408089E+04  0.95727795315E+03 0.  0.
        3    1    3    3  502    0 -0.36746919308E+03 -0.28867991508E+03 -0.65417427633E+03  0.80393637512E+03  0.10100000352E+00 0. -1.
       -3    1    3    3    0  502  0.36746919308E+03  0.28867991508E+03 -0.10834227067E+04  0.11799044338E+04  0.10100000352E+00 0.  1.
</event>
<event>
 5   0  0.2130975E-03  0.9000056E+03  0.7818609E-02  0.9425574E-01
        1   -1    0    0  501    0  0.00000000000E+00  0.00000000000E+00  0.42823435753E+03  0.42823435756E+03  0.50400001928E-02 0. -1.
       -1   -1    0    0    0  501  0.00000000000E+00  0.00000000000E+00 -0.47287776774E+03  0.47287776777E+03  0.50400001928E-02 0.  1.
    10030    2    1    2    0    0  0.00000000000E+00  0.00000000000E+00 -0.44643410209E+02  0.90111212532E+03  0.90000557128E+03 0.  0.
        5    1    3    3  502    0  0.40084423645E+03 -0.20301039041E+03 -0.46664074956E+02  0.45176204622E+03  0.46999998093E+01 0. -1.
       -5    1    3    3    0  502 -0.40084423645E+03  0.20301039041E+03  0.20206647464E+01  0.44935007911E+03  0.46999998093E+01 0.  1.
</event>
<event>
 5   0  0.2130975E-03  0.8968273E+03  0.7818609E-02  0.9429556E-01
        1   -1    0    0  501    0  0.00000000000E+00  0.00000000000E+00  0.36164950124E+03  0.36164950128E+03  0.50400001928E-02 0.  1.
       -1   -1    0    0    0  501  0.00000000000E+00  0.00000000000E+00 -0.55599354467E+03  0.55599354469E+03  0.50400001928E-02 0. -1.
    10030    2    1    2    0    0  0.00000000000E+00  0.00000000000E+00 -0.19434404342E+03  0.91764304597E+03  0.89682727022E+03 0.  0.
        5    1    3    3  502    0 -0.44206128043E+03  0.74491577612E+02 -0.87709268567E+02  0.45681744339E+03  0.46999998093E+01 0.  1.
       -5    1    3    3    0  502  0.44206128043E+03 -0.74491577612E+02 -0.10663477486E+03  0.46082560258E+03  0.46999998093E+01 0. -1.
</event>
<event>
 5   0  0.3685879E-03  0.8996841E+03  0.7818609E-02  0.9425976E-01
       -2   -1    0    0    0  501  0.00000000000E+00  0.00000000000E+00  0.22896455549E+03  0.22896455551E+03  0.25500000920E-02 0. -1.
        2   -1    0    0  501    0  0.00000000000E+00  0.00000000000E+00 -0.88379565024E+03  0.88379565024E+03  0.25500000920E-02 0.  1.
    10030    2    1    2    0    0  0.00000000000E+00  0.00000000000E+00 -0.65483109474E+03  0.11127602057E+04  0.89968411837E+03 0.  0.
        1    1    3    3  502    0  0.20063375446E+03 -0.32836719790E+03 -0.39259801909E+02  0.38680777158E+03  0.50400001928E-02 0. -1.
       -1    1    3    3    0  502 -0.20063375446E+03  0.32836719790E+03 -0.61557129283E+03  0.72595243417E+03  0.50400001928E-02 0.  1.
</event>
<event>
 5   0  0.2295158E-03  0.9004616E+03  0.7818609E-02  0.9425005E-01
        1   -1    0    0  501    0  0.00000000000E+00  0.00000000000E+00  0.62365475356E+03  0.62365475358E+03  0.50400001928E-02 0. -1.
       -1   -1    0    0    0  501  0.00000000000E+00  0.00000000000E+00 -0.32503204249E+03  0.32503204253E+03  0.50400001928E-02 0.  1.
    10030    2    1    2    0    0  0.00000000000E+00  0.00000000000E+00  0.29862271106E+03  0.94868679611E+03  0.90046161137E+03 0.  0.
        4    1    3    3  502    0 -0.19499540463E+02 -0.27183583393E+03 -0.22825470214E+03  0.35549511197E+03  0.12699999809E+01 0.  1.
       -4    1    3    3    0  502  0.19499540463E+02  0.27183583393E+03  0.52687741320E+03  0.59319168414E+03  0.12699999809E+01 0. -1.
</event>
<event>
 5   0  0.2074970E-03  0.9026713E+03  0.7818609E-02  0.9422248E-01
        1   -1    0    0  501    0  0.00000000000E+00  0.00000000000E+00  0.18353606710E+04  0.18353606711E+04  0.50400001928E-02 0. -1.
       -1   -1    0    0    0  501  0.00000000000E+00  0.00000000000E+00 -0.11098847306E+03  0.11098847317E+03  0.50400001928E-02 0.  1.
    10030    2    1    2    0    0  0.00000000000E+00  0.00000000000E+00  0.17243721980E+04  0.19463491442E+04  0.90267132115E+03 0.  0.
        2    1    3    3  502    0 -0.20171731791E+03  0.39272233754E+03  0.10642630091E+04  0.11522050439E+04  0.25500000920E-02 0. -1.
       -2    1    3    3    0  502  0.20171731791E+03 -0.39272233754E+03  0.66010918890E+03  0.79414410029E+03  0.25500000920E-02 0.  1.
</event>
<event>
 5   0  0.3663255E-03  0.8989660E+03  0.7818609E-02  0.9426875E-01
        2   -1    0    0  501    0  0.00000000000E+00  0.00000000000E+00  0.93696968059E+03  0.93696968059E+03  0.25500000920E-02 0.  1.
       -2   -1    0    0    0  501  0.00000000000E+00  0.00000000000E+00 -0.21562592005E+03  0.21562592006E+03  0.25500000920E-02 0. -1.
    10030    2    1    2    0    0  0.00000000000E+00  0.00000000000E+00  0.72134376054E+03  0.11525956007E+04  0.89896596030E+03 0.  0.
        4    1    3    3  502    0 -0.28135813195E+03  0.32884599703E+03  0.51628760733E+03  0.67368879652E+03  0.12699999809E+01 0.  1.
       -4    1    3    3    0  502  0.28135813195E+03 -0.32884599703E+03  0.20505615321E+03  0.47890680413E+03  0.12699999809E+01 0. -1.
</event>
<event>
 5   0  0.3806019E-03  0.9004771E+03  0.7818609E-02  0.9424985E-01
        2   -1    0    0  501    0  0.00000000000E+00  0.00000000000E+00  0.14965446593E+04  0.14965446593E+04  0.25500000920E-02 0.  1.
       -2   -1    0    0    0  501  0.00000000000E+00  0.00000000000E+00 -0.13545519916E+03  0.13545519918E+03  0.25500000920E-02 0. -1.
    10030    2    1    2    0    0  0.00000000000E+00  0.00000000000E+00  0.13610894601E+04  0.16319998585E+04  0.90047710664E+03 0.  0.
        2    1    3    3  502    0  0.23310286515E+03 -0.31584866483E+03  0.28092820419E+03  0.48271936022E+03  0.25500000920E-02 0. -1.
       -2    1    3    3    0  502 -0.23310286515E+03  0.31584866483E+03  0.10801612560E+04  0.11492804983E+04  0.25500000920E-02 0.  1.
</event>
<event>
 5   0  0.3815269E-03  0.8987095E+03  0.7818609E-02  0.9427196E-01
        2   -1    0    0  501    0  0.00000000000E+00  0.00000000000E+00  0.92108720681E+03  0.92108720681E+03  0.25500000920E-02 0.  1.
       -2   -1    0    0    0  501  0.00000000000E+00  0.00000000000E+00 -0.21921887397E+03  0.21921887398E+03  0.25500000920E-02 0. -1.
    10030    2    1    2    0    0  0.00000000000E+00  0.00000000000E+00  0.70186833284E+03  0.11403060808E+04  0.89870951995E+03 0.  0.
        5    1    3    3  502    0 -0.17087459098E+03  0.39060076982E+03  0.53095784350E+03  0.68095918292E+03  0.46999998093E+01 0.  1.
       -5    1    3    3    0  502  0.17087459098E+03 -0.39060076982E+03  0.17091048934E+03  0.45934689788E+03  0.46999998093E+01 0. -1.
</event>
<event>
 5   0  0.1436000E-03  0.9028659E+03  0.7818609E-02  0.9422006E-01
        4   -1    0    0  501    0  0.00000000000E+00  0.00000000000E+00  0.60929282901E+03  0.60929415259E+03  0.12699999809E+01 0. -1.
       -4   -1    0    0    0  501  0.00000000000E+00  0.00000000000E+00 -0.33446962621E+03  0.33447203733E+03  0.12699999809E+01 0.  1.
    10030    2    1    2    0    0  0.00000000000E+00  0.00000000000E+00  0.27482320280E+03  0.94376618992E+03  0.90286589726E+03 0.  0.
        3    1    3    3  502    0 -0.70032127181E+02 -0.61211769874E+02 -0.32434665438E+03  0.33741983051E+03  0.10100000352E+00 0.  1.
       -3    1    3    3    0  502  0.70032127181E+02  0.61211769874E+02  0.59916985718E+03  0.60634635941E+03  0.10100000352E+00 0. -1.
</event>
<event>
 5   0  0.3663255E-03  0.9055432E+03  0.7818609E-02  0.9418679E-01
        2   -1    0    0  501    0  0.00000000000E+00  0.00000000000E+00  0.11490137416E+04  0.11490137416E+04  0.25500000920E-02 0.  1.
       -2   -1    0    0    0  501  0.00000000000E+00  0.00000000000E+00 -0.17841571832E+03  0.17841571834E+03  0.25500000920E-02 0. -1.
    10030    2    1    2    0    0  0.00000000000E+00  0.00000000000E+00  0.97059802331E+03  0.13274294600E+04  0.90554317861E+03 0.  0.
        4    1    3    3  502    0 -0.22258589545E+03  0.39423358648E+03  0.47651616888E+03  0.65729283707E+03  0.12699999809E+01 0.  1.
       -4    1    3    3    0  502  0.22258589545E+03 -0.39423358648E+03  0.49408185444E+03  0.67013662290E+03  0.12699999809E+01 0. -1.
</event>
<event>
 5   0  0.3626546E-03  0.9138774E+03  0.7818609E-02  0.9408398E-01
        2   -1    0    0  501    0  0.00000000000E+00  0.00000000000E+00  0.11510478251E+04  0.11510478251E+04  0.25500000920E-02 0.  1.
       -2   -1    0    0    0  501  0.00000000000E+00  0.00000000000E+00 -0.18139384400E+03  0.18139384402E+03  0.25500000920E-02 0. -1.
    10030    2    1    2    0    0  0.00000000000E+00  0.00000000000E+00  0.96965398114E+03  0.13324416692E+04  0.91387743083E+03 0.  0.
        3    1    3    3  502    0 -0.62091750266E+02 -0.14091235377E+02  0.11445483961E+04  0.11463180142E+04  0.10100000352E+00 0.  1.
       -3    1    3    3    0  502  0.62091750266E+02  0.14091235377E+02 -0.17489441496E+03  0.18612365500E+03  0.10100000352E+00 0. -1.
</event>
<event>
 5   0  0.2129280E-03  0.8996422E+03  0.7818609E-02  0.9426029E-01
        1   -1    0    0  501    0  0.00000000000E+00  0.00000000000E+00  0.38664074002E+03  0.38664074005E+03  0.50400001928E-02 0.  1.
       -1   -1    0    0    0  501  0.00000000000E+00  0.00000000000E+00 -0.52332560930E+03  0.52332560932E+03  0.50400001928E-02 0. -1.
    10030    2    1    2    0    0  0.00000000000E+00  0.00000000000E+00 -0.13668486927E+03  0.90996634937E+03  0.89964215303E+03 0.  0.
        3    1    3    3  502    0 -0.56399378974E+02  0.18654856415E+03 -0.47840545721E+03  0.51657821133E+03  0.10100000352E+00 0. -1.
       -3    1    3    3    0  502  0.56399378974E+02 -0.18654856415E+03  0.34172058793E+03  0.39338813804E+03  0.10100000352E+00 0.  1.
</event>
<event>
 5   0  0.3626546E-03  0.9021190E+03  0.7818609E-02  0.9422936E-01
       -2   -1    0    0    0  501  0.00000000000E+00  0.00000000000E+00  0.18927594803E+03  0.18927594805E+03  0.25500000920E-02 0. -1.
        2   -1    0    0  501    0  0.00000000000E+00  0.00000000000E+00 -0.10749104392E+04  0.10749104392E+04  0.25500000920E-02 0.  1.
    10030    2    1    2    0    0  0.00000000000E+00  0.00000000000E+00 -0.88563449113E+03  0.12641863872E+04  0.90211904410E+03 0.  0.
        3    1    3    3  502    0  0.39179893905E+03 -0.22338239071E+03 -0.45258469054E+03  0.63893584454E+03  0.10100000352E+00 0.  1.
       -3    1    3    3    0  502 -0.39179893905E+03  0.22338239071E+03 -0.43304980060E+03  0.62525054268E+03  0.10100000352E+00 0. -1.
</event>
<event>
 5   0  0.2074970E-03  0.8971303E+03  0.7818609E-02  0.9429176E-01
       -1   -1    0    0    0  501  0.00000000000E+00  0.00000000000E+00  0.12497261356E+04  0.12497261357E+04  0.50400001928E-02 0.  1.
        1   -1    0    0  501    0  0.00000000000E+00  0.00000000000E+00 -0.16100384109E+03  0.16100384117E+03  0.50400001928E-02 0. -1.
    10030    2    1    2    0    0  0.00000000000E+00  0.00000000000E+00  0.10887222946E+04  0.14107299768E+04  0.89713033215E+03 0.  0.
        2    1    3    3  502    0  0.25357266477E+03  0.95421642557E+02 -0.17804784197E+02  0.27151684392E+03  0.25500000920E-02 0. -1.
       -2    1    3    3    0  502 -0.25357266477E+03 -0.95421642557E+02  0.11065270788E+04  0.11392131329E+04  0.25500000920E-02 0.  1.
</event>
<event>
 5   0  0.2134145E-03  0.8995179E+03  0.7818609E-02  0.9426184E-01
        1   -1    0    0  501    0  0.00000000000E+00  0.00000000000E+00  0.97635266665E+03  0.97635266667E+03  0.50400001928E-02 0.  1.
       -1   -1    0    0    0  501  0.00000000000E+00  0.00000000000E+00 -0.20718241154E+03  0.20718241160E+03  0.50400001928E-02 0. -1.
    10030    2    1    2    0    0  0.00000000000E+00  0.00000000000E+00  0.76917025511E+03  0.11835350783E+04  0.89951787094E+03 0.  0.
        1    1    3    3  502    0 -0.87033004554E+02  0.18535073271E+02  0.96465479229E+03  0.96875030897E+03  0.50400001928E-02 0.  1.
       -1    1    3    3    0  502  0.87033004554E+02 -0.18535073271E+02 -0.19548453717E+03  0.21478476930E+03  0.50400001928E-02 0. -1.
</event>
<event>
 5   0  0.3663255E-03  0.9012285E+03  0.7818609E-02  0.9424047E-01
        2   -1    0    0  501    0  0.00000000000E+00  0.00000000000E+00  0.82446678359E+03  0.82446678359E+03  0.25500000920E-02 0.  1.
       -2   -1    0    0    0  501  0.00000000000E+00  0.00000000000E+00 -0.24628428524E+03  0.24628428526E+03  0.25500000920E-02 0. -1.
    10030    2    1    2    0    0  0.00000000000E+00  0.00000000000E+00  0.57818249835E+03  0.10707510689E+04  0.90122852266E+03 0.  0.
        4    1    3    3  502    0  0.17773808609E+02  0.44015610926E+03  0.40179376250E+03  0.59623246245E+03  0.12699999809E+01 0. -1.
       -4    1    3    3    0  502 -0.17773808609E+02 -0.44015610926E+03  0.17638873584E+03  0.47451860640E+03  0.12699999809E+01 0.  1.
</event>
<event>
 5   0  0.3663255E-03  0.9008922E+03  0.7818609E-02  0.9424467E-01
       -2   -1    0    0    0  501  0.00000000000E+00  0.00000000000E+00  0.22207579016E+03  0.22207579018E+03  0.25500000920E-02 0. -1.
        2   -1    0    0  501    0  0.00000000000E+00  0.00000000000E+00 -0.91365969056E+03  0.91365969056E+03  0.25500000920E-02 0.  1.
    10030    2    1    2    0    0  0.00000000000E+00  0.00000000000E+00 -0.69158390040E+03  0.11357354807E+04  0.90089221937E+03 0.  0.
        4    1    3    3  502    0  0.24235031818E+03 -0.36911312865E+03 -0.45799875871E+03  0.63619388110E+03  0.12699999809E+01 0.  1.
       -4    1    3    3    0  502 -0.24235031818E+03  0.36911312865E+03 -0.23358514168E+03  0.49954159965E+03  0.12699999809E+01 0. -1.
</event>
<event>
 5   0  0.3663255E-03  0.8376725E+03  0.7818609E-02  0.9507034E-01
        2   -1    0    0  501    0  0.00000000000E+00  0.00000000000E+00  0.12285659646E+04  0.12285659646E+04  0.25500000920E-02 0.  1.
       -2   -1    0    0    0  501  0.00000000000E+00  0.00000000000E+00 -0.14278744494E+03  0.14278744496E+03  0.25500000920E-02 0. -1.
    10030    2    1    2    0    0  0.00000000000E+00  0.00000000000E+00  0.10857785196E+04  0.13713534095E+04  0.83767247785E+03 0.  0.
        4    1    3    3  502    0  0.24322754462E+03 -0.18124054011E+03  0.70069426184E+02  0.31131834066E+03  0.12699999809E+01 0. -1.
       -4    1    3    3    0  502 -0.24322754462E+03  0.18124054011E+03  0.10157090934E+04  0.10600350689E+04  0.12699999809E+01 0.  1.
</event>
<event>
 5   0  0.1436000E-03  0.8974250E+03  0.7818609E-02  0.9428806E-01
       -3   -1    0    0    0  501  0.00000000000E+00  0.00000000000E+00  0.70699705051E+02  0.70699777194E+02  0.10100000352E+00 0.  1.
        3   -1    0    0  501    0  0.00000000000E+00  0.00000000000E+00 -0.28478590941E+04  0.28478590959E+04  0.10100000352E+00 0. -1.
    10030    2    1    2    0    0  0.00000000000E+00  0.00000000000E+00 -0.27771593890E+04  0.29185588731E+04  0.89742499602E+03 0.  0.
        4    1    3    3  502    0 -0.17362885599E+03 -0.35199324996E+03 -0.20958382527E+04  0.21322724549E+04  0.12699999809E+01 0. -1.
       -4    1    3    3    0  502  0.17362885599E+03  0.35199324996E+03 -0.68132113637E+03  0.78628641818E+03  0.12699999809E+01 0.  1.
</event>
<event>
 5   0  0.2134145E-03  0.8865791E+03  0.7818609E-02  0.9442515E-01
        1   -1    0    0  501    0  0.00000000000E+00  0.00000000000E+00  0.46166046775E+03  0.46166046778E+03  0.50400001928E-02 0.  1.
       -1   -1    0    0    0  501  0.00000000000E+00  0.00000000000E+00 -0.42564970584E+03  0.42564970587E+03  0.50400001928E-02 0. -1.
    10030    2    1    2    0    0  0.00000000000E+00  0.00000000000E+00  0.36010761906E+02  0.88731017365E+03  0.88657913876E+03 0.  0.
        1    1    3    3  502    0 -0.98287618957E+02  0.39690404131E+03  0.18935510406E+03  0.45060917601E+03  0.50400001928E-02 0.  1.
       -1    1    3    3    0  502  0.98287618957E+02 -0.39690404131E+03 -0.15334434215E+03  0.43670099764E+03  0.50400001928E-02 0. -1.
</event>
<event>
 5   0  0.1436000E-03  0.9016453E+03  0.7818609E-02  0.9423527E-01
        3   -1    0    0  501    0  0.00000000000E+00  0.00000000000E+00  0.47121059286E+03  0.47121060369E+03  0.10100000352E+00 0. -1.
       -3   -1    0    0    0  501  0.00000000000E+00  0.00000000000E+00 -0.43131684281E+03  0.43131685464E+03  0.10100000352E+00 0.  1.
    10030    2    1    2    0    0  0.00000000000E+00  0.00000000000E+00  0.39893750049E+02  0.90252745832E+03  0.90164533035E+03 0.  0.
        1    1    3    3  502    0 -0.41062033558E+03 -0.15314285889E+03 -0.85888683572E+02  0.44658555867E+03  0.50400001928E-02 0.  1.
       -1    1    3    3    0  502  0.41062033558E+03  0.15314285889E+03  0.12578243362E+03  0.45594189965E+03  0.50400001928E-02 0. -1.
</event>
<event>
 5   0  0.3626546E-03  0.9031478E+03  0.7818609E-02  0.9421655E-01
        2   -1    0    0  501    0  0.00000000000E+00  0.00000000000E+00  0.18897133786E+03  0.18897133788E+03  0.25500000920E-02 0. -1.
       -2   -1    0    0    0  501  0.00000000000E+00  0.00000000000E+00 -0.10791000450E+04  0.10791000450E+04  0.25500000920E-02 0.  1.
    10030    2    1    2    0    0  0.00000000000E+00  0.00000000000E+00 -0.89012870717E+03  0.12680713829E+04  0.90314778239E+03 0.  0.
        3    1    3    3  502    0 -0.35402833989E+03 -0.27612480574E+03 -0.51295449152E+03  0.68169149500E+03  0.10100000352E+00 0. -1.
       -3    1    3    3    0  502  0.35402833989E+03  0.27612480574E+03 -0.37717421565E+03  0.58637988791E+03  0.10100000352E+00 0.  1.
</event>
<event>
 5   0  0.1436000E-03  0.8962249E+03  0.7818609E-02  0.9430313E-01
       -3   -1    0    0    0  501  0.00000000000E+00  0.00000000000E+00  0.55997809931E+03  0.55997810842E+03  0.10100000352E+00 0.  1.
        3   -1    0    0  501    0  0.00000000000E+00  0.00000000000E+00 -0.35859391933E+03  0.35859393355E+03  0.10100000352E+00 0. -1.
    10030    2    1    2    0    0  0.00000000000E+00  0.00000000000E+00  0.20138417999E+03  0.91857204197E+03  0.89622486483E+03 0.  0.
        5    1    3    3  502    0 -0.43691051016E+03 -0.91840519699E+02  0.13981704929E+03  0.46786362567E+03  0.46999998093E+01 0.  1.
       -5    1    3    3    0  502  0.43691051016E+03  0.91840519699E+02  0.61567130698E+02  0.45070841631E+03  0.46999998093E+01 0. -1.
</event>
<event>
 5   0  0.3685879E-03  0.8838443E+03  0.7818609E-02  0.9446005E-01
        2   -1    0    0  501    0  0.00000000000E+00  0.00000000000E+00  0.67651809473E+03  0.67651809474E+03  0.25500000920E-02 0.  1.
       -2   -1    0    0    0  501  0.00000000000E+00  0.00000000000E+00 -0.28867693265E+03  0.28867693267E+03  0.25500000920E-02 0. -1.
    10030    2    1    2    0    0  0.00000000000E+00  0.00000000000E+00  0.38784116208E+03  0.96519502741E+03  0.88384425886E+03 0.  0.
        1    1    3    3  502    0  0.26941050771E+03  0.15875424604E+03  0.53492847667E+03  0.61962360145E+03  0.50400001928E-02 0.  1.
       -1    1    3    3    0  502 -0.26941050771E+03 -0.15875424604E+03 -0.14708731459E+03  0.34557142596E+03  0.50400001928E-02 0. -1.
</event>
<event>
 5   0  0.1436000E-03  0.8987129E+03  0.7818609E-02  0.9427192E-01
        4   -1    0    0  501    0  0.00000000000E+00  0.00000000000E+00  0.11500935650E+03  0.11501636832E+03  0.12699999809E+01 0.  1.
       -4   -1    0    0    0  501  0.00000000000E+00  0.00000000000E+00 -0.17556329762E+04  0.17556334356E+04  0.12699999809E+01 0. -1.
    10030    2    1    2    0    0  0.00000000000E+00  0.00000000000E+00 -0.16406236197E+04  0.18706498039E+04  0.89871287252E+03 0.  0.
        5    1    3    3  502    0 -0.41465926631E+03 -0.40391033196E+02 -0.11706273133E+04  0.12425635354E+04  0.46999998093E+01 0. -1.
       -5    1    3    3    0  502  0.41465926631E+03  0.40391033196E+02 -0.46999630637E+03  0.62808626852E+03  0.46999998093E+01 0.  1.
</event>
<event>
 5   0  0.2134145E-03  0.8997583E+03  0.7818609E-02  0.9425884E-01
        1   -1    0    0  501    0  0.00000000000E+00  0.00000000000E+00  0.13794741770E+04  0.13794741770E+04  0.50400001928E-02 0. -1.
       -1   -1    0    0    0  501  0.00000000000E+00  0.00000000000E+00 -0.14671621896E+03  0.14671621905E+03  0.50400001928E-02 0.  1.
    10030    2    1    2    0    0  0.00000000000E+00  0.00000000000E+00  0.12327579580E+04  0.15261903960E+04  0.89975826860E+03 0.  0.
        1    1    3    3  502    0  0.14142936733E+03  0.34838095885E+02 -0.10561293948E+03  0.17991679154E+03  0.50400001928E-02 0.  1.
       -1    1    3    3    0  502 -0.14142936733E+03 -0.34838095885E+02  0.13383708975E+04  0.13462736045E+04  0.50400001928E-02 0. -1.
</event>
<event>
 5   0  0.2074970E-03  0.8983788E+03  0.7818609E-02  0.9427610E-01
        1   -1    0    0  501    0  0.00000000000E+00  0.00000000000E+00  0.33115424139E+03  0.33115424143E+03  0.50400001928E-02 0.  1.
       -1   -1    0    0    0  501  0.00000000000E+00  0.00000000000E+00 -0.60929646668E+03  0.60929646670E+03  0.50400001928E-02 0. -1.
    10030    2    1    2    0    0  0.00000000000E+00  0.00000000000E+00 -0.27814222529E+03  0.94045070813E+03  0.89837878254E+03 0.  0.
        2    1    3    3  502    0  0.86517503378E+02 -0.15824887431E+03  0.29158644071E+03  0.34285658376E+03  0.25500000920E-02 0.  1.
       -2    1    3    3    0  502 -0.86517503378E+02  0.15824887431E+03 -0.56972866600E+03  0.59759412437E+03  0.25500000920E-02 0. -1.
</event>
<event>
 5   0  0.3626546E-03  0.9003860E+03  0.7818609E-02  0.9425099E-01
       -2   -1    0    0    0  501  0.00000000000E+00  0.00000000000E+00  0.48845990725E+03  0.48845990726E+03  0.25500000920E-02 0. -1.
        2   -1    0    0  501    0  0.00000000000E+00  0.00000000000E+00 -0.41492400052E+03  0.41492400053E+03  0.25500000920E-02 0.  1.
    10030    2    1    2    0    0  0.00000000000E+00  0.00000000000E+00  0.73535906733E+02  0.90338390778E+03  0.90038600348E+03 0.  0.
        3    1    3    3  502    0  0.24511776134E+03  0.19992394500E+03  0.35818036355E+03  0.47785508655E+03  0.10100000352E+00 0. -1.
       -3    1    3    3    0  502 -0.24511776134E+03 -0.19992394500E+03 -0.28464445682E+03  0.42552882124E+03  0.10100000352E+00 0.  1.
</event>
<event>
 5   0  0.2074970E-03  0.9013978E+03  0.7818609E-02  0.9423836E-01
        1   -1    0    0  501    0  0.00000000000E+00  0.00000000000E+00  0.10756707369E+04  0.10756707369E+04  0.50400001928E-02 0.  1.
       -1   -1    0    0    0  501  0.00000000000E+00  0.00000000000E+00 -0.18883984066E+03  0.18883984072E+03  0.50400001928E-02 0. -1.
    10030    2    1    2    0    0  0.00000000000E+00  0.00000000000E+00  0.88683089623E+03  0.12645105776E+04  0.90139778256E+03 0.  0.
        2    1    3    3  502    0  0.26449849969E+02  0.44641739165E+03  0.36478908527E+03  0.57711277829E+03  0.25500000920E-02 0.  1.
       -2    1    3    3    0  502 -0.26449849969E+02 -0.44641739165E+03  0.52204181097E+03  0.68739779934E+03  0.25500000920E-02 0. -1.
</event>
<event>
 5   0  0.3663255E-03  0.9001948E+03  0.7818609E-02  0.9425338E-01
        2   -1    0    0  501    0  0.00000000000E+00  0.00000000000E+00  0.63187374914E+03  0.63187374915E+03  0.25500000920E-02 0.  1.
       -2   -1    0    0    0  501  0.00000000000E+00  0.00000000000E+00 -0.32061417868E+03  0.32061417869E+03  0.25500000920E-02 0. -1.
    10030    2    1    2    0    0  0.00000000000E+00  0.00000000000E+00  0.31125957047E+03  0.95248792783E+03  0.90019483028E+03 0.  0.
        4    1    3    3  502    0 -0.14065347637E+03 -0.52266033144E+02 -0.29336859177E+03  0.32951765077E+03  0.12699999809E+01 0. -1.
       -4    1    3    3    0  502  0.14065347637E+03  0.52266033144E+02  0.60462816223E+03  0.62297027706E+03  0.12699999809E+01 0.  1.
</event>
<event>
 5   0  0.2129280E-03  0.9054417E+03  0.7818609E-02  0.9418804E-01
        1   -1    0    0  501    0  0.00000000000E+00  0.00000000000E+00  0.16307897873E+04  0.16307897873E+04  0.50400001928E-02 0. -1.
       -1   -1    0    0    0  501  0.00000000000E+00  0.00000000000E+00 -0.12567909509E+03  0.12567909519E+03  0.50400001928E-02 0.  1.
    10030    2    1    2    0    0  0.00000000000E+00  0.00000000000E+00  0.15051106922E+04  0.17564688825E+04  0.90544173714E+03 0.  0.
        3    1    3    3  502    0 -0.36976669067E+03 -0.13849620754E+03  0.32293118558E+03  0.51009133089E+03  0.10100000352E+00 0.  1.
       -3    1    3    3    0  502  0.36976669067E+03  0.13849620754E+03  0.11821795066E+04  0.12463775516E+04  0.10100000352E+00 0. -1.
</event>
<event>
 5   0  0.2134145E-03  0.9031605E+03  0.7818609E-02  0.9421639E-01
       -1   -1    0    0    0  501  0.00000000000E+00  0.00000000000E+00  0.19569352017E+03  0.19569352024E+03  0.50400001928E-02 0.  1.
        1   -1    0    0  501    0  0.00000000000E+00  0.00000000000E+00 -0.10420616037E+04  0.10420616037E+04  0.50400001928E-02 0. -1.
    10030    2    1    2    0    0  0.00000000000E+00  0.00000000000E+00 -0.84636808352E+03  0.12377551239E+04  0.90316045864E+03 0.  0.
        1    1    3    3  502    0 -0.41171459911E+03  0.18067837467E+03 -0.48085982212E+03  0.65831584725E+03  0.50400001928E-02 0.  1.
       -1    1    3    3    0  502  0.41171459911E+03 -0.18067837467E+03 -0.36550826140E+03  0.57943927669E+03  0.50400001928E-02 0. -1.
</event>
<event>
 5   0  0.3663255E-03  0.9007507E+03  0.7818609E-02  0.9424643E-01
       -2   -1    0    0    0  501  0.00000000000E+00  0.00000000000E+00  0.76151258122E+03  0.76151258122E+03  0.25500000920E-02 0.  1.
        2   -1    0    0  501    0  0.00000000000E+00  0.00000000000E+00 -0.26636194941E+03  0.26636194942E+03  0.25500000920E-02 0. -1.
    10030    2    1    2    0    0  0.00000000000E+00  0.00000000000E+00  0.49515063180E+03  0.10278745306E+04  0.90075074386E+03 0.  0.
        4    1    3    3  502    0  0.43592204451E+03  0.71708943011E+02  0.14766175137E+03  0.46580661987E+03  0.12699999809E+01 0. -1.
       -4    1    3    3    0  502 -0.43592204451E+03 -0.71708943011E+02  0.34748888043E+03  0.56206791077E+03  0.12699999809E+01 0.  1.
</event>
<event>
 5   0  0.3815269E-03  0.8986457E+03  0.7818609E-02  0.9427276E-01
        2   -1    0    0  501    0  0.00000000000E+00  0.00000000000E+00  0.63741794629E+03  0.63741794630E+03  0.25500000920E-02 0.  1.
       -2   -1    0    0    0  501  0.00000000000E+00  0.00000000000E+00 -0.31673256821E+03  0.31673256822E+03  0.25500000920E-02 0. -1.
    10030    2    1    2    0    0  0.00000000000E+00  0.00000000000E+00  0.32068537809E+03  0.95415051452E+03  0.89864569917E+03 0.  0.
        5    1    3    3  502    0  0.47925490709E+02 -0.44118761655E+03  0.85825489300E+02  0.45203038644E+03  0.46999998093E+01 0.  1.
       -5    1    3    3    0  502 -0.47925490709E+02  0.44118761655E+03  0.23485988879E+03  0.50212012807E+03  0.46999998093E+01 0. -1.
</event>
<event>
 5   0  0.2074970E-03  0.9011836E+03  0.7818609E-02  0.9424103E-01
       -1   -1    0    0    0  501  0.00000000000E+00  0.00000000000E+00  0.35104786680E+03  0.35104786683E+03  0.50400001928E-02 0. -1.
        1   -1    0    0  501    0  0.00000000000E+00  0.00000000000E+00 -0.57836259248E+03  0.57836259250E+03  0.50400001928E-02 0.  1.
    10030    2    1    2    0    0  0.00000000000E+00  0.00000000000E+00 -0.22731472568E+03  0.92941045933E+03  0.90118356477E+03 0.  0.
        2    1    3    3  502    0 -0.24087188332E+03 -0.27217156290E+03  0.16102365776E+03  0.39752388883E+03  0.25500000920E-02 0. -1.
       -2    1    3    3    0  502  0.24087188332E+03  0.27217156290E+03 -0.38833838344E+03  0.53188657050E+03  0.25500000920E-02 0.  1.
</event>
<event>
 5   0  0.2074970E-03  0.9019801E+03  0.7818609E-02  0.9423110E-01
        1   -1    0    0  501    0  0.00000000000E+00  0.00000000000E+00  0.20863432075E+03  0.20863432082E+03  0.50400001928E-02 0.  1.
       -1   -1    0    0    0  501  0.00000000000E+00  0.00000000000E+00 -0.97487320237E+03  0.97487320238E+03  0.50400001928E-02 0. -1.
    10030    2    1    2    0    0  0.00000000000E+00  0.00000000000E+00 -0.76623888161E+03  0.11835075232E+04  0.90198006284E+03 0.  0.
        2    1    3    3  502    0 -0.24396095120E+03  0.12075795859E+03 -0.85492264134E+03  0.89721354925E+03  0.25500000920E-02 0. -1.
       -2    1    3    3    0  502  0.24396095120E+03 -0.12075795859E+03  0.88683759730E+02  0.28629397395E+03  0.25500000920E-02 0.  1.
</event>
<event>
 5   0  0.2134145E-03  0.8997710E+03  0.7818609E-02  0.9425868E-01
        1   -1    0    0  501    0  0.00000000000E+00  0.00000000000E+00  0.41666251428E+03  0.41666251431E+03  0.50400001928E-02 0.  1.
       -1   -1    0    0    0  501  0.00000000000E+00  0.00000000000E+00 -0.48575754884E+03  0.48575754887E+03  0.50400001928E-02 0. -1.
    10030    2    1    2    0    0  0.00000000000E+00  0.00000000000E+00 -0.69095034562E+02  0.90242006318E+03  0.89977099677E+03 0.  0.
        1    1    3    3  502    0  0.20543910031E+03  0.39828072971E+03 -0.74213902061E+02  0.45424714295E+03  0.50400001928E-02 0.  1.
       -1    1    3    3    0  502 -0.20543910031E+03 -0.39828072971E+03  0.51188674997E+01  0.44817292023E+03  0.50400001928E-02 0. -1.
</event>
<event>
 5   0  0.2130975E-03  0.9020535E+03  0.7818609E-02  0.9423018E-01
       -1   -1    0    0    0  501  0.00000000000E+00  0.00000000000E+00  0.44276810981E+03  0.44276810984E+03  0.50400001928E-02 0. -1.
        1   -1    0    0  501    0  0.00000000000E+00  0.00000000000E+00 -0.45943944032E+03  0.45943944035E+03  0.50400001928E-02 0.  1.
    10030    2    1    2    0    0  0.00000000000E+00  0.00000000000E+00 -0.16671330509E+02  0.90220755019E+03  0.90205350748E+03 0.  0.
        5    1    3    3  502    0  0.94306933057E+01  0.24311840686E+03 -0.38814719931E+03  0.45812207550E+03  0.46999998093E+01 0.  1.
       -5    1    3    3    0  502 -0.94306933057E+01 -0.24311840686E+03  0.37147586881E+03  0.44408547469E+03  0.46999998093E+01 0. -1.
</event>
<event>
 5   0  0.2129280E-03  0.9015954E+03  0.7818609E-02  0.9423589E-01
       -1   -1    0    0    0  501  0.00000000000E+00  0.00000000000E+00  0.17421234488E+03  0.17421234495E+03  0.50400001928E-02 0. -1.
        1   -1    0    0  501    0  0.00000000000E+00  0.00000000000E+00 -0.11664993093E+04  0.11664993093E+04  0.50400001928E-02 0.  1.
    10030    2    1    2    0    0  0.00000000000E+00  0.00000000000E+00 -0.99228696445E+03  0.13407116543E+04  0.90159543041E+03 0.  0.
        3    1    3    3  502    0 -0.22425543089E+02  0.26624895222E+03 -0.10360593996E+04  0.10699581764E+04  0.10100000352E+00 0.  1.
       -3    1    3    3    0  502  0.22425543089E+02 -0.26624895222E+03  0.43772435101E+02  0.27075347794E+03  0.10100000352E+00 0. -1.
</event>
<event>
 5   0  0.3685879E-03  0.9001812E+03  0.7818609E-02  0.9425355E-01
        2   -1    0    0  501    0  0.00000000000E+00  0.00000000000E+00  0.11295714552E+04  0.11295714552E+04  0.25500000920E-02 0. -1.
       -2   -1    0    0    0  501  0.00000000000E+00  0.00000000000E+00 -0.17934370498E+03  0.17934370500E+03  0.25500000920E-02 0.  1.
    10030    2    1    2    0    0  0.00000000000E+00  0.00000000000E+00  0.95022775026E+03  0.13089151602E+04  0.90018115919E+03 0.  0.
        1    1    3    3  502    0  0.91935532114E+02  0.34305591971E+03  0.73093868018E+02  0.36260477062E+03  0.50400001928E-02 0.  1.
       -1    1    3    3    0  502 -0.91935532114E+02 -0.34305591971E+03  0.87713388224E+03  0.94631038963E+03  0.50400001928E-02 0. -1.
</event>
<event>
 5   0  0.2130975E-03  0.8973571E+03  0.7818609E-02  0.9428891E-01
       -1   -1    0    0    0  501  0.00000000000E+00  0.00000000000E+00  0.45392574922E+03  0.45392574924E+03  0.50400001928E-02 0.  1.
        1   -1    0    0  501    0  0.00000000000E+00  0.00000000000E+00 -0.44349202937E+03  0.44349202940E+03  0.50400001928E-02 0. -1.
    10030    2    1    2    0    0  0.00000000000E+00  0.00000000000E+00  0.10433719848E+02  0.89741777864E+03  0.89735712340E+03 0.  0.
        5    1    3    3  502    0  0.11399751704E+03 -0.40488953008E+03 -0.15086865971E+03  0.44689417980E+03  0.46999998093E+01 0. -1.
       -5    1    3    3    0  502 -0.11399751704E+03  0.40488953008E+03  0.16130237956E+03  0.45052359884E+03  0.46999998093E+01 0.  1.
</event>
<event>
 5   0  0.2134145E-03  0.8991269E+03  0.7818609E-02  0.9426673E-01
       -1   -1    0    0    0  501  0.00000000000E+00  0.00000000000E+00  0.20284792666E+03  0.20284792672E+03  0.50400001928E-02 0. -1.
        1   -1    0    0  501    0  0.00000000000E+00  0.00000000000E+00 -0.99634887094E+03  0.99634887095E+03  0.50400001928E-02 0.  1.
    10030    2    1    2    0    0  0.00000000000E+00  0.00000000000E+00 -0.79350094428E+03  0.11991967977E+04  0.89912691594E+03 0.  0.
        1    1    3    3  502    0 -0.80393336526E+01 -0.38407101668E+03 -0.85295207711E+02  0.39351041819E+03  0.50400001928E-02 0. -1.
       -1    1    3    3    0  502  0.80393336526E+01  0.38407101668E+03 -0.70820573657E+03  0.80568637948E+03  0.50400001928E-02 0.  1.
</event>
<event>
 5   0  0.2134145E-03  0.9007341E+03  0.7818609E-02  0.9424664E-01
        1   -1    0    0  501    0  0.00000000000E+00  0.00000000000E+00  0.72174727328E+03  0.72174727330E+03  0.50400001928E-02 0.  1.
       -1   -1    0    0    0  501  0.00000000000E+00  0.00000000000E+00 -0.28102702211E+03  0.28102702215E+03  0.50400001928E-02 0. -1.
    10030    2    1    2    0    0  0.00000000000E+00  0.00000000000E+00  0.44072025117E+03  0.10027742954E+04  0.90073411605E+03 0.  0.
        1    1    3    3  502    0  0.32289296036E+02  0.28769188383E+03  0.60443762683E+03  0.67018957274E+03  0.50400001928E-02 0.  1.
       -1    1    3    3    0  502 -0.32289296036E+02 -0.28769188383E+03 -0.16371737566E+03  0.33258472271E+03  0.50400001928E-02 0. -1.
</event>
<event>
 5   0  0.2074970E-03  0.9083523E+03  0.7818609E-02  0.9415200E-01
        1   -1    0    0  501    0  0.00000000000E+00  0.00000000000E+00  0.33511613527E+03  0.33511613531E+03  0.50400001928E-02 0.  1.
       -1   -1    0    0    0  501  0.00000000000E+00  0.00000000000E+00 -0.61553583732E+03  0.61553583734E+03  0.50400001928E-02 0. -1.
    10030    2    1    2    0    0  0.00000000000E+00  0.00000000000E+00 -0.28041970205E+03  0.95065197265E+03  0.90835233462E+03 0.  0.
        2    1    3    3  502    0 -0.14145288876E+03 -0.23500640791E+02 -0.59122430895E+03  0.60836451520E+03  0.25500000920E-02 0. -1.
       -2    1    3    3    0  502  0.14145288876E+03  0.23500640791E+02  0.31080460690E+03  0.34228745746E+03  0.25500000920E-02 0.  1.
</event>
<event>
 5   0  0.2129280E-03  0.9052952E+03  0.7818609E-02  0.9418986E-01
       -1   -1    0    0    0  501  0.00000000000E+00  0.00000000000E+00  0.11071556413E+04  0.11071556414E+04  0.50400001928E-02 0. -1.
        1   -1    0    0  501    0  0.00000000000E+00  0.00000000000E+00 -0.18505964421E+03  0.18505964428E+03  0.50400001928E-02 0.  1.
    10030    2    1    2    0    0  0.00000000000E+00  0.00000000000E+00  0.92209599713E+03  0.12922152856E+04  0.90529515436E+03 0.  0.
        3    1    3    3  502    0  0.19203416304E+03  0.12186723129E+02 -0.12377399739E+03  0.22879171451E+03  0.10100000352E+00 0.  1.
       -3    1    3    3    0  502 -0.19203416304E+03 -0.12186723129E+02  0.10458699945E+04  0.10634235711E+04  0.10100000352E+00 0. -1.
</event>
<event>
 5   0  0.3685879E-03  0.9030336E+03  0.7818609E-02  0.9421797E-01
        2   -1    0    0  501    0  0.00000000000E+00  0.00000000000E+00  0.45079544787E+03  0.45079544788E+03  0.25500000920E-02 0.  1.
       -2   -1    0    0    0  501  0.00000000000E+00  0.00000000000E+00 -0.45223930126E+03  0.45223930126E+03  0.25500000920E-02 0. -1.
    10030    2    1    2    0    0  0.00000000000E+00  0.00000000000E+00 -0.14438533883E+01  0.90303474914E+03  0.90303359486E+03 0.  0.
        1    1    3    3  502    0 -0.13362553229E+03  0.22584965194E+03 -0.36815071613E+03  0.45210485285E+03  0.50400001928E-02 0. -1.
       -1    1    3    3    0  502  0.13362553229E+03 -0.22584965194E+03  0.36670686274E+03  0.45092989629E+03  0.50400001928E-02 0.  1.
</event>
<event>
 5   0  0.3626546E-03  0.9008612E+03  0.7818609E-02  0.9424505E-01
       -2   -1    0    0    0  501  0.00000000000E+00  0.00000000000E+00  0.21897859326E+03  0.21897859327E+03  0.25500000920E-02 0.  1.
        2   -1    0    0  501    0  0.00000000000E+00  0.00000000000E+00 -0.92651860886E+03  0.92651860886E+03  0.25500000920E-02 0. -1.
    10030    2    1    2    0    0  0.00000000000E+00  0.00000000000E+00 -0.70754001560E+03  0.11454972021E+04  0.90086123594E+03 0.  0.
        3    1    3    3  502    0 -0.25941368428E+03 -0.20315561305E+02  0.11374077388E+03  0.28398090687E+03  0.10100000352E+00 0.  1.
       -3    1    3    3    0  502  0.25941368428E+03  0.20315561305E+02 -0.82128078948E+03  0.86151629526E+03  0.10100000352E+00 0. -1.
</event>
<event>
 5   0  0.2129280E-03  0.9015517E+03  0.7818609E-02  0.9423644E-01
       -1   -1    0    0    0  501  0.00000000000E+00  0.00000000000E+00  0.15654569389E+03  0.15654569398E+03  0.50400001928E-02 0. -1.
        1   -1    0    0  501    0  0.00000000000E+00  0.00000000000E+00 -0.12980162178E+04  0.12980162178E+04  0.50400001928E-02 0.  1.
    10030    2    1    2    0    0  0.00000000000E+00  0.00000000000E+00 -0.11414705239E+04  0.14545619118E+04  0.90155166146E+03 0.  0.
        3    1    3    3  502    0  0.68109741554E+02  0.31762102168E+03 -0.66495277832E+02  0.33157756631E+03  0.10100000352E+00 0. -1.
       -3    1    3    3    0  502 -0.68109741554E+02 -0.31762102168E+03 -0.10749752461E+04  0.11229843455E+04  0.10100000352E+00 0.  1.
</event>
<event>
 5   0  0.1436000E-03  0.8995579E+03  0.7818609E-02  0.9426134E-01
       -4   -1    0    0    0  501  0.00000000000E+00  0.00000000000E+00  0.42609459262E+03  0.42609648527E+03  0.12699999809E+01 0.  1.
        4   -1    0    0  501    0  0.00000000000E+00  0.00000000000E+00 -0.47477604494E+03  0.47477774353E+03  0.12699999809E+01 0. -1.
    10030    2    1    2    0    0  0.00000000000E+00  0.00000000000E+00 -0.48681452321E+02  0.90087422880E+03  0.89955794272E+03 0.  0.
        4    1    3    3  502    0 -0.39756769056E+03 -0.16413681986E+03  0.10737566425E+03  0.44331942252E+03  0.12699999809E+01 0. -1.
       -4    1    3    3    0  502  0.39756769056E+03  0.16413681986E+03 -0.15605711657E+03  0.45755480628E+03  0.12699999809E+01 0.  1.
</event>
<event>
 5   0  0.2295158E-03  0.8997899E+03  0.7818609E-02  0.9425844E-01
       -1   -1    0    0    0  501  0.00000000000E+00  0.00000000000E+00  0.11440050791E+03  0.11440050802E+03  0.50400001928E-02 0. -1.
        1   -1    0    0  501    0  0.00000000000E+00  0.00000000000E+00 -0.17692707947E+04  0.17692707947E+04  0.50400001928E-02 0.  1.
    10030    2    1    2    0    0  0.00000000000E+00  0.00000000000E+00 -0.16548702868E+04  0.18836713027E+04  0.89978992584E+03 0.  0.
        4    1    3    3  502    0 -0.33878332912E+03 -0.25059882202E+02 -0.14449222898E+04  0.14843194327E+04  0.12699999809E+01 0.  1.
       -4    1    3    3    0  502  0.33878332912E+03  0.25059882202E+02 -0.20994799703E+03  0.39935187008E+03  0.12699999809E+01 0. -1.
</event>
<event>
 5   0  0.2074970E-03  0.8831524E+03  0.7818609E-02  0.9446890E-01
        1   -1    0    0  501    0  0.00000000000E+00  0.00000000000E+00  0.64914546449E+03  0.64914546451E+03  0.50400001928E-02 0. -1.
       -1   -1    0    0    0  501  0.00000000000E+00  0.00000000000E+00 -0.30037883361E+03  0.30037883365E+03  0.50400001928E-02 0.  1.
    10030    2    1    2    0    0  0.00000000000E+00  0.00000000000E+00  0.34876663088E+03  0.94952429816E+03  0.88315243870E+03 0.  0.
        2    1    3    3  502    0  0.29040591284E+03 -0.23148763512E+03 -0.82457830132E+02  0.38042267701E+03  0.25500000920E-02 0.  1.
       -2    1    3    3    0  502 -0.29040591284E+03  0.23148763512E+03  0.43122446101E+03  0.56910162116E+03  0.25500000920E-02 0. -1.
</event>
<event>
 5   0  0.2134145E-03  0.8993826E+03  0.7818609E-02  0.9426354E-01
       -1   -1    0    0    0  501  0.00000000000E+00  0.00000000000E+00  0.19159992353E+03  0.19159992359E+03  0.50400001928E-02 0. -1.
        1   -1    0    0  501    0  0.00000000000E+00  0.00000000000E+00 -0.10554402183E+04  0.10554402183E+04  0.50400001928E-02 0.  1.
    10030    2    1    2    0    0  0.00000000000E+00  0.00000000000E+00 -0.86384029473E+03  0.12470401419E+04  0.89938259969E+03 0.  0.
        1    1    3    3  502    0 -0.27649275144E+03 -0.63202362518E+02  0.51943526773E+02  0.28834165538E+03  0.50400001928E-02 0. -1.
       -1    1    3    3    0  502  0.27649275144E+03  0.63202362518E+02 -0.91578382151E+03  0.95869848649E+03  0.50400001928E-02 0.  1.
</event>
<event>
 5   0  0.2130975E-03  0.9003300E+03  0.7818609E-02  0.9425169E-01
        1   -1    0    0  501    0  0.00000000000E+00  0.00000000000E+00  0.29881492195E+03  0.29881492199E+03  0.50400001928E-02 0.  1.
       -1   -1    0    0    0  501  0.00000000000E+00  0.00000000000E+00 -0.67817409900E+03  0.67817409902E+03  0.50400001928E-02 0. -1.
    10030    2    1    2    0    0  0.00000000000E+00  0.00000000000E+00 -0.37935917706E+03  0.97698902101E+03  0.90033002947E+03 0.  0.
        5    1    3    3  502    0  0.37944214380E+03 -0.31248746423E+02  0.70921709996E+02  0.38730453598E+03  0.46999998093E+01 0.  1.
       -5    1    3    3    0  502 -0.37944214380E+03  0.31248746423E+02 -0.45028088705E+03  0.58968448503E+03  0.46999998093E+01 0. -1.
</event>
<event>
 5   0  0.3815269E-03  0.8953855E+03  0.7818609E-02  0.9431368E-01
       -2   -1    0    0    0  501  0.00000000000E+00  0.00000000000E+00  0.43268213216E+03  0.43268213217E+03  0.25500000920E-02 0.  1.
        2   -1    0    0  501    0  0.00000000000E+00  0.00000000000E+00 -0.46322414463E+03  0.46322414464E+03  0.25500000920E-02 0. -1.
    10030    2    1    2    0    0  0.00000000000E+00  0.00000000000E+00 -0.30542012474E+02  0.89590627681E+03  0.89538552719E+03 0.  0.
        5    1    3    3  502    0 -0.21151535043E+03 -0.19048796829E+03  0.33044739821E+03  0.43616737901E+03  0.46999998093E+01 0.  1.
       -5    1    3    3    0  502  0.21151535043E+03  0.19048796829E+03 -0.36098941068E+03  0.45973889780E+03  0.46999998093E+01 0. -1.
</event>
<event>
 5   0  0.3663255E-03  0.8999340E+03  0.7818609E-02  0.9425664E-01
       -2   -1    0    0    0  501  0.00000000000E+00  0.00000000000E+00  0.44658438013E+03  0.44658438013E+03  0.25500000920E-02 0. -1.
        2   -1    0    0  501    0  0.00000000000E+00  0.00000000000E+00 -0.45337523797E+03  0.45337523797E+03  0.25500000920E-02 0.  1.
    10030    2    1    2    0    0  0.00000000000E+00  0.00000000000E+00 -0.67908578404E+01  0.89995961811E+03  0.89993399673E+03 0.  0.
        4    1    3    3  502    0 -0.61577914717E+02 -0.47005030902E+02 -0.44665445176E+03  0.45332452469E+03  0.12699999809E+01 0.  1.
       -4    1    3    3    0  502  0.61577914717E+02  0.47005030902E+02  0.43986359392E+03  0.44663509341E+03  0.12699999809E+01 0. -1.
</event>
<event>
 5   0  0.2130975E-03  0.9016000E+03  0.7818609E-02  0.9423584E-01
        1   -1    0    0  501    0  0.00000000000E+00  0.00000000000E+00  0.82489560223E+03  0.82489560224E+03  0.50400001928E-02 0.  1.
       -1   -1    0    0    0  501  0.00000000000E+00  0.00000000000E+00 -0.24635922548E+03  0.24635922553E+03  0.50400001928E-02 0. -1.
    10030    2    1    2    0    0  0.00000000000E+00  0.00000000000E+00  0.57853637675E+03  0.10712548278E+04  0.90160000377E+03 0.  0.
        5    1    3    3  502    0 -0.14656181784E+03  0.21504753808E+03 -0.14805735784E+03  0.29944762696E+03  0.46999998093E+01 0. -1.
       -5    1    3    3    0  502  0.14656181784E+03 -0.21504753808E+03  0.72659373459E+03  0.77180720081E+03  0.46999998093E+01 0.  1.
</event>
<event>
 5   0  0.2130975E-03  0.8994163E+03  0.7818609E-02  0.9426311E-01
       -1   -1    0    0    0  501  0.00000000000E+00  0.00000000000E+00  0.14123203269E+03  0.14123203278E+03  0.50400001928E-02 0. -1.
        1   -1    0    0  501    0  0.00000000000E+00  0.00000000000E+00 -0.14319516260E+04  0.14319516260E+04  0.50400001928E-02 0.  1.
    10030    2    1    2    0    0  0.00000000000E+00  0.00000000000E+00 -0.12907195933E+04  0.15731836588E+04  0.89941634171E+03 0.  0.
        5    1    3    3  502    0 -0.23704906562E+03 -0.22686111300E+03 -0.10750408903E+03  0.34530775152E+03  0.46999998093E+01 0. -1.
       -5    1    3    3    0  502  0.23704906562E+03  0.22686111300E+03 -0.11832155043E+04  0.12278759073E+04  0.46999998093E+01 0.  1.
</event>
<event>
 5   0  0.3626546E-03  0.8981372E+03  0.7818609E-02  0.9427913E-01
        2   -1    0    0  501    0  0.00000000000E+00  0.00000000000E+00  0.15349734980E+04  0.15349734980E+04  0.25500000920E-02 0. -1.
       -2   -1    0    0    0  501  0.00000000000E+00  0.00000000000E+00 -0.13137855887E+03  0.13137855890E+03  0.25500000920E-02 0.  1.
    10030    2    1    2    0    0  0.00000000000E+00  0.00000000000E+00  0.14035949392E+04  0.16663520569E+04  0.89813719688E+03 0.  0.
        3    1    3    3  502    0 -0.31909036970E+03 -0.22220069982E+03  0.28498174881E+03  0.48208549283E+03  0.10100000352E+00 0.  1.
       -3    1    3    3    0  502  0.31909036970E+03  0.22220069982E+03  0.11186131904E+04  0.11842665641E+04  0.10100000352E+00 0. -1.
</event>
<event>
 5   0  0.3663255E-03  0.8992703E+03  0.7818609E-02  0.9426494E-01
       -2   -1    0    0    0  501  0.00000000000E+00  0.00000000000E+00  0.69713388168E+03  0.69713388169E+03  0.25500000920E-02 0.  1.
        2   -1    0    0  501    0  0.00000000000E+00  0.00000000000E+00 -0.29000424151E+03  0.29000424152E+03  0.25500000920E-02 0. -1.
    10030    2    1    2    0    0  0.00000000000E+00  0.00000000000E+00  0.40712964018E+03  0.98713812320E+03  0.89927033220E+03 0.  0.
        4    1    3    3  502    0  0.88387683622E+02 -0.19651177504E+03 -0.22963574241E+03  0.31490228236E+03  0.12699999809E+01 0. -1.
       -4    1    3    3    0  502 -0.88387683622E+02  0.19651177504E+03  0.63676538259E+03  0.67223584084E+03  0.12699999809E+01 0.  1.
</event>
<event>
 5   0  0.3663255E-03  0.9002169E+03  0.7818609E-02  0.9425310E-01
       -2   -1    0    0    0  501  0.00000000000E+00  0.00000000000E+00  0.16760193582E+03  0.16760193584E+03  0.25500000920E-02 0.  1.
        2   -1    0    0  501    0  0.00000000000E+00  0.00000000000E+00 -0.12088023429E+04  0.12088023429E+04  0.25500000920E-02 0. -1.
    10030    2    1    2    0    0  0.00000000000E+00  0.00000000000E+00 -0.10412004071E+04  0.13764042788E+04  0.90021689102E+03 0.  0.
        4    1    3    3  502    0 -0.41830644834E+03 -0.10156052337E+02 -0.77420907092E+03  0.88004813989E+03  0.12699999809E+01 0. -1.
       -4    1    3    3    0  502  0.41830644834E+03  0.10156052337E+02 -0.26699133619E+03  0.49635613890E+03  0.12699999809E+01 0.  1.
</event>
<event>
 5   0  0.2295158E-03  0.8982856E+03  0.7818609E-02  0.9427727E-01
        1   -1    0    0  501    0  0.00000000000E+00  0.00000000000E+00  0.89048407000E+03  0.89048407001E+03  0.50400001928E-02 0.  1.
       -1   -1    0    0    0  501  0.00000000000E+00  0.00000000000E+00 -0.22653887548E+03  0.22653887553E+03  0.50400001928E-02 0. -1.
    10030    2    1    2    0    0  0.00000000000E+00  0.00000000000E+00  0.66394519452E+03  0.11170229455E+04  0.89828561134E+03 0.  0.
        4    1    3    3  502    0  0.28120298756E+02 -0.42105240373E+03  0.52321291932E+03  0.67218245271E+03  0.12699999809E+01 0.  1.
       -4    1    3    3    0  502 -0.28120298756E+02  0.42105240373E+03  0.14073227521E+03  0.44484049284E+03  0.12699999809E+01 0. -1.
</event>
<event>
 5   0  0.2129280E-03  0.9055711E+03  0.7818609E-02  0.9418644E-01
        1   -1    0    0  501    0  0.00000000000E+00  0.00000000000E+00  0.56264151006E+03  0.56264151009E+03  0.50400001928E-02 0. -1.
       -1   -1    0    0    0  501  0.00000000000E+00  0.00000000000E+00 -0.36437902368E+03  0.36437902371E+03  0.50400001928E-02 0.  1.
    10030    2    1    2    0    0  0.00000000000E+00  0.00000000000E+00  0.19826248639E+03  0.92702053380E+03  0.90557112177E+03 0.  0.
        3    1    3    3  502    0  0.15324995825E+03  0.29379578725E+03  0.41500639274E+03  0.53106669122E+03  0.10100000352E+00 0.  1.
       -3    1    3    3    0  502 -0.15324995825E+03 -0.29379578725E+03 -0.21674390636E+03  0.39595384258E+03  0.10100000352E+00 0. -1.
</event>
<event>
 5   0  0.2129280E-03  0.9009004E+03  0.7818609E-02  0.9424457E-01
       -1   -1    0    0    0  501  0.00000000000E+00  0.00000000000E+00  0.25546121703E+03  0.25546121708E+03  0.50400001928E-02 0. -1.
        1   -1    0    0  501    0  0.00000000000E+00  0.00000000000E+00 -0.79427077660E+03  0.79427077662E+03  0.50400001928E-02 0.  1.
    10030    2    1    2    0    0  0.00000000000E+00  0.00000000000E+00 -0.53880955957E+03  0.10497319937E+04  0.90090039245E+03 0.  0.
        3    1    3    3  502    0 -0.43413936260E+03  0.89725671030E+02 -0.17635116375E+03  0.47710316008E+03  0.10100000352E+00 0.  1.
       -3    1    3    3    0  502  0.43413936260E+03 -0.89725671030E+02 -0.36245839582E+03  0.57262883362E+03  0.10100000352E+00 0. -1.
</event>
<event>
 5   0  0.3685879E-03  0.8887056E+03  0.7818609E-02  0.9439811E-01
       -2   -1    0    0    0  501  0.00000000000E+00  0.00000000000E+00  0.28963171042E+03  0.28963171043E+03  0.25500000920E-02 0.  1.
        2   -1    0    0  501    0  0.00000000000E+00  0.00000000000E+00 -0.68172583667E+03  0.68172583667E+03  0.25500000920E-02 0. -1.
    10030    2    1    2    0    0  0.00000000000E+00  0.00000000000E+00 -0.39209412625E+03  0.97135754710E+03  0.88870562082E+03 0.  0.
        1    1    3    3  502    0 -0.16602047935E+03  0.40429889705E+03 -0.10840882043E+03  0.45030308692E+03  0.50400001928E-02 0.  1.
       -1    1    3    3    0  502  0.16602047935E+03 -0.40429889705E+03 -0.28368530582E+03  0.52105446018E+03  0.50400001928E-02 0. -1.
</event>
<event>
 5   0  0.2295158E-03  0.8974372E+03  0.7818609E-02  0.9428791E-01
       -1   -1    0    0    0  501  0.00000000000E+00  0.00000000000E+00  0.92862016329E+03  0.92862016330E+03  0.50400001928E-02 0. -1.
        1   -1    0    0  501    0  0.00000000000E+00  0.00000000000E+00 -0.21682533632E+03  0.21682533638E+03  0.50400001928E-02 0.  1.
    10030    2    1    2    0    0  0.00000000000E+00  0.00000000000E+00  0.71179482697E+03  0.11454454997E+04  0.89743719392E+03 0.  0.
        4    1    3    3  502    0  0.36364069062E+03  0.22271022513E+03  0.17760807318E+03  0.46193142003E+03  0.12699999809E+01 0.  1.
       -4    1    3    3    0  502 -0.36364069062E+03 -0.22271022513E+03  0.53418675378E+03  0.68351407964E+03  0.12699999809E+01 0. -1.
</event>
<event>
 5   0  0.3626546E-03  0.8929452E+03  0.7818609E-02  0.9434444E-01
       -2   -1    0    0    0  501  0.00000000000E+00  0.00000000000E+00  0.84082832874E+02  0.84082832913E+02  0.25500000920E-02 0.  1.
        2   -1    0    0  501    0  0.00000000000E+00  0.00000000000E+00 -0.23707308710E+04  0.23707308710E+04  0.25500000920E-02 0. -1.
    10030    2    1    2    0    0  0.00000000000E+00  0.00000000000E+00 -0.22866480381E+04  0.24548137039E+04  0.89294516666E+03 0.  0.
        3    1    3    3  502    0 -0.17993820400E+03  0.29041398476E+03 -0.35312660984E+03  0.49134148266E+03  0.10100000352E+00 0.  1.
       -3    1    3    3    0  502  0.17993820400E+03 -0.29041398476E+03 -0.19335214283E+04  0.19634722212E+04  0.10100000352E+00 0. -1.
</event>
<event>
 5   0  0.2130975E-03  0.9050875E+03  0.7818609E-02  0.9419244E-01
        1   -1    0    0  501    0  0.00000000000E+00  0.00000000000E+00  0.27170979053E+03  0.27170979058E+03  0.50400001928E-02 0.  1.
       -1   -1    0    0    0  501  0.00000000000E+00  0.00000000000E+00 -0.75373007368E+03  0.75373007369E+03  0.50400001928E-02 0. -1.
    10030    2    1    2    0    0  0.00000000000E+00  0.00000000000E+00 -0.48202028315E+03  0.10254398643E+04  0.90508748852E+03 0.  0.
        5    1    3    3  502    0 -0.39085226254E+03 -0.22732457140E+03 -0.22037265087E+03  0.50301903259E+03  0.46999998093E+01 0.  1.
       -5    1    3    3    0  502  0.39085226254E+03  0.22732457140E+03 -0.26164763228E+03  0.52242083168E+03  0.46999998093E+01 0. -1.
</event>
<event>
 5   0  0.3626546E-03  0.8994863E+03  0.7818609E-02  0.9426224E-01
        2   -1    0    0  501    0  0.00000000000E+00  0.00000000000E+00  0.47180770980E+03  0.47180770980E+03  0.25500000920E-02 0.  1.
       -2   -1    0    0    0  501  0.00000000000E+00  0.00000000000E+00 -0.42871044764E+03  0.42871044765E+03  0.25500000920E-02 0. -1.
    10030    2    1    2    0    0  0.00000000000E+00  0.00000000000E+00  0.43097262157E+02  0.90051815745E+03  0.89948628555E+03 0.  0.
        3    1    3    3  502    0 -0.11032136507E+01  0.39053438815E+03 -0.20175557833E+03  0.43957212036E+03  0.10100000352E+00 0. -1.
       -3    1    3    3    0  502  0.11032136507E+01 -0.39053438815E+03  0.24485284049E+03  0.46094603709E+03  0.10100000352E+00 0.  1.
</event>
<event>
 5   0  0.3685879E-03  0.8861091E+03  0.7818609E-02  0.9443114E-01
        2   -1    0    0  501    0  0.00000000000E+00  0.00000000000E+00  0.37418334434E+03  0.37418334435E+03  0.25500000920E-02 0.  1.
       -2   -1    0    0    0  501  0.00000000000E+00  0.00000000000E+00 -0.52460206043E+03  0.52460206043E+03  0.25500000920E-02 0. -1.
    10030    2    1    2    0    0  0.00000000000E+00  0.00000000000E+00 -0.15041871608E+03  0.89878540478E+03  0.88610914322E+03 0.  0.
        1    1    3    3  502    0  0.68344417628E+02  0.29471205994E+03  0.25310490004E+03  0.39444676212E+03  0.50400001928E-02 0.  1.
       -1    1    3    3    0  502 -0.68344417628E+02 -0.29471205994E+03 -0.40352361612E+03  0.50433864267E+03  0.50400001928E-02 0. -1.
</event>
<event>
 5   0  0.2130975E-03  0.9005247E+03  0.7818609E-02  0.9424926E-01
       -1   -1    0    0    0  501  0.00000000000E+00  0.00000000000E+00  0.23842854590E+03  0.23842854595E+03  0.50400001928E-02 0.  1.
        1   -1    0    0  501    0  0.00000000000E+00  0.00000000000E+00 -0.85030157885E+03  0.85030157887E+03  0.50400001928E-02 0. -1.
    10030    2    1    2    0    0  0.00000000000E+00  0.00000000000E+00 -0.61187303295E+03  0.10887301248E+04  0.90052466720E+03 0.  0.
        5    1    3    3  502    0  0.10911946994E+03 -0.21883187805E+03  0.15112069660E+03  0.28749609477E+03  0.46999998093E+01 0.  1.
       -5    1    3    3    0  502 -0.10911946994E+03  0.21883187805E+03 -0.76299372955E+03  0.80123403005E+03  0.46999998093E+01 0. -1.
</event>
<event>
 5   0  0.2074970E-03  0.9006475E+03  0.7818609E-02  0.9424772E-01
        1   -1    0    0  501    0  0.00000000000E+00  0.00000000000E+00  0.21474524056E+03  0.21474524062E+03  0.50400001928E-02 0. -1.
       -1   -1    0    0    0  501  0.00000000000E+00  0.00000000000E+00 -0.94433506324E+03  0.94433506325E+03  0.50400001928E-02 0.  1.
    10030    2    1    2    0    0  0.00000000000E+00  0.00000000000E+00 -0.72958982268E+03  0.11590803039E+04  0.90064745682E+03 0.  0.
        2    1    3    3  502    0 -0.36891928255E+03 -0.23460430046E+03 -0.22588366078E+03  0.49210165926E+03  0.25500000920E-02 0. -1.
       -2    1    3    3    0  502  0.36891928255E+03  0.23460430046E+03 -0.50370616190E+03  0.66697864462E+03  0.25500000920E-02 0.  1.
</event>
<event>
 5   0  0.3806019E-03  0.9000132E+03  0.7818609E-02  0.9425565E-01
       -2   -1    0    0    0  501  0.00000000000E+00  0.00000000000E+00  0.15546466761E+03  0.15546466763E+03  0.25500000920E-02 0.  1.
        2   -1    0    0  501    0  0.00000000000E+00  0.00000000000E+00 -0.13025849345E+04  0.13025849345E+04  0.25500000920E-02 0. -1.
    10030    2    1    2    0    0  0.00000000000E+00  0.00000000000E+00 -0.11471202669E+04  0.14580496021E+04  0.90001318631E+03 0.  0.
        2    1    3    3  502    0 -0.16632018932E+03  0.17241839605E+03  0.43574920664E+02  0.24349390627E+03  0.25500000920E-02 0.  1.
       -2    1    3    3    0  502  0.16632018932E+03 -0.17241839605E+03 -0.11906951875E+04  0.12145556958E+04  0.25500000920E-02 0. -1.
</event>
<event>
 5   0  0.3806019E-03  0.9033880E+03  0.7818609E-02  0.9421356E-01
       -2   -1    0    0    0  501  0.00000000000E+00  0.00000000000E+00  0.15348242557E+03  0.15348242559E+03  0.25500000920E-02 0. -1.
        2   -1    0    0  501    0  0.00000000000E+00  0.00000000000E+00 -0.13293215210E+04  0.13293215210E+04  0.25500000920E-02 0.  1.
    10030    2    1    2    0    0  0.00000000000E+00  0.00000000000E+00 -0.11758390954E+04  0.14828039466E+04  0.90338804824E+03 0.  0.
        2    1    3    3  502    0 -0.34157816869E+03 -0.57201932725E+02 -0.11197627905E+03  0.36398680403E+03  0.25500000920E-02 0. -1.
       -2    1    3    3    0  502  0.34157816869E+03  0.57201932725E+02 -0.10638628164E+04  0.11188171426E+04  0.25500000920E-02 0.  1.
</event>
<event>
 5   0  0.2129280E-03  0.9169807E+03  0.7818609E-02  0.9404600E-01
       -1   -1    0    0    0  501  0.00000000000E+00  0.00000000000E+00  0.40726682228E+03  0.40726682232E+03  0.50400001928E-02 0. -1.
        1   -1    0    0  501    0  0.00000000000E+00  0.00000000000E+00 -0.51615642994E+03  0.51615642996E+03  0.50400001928E-02 0.  1.
    10030    2    1    2    0    0  0.00000000000E+00  0.00000000000E+00 -0.10888960765E+03  0.92342325228E+03  0.91698067384E+03 0.  0.
        3    1    3    3  502    0  0.43818008132E+03  0.11145540479E+03  0.22177145760E+02  0.45267640420E+03  0.10100000352E+00 0. -1.
       -3    1    3    3    0  502 -0.43818008132E+03 -0.11145540479E+03 -0.13106675341E+03  0.47074684808E+03  0.10100000352E+00 0.  1.
</event>
<event>
 5   0  0.2074970E-03  0.8988786E+03  0.7818609E-02  0.9426984E-01
        1   -1    0    0  501    0  0.00000000000E+00  0.00000000000E+00  0.86677075459E+03  0.86677075461E+03  0.50400001928E-02 0. -1.
       -1   -1    0    0    0  501  0.00000000000E+00  0.00000000000E+00 -0.23304397770E+03  0.23304397776E+03  0.50400001928E-02 0.  1.
    10030    2    1    2    0    0  0.00000000000E+00  0.00000000000E+00  0.63372677689E+03  0.10998147324E+04  0.89887864464E+03 0.  0.
        2    1    3    3  502    0 -0.20795433197E+03 -0.68469439589E+02  0.79711312194E+03  0.82663316986E+03  0.25500000920E-02 0. -1.
       -2    1    3    3    0  502  0.20795433197E+03  0.68469439589E+02 -0.16338634504E+03  0.27318156251E+03  0.25500000920E-02 0.  1.
</event>
<event>
 5   0  0.3685879E-03  0.9013491E+03  0.7818609E-02  0.9423897E-01
        2   -1    0    0  501    0  0.00000000000E+00  0.00000000000E+00  0.37042593392E+03  0.37042593393E+03  0.25500000920E-02 0. -1.
       -2   -1    0    0    0  501  0.00000000000E+00  0.00000000000E+00 -0.54830812907E+03  0.54830812908E+03  0.25500000920E-02 0.  1.
    10030    2    1    2    0    0  0.00000000000E+00  0.00000000000E+00 -0.17788219515E+03  0.91873406301E+03  0.90134910173E+03 0.  0.
        1    1    3    3  502    0  0.98704283277E+02  0.33092491244E+03 -0.38410140159E+03  0.51651497552E+03  0.50400001928E-02 0.  1.
       -1    1    3    3    0  502 -0.98704283277E+02 -0.33092491244E+03  0.20621920643E+03  0.40221908749E+03  0.50400001928E-02 0. -1.
</event>
<event>
 5   0  0.2295158E-03  0.8930445E+03  0.7818609E-02  0.9434318E-01
       -1   -1    0    0    0  501  0.00000000000E+00  0.00000000000E+00  0.32821228890E+03  0.32821228894E+03  0.50400001928E-02 0.  1.
        1   -1    0    0  501    0  0.00000000000E+00  0.00000000000E+00 -0.60747913985E+03  0.60747913987E+03  0.50400001928E-02 0. -1.
    10030    2    1    2    0    0  0.00000000000E+00  0.00000000000E+00 -0.27926685095E+03  0.93569142881E+03  0.89304449829E+03 0.  0.
        4    1    3    3  502    0 -0.11045077024E+03  0.34435895534E+03  0.13478635716E+03  0.38594227255E+03  0.12699999809E+01 0.  1.
       -4    1    3    3    0  502  0.11045077024E+03 -0.34435895534E+03 -0.41405320810E+03  0.54974915626E+03  0.12699999809E+01 0. -1.
</event>
<event>
 5   0  0.3685879E-03  0.8904461E+03  0.7818609E-02  0.9437604E-01
       -2   -1    0    0    0  501  0.00000000000E+00  0.00000000000E+00  0.28388997238E+03  0.28388997240E+03  0.25500000920E-02 0.  1.
        2   -1    0    0  501    0  0.00000000000E+00  0.00000000000E+00 -0.69824080379E+03  0.69824080379E+03  0.25500000920E-02 0. -1.
    10030    2    1    2    0    0  0.00000000000E+00  0.00000000000E+00 -0.41435083140E+03  0.98213077619E+03  0.89044609609E+03 0.  0.
        1    1    3    3  502    0  0.22475388932E+03  0.14640043804E+03  0.18476709968E+03  0.32570888869E+03  0.50400001928E-02 0.  1.
       -1    1    3    3    0  502 -0.22475388932E+03 -0.14640043804E+03 -0.59911793108E+03  0.65642188750E+03  0.50400001928E-02 0. -1.
</event>
<event>
 5   0  0.2134145E-03  0.8967517E+03  0.7818609E-02  0.9429651E-01
       -1   -1    0    0    0  501  0.00000000000E+00  0.00000000000E+00  0.50139397163E+03  0.50139397166E+03  0.50400001928E-02 0.  1.
        1   -1    0    0  501    0  0.00000000000E+00  0.00000000000E+00 -0.40096393220E+03  0.40096393223E+03  0.50400001928E-02 0. -1.
    10030    2    1    2    0    0  0.00000000000E+00  0.00000000000E+00  0.10043003944E+03  0.90235790389E+03  0.89675169021E+03 0.  0.
        1    1    3    3  502    0  0.89422157375E+02  0.15410004778E+03  0.46424540800E+03  0.49725943514E+03  0.50400001928E-02 0.  1.
       -1    1    3    3    0  502 -0.89422157375E+02 -0.15410004778E+03 -0.36381536857E+03  0.40509846875E+03  0.50400001928E-02 0. -1.
</event>
<event>
 5   0  0.3663255E-03  0.8944582E+03  0.7818609E-02  0.9432536E-01
        2   -1    0    0  501    0  0.00000000000E+00  0.00000000000E+00  0.40731304853E+03  0.40731304854E+03  0.25500000920E-02 0. -1.
       -2   -1    0    0    0  501  0.00000000000E+00  0.00000000000E+00 -0.49105685262E+03  0.49105685262E+03  0.25500000920E-02 0.  1.
    10030    2    1    2    0    0  0.00000000000E+00  0.00000000000E+00 -0.83743804085E+02  0.89836990117E+03  0.89445819053E+03 0.  0.
        4    1    3    3  502    0  0.66529146581E+02 -0.42030881458E+03 -0.18004761768E+03  0.46206534656E+03  0.12699999809E+01 0.  1.
       -4    1    3    3    0  502 -0.66529146581E+02  0.42030881458E+03  0.96303813595E+02  0.43630455461E+03  0.12699999809E+01 0. -1.
</event>
<event>
 5   0  0.2130975E-03  0.9078935E+03  0.7818609E-02  0.9415768E-01
       -1   -1    0    0    0  501  0.00000000000E+00  0.00000000000E+00  0.11120527693E+04  0.11120527693E+04  0.50400001928E-02 0.  1.
        1   -1    0    0  501    0  0.00000000000E+00  0.00000000000E+00 -0.18530383494E+03  0.18530383501E+03  0.50400001928E-02 0. -1.
    10030    2    1    2    0    0  0.00000000000E+00  0.00000000000E+00  0.92674893438E+03  0.12973566043E+04  0.90789348023E+03 0.  0.
        5    1    3    3  502    0  0.85924832941E+02  0.18031582364E+03 -0.11909466756E+03  0.23259944757E+03  0.46999998093E+01 0. -1.
       -5    1    3    3    0  502 -0.85924832941E+02 -0.18031582364E+03  0.10458436019E+04  0.10647571568E+04  0.46999998093E+01 0.  1.
</event>
<event>
 5   0  0.3626546E-03  0.9015572E+03  0.7818609E-02  0.9423637E-01
        2   -1    0    0  501    0  0.00000000000E+00  0.00000000000E+00  0.63149263545E+03  0.63149263546E+03  0.25500000920E-02 0. -1.
       -2   -1    0    0    0  501  0.00000000000E+00  0.00000000000E+00 -0.32177944631E+03  0.32177944632E+03  0.25500000920E-02 0.  1.
    10030    2    1    2    0    0  0.00000000000E+00  0.00000000000E+00  0.30971318914E+03  0.95327208178E+03  0.90155720971E+03 0.  0.
        3    1    3    3  502    0 -0.66805971968E+02  0.14881493454E+03 -0.28947747028E+03  0.33227419195E+03  0.10100000352E+00 0.  1.
       -3    1    3    3    0  502  0.66805971968E+02 -0.14881493454E+03  0.59919065942E+03  0.62099788983E+03  0.10100000352E+00 0. -1.
</event>
<event>
 5   0  0.3806019E-03  0.9040471E+03  0.7818609E-02  0.9420536E-01
        2   -1    0    0  501    0  0.00000000000E+00  0.00000000000E+00  0.23141936700E+04  0.23141936700E+04  0.25500000920E-02 0. -1.
       -2   -1    0    0    0  501  0.00000000000E+00  0.00000000000E+00 -0.88292215135E+02  0.88292215172E+02  0.25500000920E-02 0.  1.
    10030    2    1    2    0    0  0.00000000000E+00  0.00000000000E+00  0.22259014548E+04  0.24024858852E+04  0.90404709041E+03 0.  0.
        2    1    3    3  502    0 -0.66913716008E+02 -0.40547097447E+03  0.16132427357E+04  0.16647631305E+04  0.25500000920E-02 0. -1.
       -2    1    3    3    0  502  0.66913716008E+02  0.40547097447E+03  0.61265871920E+03  0.73772275466E+03  0.25500000920E-02 0.  1.
</event>
<event>
 5   0  0.3685879E-03  0.8960275E+03  0.7818609E-02  0.9430561E-01
        2   -1    0    0  501    0  0.00000000000E+00  0.00000000000E+00  0.52997894218E+03  0.52997894219E+03  0.25500000920E-02 0.  1.
       -2   -1    0    0    0  501  0.00000000000E+00  0.00000000000E+00 -0.37872506267E+03  0.37872506268E+03  0.25500000920E-02 0. -1.
    10030    2    1    2    0    0  0.00000000000E+00  0.00000000000E+00  0.15125387951E+03  0.90870400486E+03  0.89602747301E+03 0.  0.
        1    1    3    3  502    0 -0.48682547177E+02  0.97972432765E+02 -0.36497050444E+03  0.38101451038E+03  0.50400001928E-02 0. -1.
       -1    1    3    3    0  502  0.48682547177E+02 -0.97972432765E+02  0.51622438395E+03  0.52768949449E+03  0.50400001928E-02 0.  1.
</event>
<event>
 5   0  0.2074970E-03  0.8980881E+03  0.7818609E-02  0.9427975E-01
       -1   -1    0    0    0  501  0.00000000000E+00  0.00000000000E+00  0.59075369318E+03  0.59075369320E+03  0.50400001928E-02 0.  1.
        1   -1    0    0  501    0  0.00000000000E+00  0.00000000000E+00 -0.34132760083E+03  0.34132760086E+03  0.50400001928E-02 0. -1.
    10030    2    1    2    0    0  0.00000000000E+00  0.00000000000E+00  0.24942609235E+03  0.93208129406E+03  0.89808805982E+03 0.  0.
        2    1    3    3  502    0  0.81003930686E+02  0.20087592717E+03  0.53295628155E+03  0.57528703528E+03  0.25500000920E-02 0.  1.
       -2    1    3    3    0  502 -0.81003930686E+02 -0.20087592717E+03 -0.28353018920E+03  0.35679425878E+03  0.25500000920E-02 0. -1.
</event>
<event>
 5   0  0.3806019E-03  0.9013837E+03  0.7818609E-02  0.9423853E-01
        2   -1    0    0  501    0  0.00000000000E+00  0.00000000000E+00  0.50195216569E+03  0.50195216570E+03  0.25500000920E-02 0.  1.
       -2   -1    0    0    0  501  0.00000000000E+00  0.00000000000E+00 -0.40466635333E+03  0.40466635334E+03  0.25500000920E-02 0. -1.
    10030    2    1    2    0    0  0.00000000000E+00  0.00000000000E+00  0.97285812361E+02  0.90661851904E+03  0.90138371950E+03 0.  0.
        2    1    3    3  502    0 -0.73579853779E+02  0.34088295162E+03 -0.23851112466E+03  0.42249584398E+03  0.25500000920E-02 0.  1.
       -2    1    3    3    0  502  0.73579853779E+02 -0.34088295162E+03  0.33579693702E+03  0.48412267506E+03  0.25500000920E-02 0. -1.
</event>
<event>
 5   0  0.2129280E-03  0.8995264E+03  0.7818609E-02  0.9426174E-01
       -1   -1    0    0    0  501  0.00000000000E+00  0.00000000000E+00  0.29053173303E+03  0.29053173307E+03  0.50400001928E-02 0. -1.
        1   -1    0    0  501    0  0.00000000000E+00  0.00000000000E+00 -0.69626446762E+03  0.69626446764E+03  0.50400001928E-02 0.  1.
    10030    2    1    2    0    0  0.00000000000E+00  0.00000000000E+00 -0.40573273459E+03  0.98679620071E+03  0.89952636972E+03 0.  0.
        3    1    3    3  502    0  0.24187109328E+03 -0.14367012391E+03 -0.58783072213E+03  0.65168067207E+03  0.10100000352E+00 0.  1.
       -3    1    3    3    0  502 -0.24187109328E+03  0.14367012391E+03  0.18209798754E+03  0.33511552864E+03  0.10100000352E+00 0. -1.
</event>
<event>
 5   0  0.2295158E-03  0.8997808E+03  0.7818609E-02  0.9425856E-01
        1   -1    0    0  501    0  0.00000000000E+00  0.00000000000E+00  0.64416229245E+03  0.64416229246E+03  0.50400001928E-02 0. -1.
       -1   -1    0    0    0  501  0.00000000000E+00  0.00000000000E+00 -0.31420862954E+03  0.31420862958E+03  0.50400001928E-02 0.  1.
    10030    2    1    2    0    0  0.00000000000E+00  0.00000000000E+00  0.32995366290E+03  0.95837092205E+03  0.89978075360E+03 0.  0.
        4    1    3    3  502    0  0.58728180712E+01  0.38446453544E+02  0.64236645343E+03  0.64354401029E+03  0.12699999809E+01 0. -1.
       -4    1    3    3    0  502 -0.58728180712E+01 -0.38446453544E+02 -0.31241279053E+03  0.31482691176E+03  0.12699999809E+01 0.  1.
</event>
<event>
 5   0  0.2074970E-03  0.8998104E+03  0.7818609E-02  0.9425818E-01
       -1   -1    0    0    0  501  0.00000000000E+00  0.00000000000E+00  0.32695880249E+03  0.32695880253E+03  0.50400001928E-02 0.  1.
        1   -1    0    0  501    0  0.00000000000E+00  0.00000000000E+00 -0.61908316396E+03  0.61908316398E+03  0.50400001928E-02 0. -1.
    10030    2    1    2    0    0  0.00000000000E+00  0.00000000000E+00 -0.29212436146E+03  0.94604196650E+03  0.89981040216E+03 0.  0.
        2    1    3    3  502    0 -0.12158240944E+03  0.15630195576E+03  0.27867694858E+03  0.34186755525E+03  0.25500000920E-02 0.  1.
       -2    1    3    3    0  502  0.12158240944E+03 -0.15630195576E+03 -0.57080131004E+03  0.60417441125E+03  0.25500000920E-02 0. -1.
</event>
<event>
 5   0  0.2130975E-03  0.8998458E+03  0.7818609E-02  0.9425774E-01
        1   -1    0    0  501    0  0.00000000000E+00  0.00000000000E+00  0.84641069205E+03  0.84641069206E+03  0.50400001928E-02 0.  1.
       -1   -1    0    0    0  501  0.00000000000E+00  0.00000000000E+00 -0.23916358924E+03  0.23916358929E+03  0.50400001928E-02 0. -1.
    10030    2    1    2    0    0  0.00000000000E+00  0.00000000000E+00  0.60724710281E+03  0.10855742814E+04  0.89984580705E+03 0.  0.
        5    1    3    3  502    0  0.31096129286E+02 -0.19020804274E+03  0.79405527575E+03  0.81712418868E+03  0.46999998093E+01 0.  1.
       -5    1    3    3    0  502 -0.31096129286E+02  0.19020804274E+03 -0.18680817295E+03  0.26845009267E+03  0.46999998093E+01 0. -1.
</event>
<event>
 5   0  0.3626546E-03  0.9000969E+03  0.7818609E-02  0.9425460E-01
        2   -1    0    0  501    0  0.00000000000E+00  0.00000000000E+00  0.80630570879E+03  0.80630570880E+03  0.25500000920E-02 0.  1.
       -2   -1    0    0    0  501  0.00000000000E+00  0.00000000000E+00 -0.25119950489E+03  0.25119950490E+03  0.25500000920E-02 0. -1.
    10030    2    1    2    0    0  0.00000000000E+00  0.00000000000E+00  0.55510620391E+03  0.10575052137E+04  0.90009687222E+03 0.  0.
        3    1    3    3  502    0  0.28635958170E+02  0.44809447076E+03  0.24162960630E+03  0.50989562624E+03  0.10100000352E+00 0.  1.
       -3    1    3    3    0  502 -0.28635958170E+02 -0.44809447076E+03  0.31347659761E+03  0.54760958745E+03  0.10100000352E+00 0. -1.
</event>
<event>
 5   0  0.3663255E-03  0.9013157E+03  0.7818609E-02  0.9423938E-01
        2   -1    0    0  501    0  0.00000000000E+00  0.00000000000E+00  0.23846227770E+03  0.23846227772E+03  0.25500000920E-02 0.  1.
       -2   -1    0    0    0  501  0.00000000000E+00  0.00000000000E+00 -0.85167557390E+03  0.85167557391E+03  0.25500000920E-02 0. -1.
    10030    2    1    2    0    0  0.00000000000E+00  0.00000000000E+00 -0.61321329620E+03  0.10901378516E+04  0.90131569880E+03 0.  0.
        4    1    3    3  502    0 -0.39254500416E+03 -0.19864774126E+03 -0.42473163398E+03  0.61151539572E+03  0.12699999809E+01 0. -1.
       -4    1    3    3    0  502  0.39254500416E+03  0.19864774126E+03 -0.18848166222E+03  0.47862245590E+03  0.12699999809E+01 0.  1.
</event>
<event>
 5   0  0.3815269E-03  0.8918086E+03  0.7818609E-02  0.9435879E-01
        2   -1    0    0  501    0  0.00000000000E+00  0.00000000000E+00  0.62699127851E+03  0.62699127852E+03  0.25500000920E-02 0.  1.
       -2   -1    0    0    0  501  0.00000000000E+00  0.00000000000E+00 -0.31711867970E+03  0.31711867971E+03  0.25500000920E-02 0. -1.
    10030    2    1    2    0    0  0.00000000000E+00  0.00000000000E+00  0.30987259881E+03  0.94410995823E+03  0.89180860376E+03 0.  0.
        5    1    3    3  502    0  0.34597301553E+03  0.23182584997E+03 -0.13677871511E+02  0.41671300239E+03  0.46999998093E+01 0. -1.
       -5    1    3    3    0  502 -0.34597301553E+03 -0.23182584997E+03  0.32355047032E+03  0.52739695585E+03  0.46999998093E+01 0.  1.
</event>
<event>
 5   0  0.2074970E-03  0.8961248E+03  0.7818609E-02  0.9430439E-01
        1   -1    0    0  501    0  0.00000000000E+00  0.00000000000E+00  0.11680546626E+04  0.11680546626E+04  0.50400001928E-02 0.  1.
       -1   -1    0    0    0  501  0.00000000000E+00  0.00000000000E+00 -0.17187543963E+03  0.17187543970E+03  0.50400001928E-02 0. -1.
    10030    2    1    2    0    0  0.00000000000E+00  0.00000000000E+00  0.99617922298E+03  0.13399301023E+04  0.89612478751E+03 0.  0.
        2    1    3    3  502    0  0.30310216493E+02  0.12532761883E+03  0.11397140073E+04  0.11469846292E+04  0.25500000920E-02 0.  1.
       -2    1    3    3    0  502 -0.30310216493E+02 -0.12532761883E+03 -0.14353478432E+03  0.19294547308E+03  0.25500000920E-02 0. -1.
</event>
<event>
 5   0  0.1436000E-03  0.8995280E+03  0.7818609E-02  0.9426172E-01
       -4   -1    0    0    0  501  0.00000000000E+00  0.00000000000E+00  0.26064421411E+03  0.26064730816E+03  0.12699999809E+01 0.  1.
        4   -1    0    0  501    0  0.00000000000E+00  0.00000000000E+00 -0.77609827803E+03  0.77609931714E+03  0.12699999809E+01 0. -1.
    10030    2    1    2    0    0  0.00000000000E+00  0.00000000000E+00 -0.51545406392E+03  0.10367466253E+04  0.89952802795E+03 0.  0.
        3    1    3    3  502    0 -0.17536978457E+03 -0.25897965220E+03 -0.63023744877E+03  0.70357961428E+03  0.10100000352E+00 0. -1.
       -3    1    3    3    0  502  0.17536978457E+03  0.25897965220E+03  0.11478338485E+03  0.33316701102E+03  0.10100000352E+00 0.  1.
</event>
<event>
 5   0  0.1436000E-03  0.9004730E+03  0.7818609E-02  0.9424990E-01
        3   -1    0    0  501    0  0.00000000000E+00  0.00000000000E+00  0.36985909177E+03  0.36985910556E+03  0.10100000352E+00 0.  1.
       -3   -1    0    0    0  501  0.00000000000E+00  0.00000000000E+00 -0.54808143275E+03  0.54808144205E+03  0.10100000352E+00 0. -1.
    10030    2    1    2    0    0  0.00000000000E+00  0.00000000000E+00 -0.17822234097E+03  0.91794054762E+03  0.90047301244E+03 0.  0.
        2    1    3    3  502    0 -0.72295222774E+02 -0.44153970011E+03 -0.37846432551E+02  0.44901699129E+03  0.25500000920E-02 0.  1.
       -2    1    3    3    0  502  0.72295222774E+02  0.44153970011E+03 -0.14037590842E+03  0.46892355633E+03  0.25500000920E-02 0. -1.
</event>
<event>
 5   0  0.2130975E-03  0.9014568E+03  0.7818609E-02  0.9423762E-01
       -1   -1    0    0    0  501  0.00000000000E+00  0.00000000000E+00  0.10051994891E+03  0.10051994903E+03  0.50400001928E-02 0.  1.
        1   -1    0    0  501    0  0.00000000000E+00  0.00000000000E+00 -0.20210524796E+04  0.20210524796E+04  0.50400001928E-02 0. -1.
    10030    2    1    2    0    0  0.00000000000E+00  0.00000000000E+00 -0.19205325307E+04  0.21215724286E+04  0.90145680346E+03 0.  0.
        5    1    3    3  502    0  0.18876583940E+03 -0.20612226279E+03 -0.12813061001E+03  0.30750361390E+03  0.46999998093E+01 0.  1.
       -5    1    3    3    0  502 -0.18876583940E+03  0.20612226279E+03 -0.17924019207E+04  0.18140688147E+04  0.46999998093E+01 0. -1.
</event>
<event>
 5   0  0.2295158E-03  0.8947383E+03  0.7818609E-02  0.9432183E-01
       -1   -1    0    0    0  501  0.00000000000E+00  0.00000000000E+00  0.70727687307E+03  0.70727687309E+03  0.50400001928E-02 0. -1.
        1   -1    0    0  501    0  0.00000000000E+00  0.00000000000E+00 -0.28297143617E+03  0.28297143621E+03  0.50400001928E-02 0.  1.
    10030    2    1    2    0    0  0.00000000000E+00  0.00000000000E+00  0.42430543691E+03  0.99024830931E+03  0.89473829151E+03 0.  0.
        4    1    3    3  502    0  0.33338111157E+03  0.18939171186E+03 -0.42940552442E+02  0.38582080039E+03  0.12699999809E+01 0.  1.
       -4    1    3    3    0  502 -0.33338111157E+03 -0.18939171186E+03  0.46724598935E+03  0.60442750891E+03  0.12699999809E+01 0. -1.
</event>
<event>
 5   0  0.2134145E-03  0.9006055E+03  0.7818609E-02  0.9424825E-01
        1   -1    0    0  501    0  0.00000000000E+00  0.00000000000E+00  0.25515276627E+03  0.25515276632E+03  0.50400001928E-02 0. -1.
       -1   -1    0    0    0  501  0.00000000000E+00  0.00000000000E+00 -0.79471049411E+03  0.79471049413E+03  0.50400001928E-02 0.  1.
    10030    2    1    2    0    0  0.00000000000E+00  0.00000000000E+00 -0.53955772784E+03  0.10498632605E+04  0.90060553184E+03 0.  0.
        1    1    3    3  502    0 -0.25014941012E+03  0.36422884961E+03 -0.37097070143E+03  0.57693729609E+03  0.50400001928E-02 0. -1.
       -1    1    3    3    0  502  0.25014941012E+03 -0.36422884961E+03 -0.16858702642E+03  0.47292596437E+03  0.50400001928E-02 0.  1.
</event>
<event>
 5   0  0.3663255E-03  0.8988507E+03  0.7818609E-02  0.9427019E-01
       -2   -1    0    0    0  501  0.00000000000E+00  0.00000000000E+00  0.12498706808E+03  0.12498706811E+03  0.25500000920E-02 0.  1.
        2   -1    0    0  501    0  0.00000000000E+00  0.00000000000E+00 -0.16160322212E+04  0.16160322212E+04  0.25500000920E-02 0. -1.
    10030    2    1    2    0    0  0.00000000000E+00  0.00000000000E+00 -0.14910451532E+04  0.17410192893E+04  0.89885066453E+03 0.  0.
        4    1    3    3  502    0 -0.88767052626E+02  0.78514313774E+02 -0.15852197282E+04  0.15896437610E+04  0.12699999809E+01 0. -1.
       -4    1    3    3    0  502  0.88767052626E+02 -0.78514313774E+02  0.94174575083E+02  0.15137552838E+03  0.12699999809E+01 0.  1.
</event>
<event>
 5   0  0.3815269E-03  0.8975110E+03  0.7818609E-02  0.9428698E-01
       -2   -1    0    0    0  501  0.00000000000E+00  0.00000000000E+00  0.23811555114E+03  0.23811555115E+03  0.25500000920E-02 0. -1.
        2   -1    0    0  501    0  0.00000000000E+00  0.00000000000E+00 -0.84573009378E+03  0.84573009378E+03  0.25500000920E-02 0.  1.
    10030    2    1    2    0    0  0.00000000000E+00  0.00000000000E+00 -0.60761454264E+03  0.10838456449E+04  0.89751097465E+03 0.  0.
        5    1    3    3  502    0  0.40565606438E+03 -0.78064413280E+02 -0.51542740600E+03  0.66055915408E+03  0.46999998093E+01 0.  1.
       -5    1    3    3    0  502 -0.40565606438E+03  0.78064413280E+02 -0.92187136645E+02  0.42328649086E+03  0.46999998093E+01 0. -1.
</event>
<event>
 5   0  0.2130975E-03  0.9004448E+03  0.7818609E-02  0.9425026E-01
        1   -1    0    0  501    0  0.00000000000E+00  0.00000000000E+00  0.16635568798E+04  0.16635568798E+04  0.50400001928E-02 0. -1.
       -1   -1    0    0    0  501  0.00000000000E+00  0.00000000000E+00 -0.12184748715E+03  0.12184748725E+03  0.50400001928E-02 0.  1.
    10030    2    1    2    0    0  0.00000000000E+00  0.00000000000E+00  0.15417093927E+04  0.17854043671E+04  0.90044483591E+03 0.  0.
        5    1    3    3  502    0  0.62589583304E+02  0.22926253698E+03  0.15289996173E+04  0.15473657249E+04  0.46999998093E+01 0. -1.
       -5    1    3    3    0  502 -0.62589583304E+02 -0.22926253698E+03  0.12709775388E+02  0.23803864222E+03  0.46999998093E+01 0.  1.
</event>
<event>
 5   0  0.3685879E-03  0.9001941E+03  0.7818609E-02  0.9425339E-01
        2   -1    0    0  501    0  0.00000000000E+00  0.00000000000E+00  0.58086217932E+03  0.58086217932E+03  0.25500000920E-02 0.  1.
       -2   -1    0    0    0  501  0.00000000000E+00  0.00000000000E+00 -0.34877009855E+03  0.34877009856E+03  0.25500000920E-02 0. -1.
    10030    2    1    2    0    0  0.00000000000E+00  0.00000000000E+00  0.23209208077E+03  0.92963227788E+03  0.90019411136E+03 0.  0.
        1    1    3    3  502    0  0.36409247166E+03  0.23512933997E+03 -0.93251123460E+01  0.43351596531E+03  0.50400001928E-02 0. -1.
       -1    1    3    3    0  502 -0.36409247166E+03 -0.23512933997E+03  0.24141719312E+03  0.49611631257E+03  0.50400001928E-02 0.  1.
</event>
<event>
 5   0  0.3806019E-03  0.8987147E+03  0.7818609E-02  0.9427190E-01
        2   -1    0    0  501    0  0.00000000000E+00  0.00000000000E+00  0.68611757919E+03  0.68611757919E+03  0.25500000920E-02 0. -1.
       -2   -1    0    0    0  501  0.00000000000E+00  0.00000000000E+00 -0.29429654494E+03  0.29429654495E+03  0.25500000920E-02 0.  1.
    10030    2    1    2    0    0  0.00000000000E+00  0.00000000000E+00  0.39182103425E+03  0.98041412414E+03  0.89871471109E+03 0.  0.
        2    1    3    3  502    0 -0.11189695667E+03 -0.16438730266E+03  0.63550394797E+03  0.66588991739E+03  0.25500000920E-02 0. -1.
       -2    1    3    3    0  502  0.11189695667E+03  0.16438730266E+03 -0.24368291372E+03  0.31452420675E+03  0.25500000920E-02 0.  1.
</event>
<event>
 5   0  0.3806019E-03  0.9004082E+03  0.7818609E-02  0.9425071E-01
        2   -1    0    0  501    0  0.00000000000E+00  0.00000000000E+00  0.55767744103E+03  0.55767744104E+03  0.25500000920E-02 0.  1.
       -2   -1    0    0    0  501  0.00000000000E+00  0.00000000000E+00 -0.36344260287E+03  0.36344260288E+03  0.25500000920E-02 0. -1.
    10030    2    1    2    0    0  0.00000000000E+00  0.00000000000E+00  0.19423483816E+03  0.92112004392E+03  0.90040822017E+03 0.  0.
        2    1    3    3  502    0 -0.35149418830E+02  0.92124668275E+02 -0.35226067190E+03  0.36580051548E+03  0.25500000920E-02 0. -1.
       -2    1    3    3    0  502  0.35149418830E+02 -0.92124668275E+02  0.54649551006E+03  0.55531952844E+03  0.25500000920E-02 0.  1.
</event>
<event>
 5   0  0.2295158E-03  0.9080345E+03  0.7818609E-02  0.9415593E-01
       -1   -1    0    0    0  501  0.00000000000E+00  0.00000000000E+00  0.73582937701E+03  0.73582937703E+03  0.50400001928E-02 0. -1.
        1   -1    0    0  501    0  0.00000000000E+00  0.00000000000E+00 -0.28013516726E+03  0.28013516730E+03  0.50400001928E-02 0.  1.
    10030    2    1    2    0    0  0.00000000000E+00  0.00000000000E+00  0.45569420976E+03  0.10159645443E+04  0.90803454919E+03 0.  0.
        4    1    3    3  502    0 -0.28850644418E+03 -0.34218860136E+03  0.31306485488E+03  0.54620529428E+03  0.12699999809E+01 0.  1.
       -4    1    3    3    0  502  0.28850644418E+03  0.34218860136E+03  0.14262935487E+03  0.46975925005E+03  0.12699999809E+01 0. -1.
</event>
<event>
 5   0  0.2134145E-03  0.9507013E+03  0.7818609E-02  0.9364331E-01
       -1   -1    0    0    0  501  0.00000000000E+00  0.00000000000E+00  0.59029566252E+03  0.59029566255E+03  0.50400001928E-02 0. -1.
        1   -1    0    0  501    0  0.00000000000E+00  0.00000000000E+00 -0.38278828471E+03  0.38278828475E+03  0.50400001928E-02 0.  1.
    10030    2    1    2    0    0  0.00000000000E+00  0.00000000000E+00  0.20750737781E+03  0.97308394729E+03  0.95070134986E+03 0.  0.
        1    1    3    3  502    0  0.61308546362E+02  0.22766372899E+03 -0.31872146191E+03  0.39645035208E+03  0.50400001928E-02 0.  1.
       -1    1    3    3    0  502 -0.61308546362E+02 -0.22766372899E+03  0.52622883972E+03  0.57663359522E+03  0.50400001928E-02 0. -1.
</event>
<event>
 5   0  0.3815269E-03  0.9087759E+03  0.7818609E-02  0.9414677E-01
       -2   -1    0    0    0  501  0.00000000000E+00  0.00000000000E+00  0.89579507906E+03  0.89579507906E+03  0.25500000920E-02 0. -1.
        2   -1    0    0  501    0  0.00000000000E+00  0.00000000000E+00 -0.23048621044E+03  0.23048621045E+03  0.25500000920E-02 0.  1.
    10030    2    1    2    0    0  0.00000000000E+00  0.00000000000E+00  0.66530886862E+03  0.11262812895E+04  0.90877590881E+03 0.  0.
        5    1    3    3  502    0 -0.14817848646E+03  0.35458855600E+02  0.86316113957E+03  0.87651779056E+03  0.46999998093E+01 0. -1.
       -5    1    3    3    0  502  0.14817848646E+03 -0.35458855600E+02 -0.19785227095E+03  0.24976349896E+03  0.46999998093E+01 0.  1.
</event>
<event>
 5   0  0.2130975E-03  0.9017200E+03  0.7818609E-02  0.9423434E-01
        1   -1    0    0  501    0  0.00000000000E+00  0.00000000000E+00  0.31707481762E+03  0.31707481766E+03  0.50400001928E-02 0. -1.
       -1   -1    0    0    0  501  0.00000000000E+00  0.00000000000E+00 -0.64109385977E+03  0.64109385979E+03  0.50400001928E-02 0.  1.
    10030    2    1    2    0    0  0.00000000000E+00  0.00000000000E+00 -0.32401904215E+03  0.95816867745E+03  0.90171995362E+03 0.  0.
        5    1    3    3  502    0 -0.10678113051E+02 -0.90168661569E+01 -0.64083758481E+03  0.64100719658E+03  0.46999998093E+01 0.  1.
       -5    1    3    3    0  502  0.10678113051E+02  0.90168661569E+01  0.31681854266E+03  0.31716148086E+03  0.46999998093E+01 0. -1.
</event>
<event>
 5   0  0.3806019E-03  0.9001407E+03  0.7818609E-02  0.9425406E-01
        2   -1    0    0  501    0  0.00000000000E+00  0.00000000000E+00  0.21240303888E+03  0.21240303889E+03  0.25500000920E-02 0. -1.
       -2   -1    0    0    0  501  0.00000000000E+00  0.00000000000E+00 -0.95367422493E+03  0.95367422494E+03  0.25500000920E-02 0.  1.
    10030    2    1    2    0    0  0.00000000000E+00  0.00000000000E+00 -0.74127118606E+03  0.11660772638E+04  0.90014066342E+03 0.  0.
        2    1    3    3  502    0  0.16727032105E+03  0.26197610012E+03 -0.79230537681E+03  0.85109261980E+03  0.25500000920E-02 0.  1.
       -2    1    3    3    0  502 -0.16727032105E+03 -0.26197610012E+03  0.51034190756E+02  0.31498464403E+03  0.25500000920E-02 0. -1.
</event>
<event>
 5   0  0.3663255E-03  0.8962846E+03  0.7818609E-02  0.9430238E-01
       -2   -1    0    0    0  501  0.00000000000E+00  0.00000000000E+00  0.60931063645E+02  0.60931063698E+02  0.25500000920E-02 0. -1.
        2   -1    0    0  501    0  0.00000000000E+00  0.00000000000E+00 -0.32960452089E+04  0.32960452089E+04  0.25500000920E-02 0.  1.
    10030    2    1    2    0    0  0.00000000000E+00  0.00000000000E+00 -0.32351141453E+04  0.33569762726E+04  0.89628464339E+03 0.  0.
        4    1    3    3  502    0  0.31664859871E+03 -0.31156355442E+03 -0.13962356163E+04  0.14652009052E+04  0.12699999809E+01 0. -1.
       -4    1    3    3    0  502 -0.31664859871E+03  0.31156355442E+03 -0.18388785290E+04  0.18917753674E+04  0.12699999809E+01 0.  1.
</event>
<event>
 5   0  0.2295158E-03  0.8988459E+03  0.7818609E-02  0.9427025E-01
        1   -1    0    0  501    0  0.00000000000E+00  0.00000000000E+00  0.18154298946E+04  0.18154298946E+04  0.50400001928E-02 0.  1.
       -1   -1    0    0    0  501  0.00000000000E+00  0.00000000000E+00 -0.11125794388E+03  0.11125794399E+03  0.50400001928E-02 0. -1.
    10030    2    1    2    0    0  0.00000000000E+00  0.00000000000E+00  0.17041719507E+04  0.19266878386E+04  0.89884592104E+03 0.  0.
        4    1    3    3  502    0 -0.35904213531E+03 -0.82359049920E+02  0.14039525825E+04  0.14514746759E+04  0.12699999809E+01 0.  1.
       -4    1    3    3    0  502  0.35904213531E+03  0.82359049920E+02  0.30021936823E+03  0.47521316269E+03  0.12699999809E+01 0. -1.
</event>
<event>
 5   0  0.3815269E-03  0.8993634E+03  0.7818609E-02  0.9426378E-01
        2   -1    0    0  501    0  0.00000000000E+00  0.00000000000E+00  0.30429883920E+03  0.30429883921E+03  0.25500000920E-02 0. -1.
       -2   -1    0    0    0  501  0.00000000000E+00  0.00000000000E+00 -0.66452311736E+03  0.66452311736E+03  0.25500000920E-02 0.  1.
    10030    2    1    2    0    0  0.00000000000E+00  0.00000000000E+00 -0.36022427816E+03  0.96882195657E+03  0.89936335981E+03 0.  0.
        5    1    3    3  502    0 -0.11933453635E+03  0.15125424551E+03  0.25755781348E+03  0.32167793775E+03  0.46999998093E+01 0. -1.
       -5    1    3    3    0  502  0.11933453635E+03 -0.15125424551E+03 -0.61778209164E+03  0.64714401882E+03  0.46999998093E+01 0.  1.
</event>
<event>
 5   0  0.3626546E-03  0.8969271E+03  0.7818609E-02  0.9429431E-01
       -2   -1    0    0    0  501  0.00000000000E+00  0.00000000000E+00  0.20906332803E+03  0.20906332805E+03  0.25500000920E-02 0.  1.
        2   -1    0    0  501    0  0.00000000000E+00  0.00000000000E+00 -0.96200295458E+03  0.96200295459E+03  0.25500000920E-02 0. -1.
    10030    2    1    2    0    0  0.00000000000E+00  0.00000000000E+00 -0.75293962655E+03  0.11710662826E+04  0.89692706342E+03 0.  0.
        3    1    3    3  502    0 -0.41455911032E+03 -0.10506714699E+03 -0.55271304659E+03  0.69884911347E+03  0.10100000352E+00 0. -1.
       -3    1    3    3    0  502  0.41455911032E+03  0.10506714699E+03 -0.20022657996E+03  0.47221716916E+03  0.10100000352E+00 0.  1.
</event>
<event>
 5   0  0.3663255E-03  0.9073295E+03  0.7818609E-02  0.9416465E-01
        2   -1    0    0  501    0  0.00000000000E+00  0.00000000000E+00  0.11802565990E+04  0.11802565990E+04  0.25500000920E-02 0. -1.
       -2   -1    0    0    0  501  0.00000000000E+00  0.00000000000E+00 -0.17437876528E+03  0.17437876530E+03  0.25500000920E-02 0.  1.
    10030    2    1    2    0    0  0.00000000000E+00  0.00000000000E+00  0.10058778337E+04  0.13546353643E+04  0.90732946266E+03 0.  0.
        4    1    3    3  502    0 -0.45295740271E+03  0.24934480820E+02  0.49661551033E+03  0.67262226770E+03  0.12699999809E+01 0. -1.
       -4    1    3    3    0  502  0.45295740271E+03 -0.24934480820E+02  0.50926232335E+03  0.68201309656E+03  0.12699999809E+01 0.  1.
</event>
<event>
 5   0  0.2074970E-03  0.8929684E+03  0.7818609E-02  0.9434414E-01
        1   -1    0    0  501    0  0.00000000000E+00  0.00000000000E+00  0.27207748043E+03  0.27207748047E+03  0.50400001928E-02 0. -1.
       -1   -1    0    0    0  501  0.00000000000E+00  0.00000000000E+00 -0.73268891325E+03  0.73268891327E+03  0.50400001928E-02 0.  1.
    10030    2    1    2    0    0  0.00000000000E+00  0.00000000000E+00 -0.46061143283E+03  0.10047663937E+04  0.89296842830E+03 0.  0.
        2    1    3    3  502    0  0.28527708338E+03  0.26831025691E+03  0.10956138283E+02  0.39178239526E+03  0.25500000920E-02 0. -1.
       -2    1    3    3    0  502 -0.28527708338E+03 -0.26831025691E+03 -0.47156757111E+03  0.61298399848E+03  0.25500000920E-02 0.  1.
</event>
<event>
 5   0  0.3815269E-03  0.8943881E+03  0.7818609E-02  0.9432624E-01
        2   -1    0    0  501    0  0.00000000000E+00  0.00000000000E+00  0.11345443855E+04  0.11345443855E+04  0.25500000920E-02 0. -1.
       -2   -1    0    0    0  501  0.00000000000E+00  0.00000000000E+00 -0.17626680159E+03  0.17626680161E+03  0.25500000920E-02 0.  1.
    10030    2    1    2    0    0  0.00000000000E+00  0.00000000000E+00  0.95827758387E+03  0.13108111871E+04  0.89438808154E+03 0.  0.
        5    1    3    3  502    0 -0.40601284694E+03  0.10997873002E+03  0.70149754125E+03  0.81796249505E+03  0.46999998093E+01 0. -1.
       -5    1    3    3    0  502  0.40601284694E+03 -0.10997873002E+03  0.25678004262E+03  0.49284869201E+03  0.46999998093E+01 0.  1.
</event>
<event>
 5   0  0.2129280E-03  0.9016535E+03  0.7818609E-02  0.9423517E-01
        1   -1    0    0  501    0  0.00000000000E+00  0.00000000000E+00  0.53761265231E+03  0.53761265233E+03  0.50400001928E-02 0. -1.
       -1   -1    0    0    0  501  0.00000000000E+00  0.00000000000E+00 -0.37805053737E+03  0.37805053740E+03  0.50400001928E-02 0.  1.
    10030    2    1    2    0    0  0.00000000000E+00  0.00000000000E+00  0.15956211494E+03  0.91566318973E+03  0.90165348583E+03 0.  0.
        3    1    3    3  502    0  0.37004306875E+03  0.13582451560E+03 -0.14239802614E+03  0.41911499593E+03  0.10100000352E+00 0.  1.
       -3    1    3    3    0  502 -0.37004306875E+03 -0.13582451560E+03  0.30196014107E+03  0.49654819380E+03  0.10100000352E+00 0. -1.
</event>
<event>
 5   0  0.3663255E-03  0.9021265E+03  0.7818609E-02  0.9422927E-01
       -2   -1    0    0    0  501  0.00000000000E+00  0.00000000000E+00  0.82009710203E+02  0.82009710243E+02  0.25500000920E-02 0. -1.
        2   -1    0    0  501    0  0.00000000000E+00  0.00000000000E+00 -0.24809018683E+04  0.24809018683E+04  0.25500000920E-02 0.  1.
    10030    2    1    2    0    0  0.00000000000E+00  0.00000000000E+00 -0.23988921581E+04  0.25629115786E+04  0.90212647299E+03 0.  0.
        4    1    3    3  502    0  0.11686364524E+03 -0.18518232406E+03 -0.79129084866E+02  0.23283605755E+03  0.12699999809E+01 0. -1.
       -4    1    3    3    0  502 -0.11686364524E+03  0.18518232406E+03 -0.23197630732E+04  0.23300755210E+04  0.12699999809E+01 0.  1.
</event>
<event>
 5   0  0.2134145E-03  0.8920053E+03  0.7818609E-02  0.9435631E-01
       -1   -1    0    0    0  501  0.00000000000E+00  0.00000000000E+00  0.50842280490E+03  0.50842280492E+03  0.50400001928E-02 0.  1.
        1   -1    0    0  501    0  0.00000000000E+00  0.00000000000E+00 -0.39124595695E+03  0.39124595699E+03  0.50400001928E-02 0. -1.
    10030    2    1    2    0    0  0.00000000000E+00  0.00000000000E+00  0.11717684794E+03  0.89966876191E+03  0.89200530686E+03 0.  0.
        1    1    3    3  502    0  0.21070666957E+03 -0.16581667666E+03  0.41805733545E+03  0.49665320557E+03  0.50400001928E-02 0.  1.
       -1    1    3    3    0  502 -0.21070666957E+03  0.16581667666E+03 -0.30088048750E+03  0.40301555633E+03  0.50400001928E-02 0. -1.
</event>
<event>
 5   0  0.3815269E-03  0.8898238E+03  0.7818609E-02  0.9438392E-01
        2   -1    0    0  501    0  0.00000000000E+00  0.00000000000E+00  0.79756326816E+03  0.79756326816E+03  0.25500000920E-02 0.  1.
       -2   -1    0    0    0  501  0.00000000000E+00  0.00000000000E+00 -0.24818922431E+03  0.24818922432E+03  0.25500000920E-02 0. -1.
    10030    2    1    2    0    0  0.00000000000E+00  0.00000000000E+00  0.54937404385E+03  0.10457524925E+04  0.88982382272E+03 0.  0.
        5    1    3    3  502    0 -0.43858596880E+03  0.41083311566E+02  0.34788285483E+03  0.56132883517E+03  0.46999998093E+01 0.  1.
       -5    1    3    3    0  502  0.43858596880E+03 -0.41083311566E+02  0.20149118902E+03  0.48442365731E+03  0.46999998093E+01 0. -1.
</event>
<event>
 5   0  0.2130975E-03  0.8952719E+03  0.7818609E-02  0.9431511E-01
        1   -1    0    0  501    0  0.00000000000E+00  0.00000000000E+00  0.97393762983E+03  0.97393762984E+03  0.50400001928E-02 0.  1.
       -1   -1    0    0    0  501  0.00000000000E+00  0.00000000000E+00 -0.20574003862E+03  0.20574003868E+03  0.50400001928E-02 0. -1.
    10030    2    1    2    0    0  0.00000000000E+00  0.00000000000E+00  0.76819759121E+03  0.11796776685E+04  0.89527194889E+03 0.  0.
        5    1    3    3  502    0 -0.19573934330E+03 -0.34707694651E+03  0.11541070239E+03  0.41487108544E+03  0.46999998093E+01 0. -1.
       -5    1    3    3    0  502  0.19573934330E+03  0.34707694651E+03  0.65278688882E+03  0.76480658308E+03  0.46999998093E+01 0.  1.
</event>
<event>
 5   0  0.2130975E-03  0.9004606E+03  0.7818609E-02  0.9425006E-01
        1   -1    0    0  501    0  0.00000000000E+00  0.00000000000E+00  0.37977908170E+03  0.37977908174E+03  0.50400001928E-02 0.  1.
       -1   -1    0    0    0  501  0.00000000000E+00  0.00000000000E+00 -0.53375066829E+03  0.53375066831E+03  0.50400001928E-02 0. -1.
    10030    2    1    2    0    0  0.00000000000E+00  0.00000000000E+00 -0.15397158659E+03  0.91352975005E+03  0.90046063476E+03 0.  0.
        5    1    3    3  502    0 -0.16435992931E+03 -0.34742126103E+03  0.16087287018E+03  0.41667480046E+03  0.46999998093E+01 0.  1.
       -5    1    3    3    0  502  0.16435992931E+03  0.34742126103E+03 -0.31484445677E+03  0.49685494959E+03  0.46999998093E+01 0. -1.
</event>
<event>
 5   0  0.3815269E-03  0.8995064E+03  0.7818609E-02  0.9426199E-01
       -2   -1    0    0    0  501  0.00000000000E+00  0.00000000000E+00  0.25801402430E+03  0.25801402431E+03  0.25500000920E-02 0.  1.
        2   -1    0    0  501    0  0.00000000000E+00  0.00000000000E+00 -0.78398034523E+03  0.78398034523E+03  0.25500000920E-02 0. -1.
    10030    2    1    2    0    0  0.00000000000E+00  0.00000000000E+00 -0.52596632093E+03  0.10419943695E+04  0.89950636207E+03 0.  0.
        5    1    3    3  502    0  0.42904390717E+03 -0.39912359876E+02 -0.41216223651E+03  0.59629813848E+03  0.46999998093E+01 0.  1.
       -5    1    3    3    0  502 -0.42904390717E+03  0.39912359876E+02 -0.11380408442E+03  0.44569623106E+03  0.46999998093E+01 0. -1.
</event>
<event>
 5   0  0.2295158E-03  0.9015749E+03  0.7818609E-02  0.9423615E-01
        1   -1    0    0  501    0  0.00000000000E+00  0.00000000000E+00  0.86840096853E+03  0.86840096855E+03  0.50400001928E-02 0.  1.
       -1   -1    0    0    0  501  0.00000000000E+00  0.00000000000E+00 -0.23400402102E+03  0.23400402108E+03  0.50400001928E-02 0. -1.
    10030    2    1    2    0    0  0.00000000000E+00  0.00000000000E+00  0.63439694751E+03  0.11024049896E+04  0.90157488549E+03 0.  0.
        4    1    3    3  502    0 -0.56616926333E+02 -0.27935716210E+03 -0.10982454554E+03  0.30546512742E+03  0.12699999809E+01 0. -1.
       -4    1    3    3    0  502  0.56616926333E+02  0.27935716210E+03  0.74422149305E+03  0.79693986221E+03  0.12699999809E+01 0.  1.
</event>
<event>
 5   0  0.2295158E-03  0.9206070E+03  0.7818609E-02  0.9400182E-01
       -1   -1    0    0    0  501  0.00000000000E+00  0.00000000000E+00  0.33740621385E+03  0.33740621389E+03  0.50400001928E-02 0.  1.
        1   -1    0    0  501    0  0.00000000000E+00  0.00000000000E+00 -0.62796512407E+03  0.62796512409E+03  0.50400001928E-02 0. -1.
    10030    2    1    2    0    0  0.00000000000E+00  0.00000000000E+00 -0.29055891022E+03  0.96537133798E+03  0.92060704966E+03 0.  0.
        4    1    3    3  502    0 -0.24769224236E+03  0.14732312280E+03 -0.52164981462E+03  0.59596618312E+03  0.12699999809E+01 0. -1.
       -4    1    3    3    0  502  0.24769224236E+03 -0.14732312280E+03  0.23109090440E+03  0.36940515485E+03  0.12699999809E+01 0.  1.
</event>
<event>
 5   0  0.2130975E-03  0.8799519E+03  0.7818609E-02  0.9450995E-01
       -1   -1    0    0    0  501  0.00000000000E+00  0.00000000000E+00  0.13435864377E+03  0.13435864386E+03  0.50400001928E-02 0.  1.
        1   -1    0    0  501    0  0.00000000000E+00  0.00000000000E+00 -0.14407621523E+04  0.14407621523E+04  0.50400001928E-02 0. -1.
    10030    2    1    2    0    0  0.00000000000E+00  0.00000000000E+00 -0.13064035086E+04  0.15751207962E+04  0.87995192792E+03 0.  0.
        5    1    3    3  502    0 -0.14511099930E+03  0.96548805391E+01  0.90042455558E+02  0.17111444310E+03  0.46999998093E+01 0.  1.
       -5    1    3    3    0  502  0.14511099930E+03 -0.96548805391E+01 -0.13964459641E+04  0.14040063531E+04  0.46999998093E+01 0. -1.
</event>
<event>
 5   0  0.2074970E-03  0.9008161E+03  0.7818609E-02  0.9424562E-01
        1   -1    0    0  501    0  0.00000000000E+00  0.00000000000E+00  0.14941110579E+04  0.14941110579E+04  0.50400001928E-02 0.  1.
       -1   -1    0    0    0  501  0.00000000000E+00  0.00000000000E+00 -0.13577799302E+03  0.13577799311E+03  0.50400001928E-02 0. -1.
    10030    2    1    2    0    0  0.00000000000E+00  0.00000000000E+00  0.13583330649E+04  0.16298890511E+04  0.90081607639E+03 0.  0.
        2    1    3    3  502    0  0.50655083549E+02  0.39013258132E+03  0.28235382700E+03  0.48424482663E+03  0.25500000920E-02 0. -1.
       -2    1    3    3    0  502 -0.50655083549E+02 -0.39013258132E+03  0.10759792379E+04  0.11456442244E+04  0.25500000920E-02 0.  1.
</event>
<event>
 5   0  0.2295158E-03  0.9015825E+03  0.7818609E-02  0.9423605E-01
        1   -1    0    0  501    0  0.00000000000E+00  0.00000000000E+00  0.11505188246E+04  0.11505188246E+04  0.50400001928E-02 0. -1.
       -1   -1    0    0    0  501  0.00000000000E+00  0.00000000000E+00 -0.17662704291E+03  0.17662704298E+03  0.50400001928E-02 0.  1.
    10030    2    1    2    0    0  0.00000000000E+00  0.00000000000E+00  0.97389178170E+03  0.13271458676E+04  0.90158247068E+03 0.  0.
        4    1    3    3  502    0  0.42357455360E+02  0.43583436824E+03  0.64456443814E+03  0.77923724139E+03  0.12699999809E+01 0. -1.
       -4    1    3    3    0  502 -0.42357455360E+02 -0.43583436824E+03  0.32932734356E+03  0.54790862621E+03  0.12699999809E+01 0.  1.
</event>
<event>
 5   0  0.2295158E-03  0.8958355E+03  0.7818609E-02  0.9430802E-01
        1   -1    0    0  501    0  0.00000000000E+00  0.00000000000E+00  0.61207799487E+03  0.61207799489E+03  0.50400001928E-02 0.  1.
       -1   -1    0    0    0  501  0.00000000000E+00  0.00000000000E+00 -0.32778555357E+03  0.32778555361E+03  0.50400001928E-02 0. -1.
    10030    2    1    2    0    0  0.00000000000E+00  0.00000000000E+00  0.28429244129E+03  0.93986354850E+03  0.89583553046E+03 0.  0.
        4    1    3    3  502    0 -0.99867159862E+02  0.35261783185E+03  0.41232139718E+03  0.55165508466E+03  0.12699999809E+01 0.  1.
       -4    1    3    3    0  502  0.99867159862E+02 -0.35261783185E+03 -0.12802895589E+03  0.38820846385E+03  0.12699999809E+01 0. -1.
</event>
<event>
 5   0  0.2134145E-03  0.9007757E+03  0.7818609E-02  0.9424612E-01
        1   -1    0    0  501    0  0.00000000000E+00  0.00000000000E+00  0.10443975105E+04  0.10443975105E+04  0.50400001928E-02 0. -1.
       -1   -1    0    0    0  501  0.00000000000E+00  0.00000000000E+00 -0.19422608215E+03  0.19422608221E+03  0.50400001928E-02 0.  1.
    10030    2    1    2    0    0  0.00000000000E+00  0.00000000000E+00  0.85017142834E+03  0.12386235927E+04  0.90077574727E+03 0.  0.
        1    1    3    3  502    0 -0.23327143478E+03  0.27213684393E+03  0.50080960147E+02  0.36191452955E+03  0.50400001928E-02 0.  1.
       -1    1    3    3    0  502  0.23327143478E+03 -0.27213684393E+03  0.80009046820E+03  0.87670906316E+03  0.50400001928E-02 0. -1.
</event>
<event>
 5   0  0.3806019E-03  0.9011664E+03  0.7818609E-02  0.9424124E-01
        2   -1    0    0  501    0  0.00000000000E+00  0.00000000000E+00  0.10084061419E+04  0.10084061419E+04  0.25500000920E-02 0. -1.
       -2   -1    0    0    0  501  0.00000000000E+00  0.00000000000E+00 -0.20133280564E+03  0.20133280566E+03  0.25500000920E-02 0.  1.
    10030    2    1    2    0    0  0.00000000000E+00  0.00000000000E+00  0.80707333624E+03  0.12097389475E+04  0.90116643919E+03 0.  0.
        2    1    3    3  502    0 -0.32800336091E+03  0.71701790301E+02  0.14637304799E+00  0.33574897309E+03  0.25500000920E-02 0.  1.
       -2    1    3    3    0  502  0.32800336091E+03 -0.71701790301E+02  0.80692696319E+03  0.87398997444E+03  0.25500000920E-02 0. -1.
</event>
<event>
 5   0  0.2134145E-03  0.9003777E+03  0.7818609E-02  0.9425109E-01
       -1   -1    0    0    0  501  0.00000000000E+00  0.00000000000E+00  0.25471475659E+03  0.25471475664E+03  0.50400001928E-02 0.  1.
        1   -1    0    0  501    0  0.00000000000E+00  0.00000000000E+00 -0.79567436866E+03  0.79567436868E+03  0.50400001928E-02 0. -1.
    10030    2    1    2    0    0  0.00000000000E+00  0.00000000000E+00 -0.54095961207E+03  0.10503891253E+04  0.90037770558E+03 0.  0.
        1    1    3    3  502    0  0.13025526635E+03 -0.11543014759E+03 -0.75483975983E+03  0.77464418699E+03  0.50400001928E-02 0. -1.
       -1    1    3    3    0  502 -0.13025526635E+03  0.11543014759E+03  0.21388014776E+03  0.27574493833E+03  0.50400001928E-02 0.  1.
</event>
<event>
 5   0  0.2295158E-03  0.8928100E+03  0.7818609E-02  0.9434614E-01
        1   -1    0    0  501    0  0.00000000000E+00  0.00000000000E+00  0.56810824337E+03  0.56810824339E+03  0.50400001928E-02 0.  1.
       -1   -1    0    0    0  501  0.00000000000E+00  0.00000000000E+00 -0.35077367797E+03  0.35077367801E+03  0.50400001928E-02 0. -1.
    10030    2    1    2    0    0  0.00000000000E+00  0.00000000000E+00  0.21733456539E+03  0.91888192140E+03  0.89280998659E+03 0.  0.
        4    1    3    3  502    0  0.76278032668E+02 -0.21450523418E+02  0.56081082394E+03  0.56638225288E+03  0.12699999809E+01 0.  1.
       -4    1    3    3    0  502 -0.76278032668E+02  0.21450523418E+02 -0.34347625855E+03  0.35249966852E+03  0.12699999809E+01 0. -1.
</event>
<event>
 5   0  0.3815269E-03  0.9059837E+03  0.7818609E-02  0.9418132E-01
        2   -1    0    0  501    0  0.00000000000E+00  0.00000000000E+00  0.68499995231E+03  0.68499995231E+03  0.25500000920E-02 0.  1.
       -2   -1    0    0    0  501  0.00000000000E+00  0.00000000000E+00 -0.29956443820E+03  0.29956443821E+03  0.25500000920E-02 0. -1.
    10030    2    1    2    0    0  0.00000000000E+00  0.00000000000E+00  0.38543551411E+03  0.98456439053E+03  0.90598372146E+03 0.  0.
        5    1    3    3  502    0  0.14562784040E+03 -0.19442255922E+03  0.60820312129E+03  0.65493566568E+03  0.46999998093E+01 0.  1.
       -5    1    3    3    0  502 -0.14562784040E+03  0.19442255922E+03 -0.22276760718E+03  0.32962872484E+03  0.46999998093E+01 0. -1.
</event>
<event>
 5   0  0.1436000E-03  0.9009107E+03  0.7818609E-02  0.9424444E-01
        4   -1    0    0  501    0  0.00000000000E+00  0.00000000000E+00  0.27341577273E+03  0.27341872225E+03  0.12699999809E+01 0. -1.
       -4   -1    0    0    0  501  0.00000000000E+00  0.00000000000E+00 -0.74212236991E+03  0.74212345659E+03  0.12699999809E+01 0.  1.
    10030    2    1    2    0    0  0.00000000000E+00  0.00000000000E+00 -0.46870659719E+03  0.10155421788E+04  0.90091067413E+03 0.  0.
        4    1    3    3  502    0  0.35361404095E+03 -0.23168820405E+03 -0.59046398143E+02  0.42686110608E+03  0.12699999809E+01 0. -1.
       -4    1    3    3    0  502 -0.35361404095E+03  0.23168820405E+03 -0.40966019904E+03  0.58868107276E+03  0.12699999809E+01 0.  1.
</event>
<event>
 5   0  0.2129280E-03  0.8984588E+03  0.7818609E-02  0.9427510E-01
       -1   -1    0    0    0  501  0.00000000000E+00  0.00000000000E+00  0.30327941473E+03  0.30327941477E+03  0.50400001928E-02 0. -1.
        1   -1    0    0  501    0  0.00000000000E+00  0.00000000000E+00 -0.66541629360E+03  0.66541629362E+03  0.50400001928E-02 0.  1.
    10030    2    1    2    0    0  0.00000000000E+00  0.00000000000E+00 -0.36213687887E+03  0.96869570839E+03  0.89845882288E+03 0.  0.
        3    1    3    3  502    0 -0.16112328800E+03 -0.12752912821E+03 -0.61177555804E+03  0.64536325902E+03  0.10100000352E+00 0.  1.
       -3    1    3    3    0  502  0.16112328800E+03  0.12752912821E+03  0.24963867917E+03  0.32333244937E+03  0.10100000352E+00 0. -1.
</event>
<event>
 5   0  0.2295158E-03  0.8869409E+03  0.7818609E-02  0.9442055E-01
       -1   -1    0    0    0  501  0.00000000000E+00  0.00000000000E+00  0.22398925958E+03  0.22398925963E+03  0.50400001928E-02 0.  1.
        1   -1    0    0  501    0  0.00000000000E+00  0.00000000000E+00 -0.87801558154E+03  0.87801558155E+03  0.50400001928E-02 0. -1.
    10030    2    1    2    0    0  0.00000000000E+00  0.00000000000E+00 -0.65402632196E+03  0.11020048412E+04  0.88694094515E+03 0.  0.
        4    1    3    3  502    0  0.68843696939E+02  0.40782350450E+03 -0.52582902418E+03  0.66899719058E+03  0.12699999809E+01 0. -1.
       -4    1    3    3    0  502 -0.68843696939E+02 -0.40782350450E+03 -0.12819729778E+03  0.43300765061E+03  0.12699999809E+01 0.  1.
</event>
<event>
 5   0  0.2295158E-03  0.8994616E+03  0.7818609E-02  0.9426255E-01
        1   -1    0    0  501    0  0.00000000000E+00  0.00000000000E+00  0.38923103649E+03  0.38923103652E+03  0.50400001928E-02 0. -1.
       -1   -1    0    0    0  501  0.00000000000E+00  0.00000000000E+00 -0.51963425708E+03  0.51963425710E+03  0.50400001928E-02 0.  1.
    10030    2    1    2    0    0  0.00000000000E+00  0.00000000000E+00 -0.13040322059E+03  0.90886529362E+03  0.89946157340E+03 0.  0.
        4    1    3    3  502    0 -0.24011384525E+03  0.33052887412E+03  0.12478585904E+03  0.42717340604E+03  0.12699999809E+01 0. -1.
       -4    1    3    3    0  502  0.24011384525E+03 -0.33052887412E+03 -0.25518907963E+03  0.48169188759E+03  0.12699999809E+01 0.  1.
</event>
<event>
 5   0  0.3663255E-03  0.9011818E+03  0.7818609E-02  0.9424105E-01
       -2   -1    0    0    0  501  0.00000000000E+00  0.00000000000E+00  0.19029613455E+03  0.19029613456E+03  0.25500000920E-02 0. -1.
        2   -1    0    0  501    0  0.00000000000E+00  0.00000000000E+00 -0.10669273011E+04  0.10669273011E+04  0.25500000920E-02 0.  1.
    10030    2    1    2    0    0  0.00000000000E+00  0.00000000000E+00 -0.87663116652E+03  0.12572234356E+04  0.90118176024E+03 0.  0.
        4    1    3    3  502    0  0.44081634725E+03 -0.67126230956E+02 -0.52878696868E+03  0.69169520313E+03  0.12699999809E+01 0. -1.
       -4    1    3    3    0  502 -0.44081634725E+03  0.67126230956E+02 -0.34784419785E+03  0.56552823251E+03  0.12699999809E+01 0.  1.
</event>
<event>
 5   0  0.1436000E-03  0.9014124E+03  0.7818609E-02  0.9423818E-01
        3   -1    0    0  501    0  0.00000000000E+00  0.00000000000E+00  0.90236411745E+02  0.90236468269E+02  0.10100000352E+00 0. -1.
       -3   -1    0    0    0  501  0.00000000000E+00  0.00000000000E+00 -0.22511534566E+04  0.22511534588E+04  0.10100000352E+00 0.  1.
    10030    2    1    2    0    0  0.00000000000E+00  0.00000000000E+00 -0.21609170448E+04  0.23413899271E+04  0.90141240070E+03 0.  0.
        2    1    3    3  502    0  0.19868019348E+02 -0.25889785824E+03 -0.12357004165E+03  0.28756285295E+03  0.25500000920E-02 0. -1.
       -2    1    3    3    0  502 -0.19868019348E+02  0.25889785824E+03 -0.20373470032E+04  0.20538270741E+04  0.25500000920E-02 0.  1.
</event>
<event>
 5   0  0.2129280E-03  0.9005481E+03  0.7818609E-02  0.9424897E-01
       -1   -1    0    0    0  501  0.00000000000E+00  0.00000000000E+00  0.56776865394E+03  0.56776865396E+03  0.50400001928E-02 0.  1.
        1   -1    0    0  501    0  0.00000000000E+00  0.00000000000E+00 -0.35709387528E+03  0.35709387532E+03  0.50400001928E-02 0. -1.
    10030    2    1    2    0    0  0.00000000000E+00  0.00000000000E+00  0.21067477865E+03  0.92486252927E+03  0.90054807517E+03 0.  0.
        3    1    3    3  502    0  0.83265111284E+02  0.19450167007E+03 -0.30286456153E+03  0.36944679082E+03  0.10100000352E+00 0. -1.
       -3    1    3    3    0  502 -0.83265111284E+02 -0.19450167007E+03  0.51353934018E+03  0.55541573846E+03  0.10100000352E+00 0.  1.
</event>
<event>
 5   0  0.3806019E-03  0.8793267E+03  0.7818609E-02  0.9451799E-01
       -2   -1    0    0    0  501  0.00000000000E+00  0.00000000000E+00  0.97104698299E+02  0.97104698332E+02  0.25500000920E-02 0. -1.
        2   -1    0    0  501    0  0.00000000000E+00  0.00000000000E+00 -0.19906747111E+04  0.19906747111E+04  0.25500000920E-02 0.  1.
    10030    2    1    2    0    0  0.00000000000E+00  0.00000000000E+00 -0.18935700128E+04  0.20877794094E+04  0.87932671349E+03 0.  0.
        2    1    3    3  502    0  0.62316479534E+02  0.42137238142E+03 -0.68815221702E+03  0.80931545224E+03  0.25500000920E-02 0.  1.
       -2    1    3    3    0  502 -0.62316479534E+02 -0.42137238142E+03 -0.12054177958E+04  0.12784639572E+04  0.25500000920E-02 0. -1.
</event>
<event>
 5   0  0.3815269E-03  0.8999239E+03  0.7818609E-02  0.9425676E-01
       -2   -1    0    0    0  501  0.00000000000E+00  0.00000000000E+00  0.14334586145E+03  0.14334586147E+03  0.25500000920E-02 0.  1.
        2   -1    0    0  501    0  0.00000000000E+00  0.00000000000E+00 -0.14124284826E+04  0.14124284826E+04  0.25500000920E-02 0. -1.
    10030    2    1    2    0    0  0.00000000000E+00  0.00000000000E+00 -0.12690826211E+04  0.15557743440E+04  0.89992394699E+03 0.  0.
        5    1    3    3  502    0  0.75375574323E+02  0.11575897887E+03  0.10573789021E+03  0.17402358983E+03  0.46999998093E+01 0.  1.
       -5    1    3    3    0  502 -0.75375574323E+02 -0.11575897887E+03 -0.13748205113E+04  0.13817507542E+04  0.46999998093E+01 0. -1.
</event>
<event>
 5   0  0.3626546E-03  0.8915821E+03  0.7818609E-02  0.9436166E-01
       -2   -1    0    0    0  501  0.00000000000E+00  0.00000000000E+00  0.67969563526E+03  0.67969563527E+03  0.25500000920E-02 0.  1.
        2   -1    0    0  501    0  0.00000000000E+00  0.00000000000E+00 -0.29238036586E+03  0.29238036587E+03  0.25500000920E-02 0. -1.
    10030    2    1    2    0    0  0.00000000000E+00  0.00000000000E+00  0.38731526940E+03  0.97207600114E+03  0.89158209610E+03 0.  0.
        3    1    3    3  502    0  0.41872638336E+03  0.14838996462E+03  0.15318066245E+03  0.46991030130E+03  0.10100000352E+00 0.  1.
       -3    1    3    3    0  502 -0.41872638336E+03 -0.14838996462E+03  0.23413460695E+03  0.50216569984E+03  0.10100000352E+00 0. -1.
</event>
<event>
 5   0  0.2074970E-03  0.8988991E+03  0.7818609E-02  0.9426959E-01
       -1   -1    0    0    0  501  0.00000000000E+00  0.00000000000E+00  0.48631444147E+03  0.48631444150E+03  0.50400001928E-02 0. -1.
        1   -1    0    0  501    0  0.00000000000E+00  0.00000000000E+00 -0.41537918690E+03  0.41537918693E+03  0.50400001928E-02 0.  1.
    10030    2    1    2    0    0  0.00000000000E+00  0.00000000000E+00  0.70935254575E+02  0.90169362843E+03  0.89889909846E+03 0.  0.
        2    1    3    3  502    0  0.33705637004E+03  0.29532180215E+03  0.69968357929E+02  0.45356094908E+03  0.25500000920E-02 0. -1.
       -2    1    3    3    0  502 -0.33705637004E+03 -0.29532180215E+03  0.96689664618E+00  0.44813267935E+03  0.25500000920E-02 0.  1.
</event>
<event>
 5   0  0.3626546E-03  0.8989429E+03  0.7818609E-02  0.9426904E-01
       -2   -1    0    0    0  501  0.00000000000E+00  0.00000000000E+00  0.29124976791E+03  0.29124976792E+03  0.25500000920E-02 0. -1.
        2   -1    0    0  501    0  0.00000000000E+00  0.00000000000E+00 -0.69364725254E+03  0.69364725255E+03  0.25500000920E-02 0.  1.
    10030    2    1    2    0    0  0.00000000000E+00  0.00000000000E+00 -0.40239748463E+03  0.98489702047E+03  0.89894293773E+03 0.  0.
        3    1    3    3  502    0  0.99162651005E+02  0.23484937036E+02 -0.68082347820E+03  0.68840786769E+03  0.10100000352E+00 0.  1.
       -3    1    3    3    0  502 -0.99162651005E+02 -0.23484937036E+02  0.27842599357E+03  0.29648915278E+03  0.10100000352E+00 0. -1.
</event>
<event>
 5   0  0.2130975E-03  0.8980655E+03  0.7818609E-02  0.9428003E-01
        1   -1    0    0  501    0  0.00000000000E+00  0.00000000000E+00  0.24656032522E+03  0.24656032527E+03  0.50400001928E-02 0. -1.
       -1   -1    0    0    0  501  0.00000000000E+00  0.00000000000E+00 -0.81777308568E+03  0.81777308570E+03  0.50400001928E-02 0.  1.
    10030    2    1    2    0    0  0.00000000000E+00  0.00000000000E+00 -0.57121276047E+03  0.10643334110E+04  0.89806547199E+03 0.  0.
        5    1    3    3  502    0 -0.38893990008E+03 -0.22241849829E+03 -0.25076903114E+03  0.51346999058E+03  0.46999998093E+01 0. -1.
       -5    1    3    3    0  502  0.38893990008E+03  0.22241849829E+03 -0.32044372933E+03  0.55086342038E+03  0.46999998093E+01 0.  1.
</event>
<event>
 5   0  0.2129280E-03  0.8906520E+03  0.7818609E-02  0.9437343E-01
       -1   -1    0    0    0  501  0.00000000000E+00  0.00000000000E+00  0.21096765605E+03  0.21096765611E+03  0.50400001928E-02 0.  1.
        1   -1    0    0  501    0  0.00000000000E+00  0.00000000000E+00 -0.94002681117E+03  0.94002681118E+03  0.50400001928E-02 0. -1.
    10030    2    1    2    0    0  0.00000000000E+00  0.00000000000E+00 -0.72905915512E+03  0.11509944673E+04  0.89065201515E+03 0.  0.
        3    1    3    3  502    0 -0.12767586653E+03  0.25514213050E+03 -0.80640850061E+03  0.85539073745E+03  0.10100000352E+00 0. -1.
       -3    1    3    3    0  502  0.12767586653E+03 -0.25514213050E+03  0.77349345491E+02  0.29560372985E+03  0.10100000352E+00 0.  1.
</event>
<event>
 5   0  0.1436000E-03  0.8982739E+03  0.7818609E-02  0.9427742E-01
        3   -1    0    0  501    0  0.00000000000E+00  0.00000000000E+00  0.75782160695E+03  0.75782161368E+03  0.10100000352E+00 0. -1.
       -3   -1    0    0    0  501  0.00000000000E+00  0.00000000000E+00 -0.26618930580E+03  0.26618932496E+03  0.10100000352E+00 0.  1.
    10030    2    1    2    0    0  0.00000000000E+00  0.00000000000E+00  0.49163230115E+03  0.10240109386E+04  0.89827394648E+03 0.  0.
        3    1    3    3  502    0  0.35454402759E+03  0.16647748787E+03 -0.47395989124E+01  0.39171251635E+03  0.10100000352E+00 0. -1.
       -3    1    3    3    0  502 -0.35454402759E+03 -0.16647748787E+03  0.49637190006E+03  0.63229842229E+03  0.10100000352E+00 0.  1.
</event>
<event>
 5   0  0.2295158E-03  0.8988923E+03  0.7818609E-02  0.9426967E-01
        1   -1    0    0  501    0  0.00000000000E+00  0.00000000000E+00  0.40007433683E+03  0.40007433686E+03  0.50400001928E-02 0. -1.
       -1   -1    0    0    0  501  0.00000000000E+00  0.00000000000E+00 -0.50491082179E+03  0.50491082181E+03  0.50400001928E-02 0.  1.
    10030    2    1    2    0    0  0.00000000000E+00  0.00000000000E+00 -0.10483648496E+03  0.90498515868E+03  0.89889234553E+03 0.  0.
        4    1    3    3  502    0  0.39643385410E+03  0.13871683804E+03 -0.21349672674E+03  0.47115244567E+03  0.12699999809E+01 0.  1.
       -4    1    3    3    0  502 -0.39643385410E+03 -0.13871683804E+03  0.10866024178E+03  0.43383271301E+03  0.12699999809E+01 0. -1.
</event>
<event>
 5   0  0.3663255E-03  0.8961406E+03  0.7818609E-02  0.9430419E-01
       -2   -1    0    0    0  501  0.00000000000E+00  0.00000000000E+00  0.33509067079E+03  0.33509067080E+03  0.25500000920E-02 0.  1.
        2   -1    0    0  501    0  0.00000000000E+00  0.00000000000E+00 -0.59914226891E+03  0.59914226891E+03  0.25500000920E-02 0. -1.
    10030    2    1    2    0    0  0.00000000000E+00  0.00000000000E+00 -0.26405159812E+03  0.93423293971E+03  0.89614058003E+03 0.  0.
        4    1    3    3  502    0  0.31697633767E+03  0.11087984237E+03 -0.44127817752E+03  0.55452356212E+03  0.12699999809E+01 0. -1.
       -4    1    3    3    0  502 -0.31697633767E+03 -0.11087984237E+03  0.17722657940E+03  0.37970937759E+03  0.12699999809E+01 0.  1.
</event>
<event>
 5   0  0.2295158E-03  0.8981882E+03  0.7818609E-02  0.9427849E-01
       -1   -1    0    0    0  501  0.00000000000E+00  0.00000000000E+00  0.26498769272E+03  0.26498769276E+03  0.50400001928E-02 0.  1.
        1   -1    0    0  501    0  0.00000000000E+00  0.00000000000E+00 -0.76111280340E+03  0.76111280341E+03  0.50400001928E-02 0. -1.
    10030    2    1    2    0    0  0.00000000000E+00  0.00000000000E+00 -0.49612511068E+03  0.10261004962E+04  0.89818823351E+03 0.  0.
        4    1    3    3  502    0 -0.37881678558E+03  0.20177199008E+03 -0.39905900940E+03  0.58605784604E+03  0.12699999809E+01 0.  1.
       -4    1    3    3    0  502  0.37881678558E+03 -0.20177199008E+03 -0.97066101278E+02  0.44004265014E+03  0.12699999809E+01 0. -1.
</event>
<event>
 5   0  0.1436000E-03  0.8936166E+03  0.7818609E-02  0.9433596E-01
       -4   -1    0    0    0  501  0.00000000000E+00  0.00000000000E+00  0.33297750073E+03  0.33297992266E+03  0.12699999809E+01 0.  1.
        4   -1    0    0  501    0  0.00000000000E+00  0.00000000000E+00 -0.59954770530E+03  0.59954905040E+03  0.12699999809E+01 0. -1.
    10030    2    1    2    0    0  0.00000000000E+00  0.00000000000E+00 -0.26657020457E+03  0.93252897306E+03  0.89361659095E+03 0.  0.
        2    1    3    3  502    0 -0.18105361449E+03  0.15406456662E+03  0.26150233470E+03  0.35341161988E+03  0.25500000920E-02 0.  1.
       -2    1    3    3    0  502  0.18105361449E+03 -0.15406456662E+03 -0.52807253927E+03  0.57911735317E+03  0.25500000920E-02 0. -1.
</event>
<event>
 5   0  0.2129280E-03  0.9001611E+03  0.7818609E-02  0.9425380E-01
        1   -1    0    0  501    0  0.00000000000E+00  0.00000000000E+00  0.28434852624E+03  0.28434852629E+03  0.50400001928E-02 0. -1.
       -1   -1    0    0    0  501  0.00000000000E+00  0.00000000000E+00 -0.71240924702E+03  0.71240924704E+03  0.50400001928E-02 0.  1.
    10030    2    1    2    0    0  0.00000000000E+00  0.00000000000E+00 -0.42806072078E+03  0.99675777333E+03  0.90016114003E+03 0.  0.
        3    1    3    3  502    0  0.74157081327E+02  0.39978408528E+03 -0.32828790548E+00  0.40660386807E+03  0.10100000352E+00 0. -1.
       -3    1    3    3    0  502 -0.74157081327E+02 -0.39978408528E+03 -0.42773243287E+03  0.59015390525E+03  0.10100000352E+00 0.  1.
</event>
<event>
 5   0  0.3806019E-03  0.8997190E+03  0.7818609E-02  0.9425933E-01
       -2   -1    0    0    0  501  0.00000000000E+00  0.00000000000E+00  0.19409639562E+03  0.19409639563E+03  0.25500000920E-02 0.  1.
        2   -1    0    0  501    0  0.00000000000E+00  0.00000000000E+00 -0.10426447512E+04  0.10426447512E+04  0.25500000920E-02 0. -1.
    10030    2    1    2    0    0  0.00000000000E+00  0.00000000000E+00 -0.84854835556E+03  0.12367411468E+04  0.89971904086E+03 0.  0.
        2    1    3    3  502    0 -0.29880828945E+03 -0.33572531489E+03 -0.39763034709E+03  0.60008980481E+03  0.25500000920E-02 0. -1.
       -2    1    3    3    0  502  0.29880828945E+03  0.33572531489E+03 -0.45091800847E+03  0.63665134200E+03  0.25500000920E-02 0.  1.
</event>
<event>
 5   0  0.3663255E-03  0.9003340E+03  0.7818609E-02  0.9425164E-01
        2   -1    0    0  501    0  0.00000000000E+00  0.00000000000E+00  0.68700534370E+03  0.68700534370E+03  0.25500000920E-02 0.  1.
       -2   -1    0    0    0  501  0.00000000000E+00  0.00000000000E+00 -0.29497637221E+03  0.29497637222E+03  0.25500000920E-02 0. -1.
    10030    2    1    2    0    0  0.00000000000E+00  0.00000000000E+00  0.39202897148E+03  0.98198171592E+03  0.90033403575E+03 0.  0.
        4    1    3    3  502    0  0.76118999700E+02 -0.17721512440E+03  0.63965619418E+03  0.66810250866E+03  0.12699999809E+01 0.  1.
       -4    1    3    3    0  502 -0.76118999700E+02  0.17721512440E+03 -0.24762722270E+03  0.31387920726E+03  0.12699999809E+01 0. -1.
</event>
<event>
 5   0  0.3806019E-03  0.8977137E+03  0.7818609E-02  0.9428444E-01
        2   -1    0    0  501    0  0.00000000000E+00  0.00000000000E+00  0.20460795420E+04  0.20460795420E+04  0.25500000920E-02 0.  1.
       -2   -1    0    0    0  501  0.00000000000E+00  0.00000000000E+00 -0.98467559316E+02  0.98467559349E+02  0.25500000920E-02 0. -1.
    10030    2    1    2    0    0  0.00000000000E+00  0.00000000000E+00  0.19476119827E+04  0.21445471014E+04  0.89771367084E+03 0.  0.
        2    1    3    3  502    0 -0.22821277586E+03  0.37358479104E+03  0.12106058961E+04  0.12873279702E+04  0.25500000920E-02 0.  1.
       -2    1    3    3    0  502  0.22821277586E+03 -0.37358479104E+03  0.73700608663E+03  0.85721913120E+03  0.25500000920E-02 0. -1.
</event>
<event>
 5   0  0.2295158E-03  0.9044643E+03  0.7818609E-02  0.9420018E-01
       -1   -1    0    0    0  501  0.00000000000E+00  0.00000000000E+00  0.19083599445E+03  0.19083599451E+03  0.50400001928E-02 0. -1.
        1   -1    0    0  501    0  0.00000000000E+00  0.00000000000E+00 -0.10716736114E+04  0.10716736114E+04  0.50400001928E-02 0.  1.
    10030    2    1    2    0    0  0.00000000000E+00  0.00000000000E+00 -0.88083761690E+03  0.12625096059E+04  0.90446425998E+03 0.  0.
        4    1    3    3  502    0  0.31069640324E+03  0.28129223112E+03 -0.20330783448E+03  0.46582535648E+03  0.12699999809E+01 0. -1.
       -4    1    3    3    0  502 -0.31069640324E+03 -0.28129223112E+03 -0.67752978242E+03  0.79668424940E+03  0.12699999809E+01 0.  1.
</event>
<event>
 5   0  0.3815269E-03  0.8940648E+03  0.7818609E-02  0.9433031E-01
       -2   -1    0    0    0  501  0.00000000000E+00  0.00000000000E+00  0.14267477362E+03  0.14267477364E+03  0.25500000920E-02 0.  1.
        2   -1    0    0  501    0  0.00000000000E+00  0.00000000000E+00 -0.14006539591E+04  0.14006539591E+04  0.25500000920E-02 0. -1.
    10030    2    1    2    0    0  0.00000000000E+00  0.00000000000E+00 -0.12579791854E+04  0.15433287327E+04  0.89406484452E+03 0.  0.
        5    1    3    3  502    0  0.18035696327E+03 -0.33152190230E+02 -0.13326927642E+04  0.13452582635E+04  0.46999998093E+01 0. -1.
       -5    1    3    3    0  502 -0.18035696327E+03  0.33152190230E+02  0.74713578733E+02  0.19807046918E+03  0.46999998093E+01 0.  1.
</event>
<event>
 5   0  0.2074970E-03  0.8992171E+03  0.7818609E-02  0.9426561E-01
        1   -1    0    0  501    0  0.00000000000E+00  0.00000000000E+00  0.15416271430E+04  0.15416271430E+04  0.50400001928E-02 0.  1.
       -1   -1    0    0    0  501  0.00000000000E+00  0.00000000000E+00 -0.13112629176E+03  0.13112629186E+03  0.50400001928E-02 0. -1.
    10030    2    1    2    0    0  0.00000000000E+00  0.00000000000E+00  0.14105008512E+04  0.16727534348E+04  0.89921710533E+03 0.  0.
        2    1    3    3  502    0  0.31981331232E+03  0.99844813792E+02  0.14749586237E+03  0.36606634781E+03  0.25500000920E-02 0. -1.
       -2    1    3    3    0  502 -0.31981331232E+03 -0.99844813792E+02  0.12630049888E+04  0.13066870870E+04  0.25500000920E-02 0.  1.
</event>
<event>
 5   0  0.2134145E-03  0.9044459E+03  0.7818609E-02  0.9420041E-01
       -1   -1    0    0    0  501  0.00000000000E+00  0.00000000000E+00  0.22861391920E+03  0.22861391926E+03  0.50400001928E-02 0.  1.
        1   -1    0    0  501    0  0.00000000000E+00  0.00000000000E+00 -0.89454568617E+03  0.89454568619E+03  0.50400001928E-02 0. -1.
    10030    2    1    2    0    0  0.00000000000E+00  0.00000000000E+00 -0.66593176697E+03  0.11231596054E+04  0.90444589725E+03 0.  0.
        1    1    3    3  502    0 -0.18029566723E+03  0.22457648092E+03 -0.76594028076E+03  0.81829434626E+03  0.50400001928E-02 0. -1.
       -1    1    3    3    0  502  0.18029566723E+03 -0.22457648092E+03  0.10000851379E+03  0.30486525919E+03  0.50400001928E-02 0.  1.
</event>
<event>
 5   0  0.2130975E-03  0.8984491E+03  0.7818609E-02  0.9427522E-01
       -1   -1    0    0    0  501  0.00000000000E+00  0.00000000000E+00  0.19326448017E+03  0.19326448024E+03  0.50400001928E-02 0. -1.
        1   -1    0    0  501    0  0.00000000000E+00  0.00000000000E+00 -0.10441788246E+04  0.10441788246E+04  0.50400001928E-02 0.  1.
    10030    2    1    2    0    0  0.00000000000E+00  0.00000000000E+00 -0.85091434440E+03  0.12374433048E+04  0.89844905873E+03 0.  0.
        5    1    3    3  502    0 -0.96125277669E+02  0.10758998102E+03  0.16045030922E+03  0.21582878573E+03  0.46999998093E+01 0. -1.
       -5    1    3    3    0  502  0.96125277669E+02 -0.10758998102E+03 -0.10113646536E+04  0.10216145191E+04  0.46999998093E+01 0.  1.
</event>
<event>
 5   0  0.2295158E-03  0.9008665E+03  0.7818609E-02  0.9424499E-01
        1   -1    0    0  501    0  0.00000000000E+00  0.00000000000E+00  0.76471117319E+03  0.76471117320E+03  0.50400001928E-02 0. -1.
       -1   -1    0    0    0  501  0.00000000000E+00  0.00000000000E+00 -0.26531602882E+03  0.26531602886E+03  0.50400001928E-02 0.  1.
    10030    2    1    2    0    0  0.00000000000E+00  0.00000000000E+00  0.49939514437E+03  0.10300272021E+04  0.90086654216E+03 0.  0.
        4    1    3    3  502    0  0.34636533772E+02  0.48779764094E+02  0.76014625570E+03  0.76249793299E+03  0.12699999809E+01 0. -1.
       -4    1    3    3    0  502 -0.34636533772E+02 -0.48779764094E+02 -0.26075111133E+03  0.26752926908E+03  0.12699999809E+01 0.  1.
</event>
<event>
 5   0  0.3685879E-03  0.8869591E+03  0.7818609E-02  0.9442032E-01
        2   -1    0    0  501    0  0.00000000000E+00  0.00000000000E+00  0.58878410812E+03  0.58878410813E+03  0.25500000920E-02 0. -1.
       -2   -1    0    0    0  501  0.00000000000E+00  0.00000000000E+00 -0.33403431258E+03  0.33403431259E+03  0.25500000920E-02 0.  1.
    10030    2    1    2    0    0  0.00000000000E+00  0.00000000000E+00  0.25474979554E+03  0.92281842072E+03  0.88695906292E+03 0.  0.
        1    1    3    3  502    0  0.41600223474E+03 -0.15080192477E+03  0.15815148238E+03  0.46990527899E+03  0.50400001928E-02 0. -1.
       -1    1    3    3    0  502 -0.41600223474E+03  0.15080192477E+03  0.96598313158E+02  0.45291314173E+03  0.50400001928E-02 0.  1.
</event>
<event>
 5   0  0.2134145E-03  0.9015504E+03  0.7818609E-02  0.9423645E-01
       -1   -1    0    0    0  501  0.00000000000E+00  0.00000000000E+00  0.34934116876E+03  0.34934116880E+03  0.50400001928E-02 0.  1.
        1   -1    0    0  501    0  0.00000000000E+00  0.00000000000E+00 -0.58166135831E+03  0.58166135833E+03  0.50400001928E-02 0. -1.
    10030    2    1    2    0    0  0.00000000000E+00  0.00000000000E+00 -0.23232018954E+03  0.93100252713E+03  0.90155035082E+03 0.  0.
        1    1    3    3  502    0  0.21690660779E+02 -0.26334906936E+02 -0.58032614185E+03  0.58132817154E+03  0.50400001928E-02 0. -1.
       -1    1    3    3    0  502 -0.21690660779E+02  0.26334906936E+02  0.34800595231E+03  0.34967435559E+03  0.50400001928E-02 0.  1.
</event>
<event>
 5   0  0.3626546E-03  0.8998187E+03  0.7818609E-02  0.9425808E-01
       -2   -1    0    0    0  501  0.00000000000E+00  0.00000000000E+00  0.35249310400E+03  0.35249310401E+03  0.25500000920E-02 0.  1.
        2   -1    0    0  501    0  0.00000000000E+00  0.00000000000E+00 -0.57424789288E+03  0.57424789289E+03  0.25500000920E-02 0. -1.
    10030    2    1    2    0    0  0.00000000000E+00  0.00000000000E+00 -0.22175478888E+03  0.92674099690E+03  0.89981869782E+03 0.  0.
        3    1    3    3  502    0 -0.11315962794E+03 -0.42267855504E+03 -0.21868076558E+03  0.48916617803E+03  0.10100000352E+00 0.  1.
       -3    1    3    3    0  502  0.11315962794E+03  0.42267855504E+03 -0.30740232980E+01  0.43757481887E+03  0.10100000352E+00 0. -1.
</event>
<event>
 5   0  0.3685879E-03  0.9002860E+03  0.7818609E-02  0.9425224E-01
        2   -1    0    0  501    0  0.00000000000E+00  0.00000000000E+00  0.21897420318E+04  0.21897420318E+04  0.25500000920E-02 0.  1.
       -2   -1    0    0    0  501  0.00000000000E+00  0.00000000000E+00 -0.92535431853E+02  0.92535431888E+02  0.25500000920E-02 0. -1.
    10030    2    1    2    0    0  0.00000000000E+00  0.00000000000E+00  0.20972066000E+04  0.22822774637E+04  0.90028600923E+03 0.  0.
        1    1    3    3  502    0  0.31488883898E+03  0.12962705638E+03  0.17949210434E+04  0.18269372476E+04  0.50400001928E-02 0.  1.
       -1    1    3    3    0  502 -0.31488883898E+03 -0.12962705638E+03  0.30228555658E+03  0.45534021611E+03  0.50400001928E-02 0. -1.
</event>
<event>
 5   0  0.3685879E-03  0.9009839E+03  0.7818609E-02  0.9424352E-01
       -2   -1    0    0    0  501  0.00000000000E+00  0.00000000000E+00  0.16936809891E+03  0.16936809893E+03  0.25500000920E-02 0. -1.
        2   -1    0    0  501    0  0.00000000000E+00  0.00000000000E+00 -0.11982363263E+04  0.11982363263E+04  0.25500000920E-02 0.  1.
    10030    2    1    2    0    0  0.00000000000E+00  0.00000000000E+00 -0.10288682274E+04  0.13676044252E+04  0.90098392582E+03 0.  0.
        1    1    3    3  502    0  0.31011120292E+02  0.74715085560E+02  0.15825292987E+03  0.17773019842E+03  0.50400001928E-02 0. -1.
       -1    1    3    3    0  502 -0.31011120292E+02 -0.74715085560E+02 -0.11871211573E+04  0.11898742268E+04  0.50400001928E-02 0.  1.
</event>
<event>
 5   0  0.3815269E-03  0.9028586E+03  0.7818609E-02  0.9422015E-01
        2   -1    0    0  501    0  0.00000000000E+00  0.00000000000E+00  0.65785874263E+03  0.65785874263E+03  0.25500000920E-02 0.  1.
       -2   -1    0    0    0  501  0.00000000000E+00  0.00000000000E+00 -0.30977536523E+03  0.30977536524E+03  0.25500000920E-02 0. -1.
    10030    2    1    2    0    0  0.00000000000E+00  0.00000000000E+00  0.34808337740E+03  0.96763410787E+03  0.90285864292E+03 0.  0.
        5    1    3    3  502    0  0.38622035761E+03 -0.34949525942E+02 -0.73572449616E+02  0.39474375148E+03  0.46999998093E+01 0. -1.
       -5    1    3    3    0  502 -0.38622035761E+03  0.34949525942E+02  0.42165582701E+03  0.57289035639E+03  0.46999998093E+01 0.  1.
</event>
<event>
 5   0  0.2130975E-03  0.9027473E+03  0.7818609E-02  0.9422154E-01
        1   -1    0    0  501    0  0.00000000000E+00  0.00000000000E+00  0.24365860965E+03  0.24365860970E+03  0.50400001928E-02 0.  1.
       -1   -1    0    0    0  501  0.00000000000E+00  0.00000000000E+00 -0.83616249441E+03  0.83616249442E+03  0.50400001928E-02 0. -1.
    10030    2    1    2    0    0  0.00000000000E+00  0.00000000000E+00 -0.59250388475E+03  0.10798211041E+04  0.90274734199E+03 0.  0.
        5    1    3    3  502    0  0.12953214331E+03 -0.34701706047E+03  0.12245018161E+02  0.37063654283E+03  0.46999998093E+01 0.  1.
       -5    1    3    3    0  502 -0.12953214331E+03  0.34701706047E+03 -0.60474890292E+03  0.70918456130E+03  0.46999998093E+01 0. -1.
</event>
<event>
 5   0  0.3626546E-03  0.8980559E+03  0.7818609E-02  0.9428015E-01
       -2   -1    0    0    0  501  0.00000000000E+00  0.00000000000E+00  0.62620178593E+03  0.62620178594E+03  0.25500000920E-02 0. -1.
        2   -1    0    0  501    0  0.00000000000E+00  0.00000000000E+00 -0.32198261915E+03  0.32198261916E+03  0.25500000920E-02 0.  1.
    10030    2    1    2    0    0  0.00000000000E+00  0.00000000000E+00  0.30421916678E+03  0.94818440510E+03  0.89805588058E+03 0.  0.
        3    1    3    3  502    0 -0.41377985246E+03 -0.17410571705E+03  0.14157708436E+03  0.47071291466E+03  0.10100000352E+00 0.  1.
       -3    1    3    3    0  502  0.41377985246E+03  0.17410571705E+03  0.16264208242E+03  0.47747149044E+03  0.10100000352E+00 0. -1.
</event>
<event>
 5   0  0.2074970E-03  0.9007258E+03  0.7818609E-02  0.9424675E-01
       -1   -1    0    0    0  501  0.00000000000E+00  0.00000000000E+00  0.24512231570E+03  0.24512231575E+03  0.50400001928E-02 0. -1.
        1   -1    0    0  501    0  0.00000000000E+00  0.00000000000E+00 -0.82745112142E+03  0.82745112143E+03  0.50400001928E-02 0.  1.
    10030    2    1    2    0    0  0.00000000000E+00  0.00000000000E+00 -0.58232880572E+03  0.10725734372E+04  0.90072578524E+03 0.  0.
        2    1    3    3  502    0 -0.57006165189E+02 -0.86111143306E+02  0.23083269367E+03  0.25288053374E+03  0.25500000920E-02 0. -1.
       -2    1    3    3    0  502  0.57006165189E+02  0.86111143306E+02 -0.81316149939E+03  0.81969290345E+03  0.25500000920E-02 0.  1.
</event>
<event>
 5   0  0.2134145E-03  0.9043464E+03  0.7818609E-02  0.9420165E-01
       -1   -1    0    0    0  501  0.00000000000E+00  0.00000000000E+00  0.80484223812E+03  0.80484223814E+03  0.50400001928E-02 0. -1.
        1   -1    0    0  501    0  0.00000000000E+00  0.00000000000E+00 -0.25403808625E+03  0.25403808630E+03  0.50400001928E-02 0.  1.
    10030    2    1    2    0    0  0.00000000000E+00  0.00000000000E+00  0.55080415188E+03  0.10588803244E+04  0.90434635386E+03 0.  0.
        1    1    3    3  502    0 -0.99770298364E+02  0.20502119084E+03  0.73260420814E+03  0.76726574728E+03  0.50400001928E-02 0. -1.
       -1    1    3    3    0  502  0.99770298364E+02 -0.20502119084E+03 -0.18180005627E+03  0.29161457716E+03  0.50400001928E-02 0.  1.
</event>
<event>
 5   0  0.2129280E-03  0.9038344E+03  0.7818609E-02  0.9420801E-01
        1   -1    0    0  501    0  0.00000000000E+00  0.00000000000E+00  0.12122133193E+04  0.12122133194E+04  0.50400001928E-02 0. -1.
       -1   -1    0    0    0  501  0.00000000000E+00  0.00000000000E+00 -0.16847623931E+03  0.16847623939E+03  0.50400001928E-02 0.  1.
    10030    2    1    2    0    0  0.00000000000E+00  0.00000000000E+00  0.10437370800E+04  0.13806895587E+04  0.90383436833E+03 0.  0.
        3    1    3    3  502    0 -0.27827008135E+03 -0.90450272221E+02  0.10479760585E+04  0.10880575901E+04  0.10100000352E+00 0. -1.
       -3    1    3    3    0  502  0.27827008135E+03  0.90450272221E+02 -0.42389785172E+01  0.29263196862E+03  0.10100000352E+00 0.  1.
</event>
<event>
 5   0  0.2129280E-03  0.9003592E+03  0.7818609E-02  0.9425133E-01
        1   -1    0    0  501    0  0.00000000000E+00  0.00000000000E+00  0.47985956602E+03  0.47985956605E+03  0.50400001928E-02 0.  1.
       -1   -1    0    0    0  501  0.00000000000E+00  0.00000000000E+00 -0.42233537895E+03  0.42233537898E+03  0.50400001928E-02 0. -1.
    10030    2    1    2    0    0  0.00000000000E+00  0.00000000000E+00  0.57524187076E+02  0.90219494503E+03  0.90035919873E+03 0.  0.
        3    1    3    3  502    0 -0.92616008549E+01 -0.28975412429E+02  0.47882852245E+03  0.47979382644E+03  0.10100000352E+00 0.  1.
       -3    1    3    3    0  502  0.92616008549E+01  0.28975412429E+02 -0.42130433538E+03  0.42240111859E+03  0.10100000352E+00 0. -1.
</event>
<event>
 5   0  0.3806019E-03  0.8975142E+03  0.7818609E-02  0.9428694E-01
        2   -1    0    0  501    0  0.00000000000E+00  0.00000000000E+00  0.35333891468E+03  0.35333891469E+03  0.25500000920E-02 0.  1.
       -2   -1    0    0    0  501  0.00000000000E+00  0.00000000000E+00 -0.56994264881E+03  0.56994264882E+03  0.25500000920E-02 0. -1.
    10030    2    1    2    0    0  0.00000000000E+00  0.00000000000E+00 -0.21660373413E+03  0.92328156351E+03  0.89751416027E+03 0.  0.
        2    1    3    3  502    0  0.18725655702E+03  0.20229357275E+03 -0.47258018827E+03  0.54710121740E+03  0.25500000920E-02 0. -1.
       -2    1    3    3    0  502 -0.18725655702E+03 -0.20229357275E+03  0.25597645414E+03  0.37618034612E+03  0.25500000920E-02 0.  1.
</event>
<event>
 5   0  0.2130975E-03  0.8980389E+03  0.7818609E-02  0.9428036E-01
        1   -1    0    0  501    0  0.00000000000E+00  0.00000000000E+00  0.56387410151E+03  0.56387410154E+03  0.50400001928E-02 0.  1.
       -1   -1    0    0    0  501  0.00000000000E+00  0.00000000000E+00 -0.35755934798E+03  0.35755934802E+03  0.50400001928E-02 0. -1.
    10030    2    1    2    0    0  0.00000000000E+00  0.00000000000E+00  0.20631475353E+03  0.92143344955E+03  0.89803887690E+03 0.  0.
        5    1    3    3  502    0 -0.62277302238E+02  0.74413807783E+02  0.55296155236E+03  0.56143071304E+03  0.46999998093E+01 0.  1.
       -5    1    3    3    0  502  0.62277302238E+02 -0.74413807783E+02 -0.34664679882E+03  0.36000273651E+03  0.46999998093E+01 0. -1.
</event>
<event>
 5   0  0.3815269E-03  0.8979840E+03  0.7818609E-02  0.9428105E-01
        2   -1    0    0  501    0  0.00000000000E+00  0.00000000000E+00  0.66682233301E+03  0.66682233301E+03  0.25500000920E-02 0.  1.
       -2   -1    0    0    0  501  0.00000000000E+00  0.00000000000E+00 -0.30232010737E+03  0.30232010738E+03  0.25500000920E-02 0. -1.
    10030    2    1    2    0    0  0.00000000000E+00  0.00000000000E+00  0.36450222564E+03  0.96914244039E+03  0.89798396270E+03 0.  0.
        5    1    3    3  502    0  0.15156348339E+03 -0.33217462550E+03 -0.99718904490E+02  0.37852004073E+03  0.46999998093E+01 0. -1.
       -5    1    3    3    0  502 -0.15156348339E+03  0.33217462550E+03  0.46422113013E+03  0.59062239966E+03  0.46999998093E+01 0.  1.
</event>
<event>
 5   0  0.2074970E-03  0.8980597E+03  0.7818609E-02  0.9428010E-01
        1   -1    0    0  501    0  0.00000000000E+00  0.00000000000E+00  0.78955217342E+03  0.78955217343E+03  0.50400001928E-02 0.  1.
       -1   -1    0    0    0  501  0.00000000000E+00  0.00000000000E+00 -0.25536980687E+03  0.25536980692E+03  0.50400001928E-02 0. -1.
    10030    2    1    2    0    0  0.00000000000E+00  0.00000000000E+00  0.53418236655E+03  0.10449219804E+04  0.89805965520E+03 0.  0.
        2    1    3    3  502    0  0.36630627499E+03  0.14762369552E+03  0.18479443957E+02  0.39536632688E+03  0.25500000920E-02 0. -1.
       -2    1    3    3    0  502 -0.36630627499E+03 -0.14762369552E+03  0.51570292259E+03  0.64955565347E+03  0.25500000920E-02 0.  1.
</event>
<event>
 5   0  0.1436000E-03  0.8985786E+03  0.7818609E-02  0.9427360E-01
       -4   -1    0    0    0  501  0.00000000000E+00  0.00000000000E+00  0.27941207205E+03  0.27941495828E+03  0.12699999809E+01 0.  1.
        4   -1    0    0  501    0  0.00000000000E+00  0.00000000000E+00 -0.72244141722E+03  0.72244253351E+03  0.12699999809E+01 0. -1.
    10030    2    1    2    0    0  0.00000000000E+00  0.00000000000E+00 -0.44302934517E+03  0.10018574918E+04  0.89857856260E+03 0.  0.
        1    1    3    3  502    0 -0.43735625328E+03  0.86511104100E+02 -0.28355356543E+03  0.52836283737E+03  0.50400001928E-02 0.  1.
       -1    1    3    3    0  502  0.43735625328E+03 -0.86511104100E+02 -0.15947577974E+03  0.47349465442E+03  0.50400001928E-02 0. -1.
</event>
<event>
 5   0  0.2134145E-03  0.8987774E+03  0.7818609E-02  0.9427111E-01
        1   -1    0    0  501    0  0.00000000000E+00  0.00000000000E+00  0.20166364529E+04  0.20166364529E+04  0.50400001928E-02 0. -1.
       -1   -1    0    0    0  501  0.00000000000E+00  0.00000000000E+00 -0.10014210320E+03  0.10014210333E+03  0.50400001928E-02 0.  1.
    10030    2    1    2    0    0  0.00000000000E+00  0.00000000000E+00  0.19164943497E+04  0.21167785562E+04  0.89877742723E+03 0.  0.
        1    1    3    3  502    0  0.41911190045E+03  0.15535811898E+03  0.10676877387E+04  0.11574748540E+04  0.50400001928E-02 0. -1.
       -1    1    3    3    0  502 -0.41911190045E+03 -0.15535811898E+03  0.84880661100E+03  0.95930370224E+03  0.50400001928E-02 0.  1.
</event>
<event>
 5   0  0.2074970E-03  0.9001162E+03  0.7818609E-02  0.9425436E-01
       -1   -1    0    0    0  501  0.00000000000E+00  0.00000000000E+00  0.41540913263E+03  0.41540913266E+03  0.50400001928E-02 0.  1.
        1   -1    0    0  501    0  0.00000000000E+00  0.00000000000E+00 -0.48759710873E+03  0.48759710875E+03  0.50400001928E-02 0. -1.
    10030    2    1    2    0    0  0.00000000000E+00  0.00000000000E+00 -0.72187976099E+02  0.90300624141E+03  0.90011619702E+03 0.  0.
        2    1    3    3  502    0 -0.52369825349E+02 -0.49637474706E+02  0.40956855634E+03  0.41587603905E+03  0.25500000920E-02 0.  1.
       -2    1    3    3    0  502  0.52369825349E+02  0.49637474706E+02 -0.48175653244E+03  0.48713020237E+03  0.25500000920E-02 0. -1.
</event>
<event>
 5   0  0.3685879E-03  0.8998289E+03  0.7818609E-02  0.9425795E-01
        2   -1    0    0  501    0  0.00000000000E+00  0.00000000000E+00  0.85616403060E+03  0.85616403060E+03  0.25500000920E-02 0.  1.
       -2   -1    0    0    0  501  0.00000000000E+00  0.00000000000E+00 -0.23643017249E+03  0.23643017250E+03  0.25500000920E-02 0. -1.
    10030    2    1    2    0    0  0.00000000000E+00  0.00000000000E+00  0.61973385811E+03  0.10925942031E+04  0.89982889361E+03 0.  0.
        1    1    3    3  502    0 -0.61616986800E+02 -0.32328753213E+03  0.68236186239E+03  0.75758114599E+03  0.50400001928E-02 0.  1.
       -1    1    3    3    0  502  0.61616986800E+02  0.32328753213E+03 -0.62628004278E+02  0.33501305711E+03  0.50400001928E-02 0. -1.
</event>
<event>
 5   0  0.3685879E-03  0.9034259E+03  0.7818609E-02  0.9421309E-01
        2   -1    0    0  501    0  0.00000000000E+00  0.00000000000E+00  0.19089402230E+04  0.19089402230E+04  0.25500000920E-02 0. -1.
       -2   -1    0    0    0  501  0.00000000000E+00  0.00000000000E+00 -0.10688894633E+03  0.10688894636E+03  0.25500000920E-02 0.  1.
    10030    2    1    2    0    0  0.00000000000E+00  0.00000000000E+00  0.18020512766E+04  0.20158291693E+04  0.90342594402E+03 0.  0.
        1    1    3    3  502    0 -0.10896933482E+03  0.43197315893E+03  0.10675464856E+04  0.11567759614E+04  0.50400001928E-02 0. -1.
       -1    1    3    3    0  502  0.10896933482E+03 -0.43197315893E+03  0.73450479108E+03  0.85905320796E+03  0.50400001928E-02 0.  1.
</event>
<event>
 5   0  0.1436000E-03  0.8992215E+03  0.7818609E-02  0.9426555E-01
        3   -1    0    0  501    0  0.00000000000E+00  0.00000000000E+00  0.24597967879E+03  0.24597969952E+03  0.10100000352E+00 0. -1.
       -3   -1    0    0    0  501  0.00000000000E+00  0.00000000000E+00 -0.82181509848E+03  0.82181510469E+03  0.10100000352E+00 0.  1.
    10030    2    1    2    0    0  0.00000000000E+00  0.00000000000E+00 -0.57583541970E+03  0.10677948042E+04  0.89922150403E+03 0.  0.
        2    1    3    3  502    0 -0.16699691211E+03 -0.89054414092E+02 -0.77221043100E+03  0.79506453013E+03  0.25500000920E-02 0.  1.
       -2    1    3    3    0  502  0.16699691211E+03  0.89054414092E+02  0.19637501130E+03  0.27273027407E+03  0.25500000920E-02 0. -1.
</event>
<event>
 5   0  0.2295158E-03  0.8976628E+03  0.7818609E-02  0.9428508E-01
        1   -1    0    0  501    0  0.00000000000E+00  0.00000000000E+00  0.77778230100E+03  0.77778230102E+03  0.50400001928E-02 0. -1.
       -1   -1    0    0    0  501  0.00000000000E+00  0.00000000000E+00 -0.25900513210E+03  0.25900513215E+03  0.50400001928E-02 0.  1.
    10030    2    1    2    0    0  0.00000000000E+00  0.00000000000E+00  0.51877716891E+03  0.10367874332E+04  0.89766275995E+03 0.  0.
        4    1    3    3  502    0  0.24116199360E+03 -0.14592964676E+03 -0.14401962272E+03  0.31654041383E+03  0.12699999809E+01 0.  1.
       -4    1    3    3    0  502 -0.24116199360E+03  0.14592964676E+03  0.66279679163E+03  0.72024701933E+03  0.12699999809E+01 0. -1.
</event>
<event>
 5   0  0.3815269E-03  0.9047972E+03  0.7818609E-02  0.9419604E-01
        2   -1    0    0  501    0  0.00000000000E+00  0.00000000000E+00  0.18669062892E+03  0.18669062894E+03  0.25500000920E-02 0.  1.
       -2   -1    0    0    0  501  0.00000000000E+00  0.00000000000E+00 -0.10962762037E+04  0.10962762037E+04  0.25500000920E-02 0. -1.
    10030    2    1    2    0    0  0.00000000000E+00  0.00000000000E+00 -0.90958557479E+03  0.12829668327E+04  0.90479720149E+03 0.  0.
        5    1    3    3  502    0  0.50267930415E+02  0.21613250631E+03  0.10418283989E+03  0.24518621339E+03  0.46999998093E+01 0.  1.
       -5    1    3    3    0  502 -0.50267930415E+02 -0.21613250631E+03 -0.10137684147E+04  0.10377806193E+04  0.46999998093E+01 0. -1.
</event>
<event>
 5   0  0.2130975E-03  0.9064221E+03  0.7818609E-02  0.9417589E-01
        1   -1    0    0  501    0  0.00000000000E+00  0.00000000000E+00  0.68142536278E+03  0.68142536280E+03  0.50400001928E-02 0. -1.
       -1   -1    0    0    0  501  0.00000000000E+00  0.00000000000E+00 -0.30142736997E+03  0.30142737001E+03  0.50400001928E-02 0.  1.
    10030    2    1    2    0    0  0.00000000000E+00  0.00000000000E+00  0.37999799281E+03  0.98285273282E+03  0.90642209807E+03 0.  0.
        5    1    3    3  502    0 -0.37022373397E+03 -0.12470464766E+03 -0.59067733840E+02  0.39513029436E+03  0.46999998093E+01 0.  1.
       -5    1    3    3    0  502  0.37022373397E+03  0.12470464766E+03  0.43906572665E+03  0.58772243845E+03  0.46999998093E+01 0. -1.
</event>
<event>
 5   0  0.2074970E-03  0.8963364E+03  0.7818609E-02  0.9430173E-01
       -1   -1    0    0    0  501  0.00000000000E+00  0.00000000000E+00  0.28466180591E+03  0.28466180596E+03  0.50400001928E-02 0. -1.
        1   -1    0    0  501    0  0.00000000000E+00  0.00000000000E+00 -0.70559074547E+03  0.70559074549E+03  0.50400001928E-02 0.  1.
    10030    2    1    2    0    0  0.00000000000E+00  0.00000000000E+00 -0.42092893956E+03  0.99025255145E+03  0.89633640085E+03 0.  0.
        2    1    3    3  502    0  0.78065146056E+02  0.44030701558E+03 -0.24342873005E+03  0.50913846999E+03  0.25500000920E-02 0. -1.
       -2    1    3    3    0  502 -0.78065146056E+02 -0.44030701558E+03 -0.17750020951E+03  0.48111408146E+03  0.25500000920E-02 0.  1.
</event>
<event>
 5   0  0.3815269E-03  0.8989005E+03  0.7818609E-02  0.9426957E-01
        2   -1    0    0  501    0  0.00000000000E+00  0.00000000000E+00  0.17171405577E+03  0.17171405579E+03  0.25500000920E-02 0.  1.
       -2   -1    0    0    0  501  0.00000000000E+00  0.00000000000E+00 -0.11764064290E+04  0.11764064290E+04  0.25500000920E-02 0. -1.
    10030    2    1    2    0    0  0.00000000000E+00  0.00000000000E+00 -0.10046923733E+04  0.13481204848E+04  0.89890048209E+03 0.  0.
        5    1    3    3  502    0 -0.80875419168E+02 -0.69954499367E+02 -0.11570130967E+04  0.11619534679E+04  0.46999998093E+01 0. -1.
       -5    1    3    3    0  502  0.80875419168E+02  0.69954499367E+02  0.15232072348E+03  0.18616701697E+03  0.46999998093E+01 0.  1.
</event>
<event>
 5   0  0.3685879E-03  0.9026895E+03  0.7818609E-02  0.9422226E-01
        2   -1    0    0  501    0  0.00000000000E+00  0.00000000000E+00  0.47517851760E+03  0.47517851761E+03  0.25500000920E-02 0. -1.
       -2   -1    0    0    0  501  0.00000000000E+00  0.00000000000E+00 -0.42870641719E+03  0.42870641720E+03  0.25500000920E-02 0.  1.
    10030    2    1    2    0    0  0.00000000000E+00  0.00000000000E+00  0.46472100410E+02  0.90388493480E+03  0.90268949215E+03 0.  0.
        1    1    3    3  502    0 -0.36735206359E+03 -0.25860037672E+03 -0.20300102104E+02  0.44970411121E+03  0.50400001928E-02 0.  1.
       -1    1    3    3    0  502  0.36735206359E+03  0.25860037672E+03  0.66772202514E+02  0.45418082359E+03  0.50400001928E-02 0. -1.
</event>
<event>
 5   0  0.2074970E-03  0.9020926E+03  0.7818609E-02  0.9422969E-01
       -1   -1    0    0    0  501  0.00000000000E+00  0.00000000000E+00  0.42424150071E+03  0.42424150074E+03  0.50400001928E-02 0. -1.
        1   -1    0    0  501    0  0.00000000000E+00  0.00000000000E+00 -0.47954471203E+03  0.47954471205E+03  0.50400001928E-02 0.  1.
    10030    2    1    2    0    0  0.00000000000E+00  0.00000000000E+00 -0.55303211319E+02  0.90378621279E+03  0.90209260791E+03 0.  0.
        2    1    3    3  502    0  0.12428728381E+02  0.22413603647E+03 -0.41960384034E+03  0.47587689477E+03  0.25500000920E-02 0.  1.
       -2    1    3    3    0  502 -0.12428728381E+02 -0.22413603647E+03  0.36430062902E+03  0.42790931802E+03  0.25500000920E-02 0. -1.
</event>
<event>
 5   0  0.2130975E-03  0.8996174E+03  0.7818609E-02  0.9426060E-01
        1   -1    0    0  501    0  0.00000000000E+00  0.00000000000E+00  0.16124323095E+04  0.16124323095E+04  0.50400001928E-02 0. -1.
       -1   -1    0    0    0  501  0.00000000000E+00  0.00000000000E+00 -0.12547991008E+03  0.12547991018E+03  0.50400001928E-02 0.  1.
    10030    2    1    2    0    0  0.00000000000E+00  0.00000000000E+00  0.14869523995E+04  0.17379122197E+04  0.89961738823E+03 0.  0.
        5    1    3    3  502    0 -0.81382002448E+02  0.10940276102E+03 -0.84543860791E+02  0.16050466921E+03  0.46999998093E+01 0.  1.
       -5    1    3    3    0  502  0.81382002448E+02 -0.10940276102E+03  0.15714962603E+04  0.15774075505E+04  0.46999998093E+01 0. -1.
</event>
<event>
 5   0  0.2129280E-03  0.9026920E+03  0.7818609E-02  0.9422223E-01
        1   -1    0    0  501    0  0.00000000000E+00  0.00000000000E+00  0.50156787066E+03  0.50156787068E+03  0.50400001928E-02 0.  1.
       -1   -1    0    0    0  501  0.00000000000E+00  0.00000000000E+00 -0.40615280088E+03  0.40615280091E+03  0.50400001928E-02 0. -1.
    10030    2    1    2    0    0  0.00000000000E+00  0.00000000000E+00  0.95415069779E+02  0.90772067159E+03  0.90269196412E+03 0.  0.
        3    1    3    3  502    0  0.33404836332E+03  0.29721503667E+03  0.10959793173E+03  0.46036594564E+03  0.10100000352E+00 0.  1.
       -3    1    3    3    0  502 -0.33404836332E+03 -0.29721503667E+03 -0.14182861947E+02  0.44735472596E+03  0.10100000352E+00 0. -1.
</event>
<event>
 5   0  0.2129280E-03  0.8951029E+03  0.7818609E-02  0.9431724E-01
        1   -1    0    0  501    0  0.00000000000E+00  0.00000000000E+00  0.67044426194E+03  0.67044426196E+03  0.50400001928E-02 0. -1.
       -1   -1    0    0    0  501  0.00000000000E+00  0.00000000000E+00 -0.29876054563E+03  0.29876054567E+03  0.50400001928E-02 0.  1.
    10030    2    1    2    0    0  0.00000000000E+00  0.00000000000E+00  0.37168371632E+03  0.96920480763E+03  0.89510288468E+03 0.  0.
        3    1    3    3  502    0 -0.30564750949E+03 -0.32241254691E+03  0.24447282029E+03  0.50708699503E+03  0.10100000352E+00 0. -1.
       -3    1    3    3    0  502  0.30564750949E+03  0.32241254691E+03  0.12721089602E+03  0.46211781261E+03  0.10100000352E+00 0.  1.
</event>
<event>
 5   0  0.2130975E-03  0.9008603E+03  0.7818609E-02  0.9424507E-01
       -1   -1    0    0    0  501  0.00000000000E+00  0.00000000000E+00  0.51993966678E+03  0.51993966680E+03  0.50400001928E-02 0. -1.
        1   -1    0    0  501    0  0.00000000000E+00  0.00000000000E+00 -0.39021321667E+03  0.39021321670E+03  0.50400001928E-02 0.  1.
    10030    2    1    2    0    0  0.00000000000E+00  0.00000000000E+00  0.12972645011E+03  0.91015288350E+03  0.90086032185E+03 0.  0.
        5    1    3    3  502    0 -0.39063754353E+03 -0.21343368347E+03  0.13422717495E+03  0.46496306536E+03  0.46999998093E+01 0. -1.
       -5    1    3    3    0  502  0.39063754353E+03  0.21343368347E+03 -0.45007248448E+01  0.44518981814E+03  0.46999998093E+01 0.  1.
</event>
<event>
 5   0  0.2295158E-03  0.8984699E+03  0.7818609E-02  0.9427496E-01
       -1   -1    0    0    0  501  0.00000000000E+00  0.00000000000E+00  0.28739089745E+03  0.28739089750E+03  0.50400001928E-02 0.  1.
        1   -1    0    0  501    0  0.00000000000E+00  0.00000000000E+00 -0.70222134317E+03  0.70222134318E+03  0.50400001928E-02 0. -1.
    10030    2    1    2    0    0  0.00000000000E+00  0.00000000000E+00 -0.41483044571E+03  0.98961224068E+03  0.89846985938E+03 0.  0.
        4    1    3    3  502    0  0.29776335266E+03  0.10465970970E+03 -0.55952143953E+03  0.64240370735E+03  0.12699999809E+01 0. -1.
       -4    1    3    3    0  502 -0.29776335266E+03 -0.10465970970E+03  0.14469099382E+03  0.34720853333E+03  0.12699999809E+01 0.  1.
</event>
<event>
 5   0  0.2130975E-03  0.8996124E+03  0.7818609E-02  0.9426066E-01
        1   -1    0    0  501    0  0.00000000000E+00  0.00000000000E+00  0.85392234819E+03  0.85392234821E+03  0.50400001928E-02 0. -1.
       -1   -1    0    0    0  501  0.00000000000E+00  0.00000000000E+00 -0.23693680218E+03  0.23693680224E+03  0.50400001928E-02 0.  1.
    10030    2    1    2    0    0  0.00000000000E+00  0.00000000000E+00  0.61698554601E+03  0.10908591504E+04  0.89961242884E+03 0.  0.
        5    1    3    3  502    0  0.39275636744E+03 -0.17460201964E+03  0.46917833711E+03  0.63631268370E+03  0.46999998093E+01 0.  1.
       -5    1    3    3    0  502 -0.39275636744E+03  0.17460201964E+03  0.14780720889E+03  0.45454646674E+03  0.46999998093E+01 0. -1.
</event>
<event>
 5   0  0.3663255E-03  0.8959499E+03  0.7818609E-02  0.9430658E-01
        2   -1    0    0  501    0  0.00000000000E+00  0.00000000000E+00  0.60633312586E+03  0.60633312586E+03  0.25500000920E-02 0. -1.
       -2   -1    0    0    0  501  0.00000000000E+00  0.00000000000E+00 -0.33097571785E+03  0.33097571786E+03  0.25500000920E-02 0.  1.
    10030    2    1    2    0    0  0.00000000000E+00  0.00000000000E+00  0.27535740800E+03  0.93730884373E+03  0.89594986823E+03 0.  0.
        4    1    3    3  502    0  0.17543623235E+03  0.18246565035E+03 -0.24898874873E+03  0.35506139620E+03  0.12699999809E+01 0.  1.
       -4    1    3    3    0  502 -0.17543623235E+03 -0.18246565035E+03  0.52434615673E+03  0.58224744753E+03  0.12699999809E+01 0. -1.
</event>
<event>
 5   0  0.2129280E-03  0.8992915E+03  0.7818609E-02  0.9426467E-01
        1   -1    0    0  501    0  0.00000000000E+00  0.00000000000E+00  0.67531713136E+03  0.67531713137E+03  0.50400001928E-02 0. -1.
       -1   -1    0    0    0  501  0.00000000000E+00  0.00000000000E+00 -0.29938721295E+03  0.29938721300E+03  0.50400001928E-02 0.  1.
    10030    2    1    2    0    0  0.00000000000E+00  0.00000000000E+00  0.37592991840E+03  0.97470434437E+03  0.89929152970E+03 0.  0.
        3    1    3    3  502    0  0.38366661457E+03  0.42469060011E+02 -0.61975643160E+02  0.39095355573E+03  0.10100000352E+00 0.  1.
       -3    1    3    3    0  502 -0.38366661457E+03 -0.42469060011E+02  0.43790556156E+03  0.58375078864E+03  0.10100000352E+00 0. -1.
</event>
<event>
 5   0  0.3626546E-03  0.9007020E+03  0.7818609E-02  0.9424704E-01
       -2   -1    0    0    0  501  0.00000000000E+00  0.00000000000E+00  0.41160219994E+03  0.41160219995E+03  0.25500000920E-02 0. -1.
        2   -1    0    0  501    0  0.00000000000E+00  0.00000000000E+00 -0.49274770242E+03  0.49274770243E+03  0.25500000920E-02 0.  1.
    10030    2    1    2    0    0  0.00000000000E+00  0.00000000000E+00 -0.81145502480E+02  0.90434990238E+03  0.90070203362E+03 0.  0.
        3    1    3    3  502    0  0.16275645218E+03 -0.32649981708E+03  0.22455014250E+03  0.42838600581E+03  0.10100000352E+00 0. -1.
       -3    1    3    3    0  502 -0.16275645218E+03  0.32649981708E+03 -0.30569564498E+03  0.47596389657E+03  0.10100000352E+00 0.  1.
</event>
<event>
 5   0  0.3626546E-03  0.8927159E+03  0.7818609E-02  0.9434733E-01
        2   -1    0    0  501    0  0.00000000000E+00  0.00000000000E+00  0.54268986094E+03  0.54268986095E+03  0.25500000920E-02 0. -1.
       -2   -1    0    0    0  501  0.00000000000E+00  0.00000000000E+00 -0.36712576139E+03  0.36712576139E+03  0.25500000920E-02 0.  1.
    10030    2    1    2    0    0  0.00000000000E+00  0.00000000000E+00  0.17556409956E+03  0.90981562234E+03  0.89271591988E+03 0.  0.
        3    1    3    3  502    0 -0.32199704797E+03  0.22733047428E+03  0.30125585451E+03  0.49610114242E+03  0.10100000352E+00 0. -1.
       -3    1    3    3    0  502  0.32199704797E+03 -0.22733047428E+03 -0.12569175495E+03  0.41371447992E+03  0.10100000352E+00 0.  1.
</event>
<event>
 5   0  0.1436000E-03  0.9012728E+03  0.7818609E-02  0.9423992E-01
        4   -1    0    0  501    0  0.00000000000E+00  0.00000000000E+00  0.45077113384E+03  0.45077292288E+03  0.12699999809E+01 0. -1.
       -4   -1    0    0    0  501  0.00000000000E+00  0.00000000000E+00 -0.45049814820E+03  0.45049993833E+03  0.12699999809E+01 0.  1.
    10030    2    1    2    0    0  0.00000000000E+00  0.00000000000E+00  0.27298563518E+00  0.90127286120E+03  0.90127281986E+03 0.  0.
        3    1    3    3  502    0 -0.31886991739E+03  0.56522903482E+02 -0.31323279401E+03  0.45054151449E+03  0.10100000352E+00 0.  1.
       -3    1    3    3    0  502  0.31886991739E+03 -0.56522903482E+02  0.31350577965E+03  0.45073134671E+03  0.10100000352E+00 0. -1.
</event>
<event>
 5   0  0.3815269E-03  0.8604203E+03  0.7818609E-02  0.9476457E-01
       -2   -1    0    0    0  501  0.00000000000E+00  0.00000000000E+00  0.29433646229E+03  0.29433646230E+03  0.25500000920E-02 0.  1.
        2   -1    0    0  501    0  0.00000000000E+00  0.00000000000E+00 -0.62880684978E+03  0.62880684978E+03  0.25500000920E-02 0. -1.
    10030    2    1    2    0    0  0.00000000000E+00  0.00000000000E+00 -0.33447038749E+03  0.92314331208E+03  0.86042032434E+03 0.  0.
        5    1    3    3  502    0  0.78417989071E+02 -0.37784317883E+03  0.36739195694E+02  0.38766829545E+03  0.46999998093E+01 0.  1.
       -5    1    3    3    0  502 -0.78417989071E+02  0.37784317883E+03 -0.37120958318E+03  0.53547501663E+03  0.46999998093E+01 0. -1.
</event>
<event>
 5   0  0.2130975E-03  0.8958817E+03  0.7818609E-02  0.9430744E-01
       -1   -1    0    0    0  501  0.00000000000E+00  0.00000000000E+00  0.54302003797E+03  0.54302003799E+03  0.50400001928E-02 0.  1.
        1   -1    0    0  501    0  0.00000000000E+00  0.00000000000E+00 -0.36950940826E+03  0.36950940830E+03  0.50400001928E-02 0. -1.
    10030    2    1    2    0    0  0.00000000000E+00  0.00000000000E+00  0.17351062970E+03  0.91252944629E+03  0.89588171748E+03 0.  0.
        5    1    3    3  502    0 -0.12151409705E+03  0.34057070605E+03 -0.18249525492E+03  0.40506874684E+03  0.46999998093E+01 0. -1.
       -5    1    3    3    0  502  0.12151409705E+03 -0.34057070605E+03  0.35600588462E+03  0.50746069945E+03  0.46999998093E+01 0.  1.
</event>
<event>
 5   0  0.2074970E-03  0.8971856E+03  0.7818609E-02  0.9429106E-01
        1   -1    0    0  501    0  0.00000000000E+00  0.00000000000E+00  0.27830344781E+04  0.27830344781E+04  0.50400001928E-02 0.  1.
       -1   -1    0    0    0  501  0.00000000000E+00  0.00000000000E+00 -0.72307936566E+02  0.72307936742E+02  0.50400001928E-02 0. -1.
    10030    2    1    2    0    0  0.00000000000E+00  0.00000000000E+00  0.27107265415E+04  0.28553424148E+04  0.89718555664E+03 0.  0.
        2    1    3    3  502    0  0.19617932398E+03 -0.29442160287E+02  0.26358515967E+04  0.26433060375E+04  0.25500000920E-02 0.  1.
       -2    1    3    3    0  502 -0.19617932398E+03  0.29442160287E+02  0.74874944848E+02  0.21203637738E+03  0.25500000920E-02 0. -1.
</event>
<event>
 5   0  0.3815269E-03  0.8973596E+03  0.7818609E-02  0.9428888E-01
        2   -1    0    0  501    0  0.00000000000E+00  0.00000000000E+00  0.80509558767E+03  0.80509558767E+03  0.25500000920E-02 0.  1.
       -2   -1    0    0    0  501  0.00000000000E+00  0.00000000000E+00 -0.25004926853E+03  0.25004926854E+03  0.25500000920E-02 0. -1.
    10030    2    1    2    0    0  0.00000000000E+00  0.00000000000E+00  0.55504631914E+03  0.10551448562E+04  0.89735959972E+03 0.  0.
        5    1    3    3  502    0 -0.20778093583E+03  0.16892454312E+03 -0.14574897558E+03  0.30491518894E+03  0.46999998093E+01 0. -1.
       -5    1    3    3    0  502  0.20778093583E+03 -0.16892454312E+03  0.70079529472E+03  0.75022966728E+03  0.46999998093E+01 0.  1.
</event>
<event>
 5   0  0.3685879E-03  0.8922462E+03  0.7818609E-02  0.9435326E-01
       -2   -1    0    0    0  501  0.00000000000E+00  0.00000000000E+00  0.25097135823E+03  0.25097135824E+03  0.25500000920E-02 0.  1.
        2   -1    0    0  501    0  0.00000000000E+00  0.00000000000E+00 -0.79302198485E+03  0.79302198486E+03  0.25500000920E-02 0. -1.
    10030    2    1    2    0    0  0.00000000000E+00  0.00000000000E+00 -0.54205062663E+03  0.10439933431E+04  0.89224616480E+03 0.  0.
        1    1    3    3  502    0  0.23035471551E+03 -0.22384738105E+03  0.91234456995E+02  0.33390817769E+03  0.50400001928E-02 0.  1.
       -1    1    3    3    0  502 -0.23035471551E+03  0.22384738105E+03 -0.63328508362E+03  0.71008516540E+03  0.50400001928E-02 0. -1.
</event>
<event>
 5   0  0.2074970E-03  0.9010225E+03  0.7818609E-02  0.9424304E-01
       -1   -1    0    0    0  501  0.00000000000E+00  0.00000000000E+00  0.16667680652E+03  0.16667680659E+03  0.50400001928E-02 0.  1.
        1   -1    0    0  501    0  0.00000000000E+00  0.00000000000E+00 -0.12176882657E+04  0.12176882657E+04  0.50400001928E-02 0. -1.
    10030    2    1    2    0    0  0.00000000000E+00  0.00000000000E+00 -0.10510114592E+04  0.13843650723E+04  0.90102251143E+03 0.  0.
        2    1    3    3  502    0 -0.12015908847E+03  0.22360904469E+03 -0.10973438235E+04  0.11263226351E+04  0.25500000920E-02 0. -1.
       -2    1    3    3    0  502  0.12015908847E+03 -0.22360904469E+03  0.46332364302E+02  0.25804243720E+03  0.25500000920E-02 0.  1.
</event>
<event>
 5   0  0.3685879E-03  0.9008752E+03  0.7818609E-02  0.9424488E-01
        2   -1    0    0  501    0  0.00000000000E+00  0.00000000000E+00  0.74029235550E+03  0.74029235550E+03  0.25500000920E-02 0.  1.
       -2   -1    0    0    0  501  0.00000000000E+00  0.00000000000E+00 -0.27407283565E+03  0.27407283566E+03  0.25500000920E-02 0. -1.
    10030    2    1    2    0    0  0.00000000000E+00  0.00000000000E+00  0.46621951985E+03  0.10143651912E+04  0.90087518578E+03 0.  0.
        1    1    3    3  502    0 -0.25240327764E+03 -0.15475509569E+03 -0.14912182571E+03  0.33150244816E+03  0.50400001928E-02 0. -1.
       -1    1    3    3    0  502  0.25240327764E+03  0.15475509569E+03  0.61534134556E+03  0.68286274300E+03  0.50400001928E-02 0.  1.
</event>
<event>
 5   0  0.2295158E-03  0.9005667E+03  0.7818609E-02  0.9424873E-01
        1   -1    0    0  501    0  0.00000000000E+00  0.00000000000E+00  0.11785285190E+04  0.11785285190E+04  0.50400001928E-02 0.  1.
       -1   -1    0    0    0  501  0.00000000000E+00  0.00000000000E+00 -0.17204089385E+03  0.17204089393E+03  0.50400001928E-02 0. -1.
    10030    2    1    2    0    0  0.00000000000E+00  0.00000000000E+00  0.10064876251E+04  0.13505694129E+04  0.90056671023E+03 0.  0.
        4    1    3    3  502    0  0.29911634369E+02  0.27799909961E+03 -0.26074549262E+02  0.28081969353E+03  0.12699999809E+01 0. -1.
       -4    1    3    3    0  502 -0.29911634369E+02 -0.27799909961E+03  0.10325621744E+04  0.10697497194E+04  0.12699999809E+01 0.  1.
</event>
<event>
 5   0  0.1436000E-03  0.9014469E+03  0.7818609E-02  0.9423775E-01
       -3   -1    0    0    0  501  0.00000000000E+00  0.00000000000E+00  0.48906572557E+03  0.48906573600E+03  0.10100000352E+00 0.  1.
        3   -1    0    0  501    0  0.00000000000E+00  0.00000000000E+00 -0.41538712531E+03  0.41538713759E+03  0.10100000352E+00 0. -1.
    10030    2    1    2    0    0  0.00000000000E+00  0.00000000000E+00  0.73678600259E+02  0.90445287359E+03  0.90144687276E+03 0.  0.
        3    1    3    3  502    0 -0.18791259481E+03 -0.30519524111E+03  0.31105696687E+03  0.47456477464E+03  0.10100000352E+00 0.  1.
       -3    1    3    3    0  502  0.18791259481E+03  0.30519524111E+03 -0.23737836661E+03  0.42988809895E+03  0.10100000352E+00 0. -1.
</event>
<event>
 5   0  0.3626546E-03  0.9005943E+03  0.7818609E-02  0.9424839E-01
       -2   -1    0    0    0  501  0.00000000000E+00  0.00000000000E+00  0.31749805329E+03  0.31749805331E+03  0.25500000920E-02 0. -1.
        2   -1    0    0  501    0  0.00000000000E+00  0.00000000000E+00 -0.63864184756E+03  0.63864184757E+03  0.25500000920E-02 0.  1.
    10030    2    1    2    0    0  0.00000000000E+00  0.00000000000E+00 -0.32114379427E+03  0.95613990087E+03  0.90059434456E+03 0.  0.
        3    1    3    3  502    0  0.44882960437E+03  0.36129390495E+02 -0.15657308902E+03  0.47672684949E+03  0.10100000352E+00 0. -1.
       -3    1    3    3    0  502 -0.44882960437E+03 -0.36129390495E+02 -0.16457070525E+03  0.47941305139E+03  0.10100000352E+00 0.  1.
</event>
<event>
 5   0  0.2295158E-03  0.9008127E+03  0.7818609E-02  0.9424566E-01
        1   -1    0    0  501    0  0.00000000000E+00  0.00000000000E+00  0.57780965718E+03  0.57780965720E+03  0.50400001928E-02 0.  1.
       -1   -1    0    0    0  501  0.00000000000E+00  0.00000000000E+00 -0.35109466154E+03  0.35109466158E+03  0.50400001928E-02 0. -1.
    10030    2    1    2    0    0  0.00000000000E+00  0.00000000000E+00  0.22671499564E+03  0.92890431878E+03  0.90081271316E+03 0.  0.
        4    1    3    3  502    0 -0.12301410122E+03 -0.42091050316E+03  0.21935482398E+03  0.49032262080E+03  0.12699999809E+01 0.  1.
       -4    1    3    3    0  502  0.12301410122E+03  0.42091050316E+03  0.73601716603E+01  0.43858169797E+03  0.12699999809E+01 0. -1.
</event>
<event>
 5   0  0.3626546E-03  0.8994950E+03  0.7818609E-02  0.9426213E-01
       -2   -1    0    0    0  501  0.00000000000E+00  0.00000000000E+00  0.58708423382E+03  0.58708423383E+03  0.25500000920E-02 0.  1.
        2   -1    0    0  501    0  0.00000000000E+00  0.00000000000E+00 -0.34453798652E+03  0.34453798653E+03  0.25500000920E-02 0. -1.
    10030    2    1    2    0    0  0.00000000000E+00  0.00000000000E+00  0.24254624731E+03  0.93162222036E+03  0.89949501354E+03 0.  0.
        3    1    3    3  502    0  0.42939118887E+03 -0.11747127426E+03  0.54983062223E+02  0.44855260638E+03  0.10100000352E+00 0. -1.
       -3    1    3    3    0  502 -0.42939118887E+03  0.11747127426E+03  0.18756318508E+03  0.48306961398E+03  0.10100000352E+00 0.  1.
</event>
<event>
 5   0  0.3663255E-03  0.8919274E+03  0.7818609E-02  0.9435729E-01
        2   -1    0    0  501    0  0.00000000000E+00  0.00000000000E+00  0.38848541005E+03  0.38848541006E+03  0.25500000920E-02 0. -1.
       -2   -1    0    0    0  501  0.00000000000E+00  0.00000000000E+00 -0.51194617796E+03  0.51194617797E+03  0.25500000920E-02 0.  1.
    10030    2    1    2    0    0  0.00000000000E+00  0.00000000000E+00 -0.12346076791E+03  0.90043158803E+03  0.89192739812E+03 0.  0.
        4    1    3    3  502    0 -0.36632568710E+02  0.39204352301E+03  0.14965068697E+03  0.42123272669E+03  0.12699999809E+01 0. -1.
       -4    1    3    3    0  502  0.36632568710E+02 -0.39204352301E+03 -0.27311145488E+03  0.47919886134E+03  0.12699999809E+01 0.  1.
</event>
<event>
 5   0  0.3806019E-03  0.8989853E+03  0.7818609E-02  0.9426851E-01
        2   -1    0    0  501    0  0.00000000000E+00  0.00000000000E+00  0.34074673767E+03  0.34074673768E+03  0.25500000920E-02 0.  1.
       -2   -1    0    0    0  501  0.00000000000E+00  0.00000000000E+00 -0.59294378142E+03  0.59294378142E+03  0.25500000920E-02 0. -1.
    10030    2    1    2    0    0  0.00000000000E+00  0.00000000000E+00 -0.25219704375E+03  0.93369051910E+03  0.89898533725E+03 0.  0.
        2    1    3    3  502    0 -0.19227041315E+03  0.46304914847E+02  0.29313210717E+03  0.35360781831E+03  0.25500000920E-02 0.  1.
       -2    1    3    3    0  502  0.19227041315E+03 -0.46304914847E+02 -0.54532915092E+03  0.58008270079E+03  0.25500000920E-02 0. -1.
</event>
<event>
 5   0  0.3806019E-03  0.8960075E+03  0.7818609E-02  0.9430586E-01
       -2   -1    0    0    0  501  0.00000000000E+00  0.00000000000E+00  0.26892837366E+03  0.26892837367E+03  0.25500000920E-02 0.  1.
        2   -1    0    0  501    0  0.00000000000E+00  0.00000000000E+00 -0.74632280608E+03  0.74632280609E+03  0.25500000920E-02 0. -1.
    10030    2    1    2    0    0  0.00000000000E+00  0.00000000000E+00 -0.47739443242E+03  0.10152511798E+04  0.89600754121E+03 0.  0.
        2    1    3    3  502    0  0.29359790209E+03  0.11356105479E+03 -0.59988524586E+03  0.67746450054E+03  0.25500000920E-02 0. -1.
       -2    1    3    3    0  502 -0.29359790209E+03 -0.11356105479E+03  0.12249081344E+03  0.33778667923E+03  0.25500000920E-02 0.  1.
</event>
<event>
 5   0  0.2074970E-03  0.9001525E+03  0.7818609E-02  0.9425391E-01
       -1   -1    0    0    0  501  0.00000000000E+00  0.00000000000E+00  0.15999352221E+03  0.15999352229E+03  0.50400001928E-02 0. -1.
        1   -1    0    0  501    0  0.00000000000E+00  0.00000000000E+00 -0.12661052684E+04  0.12661052684E+04  0.50400001928E-02 0.  1.
    10030    2    1    2    0    0  0.00000000000E+00  0.00000000000E+00 -0.11061117462E+04  0.14260987907E+04  0.90015252362E+03 0.  0.
        2    1    3    3  502    0  0.27140683748E+03 -0.20191526670E+03 -0.82714567021E+02  0.34824294101E+03  0.25500000920E-02 0. -1.
       -2    1    3    3    0  502 -0.27140683748E+03  0.20191526670E+03 -0.10233971792E+04  0.10778558497E+04  0.25500000920E-02 0.  1.
</event>
<event>
 5   0  0.3806019E-03  0.8983358E+03  0.7818609E-02  0.9427664E-01
       -2   -1    0    0    0  501  0.00000000000E+00  0.00000000000E+00  0.17190505420E+03  0.17190505422E+03  0.25500000920E-02 0. -1.
        2   -1    0    0  501    0  0.00000000000E+00  0.00000000000E+00 -0.11736233191E+04  0.11736233191E+04  0.25500000920E-02 0.  1.
    10030    2    1    2    0    0  0.00000000000E+00  0.00000000000E+00 -0.10017182649E+04  0.13455283733E+04  0.89833575079E+03 0.  0.
        2    1    3    3  502    0 -0.35851455199E+03  0.18741688517E+02 -0.90517626154E+03  0.97376999304E+03  0.25500000920E-02 0.  1.
       -2    1    3    3    0  502  0.35851455199E+03 -0.18741688517E+02 -0.96542003329E+02  0.37175838025E+03  0.25500000920E-02 0. -1.
</event>
<event>
 5   0  0.3815269E-03  0.9022021E+03  0.7818609E-02  0.9422833E-01
       -2   -1    0    0    0  501  0.00000000000E+00  0.00000000000E+00  0.85975381442E+02  0.85975381480E+02  0.25500000920E-02 0. -1.
        2   -1    0    0  501    0  0.00000000000E+00  0.00000000000E+00 -0.23668656346E+04  0.23668656346E+04  0.25500000920E-02 0.  1.
    10030    2    1    2    0    0  0.00000000000E+00  0.00000000000E+00 -0.22808902532E+04  0.24528410161E+04  0.90220214100E+03 0.  0.
        5    1    3    3  502    0 -0.12511126878E+03 -0.33817081595E+03 -0.40358615859E+03  0.54121733873E+03  0.46999998093E+01 0. -1.
       -5    1    3    3    0  502  0.12511126878E+03  0.33817081595E+03 -0.18773040946E+04  0.19116236774E+04  0.46999998093E+01 0.  1.
</event>
<event>
 5   0  0.3815269E-03  0.8995108E+03  0.7818609E-02  0.9426193E-01
       -2   -1    0    0    0  501  0.00000000000E+00  0.00000000000E+00  0.19108086660E+03  0.19108086662E+03  0.25500000920E-02 0. -1.
        2   -1    0    0  501    0  0.00000000000E+00  0.00000000000E+00 -0.10586090116E+04  0.10586090116E+04  0.25500000920E-02 0.  1.
    10030    2    1    2    0    0  0.00000000000E+00  0.00000000000E+00 -0.86752814496E+03  0.12496898782E+04  0.89951081668E+03 0.  0.
        5    1    3    3  502    0 -0.21260136428E+03 -0.56741704330E+01  0.11676728696E+03  0.24266896300E+03  0.46999998093E+01 0. -1.
       -5    1    3    3    0  502  0.21260136428E+03  0.56741704330E+01 -0.98429543192E+03  0.10070209152E+04  0.46999998093E+01 0.  1.
</event>
<event>
 5   0  0.3626546E-03  0.9004868E+03  0.7818609E-02  0.9424973E-01
        2   -1    0    0  501    0  0.00000000000E+00  0.00000000000E+00  0.80050933433E+03  0.80050933433E+03  0.25500000920E-02 0. -1.
       -2   -1    0    0    0  501  0.00000000000E+00  0.00000000000E+00 -0.25323767223E+03  0.25323767225E+03  0.25500000920E-02 0.  1.
    10030    2    1    2    0    0  0.00000000000E+00  0.00000000000E+00  0.54727166210E+03  0.10537470066E+04  0.90048680265E+03 0.  0.
        3    1    3    3  502    0 -0.18306797007E+03  0.34675667405E+03  0.53257756253E+03  0.66135689531E+03  0.10100000352E+00 0. -1.
       -3    1    3    3    0  502  0.18306797007E+03 -0.34675667405E+03  0.14694099570E+02  0.39239011127E+03  0.10100000352E+00 0.  1.
</event>
<event>
 5   0  0.2130975E-03  0.9000146E+03  0.7818609E-02  0.9425563E-01
       -1   -1    0    0    0  501  0.00000000000E+00  0.00000000000E+00  0.37203001546E+03  0.37203001549E+03  0.50400001928E-02 0. -1.
        1   -1    0    0  501    0  0.00000000000E+00  0.00000000000E+00 -0.54432854540E+03  0.54432854542E+03  0.50400001928E-02 0.  1.
    10030    2    1    2    0    0  0.00000000000E+00  0.00000000000E+00 -0.17229852994E+03  0.91635856091E+03  0.90001457140E+03 0.  0.
        5    1    3    3  502    0 -0.75824369157E+02  0.35998923427E+03 -0.34997423333E+03  0.50778503103E+03  0.46999998093E+01 0.  1.
       -5    1    3    3    0  502  0.75824369157E+02 -0.35998923427E+03  0.17767570339E+03  0.40857352988E+03  0.46999998093E+01 0. -1.
</event>
<event>
 5   0  0.2134145E-03  0.8996185E+03  0.7818609E-02  0.9426058E-01
        1   -1    0    0  501    0  0.00000000000E+00  0.00000000000E+00  0.10415066843E+04  0.10415066843E+04  0.50400001928E-02 0. -1.
       -1   -1    0    0    0  501  0.00000000000E+00  0.00000000000E+00 -0.19426507601E+03  0.19426507607E+03  0.50400001928E-02 0.  1.
    10030    2    1    2    0    0  0.00000000000E+00  0.00000000000E+00  0.84724160825E+03  0.12357717603E+04  0.89961853078E+03 0.  0.
        1    1    3    3  502    0  0.44716656917E+02 -0.60734804931E+02 -0.18551747803E+03  0.20026240440E+03  0.50400001928E-02 0.  1.
       -1    1    3    3    0  502 -0.44716656917E+02  0.60734804931E+02  0.10327590863E+04  0.10355093559E+04  0.50400001928E-02 0. -1.
</event>
<event>
 5   0  0.3626546E-03  0.8995127E+03  0.7818609E-02  0.9426191E-01
        2   -1    0    0  501    0  0.00000000000E+00  0.00000000000E+00  0.10615136176E+04  0.10615136176E+04  0.25500000920E-02 0.  1.
       -2   -1    0    0    0  501  0.00000000000E+00  0.00000000000E+00 -0.19055879229E+03  0.19055879231E+03  0.25500000920E-02 0. -1.
    10030    2    1    2    0    0  0.00000000000E+00  0.00000000000E+00  0.87095482531E+03  0.12520724099E+04  0.89951265245E+03 0.  0.
        3    1    3    3  502    0  0.38612903681E+03 -0.35579420979E+02  0.75264312123E+03  0.84666002999E+03  0.10100000352E+00 0.  1.
       -3    1    3    3    0  502 -0.38612903681E+03  0.35579420979E+02  0.11831170409E+03  0.40541237991E+03  0.10100000352E+00 0. -1.
</event>
<event>
 5   0  0.1436000E-03  0.9020974E+03  0.7818609E-02  0.9422963E-01
        4   -1    0    0  501    0  0.00000000000E+00  0.00000000000E+00  0.77612146893E+03  0.77612250800E+03  0.12699999809E+01 0. -1.
       -4   -1    0    0    0  501  0.00000000000E+00  0.00000000000E+00 -0.26212751873E+03  0.26213059526E+03  0.12699999809E+01 0.  1.
    10030    2    1    2    0    0  0.00000000000E+00  0.00000000000E+00  0.51399395020E+03  0.10382531033E+04  0.90209740361E+03 0.  0.
        5    1    3    3  502    0 -0.39628595567E+03  0.21398592188E+03  0.22903362951E+03  0.50528311556E+03  0.46999998093E+01 0.  1.
       -5    1    3    3    0  502  0.39628595567E+03 -0.21398592188E+03  0.28496032069E+03  0.53296998770E+03  0.46999998093E+01 0. -1.
</event>
<event>
 5   0  0.3663255E-03  0.9025132E+03  0.7818609E-02  0.9422445E-01
       -2   -1    0    0    0  501  0.00000000000E+00  0.00000000000E+00  0.73136427617E+02  0.73136427662E+02  0.25500000920E-02 0. -1.
        2   -1    0    0  501    0  0.00000000000E+00  0.00000000000E+00 -0.27842831915E+04  0.27842831915E+04  0.25500000920E-02 0.  1.
    10030    2    1    2    0    0  0.00000000000E+00  0.00000000000E+00 -0.27111467639E+04  0.28574196192E+04  0.90251321578E+03 0.  0.
        4    1    3    3  502    0 -0.18918854234E+03  0.39234406683E+03 -0.17289111430E+04  0.17829362088E+04  0.12699999809E+01 0.  1.
       -4    1    3    3    0  502  0.18918854234E+03 -0.39234406683E+03 -0.98223562089E+03  0.10744834104E+04  0.12699999809E+01 0. -1.
</event>
<event>
 5   0  0.1436000E-03  0.9005269E+03  0.7818609E-02  0.9424923E-01
       -3   -1    0    0    0  501  0.00000000000E+00  0.00000000000E+00  0.11461169986E+04  0.11461170031E+04  0.10100000352E+00 0.  1.
        3   -1    0    0  501    0  0.00000000000E+00  0.00000000000E+00 -0.17689043925E+03  0.17689046808E+03  0.10100000352E+00 0. -1.
    10030    2    1    2    0    0  0.00000000000E+00  0.00000000000E+00  0.96922655938E+03  0.13230074712E+04  0.90052687097E+03 0.  0.
        1    1    3    3  502    0 -0.17384975512E+03 -0.13068837578E+03  0.10638266702E+04  0.10858316505E+04  0.50400001928E-02 0.  1.
       -1    1    3    3    0  502  0.17384975512E+03  0.13068837578E+03 -0.94600110828E+02  0.23717582067E+03  0.50400001928E-02 0. -1.
</event>
<event>
 5   0  0.2295158E-03  0.8781503E+03  0.7818609E-02  0.9453314E-01
       -1   -1    0    0    0  501  0.00000000000E+00  0.00000000000E+00  0.53699833305E+03  0.53699833307E+03  0.50400001928E-02 0.  1.
        1   -1    0    0  501    0  0.00000000000E+00  0.00000000000E+00 -0.35900856852E+03  0.35900856855E+03  0.50400001928E-02 0. -1.
    10030    2    1    2    0    0  0.00000000000E+00  0.00000000000E+00  0.17798976453E+03  0.89600690163E+03  0.87815033535E+03 0.  0.
        4    1    3    3  502    0 -0.24013963941E+03  0.15126301237E+03 -0.25283666629E+03  0.38009937917E+03  0.12699999809E+01 0. -1.
       -4    1    3    3    0  502  0.24013963941E+03 -0.15126301237E+03  0.43082643082E+03  0.51590752245E+03  0.12699999809E+01 0.  1.
</event>
<event>
 5   0  0.3663255E-03  0.9004856E+03  0.7818609E-02  0.9424975E-01
       -2   -1    0    0    0  501  0.00000000000E+00  0.00000000000E+00  0.32045728923E+03  0.32045728925E+03  0.25500000920E-02 0.  1.
        2   -1    0    0  501    0  0.00000000000E+00  0.00000000000E+00 -0.63259159927E+03  0.63259159928E+03  0.25500000920E-02 0. -1.
    10030    2    1    2    0    0  0.00000000000E+00  0.00000000000E+00 -0.31213431004E+03  0.95304888852E+03  0.90048562255E+03 0.  0.
        4    1    3    3  502    0  0.21199571101E+03  0.14464539749E+03  0.23546259732E+03  0.34829401393E+03  0.12699999809E+01 0.  1.
       -4    1    3    3    0  502 -0.21199571101E+03 -0.14464539749E+03 -0.54759690736E+03  0.60475487460E+03  0.12699999809E+01 0. -1.
</event>
<event>
 5   0  0.3685879E-03  0.9010056E+03  0.7818609E-02  0.9424325E-01
        2   -1    0    0  501    0  0.00000000000E+00  0.00000000000E+00  0.25165902251E+03  0.25165902252E+03  0.25500000920E-02 0.  1.
       -2   -1    0    0    0  501  0.00000000000E+00  0.00000000000E+00 -0.80645930826E+03  0.80645930826E+03  0.25500000920E-02 0. -1.
    10030    2    1    2    0    0  0.00000000000E+00  0.00000000000E+00 -0.55480028575E+03  0.10581183308E+04  0.90100557427E+03 0.  0.
        1    1    3    3  502    0 -0.24245692438E+03 -0.10880571499E+03 -0.70460266876E+03  0.75305309550E+03  0.50400001928E-02 0. -1.
       -1    1    3    3    0  502  0.24245692438E+03  0.10880571499E+03  0.14980238301E+03  0.30506523528E+03  0.50400001928E-02 0.  1.
</event>
<event>
 5   0  0.3806019E-03  0.8941937E+03  0.7818609E-02  0.9432869E-01
        2   -1    0    0  501    0  0.00000000000E+00  0.00000000000E+00  0.96785253168E+03  0.96785253168E+03  0.25500000920E-02 0. -1.
       -2   -1    0    0    0  501  0.00000000000E+00  0.00000000000E+00 -0.20653519250E+03  0.20653519252E+03  0.25500000920E-02 0.  1.
    10030    2    1    2    0    0  0.00000000000E+00  0.00000000000E+00  0.76131733917E+03  0.11743877242E+04  0.89419373507E+03 0.  0.
        2    1    3    3  502    0  0.20168655861E+03 -0.37453101717E+03  0.56142738311E+03  0.70438033565E+03  0.25500000920E-02 0. -1.
       -2    1    3    3    0  502 -0.20168655861E+03  0.37453101717E+03  0.19988995607E+03  0.47000738855E+03  0.25500000920E-02 0.  1.
</event>
<event>
 5   0  0.2129280E-03  0.9141016E+03  0.7818609E-02  0.9408123E-01
        1   -1    0    0  501    0  0.00000000000E+00  0.00000000000E+00  0.82234108306E+03  0.82234108308E+03  0.50400001928E-02 0.  1.
       -1   -1    0    0    0  501  0.00000000000E+00  0.00000000000E+00 -0.25402531698E+03  0.25402531703E+03  0.50400001928E-02 0. -1.
    10030    2    1    2    0    0  0.00000000000E+00  0.00000000000E+00  0.56831576609E+03  0.10763664001E+04  0.91410164494E+03 0.  0.
        3    1    3    3  502    0  0.27073652163E+03  0.21761176498E+03 -0.65629427967E+02  0.35349734995E+03  0.10100000352E+00 0.  1.
       -3    1    3    3    0  502 -0.27073652163E+03 -0.21761176498E+03  0.63394519406E+03  0.72286905015E+03  0.10100000352E+00 0. -1.
</event>
<event>
 5   0  0.1436000E-03  0.8981779E+03  0.7818609E-02  0.9427862E-01
        3   -1    0    0  501    0  0.00000000000E+00  0.00000000000E+00  0.76235194611E+03  0.76235195280E+03  0.10100000352E+00 0. -1.
       -3   -1    0    0    0  501  0.00000000000E+00  0.00000000000E+00 -0.26455086757E+03  0.26455088685E+03  0.10100000352E+00 0.  1.
    10030    2    1    2    0    0  0.00000000000E+00  0.00000000000E+00  0.49780107854E+03  0.10269028396E+04  0.89817789345E+03 0.  0.
        1    1    3    3  502    0  0.79163074335E+02 -0.44047981333E+03  0.29155141084E+03  0.53412684212E+03  0.50400001928E-02 0.  1.
       -1    1    3    3    0  502 -0.79163074335E+02  0.44047981333E+03  0.20624966770E+03  0.49277599753E+03  0.50400001928E-02 0. -1.
</event>
<event>
 5   0  0.2134145E-03  0.8998888E+03  0.7818609E-02  0.9425720E-01
        1   -1    0    0  501    0  0.00000000000E+00  0.00000000000E+00  0.26404460419E+03  0.26404460424E+03  0.50400001928E-02 0.  1.
       -1   -1    0    0    0  501  0.00000000000E+00  0.00000000000E+00 -0.76672640997E+03  0.76672640999E+03  0.50400001928E-02 0. -1.
    10030    2    1    2    0    0  0.00000000000E+00  0.00000000000E+00 -0.50268180578E+03  0.10307710142E+04  0.89988881864E+03 0.  0.
        1    1    3    3  502    0 -0.82193062811E+02  0.42116574890E+02  0.25307081255E+03  0.26939625395E+03  0.50400001928E-02 0.  1.
       -1    1    3    3    0  502  0.82193062811E+02 -0.42116574890E+02 -0.75575261833E+03  0.76137476028E+03  0.50400001928E-02 0. -1.
</event>
<event>
 5   0  0.2074970E-03  0.9009538E+03  0.7818609E-02  0.9424390E-01
        1   -1    0    0  501    0  0.00000000000E+00  0.00000000000E+00  0.12019917214E+04  0.12019917214E+04  0.50400001928E-02 0.  1.
       -1   -1    0    0    0  501  0.00000000000E+00  0.00000000000E+00 -0.16882766377E+03  0.16882766384E+03  0.50400001928E-02 0. -1.
    10030    2    1    2    0    0  0.00000000000E+00  0.00000000000E+00  0.10331640577E+04  0.13708193853E+04  0.90095383734E+03 0.  0.
        2    1    3    3  502    0  0.29873176256E+03 -0.20622878152E+03  0.11070822375E+03  0.37950927143E+03  0.25500000920E-02 0. -1.
       -2    1    3    3    0  502 -0.29873176256E+03  0.20622878152E+03  0.92245583391E+03  0.99131011385E+03  0.25500000920E-02 0.  1.
</event>
<event>
 5   0  0.3806019E-03  0.8935346E+03  0.7818609E-02  0.9433700E-01
        2   -1    0    0  501    0  0.00000000000E+00  0.00000000000E+00  0.39055323059E+03  0.39055323060E+03  0.25500000920E-02 0. -1.
       -2   -1    0    0    0  501  0.00000000000E+00  0.00000000000E+00 -0.51107256411E+03  0.51107256412E+03  0.25500000920E-02 0.  1.
    10030    2    1    2    0    0  0.00000000000E+00  0.00000000000E+00 -0.12051933352E+03  0.90162579471E+03  0.89353464619E+03 0.  0.
        2    1    3    3  502    0 -0.12521185864E+03  0.30193417099E+03 -0.36758082667E+03  0.49189218057E+03  0.25500000920E-02 0.  1.
       -2    1    3    3    0  502  0.12521185864E+03 -0.30193417099E+03  0.24706149315E+03  0.40973361415E+03  0.25500000920E-02 0. -1.
</event>
<event>
 5   0  0.3815269E-03  0.8948076E+03  0.7818609E-02  0.9432096E-01
       -2   -1    0    0    0  501  0.00000000000E+00  0.00000000000E+00  0.38768492265E+03  0.38768492266E+03  0.25500000920E-02 0. -1.
        2   -1    0    0  501    0  0.00000000000E+00  0.00000000000E+00 -0.51632172226E+03  0.51632172226E+03  0.25500000920E-02 0.  1.
    10030    2    1    2    0    0  0.00000000000E+00  0.00000000000E+00 -0.12863679961E+03  0.90400664492E+03  0.89480757029E+03 0.  0.
        5    1    3    3  502    0 -0.97669775761E+02 -0.19754398366E+03  0.32902344795E+03  0.39603223338E+03  0.46999998093E+01 0. -1.
       -5    1    3    3    0  502  0.97669775761E+02  0.19754398366E+03 -0.45766024756E+03  0.50797441154E+03  0.46999998093E+01 0.  1.
</event>
<event>
 5   0  0.2134145E-03  0.8995701E+03  0.7818609E-02  0.9426119E-01
        1   -1    0    0  501    0  0.00000000000E+00  0.00000000000E+00  0.56263279839E+03  0.56263279842E+03  0.50400001928E-02 0.  1.
       -1   -1    0    0    0  501  0.00000000000E+00  0.00000000000E+00 -0.35957123576E+03  0.35957123579E+03  0.50400001928E-02 0. -1.
    10030    2    1    2    0    0  0.00000000000E+00  0.00000000000E+00  0.20306156264E+03  0.92220403421E+03  0.89957005424E+03 0.  0.
        1    1    3    3  502    0 -0.37688308353E+03 -0.18408927395E+03 -0.64965102926E+02  0.42444102542E+03  0.50400001928E-02 0. -1.
       -1    1    3    3    0  502  0.37688308353E+03  0.18408927395E+03  0.26802666556E+03  0.49776300879E+03  0.50400001928E-02 0.  1.
</event>
<event>
 5   0  0.3685879E-03  0.9013785E+03  0.7818609E-02  0.9423860E-01
       -2   -1    0    0    0  501  0.00000000000E+00  0.00000000000E+00  0.59441834420E+03  0.59441834421E+03  0.25500000920E-02 0.  1.
        2   -1    0    0  501    0  0.00000000000E+00  0.00000000000E+00 -0.34171357613E+03  0.34171357614E+03  0.25500000920E-02 0. -1.
    10030    2    1    2    0    0  0.00000000000E+00  0.00000000000E+00  0.25270476807E+03  0.93613192035E+03  0.90137854006E+03 0.  0.
        1    1    3    3  502    0 -0.39891661105E+03  0.57561385566E+02  0.33580373683E+03  0.52460644809E+03  0.50400001928E-02 0.  1.
       -1    1    3    3    0  502  0.39891661105E+03 -0.57561385566E+02 -0.83098968752E+02  0.41152547226E+03  0.50400001928E-02 0. -1.
</event>
<event>
 5   0  0.2134145E-03  0.9073399E+03  0.7818609E-02  0.9416452E-01
       -1   -1    0    0    0  501  0.00000000000E+00  0.00000000000E+00  0.17676635602E+03  0.17676635609E+03  0.50400001928E-02 0. -1.
        1   -1    0    0  501    0  0.00000000000E+00  0.00000000000E+00 -0.11643416866E+04  0.11643416866E+04  0.50400001928E-02 0.  1.
    10030    2    1    2    0    0  0.00000000000E+00  0.00000000000E+00 -0.98757533059E+03  0.13411080427E+04  0.90733993003E+03 0.  0.
        1    1    3    3  502    0  0.61711763204E+02  0.40609962137E+03 -0.20912589617E+03  0.46093262487E+03  0.50400001928E-02 0. -1.
       -1    1    3    3    0  502 -0.61711763204E+02 -0.40609962137E+03 -0.77844943442E+03  0.88017541784E+03  0.50400001928E-02 0.  1.
</event>
<event>
 5   0  0.3815269E-03  0.9012900E+03  0.7818609E-02  0.9423970E-01
        2   -1    0    0  501    0  0.00000000000E+00  0.00000000000E+00  0.17019233874E+04  0.17019233874E+04  0.25500000920E-02 0. -1.
       -2   -1    0    0    0  501  0.00000000000E+00  0.00000000000E+00 -0.11932436794E+03  0.11932436796E+03  0.25500000920E-02 0.  1.
    10030    2    1    2    0    0  0.00000000000E+00  0.00000000000E+00  0.15825990195E+04  0.18212477554E+04  0.90129003658E+03 0.  0.
        5    1    3    3  502    0 -0.26080776427E+03  0.28789880889E+02  0.15315790686E+04  0.15539002801E+04  0.46999998093E+01 0. -1.
       -5    1    3    3    0  502  0.26080776427E+03 -0.28789880889E+02  0.51019950875E+02  0.26734747527E+03  0.46999998093E+01 0.  1.
</event>
<event>
 5   0  0.3685879E-03  0.9029875E+03  0.7818609E-02  0.9421855E-01
       -2   -1    0    0    0  501  0.00000000000E+00  0.00000000000E+00  0.40698383010E+03  0.40698383011E+03  0.25500000920E-02 0.  1.
        2   -1    0    0  501    0  0.00000000000E+00  0.00000000000E+00 -0.50087149004E+03  0.50087149004E+03  0.25500000920E-02 0. -1.
    10030    2    1    2    0    0  0.00000000000E+00  0.00000000000E+00 -0.93887659932E+02  0.90785532016E+03  0.90298748034E+03 0.  0.
        1    1    3    3  502    0  0.30313250134E+03  0.32503505542E+03 -0.12680437592E+03  0.46218659695E+03  0.50400001928E-02 0. -1.
       -1    1    3    3    0  502 -0.30313250134E+03 -0.32503505542E+03  0.32916715990E+02  0.44566872320E+03  0.50400001928E-02 0.  1.
</event>
<event>
 5   0  0.3815269E-03  0.9006765E+03  0.7818609E-02  0.9424736E-01
        2   -1    0    0  501    0  0.00000000000E+00  0.00000000000E+00  0.32519235050E+03  0.32519235051E+03  0.25500000920E-02 0.  1.
       -2   -1    0    0    0  501  0.00000000000E+00  0.00000000000E+00 -0.62364489283E+03  0.62364489283E+03  0.25500000920E-02 0. -1.
    10030    2    1    2    0    0  0.00000000000E+00  0.00000000000E+00 -0.29845254233E+03  0.94883724334E+03  0.90067652036E+03 0.  0.
        5    1    3    3  502    0 -0.15091973305E+03 -0.36651761637E+03 -0.37436017696E+03  0.54523349221E+03  0.46999998093E+01 0. -1.
       -5    1    3    3    0  502  0.15091973305E+03  0.36651761637E+03  0.75907634627E+02  0.40360375113E+03  0.46999998093E+01 0.  1.
</event>
<event>
 5   0  0.3815269E-03  0.8987630E+03  0.7818609E-02  0.9427129E-01
       -2   -1    0    0    0  501  0.00000000000E+00  0.00000000000E+00  0.24605165590E+03  0.24605165591E+03  0.25500000920E-02 0. -1.
        2   -1    0    0  501    0  0.00000000000E+00  0.00000000000E+00 -0.82073713278E+03  0.82073713278E+03  0.25500000920E-02 0.  1.
    10030    2    1    2    0    0  0.00000000000E+00  0.00000000000E+00 -0.57468547688E+03  0.10667887887E+04  0.89876299565E+03 0.  0.
        5    1    3    3  502    0 -0.40748806927E+03 -0.18126833570E+03 -0.35253770080E+03  0.56851530903E+03  0.46999998093E+01 0. -1.
       -5    1    3    3    0  502  0.40748806927E+03  0.18126833570E+03 -0.22214777608E+03  0.49827347966E+03  0.46999998093E+01 0.  1.
</event>
<event>
 5   0  0.1436000E-03  0.9212207E+03  0.7818609E-02  0.9399437E-01
        4   -1    0    0  501    0  0.00000000000E+00  0.00000000000E+00  0.13637293092E+03  0.13637884436E+03  0.12699999809E+01 0. -1.
       -4   -1    0    0    0  501  0.00000000000E+00  0.00000000000E+00 -0.15557078288E+04  0.15557083472E+04  0.12699999809E+01 0.  1.
    10030    2    1    2    0    0  0.00000000000E+00  0.00000000000E+00 -0.14193348979E+04  0.16920871915E+04  0.92122066381E+03 0.  0.
        3    1    3    3  502    0 -0.36959835858E+03 -0.95231994802E+02 -0.23604035138E+03  0.44876178222E+03  0.10100000352E+00 0. -1.
       -3    1    3    3    0  502  0.36959835858E+03  0.95231994802E+02 -0.11832945465E+04  0.12433254093E+04  0.10100000352E+00 0.  1.
</event>
<event>
 5   0  0.3626546E-03  0.8985338E+03  0.7818609E-02  0.9427416E-01
       -2   -1    0    0    0  501  0.00000000000E+00  0.00000000000E+00  0.13451877939E+03  0.13451877942E+03  0.25500000920E-02 0. -1.
        2   -1    0    0  501    0  0.00000000000E+00  0.00000000000E+00 -0.15004651663E+04  0.15004651663E+04  0.25500000920E-02 0.  1.
    10030    2    1    2    0    0  0.00000000000E+00  0.00000000000E+00 -0.13659463869E+04  0.16349839457E+04  0.89853378948E+03 0.  0.
        3    1    3    3  502    0  0.14627216842E+01 -0.26823737107E+03 -0.13387596348E+04  0.13653683740E+04  0.10100000352E+00 0.  1.
       -3    1    3    3    0  502 -0.14627216842E+01  0.26823737107E+03 -0.27186752070E+02  0.26961557166E+03  0.10100000352E+00 0. -1.
</event>
<event>
 5   0  0.2074970E-03  0.9008078E+03  0.7818609E-02  0.9424572E-01
       -1   -1    0    0    0  501  0.00000000000E+00  0.00000000000E+00  0.16794554143E+03  0.16794554150E+03  0.50400001928E-02 0.  1.
        1   -1    0    0  501    0  0.00000000000E+00  0.00000000000E+00 -0.12079133841E+04  0.12079133841E+04  0.50400001928E-02 0. -1.
    10030    2    1    2    0    0  0.00000000000E+00  0.00000000000E+00 -0.10399678427E+04  0.13758589256E+04  0.90080778717E+03 0.  0.
        2    1    3    3  502    0 -0.79273943719E+02 -0.34955092785E+03 -0.10339362758E+03  0.37304215786E+03  0.25500000920E-02 0.  1.
       -2    1    3    3    0  502  0.79273943719E+02  0.34955092785E+03 -0.93657421512E+03  0.10028167678E+04  0.25500000920E-02 0. -1.
</event>
<event>
 5   0  0.3663255E-03  0.9085911E+03  0.7818609E-02  0.9414905E-01
       -2   -1    0    0    0  501  0.00000000000E+00  0.00000000000E+00  0.14474403443E+03  0.14474403445E+03  0.25500000920E-02 0.  1.
        2   -1    0    0  501    0  0.00000000000E+00  0.00000000000E+00 -0.14258581708E+04  0.14258581708E+04  0.25500000920E-02 0. -1.
    10030    2    1    2    0    0  0.00000000000E+00  0.00000000000E+00 -0.12811141364E+04  0.15706022053E+04  0.90859113838E+03 0.  0.
        4    1    3    3  502    0 -0.39305069083E+03  0.11254421532E+03 -0.98292628694E+03  0.10645659888E+04  0.12699999809E+01 0. -1.
       -4    1    3    3    0  502  0.39305069083E+03 -0.11254421532E+03 -0.29818784947E+03  0.50603621652E+03  0.12699999809E+01 0.  1.
</event>
<event>
 5   0  0.2129280E-03  0.9020972E+03  0.7818609E-02  0.9422964E-01
       -1   -1    0    0    0  501  0.00000000000E+00  0.00000000000E+00  0.28351190845E+03  0.28351190849E+03  0.50400001928E-02 0. -1.
        1   -1    0    0  501    0  0.00000000000E+00  0.00000000000E+00 -0.71758830741E+03  0.71758830743E+03  0.50400001928E-02 0.  1.
    10030    2    1    2    0    0  0.00000000000E+00  0.00000000000E+00 -0.43407639897E+03  0.10011002159E+04  0.90209718001E+03 0.  0.
        3    1    3    3  502    0 -0.41112426506E+03 -0.12270870008E+03 -0.62610788546E+02  0.43359048356E+03  0.10100000352E+00 0.  1.
       -3    1    3    3    0  502  0.41112426506E+03  0.12270870008E+03 -0.37146561042E+03  0.56750973236E+03  0.10100000352E+00 0. -1.
</event>
<event>
 5   0  0.3626546E-03  0.9013153E+03  0.7818609E-02  0.9423939E-01
        2   -1    0    0  501    0  0.00000000000E+00  0.00000000000E+00  0.43067208603E+03  0.43067208604E+03  0.25500000920E-02 0. -1.
       -2   -1    0    0    0  501  0.00000000000E+00  0.00000000000E+00 -0.47157062342E+03  0.47157062342E+03  0.25500000920E-02 0.  1.
    10030    2    1    2    0    0  0.00000000000E+00  0.00000000000E+00 -0.40898537388E+02  0.90224270946E+03  0.90131527027E+03 0.  0.
        3    1    3    3  502    0 -0.14311412861E+03 -0.67413283770E+02  0.40196371903E+03  0.43197343235E+03  0.10100000352E+00 0. -1.
       -3    1    3    3    0  502  0.14311412861E+03  0.67413283770E+02 -0.44286225642E+03  0.47026927711E+03  0.10100000352E+00 0.  1.
</event>
<event>
 5   0  0.2295158E-03  0.9002009E+03  0.7818609E-02  0.9425330E-01
        1   -1    0    0  501    0  0.00000000000E+00  0.00000000000E+00  0.36456311653E+03  0.36456311657E+03  0.50400001928E-02 0. -1.
       -1   -1    0    0    0  501  0.00000000000E+00  0.00000000000E+00 -0.55570736408E+03  0.55570736410E+03  0.50400001928E-02 0.  1.
    10030    2    1    2    0    0  0.00000000000E+00  0.00000000000E+00 -0.19114424755E+03  0.92027048067E+03  0.90020088548E+03 0.  0.
        4    1    3    3  502    0 -0.40577090632E+03 -0.62208646083E+02 -0.28426469518E+03  0.49932752167E+03  0.12699999809E+01 0.  1.
       -4    1    3    3    0  502  0.40577090632E+03  0.62208646083E+02  0.93120447639E+02  0.42094295900E+03  0.12699999809E+01 0. -1.
</event>
<event>
 5   0  0.3685879E-03  0.9002275E+03  0.7818609E-02  0.9425297E-01
        2   -1    0    0  501    0  0.00000000000E+00  0.00000000000E+00  0.45070707876E+03  0.45070707876E+03  0.25500000920E-02 0. -1.
       -2   -1    0    0    0  501  0.00000000000E+00  0.00000000000E+00 -0.44952116187E+03  0.44952116187E+03  0.25500000920E-02 0.  1.
    10030    2    1    2    0    0  0.00000000000E+00  0.00000000000E+00  0.11859168891E+01  0.90022824064E+03  0.90022745950E+03 0.  0.
        1    1    3    3  502    0 -0.81286384776E+02 -0.39820174921E+03 -0.19287622571E+03  0.44985925343E+03  0.50400001928E-02 0.  1.
       -1    1    3    3    0  502  0.81286384776E+02  0.39820174921E+03  0.19406214260E+03  0.45036898721E+03  0.50400001928E-02 0. -1.
</event>
<event>
 5   0  0.2130975E-03  0.9001093E+03  0.7818609E-02  0.9425445E-01
       -1   -1    0    0    0  501  0.00000000000E+00  0.00000000000E+00  0.15803774541E+03  0.15803774549E+03  0.50400001928E-02 0.  1.
        1   -1    0    0  501    0  0.00000000000E+00  0.00000000000E+00 -0.12816506184E+04  0.12816506184E+04  0.50400001928E-02 0. -1.
    10030    2    1    2    0    0  0.00000000000E+00  0.00000000000E+00 -0.11236128730E+04  0.14396883639E+04  0.90010926937E+03 0.  0.
        5    1    3    3  502    0 -0.33457129516E+02 -0.17362589438E+03 -0.12237233121E+04  0.12364409267E+04  0.46999998093E+01 0. -1.
       -5    1    3    3    0  502  0.33457129516E+02  0.17362589438E+03  0.10011043909E+03  0.20324743720E+03  0.46999998093E+01 0.  1.
</event>
<event>
 5   0  0.2295158E-03  0.9009615E+03  0.7818609E-02  0.9424380E-01
       -1   -1    0    0    0  501  0.00000000000E+00  0.00000000000E+00  0.15782715029E+03  0.15782715038E+03  0.50400001928E-02 0. -1.
        1   -1    0    0  501    0  0.00000000000E+00  0.00000000000E+00 -0.12857919806E+04  0.12857919806E+04  0.50400001928E-02 0.  1.
    10030    2    1    2    0    0  0.00000000000E+00  0.00000000000E+00 -0.11279648303E+04  0.14436191310E+04  0.90096145142E+03 0.  0.
        4    1    3    3  502    0 -0.23968370121E+03 -0.20707642820E+03 -0.10772278179E+04  0.11228313802E+04  0.12699999809E+01 0.  1.
       -4    1    3    3    0  502  0.23968370121E+03  0.20707642820E+03 -0.50737012396E+02  0.32078775081E+03  0.12699999809E+01 0. -1.
</event>
<event>
 5   0  0.3626546E-03  0.8800920E+03  0.7818609E-02  0.9450815E-01
        2   -1    0    0  501    0  0.00000000000E+00  0.00000000000E+00  0.69873555497E+03  0.69873555497E+03  0.25500000920E-02 0. -1.
       -2   -1    0    0    0  501  0.00000000000E+00  0.00000000000E+00 -0.27712987707E+03  0.27712987708E+03  0.25500000920E-02 0.  1.
    10030    2    1    2    0    0  0.00000000000E+00  0.00000000000E+00  0.42160567790E+03  0.97586543205E+03  0.88009203714E+03 0.  0.
        3    1    3    3  502    0  0.23150042595E+03  0.15734261326E+03 -0.16569300976E+03  0.32527423638E+03  0.10100000352E+00 0.  1.
       -3    1    3    3    0  502 -0.23150042595E+03 -0.15734261326E+03  0.58729868766E+03  0.65059119568E+03  0.10100000352E+00 0. -1.
</event>
<event>
 5   0  0.2130975E-03  0.8992390E+03  0.7818609E-02  0.9426533E-01
       -1   -1    0    0    0  501  0.00000000000E+00  0.00000000000E+00  0.54539809524E+03  0.54539809526E+03  0.50400001928E-02 0. -1.
        1   -1    0    0  501    0  0.00000000000E+00  0.00000000000E+00 -0.37066079418E+03  0.37066079421E+03  0.50400001928E-02 0.  1.
    10030    2    1    2    0    0  0.00000000000E+00  0.00000000000E+00  0.17473730106E+03  0.91605888947E+03  0.89923899193E+03 0.  0.
        5    1    3    3  502    0 -0.27735271073E+03  0.18888651109E+03  0.39218603835E+03  0.51617305131E+03  0.46999998093E+01 0.  1.
       -5    1    3    3    0  502  0.27735271073E+03 -0.18888651109E+03 -0.21744873729E+03  0.39988583817E+03  0.46999998093E+01 0. -1.
</event>
<event>
 5   0  0.2129280E-03  0.8978557E+03  0.7818609E-02  0.9428266E-01
       -1   -1    0    0    0  501  0.00000000000E+00  0.00000000000E+00  0.40554509124E+03  0.40554509127E+03  0.50400001928E-02 0.  1.
        1   -1    0    0  501    0  0.00000000000E+00  0.00000000000E+00 -0.49695139774E+03  0.49695139776E+03  0.50400001928E-02 0. -1.
    10030    2    1    2    0    0  0.00000000000E+00  0.00000000000E+00 -0.91406306497E+02  0.90249648903E+03  0.89785566760E+03 0.  0.
        3    1    3    3  502    0  0.44588985240E+03 -0.51612548952E+02 -0.38277542405E+02  0.45049616662E+03  0.10100000352E+00 0.  1.
       -3    1    3    3    0  502 -0.44588985240E+03  0.51612548952E+02 -0.53128764092E+02  0.45200032241E+03  0.10100000352E+00 0. -1.
</event>
<event>
 5   0  0.2074970E-03  0.8985610E+03  0.7818609E-02  0.9427382E-01
       -1   -1    0    0    0  501  0.00000000000E+00  0.00000000000E+00  0.17772737855E+03  0.17772737862E+03  0.50400001928E-02 0. -1.
        1   -1    0    0  501    0  0.00000000000E+00  0.00000000000E+00 -0.11357450107E+04  0.11357450107E+04  0.50400001928E-02 0.  1.
    10030    2    1    2    0    0  0.00000000000E+00  0.00000000000E+00 -0.95801763212E+03  0.13134723893E+04  0.89856103522E+03 0.  0.
        2    1    3    3  502    0  0.11530315278E+03  0.34989804809E+03 -0.10310991262E+03  0.38256387072E+03  0.25500000920E-02 0. -1.
       -2    1    3    3    0  502 -0.11530315278E+03 -0.34989804809E+03 -0.85490771950E+03  0.93090851858E+03  0.25500000920E-02 0.  1.
</event>
<event>
 5   0  0.3806019E-03  0.9008644E+03  0.7818609E-02  0.9424501E-01
       -2   -1    0    0    0  501  0.00000000000E+00  0.00000000000E+00  0.10505381604E+03  0.10505381607E+03  0.25500000920E-02 0.  1.
        2   -1    0    0  501    0  0.00000000000E+00  0.00000000000E+00 -0.19312880503E+04  0.19312880503E+04  0.25500000920E-02 0. -1.
    10030    2    1    2    0    0  0.00000000000E+00  0.00000000000E+00 -0.18262342343E+04  0.20363418664E+04  0.90086442839E+03 0.  0.
        2    1    3    3  502    0 -0.20115063374E+03  0.40276343991E+03 -0.88042175083E+03  0.98884904071E+03  0.25500000920E-02 0. -1.
       -2    1    3    3    0  502  0.20115063374E+03 -0.40276343991E+03 -0.94581248347E+03  0.10474928257E+04  0.25500000920E-02 0.  1.
</event>
<event>
 5   0  0.2074970E-03  0.9039465E+03  0.7818609E-02  0.9420662E-01
        1   -1    0    0  501    0  0.00000000000E+00  0.00000000000E+00  0.24965519710E+03  0.24965519715E+03  0.50400001928E-02 0. -1.
       -1   -1    0    0    0  501  0.00000000000E+00  0.00000000000E+00 -0.81824777017E+03  0.81824777019E+03  0.50400001928E-02 0.  1.
    10030    2    1    2    0    0  0.00000000000E+00  0.00000000000E+00 -0.56859257307E+03  0.10679029673E+04  0.90394647713E+03 0.  0.
        2    1    3    3  502    0 -0.37439498597E+03  0.24809045726E+03 -0.34406199058E+03  0.56577304095E+03  0.25500000920E-02 0. -1.
       -2    1    3    3    0  502  0.37439498597E+03 -0.24809045726E+03 -0.22453058249E+03  0.50212992639E+03  0.25500000920E-02 0.  1.
</event>
<event>
 5   0  0.2074970E-03  0.8979003E+03  0.7818609E-02  0.9428210E-01
        1   -1    0    0  501    0  0.00000000000E+00  0.00000000000E+00  0.21501368029E+03  0.21501368035E+03  0.50400001928E-02 0. -1.
       -1   -1    0    0    0  501  0.00000000000E+00  0.00000000000E+00 -0.93741120831E+03  0.93741120832E+03  0.50400001928E-02 0.  1.
    10030    2    1    2    0    0  0.00000000000E+00  0.00000000000E+00 -0.72239752802E+03  0.11524248887E+04  0.89790029264E+03 0.  0.
        2    1    3    3  502    0 -0.17880364730E+03 -0.63408859789E+02 -0.88343683476E+03  0.90357737289E+03  0.25500000920E-02 0.  1.
       -2    1    3    3    0  502  0.17880364730E+03  0.63408859789E+02  0.16103930674E+03  0.24884751578E+03  0.25500000920E-02 0. -1.
</event>
<event>
 5   0  0.2129280E-03  0.8997175E+03  0.7818609E-02  0.9425935E-01
        1   -1    0    0  501    0  0.00000000000E+00  0.00000000000E+00  0.25358879535E+03  0.25358879540E+03  0.50400001928E-02 0. -1.
       -1   -1    0    0    0  501  0.00000000000E+00  0.00000000000E+00 -0.79803568730E+03  0.79803568732E+03  0.50400001928E-02 0.  1.
    10030    2    1    2    0    0  0.00000000000E+00  0.00000000000E+00 -0.54444689195E+03  0.10516244827E+04  0.89971753039E+03 0.  0.
        3    1    3    3  502    0  0.38557791411E+03 -0.13394492442E+02 -0.18118126345E+01  0.38581476532E+03  0.10100000352E+00 0. -1.
       -3    1    3    3    0  502 -0.38557791411E+03  0.13394492442E+02 -0.54263507932E+03  0.66580971740E+03  0.10100000352E+00 0.  1.
</event>
<event>
 5   0  0.3685879E-03  0.8953189E+03  0.7818609E-02  0.9431452E-01
        2   -1    0    0  501    0  0.00000000000E+00  0.00000000000E+00  0.10317421145E+04  0.10317421145E+04  0.25500000920E-02 0. -1.
       -2   -1    0    0    0  501  0.00000000000E+00  0.00000000000E+00 -0.19423361249E+03  0.19423361251E+03  0.25500000920E-02 0.  1.
    10030    2    1    2    0    0  0.00000000000E+00  0.00000000000E+00  0.83750850199E+03  0.12259757270E+04  0.89531893327E+03 0.  0.
        1    1    3    3  502    0 -0.34205762345E+03  0.28861566480E+03  0.40529738539E+03  0.60379499034E+03  0.50400001928E-02 0.  1.
       -1    1    3    3    0  502  0.34205762345E+03 -0.28861566480E+03  0.43221111660E+03  0.62218073666E+03  0.50400001928E-02 0. -1.
</event>
<event>
 5   0  0.1436000E-03  0.8969776E+03  0.7818609E-02  0.9429368E-01
        3   -1    0    0  501    0  0.00000000000E+00  0.00000000000E+00  0.21218501790E+03  0.21218504194E+03  0.10100000352E+00 0.  1.
       -3   -1    0    0    0  501  0.00000000000E+00  0.00000000000E+00 -0.94795653092E+03  0.94795653630E+03  0.10100000352E+00 0. -1.
    10030    2    1    2    0    0  0.00000000000E+00  0.00000000000E+00 -0.73577151302E+03  0.11601415782E+04  0.89697757061E+03 0.  0.
        5    1    3    3  502    0  0.14841842832E+03  0.37092561031E+03 -0.10438235766E+03  0.41295472493E+03  0.46999998093E+01 0. -1.
       -5    1    3    3    0  502 -0.14841842832E+03 -0.37092561031E+03 -0.63138915537E+03  0.74718685331E+03  0.46999998093E+01 0.  1.
</event>
<event>
 5   0  0.3663255E-03  0.9088486E+03  0.7818609E-02  0.9414587E-01
        2   -1    0    0  501    0  0.00000000000E+00  0.00000000000E+00  0.15645588903E+04  0.15645588903E+04  0.25500000920E-02 0. -1.
       -2   -1    0    0    0  501  0.00000000000E+00  0.00000000000E+00 -0.13198701823E+03  0.13198701826E+03  0.25500000920E-02 0.  1.
    10030    2    1    2    0    0  0.00000000000E+00  0.00000000000E+00  0.14325718720E+04  0.16965459085E+04  0.90884864043E+03 0.  0.
        4    1    3    3  502    0  0.30099041794E+03 -0.24728430594E+03  0.11530896313E+04  0.12171121848E+04  0.12699999809E+01 0. -1.
       -4    1    3    3    0  502 -0.30099041794E+03  0.24728430594E+03  0.27948224069E+03  0.47943372370E+03  0.12699999809E+01 0.  1.
</event>
<event>
 5   0  0.2134145E-03  0.9015196E+03  0.7818609E-02  0.9423684E-01
        1   -1    0    0  501    0  0.00000000000E+00  0.00000000000E+00  0.50155188156E+03  0.50155188159E+03  0.50400001928E-02 0.  1.
       -1   -1    0    0    0  501  0.00000000000E+00  0.00000000000E+00 -0.40511146290E+03  0.40511146294E+03  0.50400001928E-02 0. -1.
    10030    2    1    2    0    0  0.00000000000E+00  0.00000000000E+00  0.96440418661E+02  0.90666334453E+03  0.90151964258E+03 0.  0.
        1    1    3    3  502    0  0.21071429276E+03 -0.37440445399E+03  0.18539936660E+03  0.46792321326E+03  0.50400001928E-02 0. -1.
       -1    1    3    3    0  502 -0.21071429276E+03  0.37440445399E+03 -0.88958947937E+02  0.43874013127E+03  0.50400001928E-02 0.  1.
</event>
<event>
 5   0  0.3685879E-03  0.8564823E+03  0.7818609E-02  0.9481678E-01
        2   -1    0    0  501    0  0.00000000000E+00  0.00000000000E+00  0.35900372352E+03  0.35900372353E+03  0.25500000920E-02 0. -1.
       -2   -1    0    0    0  501  0.00000000000E+00  0.00000000000E+00 -0.51083164215E+03  0.51083164215E+03  0.25500000920E-02 0.  1.
    10030    2    1    2    0    0  0.00000000000E+00  0.00000000000E+00 -0.15182791862E+03  0.86983536569E+03  0.85648225115E+03 0.  0.
        1    1    3    3  502    0 -0.30142589116E+03 -0.17840936100E+03 -0.32613495528E+03  0.47859322710E+03  0.50400001928E-02 0.  1.
       -1    1    3    3    0  502  0.30142589116E+03  0.17840936100E+03  0.17430703665E+03  0.39124213858E+03  0.50400001928E-02 0. -1.
</event>
<event>
 5   0  0.3663255E-03  0.9025015E+03  0.7818609E-02  0.9422460E-01
       -2   -1    0    0    0  501  0.00000000000E+00  0.00000000000E+00  0.10382962861E+04  0.10382962861E+04  0.25500000920E-02 0.  1.
        2   -1    0    0  501    0  0.00000000000E+00  0.00000000000E+00 -0.19611669270E+03  0.19611669271E+03  0.25500000920E-02 0. -1.
    10030    2    1    2    0    0  0.00000000000E+00  0.00000000000E+00  0.84217959336E+03  0.12344129788E+04  0.90250148736E+03 0.  0.
        4    1    3    3  502    0  0.36357602160E+03  0.12975649350E+03  0.10148429839E+03  0.39915529160E+03  0.12699999809E+01 0. -1.
       -4    1    3    3    0  502 -0.36357602160E+03 -0.12975649350E+03  0.74069529497E+03  0.83525768717E+03  0.12699999809E+01 0.  1.
</event>
<event>
 5   0  0.3815269E-03  0.8983846E+03  0.7818609E-02  0.9427603E-01
        2   -1    0    0  501    0  0.00000000000E+00  0.00000000000E+00  0.14673420696E+04  0.14673420696E+04  0.25500000920E-02 0. -1.
       -2   -1    0    0    0  501  0.00000000000E+00  0.00000000000E+00 -0.13750968119E+03  0.13750968122E+03  0.25500000920E-02 0.  1.
    10030    2    1    2    0    0  0.00000000000E+00  0.00000000000E+00  0.13298323884E+04  0.16048517508E+04  0.89838463969E+03 0.  0.
        5    1    3    3  502    0 -0.16166506738E+03  0.10992853423E+03  0.13873094386E+04  0.14010244270E+04  0.46999998093E+01 0. -1.
       -5    1    3    3    0  502  0.16166506738E+03 -0.10992853423E+03 -0.57477050169E+02  0.20382732383E+03  0.46999998093E+01 0.  1.
</event>
<event>
 5   0  0.3685879E-03  0.8814826E+03  0.7818609E-02  0.9449030E-01
        2   -1    0    0  501    0  0.00000000000E+00  0.00000000000E+00  0.38299903268E+03  0.38299903269E+03  0.25500000920E-02 0. -1.
       -2   -1    0    0    0  501  0.00000000000E+00  0.00000000000E+00 -0.50718895156E+03  0.50718895157E+03  0.25500000920E-02 0.  1.
    10030    2    1    2    0    0  0.00000000000E+00  0.00000000000E+00 -0.12418991889E+03  0.89018798425E+03  0.88148256441E+03 0.  0.
        1    1    3    3  502    0  0.31157634817E+03  0.28328373128E+03 -0.19346962229E+03  0.46342204082E+03  0.50400001928E-02 0. -1.
       -1    1    3    3    0  502 -0.31157634817E+03 -0.28328373128E+03  0.69279703406E+02  0.42676594343E+03  0.50400001928E-02 0.  1.
</event>
<event>
 5   0  0.3815269E-03  0.9006702E+03  0.7818609E-02  0.9424744E-01
        2   -1    0    0  501    0  0.00000000000E+00  0.00000000000E+00  0.16482057827E+04  0.16482057827E+04  0.25500000920E-02 0. -1.
       -2   -1    0    0    0  501  0.00000000000E+00  0.00000000000E+00 -0.12304391654E+03  0.12304391656E+03  0.25500000920E-02 0.  1.
    10030    2    1    2    0    0  0.00000000000E+00  0.00000000000E+00  0.15251618661E+04  0.17712496992E+04  0.90067018333E+03 0.  0.
        5    1    3    3  502    0  0.29267381266E+03 -0.17070783453E+03  0.13459013344E+04  0.13879018759E+04  0.46999998093E+01 0. -1.
       -5    1    3    3    0  502 -0.29267381266E+03  0.17070783453E+03  0.17926053178E+03  0.38334782331E+03  0.46999998093E+01 0.  1.
</event>
<event>
 5   0  0.3685879E-03  0.9000611E+03  0.7818609E-02  0.9425505E-01
       -2   -1    0    0    0  501  0.00000000000E+00  0.00000000000E+00  0.21176281594E+03  0.21176281596E+03  0.25500000920E-02 0.  1.
        2   -1    0    0  501    0  0.00000000000E+00  0.00000000000E+00 -0.95638835840E+03  0.95638835841E+03  0.25500000920E-02 0. -1.
    10030    2    1    2    0    0  0.00000000000E+00  0.00000000000E+00 -0.74462554246E+03  0.11681511744E+04  0.90006109109E+03 0.  0.
        1    1    3    3  502    0 -0.18866114526E+03 -0.36031747613E+02  0.15589484803E+03  0.24737525793E+03  0.50400001928E-02 0.  1.
       -1    1    3    3    0  502  0.18866114526E+03  0.36031747613E+02 -0.90052039049E+03  0.92077591644E+03  0.50400001928E-02 0. -1.
</event>
<event>
 5   0  0.2295158E-03  0.9002495E+03  0.7818609E-02  0.9425270E-01
       -1   -1    0    0    0  501  0.00000000000E+00  0.00000000000E+00  0.18746667072E+03  0.18746667079E+03  0.50400001928E-02 0. -1.
        1   -1    0    0  501    0  0.00000000000E+00  0.00000000000E+00 -0.10807909630E+04  0.10807909630E+04  0.50400001928E-02 0.  1.
    10030    2    1    2    0    0  0.00000000000E+00  0.00000000000E+00 -0.89332429229E+03  0.12682576338E+04  0.90024948461E+03 0.  0.
        4    1    3    3  502    0  0.32543594870E+03  0.27811616086E+03 -0.64264791248E+03  0.77217556809E+03  0.12699999809E+01 0. -1.
       -4    1    3    3    0  502 -0.32543594870E+03 -0.27811616086E+03 -0.25067637981E+03  0.49608206572E+03  0.12699999809E+01 0.  1.
</event>
<event>
 5   0  0.2129280E-03  0.8983132E+03  0.7818609E-02  0.9427693E-01
       -1   -1    0    0    0  501  0.00000000000E+00  0.00000000000E+00  0.86751429148E+03  0.86751429150E+03  0.50400001928E-02 0. -1.
        1   -1    0    0  501    0  0.00000000000E+00  0.00000000000E+00 -0.23255136832E+03  0.23255136838E+03  0.50400001928E-02 0.  1.
    10030    2    1    2    0    0  0.00000000000E+00  0.00000000000E+00  0.63496292316E+03  0.11000656599E+04  0.89831316491E+03 0.  0.
        3    1    3    3  502    0 -0.74506495003E+02  0.25169451470E+03  0.76381110578E+03  0.80765633907E+03  0.10100000352E+00 0. -1.
       -3    1    3    3    0  502  0.74506495003E+02 -0.25169451470E+03 -0.12884818262E+03  0.29240932081E+03  0.10100000352E+00 0.  1.
</event>
<event>
 5   0  0.3685879E-03  0.8862191E+03  0.7818609E-02  0.9442974E-01
       -2   -1    0    0    0  501  0.00000000000E+00  0.00000000000E+00  0.80524082730E+02  0.80524082770E+02  0.25500000920E-02 0.  1.
        2   -1    0    0  501    0  0.00000000000E+00  0.00000000000E+00 -0.24383519792E+04  0.24383519792E+04  0.25500000920E-02 0. -1.
    10030    2    1    2    0    0  0.00000000000E+00  0.00000000000E+00 -0.23578278964E+04  0.25188760619E+04  0.88621906219E+03 0.  0.
        1    1    3    3  502    0  0.42912898840E+03 -0.53262263121E+02 -0.90396908494E+03  0.10020721850E+04  0.50400001928E-02 0.  1.
       -1    1    3    3    0  502 -0.42912898840E+03  0.53262263121E+02 -0.14538588115E+04  0.15168038769E+04  0.50400001928E-02 0. -1.
</event>
<event>
 5   0  0.2074970E-03  0.8999634E+03  0.7818609E-02  0.9425627E-01
        1   -1    0    0  501    0  0.00000000000E+00  0.00000000000E+00  0.40536095634E+03  0.40536095638E+03  0.50400001928E-02 0. -1.
       -1   -1    0    0    0  501  0.00000000000E+00  0.00000000000E+00 -0.49951416925E+03  0.49951416928E+03  0.50400001928E-02 0.  1.
    10030    2    1    2    0    0  0.00000000000E+00  0.00000000000E+00 -0.94153212910E+02  0.90487512565E+03  0.89996342455E+03 0.  0.
        2    1    3    3  502    0 -0.34738734888E+03 -0.30743563330E+02  0.23883497331E+03  0.42268816086E+03  0.25500000920E-02 0.  1.
       -2    1    3    3    0  502  0.34738734888E+03  0.30743563330E+02 -0.33298818622E+03  0.48218696479E+03  0.25500000920E-02 0. -1.
</event>
<event>
 5   0  0.3806019E-03  0.8965175E+03  0.7818609E-02  0.9429945E-01
       -2   -1    0    0    0  501  0.00000000000E+00  0.00000000000E+00  0.12856931519E+03  0.12856931522E+03  0.25500000920E-02 0.  1.
        2   -1    0    0  501    0  0.00000000000E+00  0.00000000000E+00 -0.15628605137E+04  0.15628605137E+04  0.25500000920E-02 0. -1.
    10030    2    1    2    0    0  0.00000000000E+00  0.00000000000E+00 -0.14342911986E+04  0.16914298290E+04  0.89651749792E+03 0.  0.
        2    1    3    3  502    0 -0.36636056250E+03 -0.25742528263E+03 -0.67720935364E+03  0.81184995323E+03  0.25500000920E-02 0. -1.
       -2    1    3    3    0  502  0.36636056250E+03  0.25742528263E+03 -0.75708184492E+03  0.87957987574E+03  0.25500000920E-02 0.  1.
</event>
<event>
 5   0  0.2295158E-03  0.8994133E+03  0.7818609E-02  0.9426315E-01
        1   -1    0    0  501    0  0.00000000000E+00  0.00000000000E+00  0.24444668391E+03  0.24444668396E+03  0.50400001928E-02 0. -1.
       -1   -1    0    0    0  501  0.00000000000E+00  0.00000000000E+00 -0.82732179401E+03  0.82732179403E+03  0.50400001928E-02 0.  1.
    10030    2    1    2    0    0  0.00000000000E+00  0.00000000000E+00 -0.58287511010E+03  0.10717684780E+04  0.89941329567E+03 0.  0.
        4    1    3    3  502    0 -0.22047458351E+03  0.34714213084E+03 -0.74581215657E+02  0.41794816857E+03  0.12699999809E+01 0. -1.
       -4    1    3    3    0  502  0.22047458351E+03 -0.34714213084E+03 -0.50829389444E+03  0.65382030942E+03  0.12699999809E+01 0.  1.
</event>
<event>
 5   0  0.3815269E-03  0.9087370E+03  0.7818609E-02  0.9414725E-01
       -2   -1    0    0    0  501  0.00000000000E+00  0.00000000000E+00  0.11280966631E+04  0.11280966631E+04  0.25500000920E-02 0. -1.
        2   -1    0    0  501    0  0.00000000000E+00  0.00000000000E+00 -0.18300802715E+03  0.18300802716E+03  0.25500000920E-02 0.  1.
    10030    2    1    2    0    0  0.00000000000E+00  0.00000000000E+00  0.94508863596E+03  0.13111046903E+04  0.90873702413E+03 0.  0.
        5    1    3    3  502    0  0.12803843480E+02 -0.19428871372E+03  0.10648153721E+04  0.10824813668E+04  0.46999998093E+01 0. -1.
       -5    1    3    3    0  502 -0.12803843480E+02  0.19428871372E+03 -0.11972673618E+03  0.22862332349E+03  0.46999998093E+01 0.  1.
</event>
<event>
 5   0  0.2295158E-03  0.9170870E+03  0.7818609E-02  0.9404470E-01
        1   -1    0    0  501    0  0.00000000000E+00  0.00000000000E+00  0.89956921491E+03  0.89956921492E+03  0.50400001928E-02 0. -1.
       -1   -1    0    0    0  501  0.00000000000E+00  0.00000000000E+00 -0.23373647402E+03  0.23373647408E+03  0.50400001928E-02 0.  1.
    10030    2    1    2    0    0  0.00000000000E+00  0.00000000000E+00  0.66583274089E+03  0.11333056890E+04  0.91708698927E+03 0.  0.
        4    1    3    3  502    0 -0.28409191507E+03  0.34075863586E+03  0.47615800321E+03  0.65080928162E+03  0.12699999809E+01 0.  1.
       -4    1    3    3    0  502  0.28409191507E+03 -0.34075863586E+03  0.18967473767E+03  0.48249640738E+03  0.12699999809E+01 0. -1.
</event>
<event>
 5   0  0.3685879E-03  0.9027071E+03  0.7818609E-02  0.9422204E-01
       -2   -1    0    0    0  501  0.00000000000E+00  0.00000000000E+00  0.65359544886E+03  0.65359544887E+03  0.25500000920E-02 0. -1.
        2   -1    0    0  501    0  0.00000000000E+00  0.00000000000E+00 -0.31169130171E+03  0.31169130172E+03  0.25500000920E-02 0.  1.
    10030    2    1    2    0    0  0.00000000000E+00  0.00000000000E+00  0.34190414715E+03  0.96528675059E+03  0.90270707598E+03 0.  0.
        1    1    3    3  502    0  0.28362633915E+03 -0.14088609545E+03 -0.17294377467E+03  0.36083561544E+03  0.50400001928E-02 0.  1.
       -1    1    3    3    0  502 -0.28362633915E+03  0.14088609545E+03  0.51484792182E+03  0.60445113514E+03  0.50400001928E-02 0. -1.
</event>
<event>
 5   0  0.2074970E-03  0.8994087E+03  0.7818609E-02  0.9426321E-01
       -1   -1    0    0    0  501  0.00000000000E+00  0.00000000000E+00  0.20036175599E+03  0.20036175605E+03  0.50400001928E-02 0. -1.
        1   -1    0    0  501    0  0.00000000000E+00  0.00000000000E+00 -0.10093443283E+04  0.10093443283E+04  0.50400001928E-02 0.  1.
    10030    2    1    2    0    0  0.00000000000E+00  0.00000000000E+00 -0.80898257228E+03  0.12097060843E+04  0.89940869922E+03 0.  0.
        2    1    3    3  502    0  0.17876457389E+03 -0.24132819972E+03  0.45708534592E+02  0.30378502761E+03  0.25500000920E-02 0. -1.
       -2    1    3    3    0  502 -0.17876457389E+03  0.24132819972E+03 -0.85469110688E+03  0.90592105674E+03  0.25500000920E-02 0.  1.
</event>
<event>
 5   0  0.2074970E-03  0.8991691E+03  0.7818609E-02  0.9426621E-01
        1   -1    0    0  501    0  0.00000000000E+00  0.00000000000E+00  0.16026825856E+03  0.16026825864E+03  0.50400001928E-02 0. -1.
       -1   -1    0    0    0  501  0.00000000000E+00  0.00000000000E+00 -0.12611745837E+04  0.12611745837E+04  0.50400001928E-02 0.  1.
    10030    2    1    2    0    0  0.00000000000E+00  0.00000000000E+00 -0.11009063251E+04  0.14214428423E+04  0.89916907050E+03 0.  0.
        2    1    3    3  502    0 -0.31794770364E+03 -0.85320591033E+02 -0.66406349283E+02  0.33582755803E+03  0.25500000920E-02 0. -1.
       -2    1    3    3    0  502  0.31794770364E+03  0.85320591033E+02 -0.10344999758E+04  0.10856152843E+04  0.25500000920E-02 0.  1.
</event>
<event>
 5   0  0.2129280E-03  0.8979214E+03  0.7818609E-02  0.9428184E-01
        1   -1    0    0  501    0  0.00000000000E+00  0.00000000000E+00  0.38965823888E+03  0.38965823891E+03  0.50400001928E-02 0.  1.
       -1   -1    0    0    0  501  0.00000000000E+00  0.00000000000E+00 -0.51728843311E+03  0.51728843313E+03  0.50400001928E-02 0. -1.
    10030    2    1    2    0    0  0.00000000000E+00  0.00000000000E+00 -0.12763019423E+03  0.90694667204E+03  0.89792137710E+03 0.  0.
        3    1    3    3  502    0 -0.17965171222E+03 -0.18978681394E+03  0.30491854506E+03  0.40158324389E+03  0.10100000352E+00 0.  1.
       -3    1    3    3    0  502  0.17965171222E+03  0.18978681394E+03 -0.43254873930E+03  0.50536342815E+03  0.10100000352E+00 0. -1.
</event>
<event>
 5   0  0.2130975E-03  0.9000129E+03  0.7818609E-02  0.9425565E-01
        1   -1    0    0  501    0  0.00000000000E+00  0.00000000000E+00  0.83189006502E+03  0.83189006504E+03  0.50400001928E-02 0. -1.
       -1   -1    0    0    0  501  0.00000000000E+00  0.00000000000E+00 -0.24342855721E+03  0.24342855726E+03  0.50400001928E-02 0.  1.
    10030    2    1    2    0    0  0.00000000000E+00  0.00000000000E+00  0.58846150781E+03  0.10753186223E+04  0.90001288507E+03 0.  0.
        5    1    3    3  502    0  0.21479010225E+03  0.93660479790E+02 -0.16475292363E+03  0.28648331425E+03  0.46999998093E+01 0.  1.
       -5    1    3    3    0  502 -0.21479010225E+03 -0.93660479790E+02  0.75321443144E+03  0.78883530805E+03  0.46999998093E+01 0. -1.
</event>
<event>
 5   0  0.2295158E-03  0.8983421E+03  0.7818609E-02  0.9427656E-01
       -1   -1    0    0    0  501  0.00000000000E+00  0.00000000000E+00  0.38546221208E+03  0.38546221211E+03  0.50400001928E-02 0. -1.
        1   -1    0    0  501    0  0.00000000000E+00  0.00000000000E+00 -0.52340967882E+03  0.52340967884E+03  0.50400001928E-02 0.  1.
    10030    2    1    2    0    0  0.00000000000E+00  0.00000000000E+00 -0.13794746674E+03  0.90887189095E+03  0.89834214561E+03 0.  0.
        4    1    3    3  502    0 -0.42551221604E+03  0.14043880756E+03 -0.10047281286E+03  0.45921683733E+03  0.12699999809E+01 0.  1.
       -4    1    3    3    0  502  0.42551221604E+03 -0.14043880756E+03 -0.37474653885E+02  0.44965505362E+03  0.12699999809E+01 0. -1.
</event>
<event>
 5   0  0.3663255E-03  0.8999715E+03  0.7818609E-02  0.9425617E-01
       -2   -1    0    0    0  501  0.00000000000E+00  0.00000000000E+00  0.20752350375E+03  0.20752350376E+03  0.25500000920E-02 0. -1.
        2   -1    0    0  501    0  0.00000000000E+00  0.00000000000E+00 -0.97573132795E+03  0.97573132796E+03  0.25500000920E-02 0.  1.
    10030    2    1    2    0    0  0.00000000000E+00  0.00000000000E+00 -0.76820782421E+03  0.11832548317E+04  0.89997151933E+03 0.  0.
        4    1    3    3  502    0  0.18809178295E+03 -0.36446830376E+03 -0.62749573776E+03  0.74964536753E+03  0.12699999809E+01 0.  1.
       -4    1    3    3    0  502 -0.18809178295E+03  0.36446830376E+03 -0.14071208645E+03  0.43360946419E+03  0.12699999809E+01 0. -1.
</event>
<event>
 5   0  0.3685879E-03  0.9016455E+03  0.7818609E-02  0.9423527E-01
       -2   -1    0    0    0  501  0.00000000000E+00  0.00000000000E+00  0.48485967628E+03  0.48485967629E+03  0.25500000920E-02 0.  1.
        2   -1    0    0  501    0  0.00000000000E+00  0.00000000000E+00 -0.41917515817E+03  0.41917515818E+03  0.25500000920E-02 0. -1.
    10030    2    1    2    0    0  0.00000000000E+00  0.00000000000E+00  0.65684518111E+02  0.90403483447E+03  0.90164545472E+03 0.  0.
        1    1    3    3  502    0 -0.65456058809E+02 -0.41553592002E+03 -0.12971861995E+03  0.44020622082E+03  0.50400001928E-02 0. -1.
       -1    1    3    3    0  502  0.65456058809E+02  0.41553592002E+03  0.19540313806E+03  0.46382861366E+03  0.50400001928E-02 0.  1.
</event>
<event>
 5   0  0.3815269E-03  0.8992434E+03  0.7818609E-02  0.9426528E-01
        2   -1    0    0  501    0  0.00000000000E+00  0.00000000000E+00  0.18793709896E+04  0.18793709896E+04  0.25500000920E-02 0.  1.
       -2   -1    0    0    0  501  0.00000000000E+00  0.00000000000E+00 -0.10756773990E+03  0.10756773993E+03  0.25500000920E-02 0. -1.
    10030    2    1    2    0    0  0.00000000000E+00  0.00000000000E+00  0.17718032497E+04  0.19869387295E+04  0.89924343716E+03 0.  0.
        5    1    3    3  502    0 -0.12386928751E+03 -0.39612195108E+03  0.12678526356E+04  0.13340646897E+04  0.46999998093E+01 0.  1.
       -5    1    3    3    0  502  0.12386928751E+03  0.39612195108E+03  0.50395061403E+03  0.65287403984E+03  0.46999998093E+01 0. -1.
</event>
<event>
 5   0  0.3806019E-03  0.9096453E+03  0.7818609E-02  0.9413604E-01
       -2   -1    0    0    0  501  0.00000000000E+00  0.00000000000E+00  0.42210459490E+03  0.42210459491E+03  0.25500000920E-02 0. -1.
        2   -1    0    0  501    0  0.00000000000E+00  0.00000000000E+00 -0.49007671905E+03  0.49007671905E+03  0.25500000920E-02 0.  1.
    10030    2    1    2    0    0  0.00000000000E+00  0.00000000000E+00 -0.67972124143E+02  0.91218131396E+03  0.90964528245E+03 0.  0.
        2    1    3    3  502    0 -0.28697880271E+03 -0.17250855713E+03  0.27468307490E+03  0.43308986035E+03  0.25500000920E-02 0. -1.
       -2    1    3    3    0  502  0.28697880271E+03  0.17250855713E+03 -0.34265519905E+03  0.47909145362E+03  0.25500000920E-02 0.  1.
</event>
<event>
 5   0  0.2074970E-03  0.8990099E+03  0.7818609E-02  0.9426820E-01
        1   -1    0    0  501    0  0.00000000000E+00  0.00000000000E+00  0.88588233775E+03  0.88588233776E+03  0.50400001928E-02 0. -1.
       -1   -1    0    0    0  501  0.00000000000E+00  0.00000000000E+00 -0.22808300110E+03  0.22808300115E+03  0.50400001928E-02 0.  1.
    10030    2    1    2    0    0  0.00000000000E+00  0.00000000000E+00  0.65779933665E+03  0.11139653389E+04  0.89900990484E+03 0.  0.
        2    1    3    3  502    0 -0.32811049968E+03 -0.24095865280E+03  0.92698244074E+02  0.41750513388E+03  0.25500000920E-02 0.  1.
       -2    1    3    3    0  502  0.32811049968E+03  0.24095865280E+03  0.56510109258E+03  0.69646020504E+03  0.25500000920E-02 0. -1.
</event>
<event>
 5   0  0.2134145E-03  0.8957698E+03  0.7818609E-02  0.9430885E-01
        1   -1    0    0  501    0  0.00000000000E+00  0.00000000000E+00  0.31799656876E+03  0.31799656880E+03  0.50400001928E-02 0.  1.
       -1   -1    0    0    0  501  0.00000000000E+00  0.00000000000E+00 -0.63082718872E+03  0.63082718874E+03  0.50400001928E-02 0. -1.
    10030    2    1    2    0    0  0.00000000000E+00  0.00000000000E+00 -0.31283061996E+03  0.94882375754E+03  0.89576979525E+03 0.  0.
        1    1    3    3  502    0 -0.29607435545E+03  0.30867010663E+03 -0.15639178286E+02  0.42799747968E+03  0.50400001928E-02 0.  1.
       -1    1    3    3    0  502  0.29607435545E+03 -0.30867010663E+03 -0.29719144167E+03  0.52082627786E+03  0.50400001928E-02 0. -1.
</event>
<event>
 5   0  0.3815269E-03  0.9032649E+03  0.7818609E-02  0.9421509E-01
       -2   -1    0    0    0  501  0.00000000000E+00  0.00000000000E+00  0.38929904550E+03  0.38929904551E+03  0.25500000920E-02 0. -1.
        2   -1    0    0  501    0  0.00000000000E+00  0.00000000000E+00 -0.52394649989E+03  0.52394649990E+03  0.25500000920E-02 0.  1.
    10030    2    1    2    0    0  0.00000000000E+00  0.00000000000E+00 -0.13464745440E+03  0.91324554540E+03  0.90326490534E+03 0.  0.
        5    1    3    3  502    0 -0.14097002795E+03  0.25419613353E+03  0.28212745585E+03  0.40510025231E+03  0.46999998093E+01 0. -1.
       -5    1    3    3    0  502  0.14097002795E+03 -0.25419613353E+03 -0.41677491025E+03  0.50814529309E+03  0.46999998093E+01 0.  1.
</event>
<event>
 5   0  0.3685879E-03  0.8938447E+03  0.7818609E-02  0.9433309E-01
       -2   -1    0    0    0  501  0.00000000000E+00  0.00000000000E+00  0.62615754021E+03  0.62615754021E+03  0.25500000920E-02 0. -1.
        2   -1    0    0  501    0  0.00000000000E+00  0.00000000000E+00 -0.31899251729E+03  0.31899251730E+03  0.25500000920E-02 0.  1.
    10030    2    1    2    0    0  0.00000000000E+00  0.00000000000E+00  0.30716502292E+03  0.94515005751E+03  0.89384466207E+03 0.  0.
        1    1    3    3  502    0 -0.30144928453E+03 -0.23995629247E+03  0.39305206644E+03  0.55040041824E+03  0.50400001928E-02 0.  1.
       -1    1    3    3    0  502  0.30144928453E+03  0.23995629247E+03 -0.85887043521E+02  0.39474963927E+03  0.50400001928E-02 0. -1.
</event>
<event>
 5   0  0.2130975E-03  0.9042531E+03  0.7818609E-02  0.9420280E-01
       -1   -1    0    0    0  501  0.00000000000E+00  0.00000000000E+00  0.10326712645E+03  0.10326712658E+03  0.50400001928E-02 0. -1.
        1   -1    0    0  501    0  0.00000000000E+00  0.00000000000E+00 -0.19795108844E+04  0.19795108844E+04  0.50400001928E-02 0.  1.
    10030    2    1    2    0    0  0.00000000000E+00  0.00000000000E+00 -0.18762437579E+04  0.20827780110E+04  0.90425306403E+03 0.  0.
        5    1    3    3  502    0  0.10968262048E+03  0.15679577552E+03  0.53403922539E+01  0.19148316439E+03  0.46999998093E+01 0. -1.
       -5    1    3    3    0  502 -0.10968262048E+03 -0.15679577552E+03 -0.18815841502E+04  0.18912948466E+04  0.46999998093E+01 0.  1.
</event>
<event>
 5   0  0.2129280E-03  0.8850179E+03  0.7818609E-02  0.9444506E-01
        1   -1    0    0  501    0  0.00000000000E+00  0.00000000000E+00  0.33136857617E+03  0.33136857621E+03  0.50400001928E-02 0.  1.
       -1   -1    0    0    0  501  0.00000000000E+00  0.00000000000E+00 -0.59092557915E+03  0.59092557917E+03  0.50400001928E-02 0. -1.
    10030    2    1    2    0    0  0.00000000000E+00  0.00000000000E+00 -0.25955700297E+03  0.92229415538E+03  0.88501789318E+03 0.  0.
        3    1    3    3  502    0 -0.23529267085E+03  0.29549970825E+03 -0.36998966937E+03  0.52874860205E+03  0.10100000352E+00 0. -1.
       -3    1    3    3    0  502  0.23529267085E+03 -0.29549970825E+03  0.11043266640E+03  0.39354555332E+03  0.10100000352E+00 0.  1.
</event>
<event>
 5   0  0.3815269E-03  0.8991782E+03  0.7818609E-02  0.9426609E-01
       -2   -1    0    0    0  501  0.00000000000E+00  0.00000000000E+00  0.90447022265E+02  0.90447022301E+02  0.25500000920E-02 0. -1.
        2   -1    0    0  501    0  0.00000000000E+00  0.00000000000E+00 -0.22347926294E+04  0.22347926294E+04  0.25500000920E-02 0.  1.
    10030    2    1    2    0    0  0.00000000000E+00  0.00000000000E+00 -0.21443456071E+04  0.23252396517E+04  0.89917815531E+03 0.  0.
        5    1    3    3  502    0 -0.44060786237E+02  0.63319295186E+02  0.73141016033E+02  0.10640669270E+03  0.46999998093E+01 0. -1.
       -5    1    3    3    0  502  0.44060786237E+02 -0.63319295186E+02 -0.22174866231E+04  0.22188329590E+04  0.46999998093E+01 0.  1.
</event>
<event>
 5   0  0.2129280E-03  0.8942134E+03  0.7818609E-02  0.9432844E-01
       -1   -1    0    0    0  501  0.00000000000E+00  0.00000000000E+00  0.39825382839E+03  0.39825382842E+03  0.50400001928E-02 0.  1.
        1   -1    0    0  501    0  0.00000000000E+00  0.00000000000E+00 -0.50195219282E+03  0.50195219285E+03  0.50400001928E-02 0. -1.
    10030    2    1    2    0    0  0.00000000000E+00  0.00000000000E+00 -0.10369836443E+03  0.90020602127E+03  0.89421335817E+03 0.  0.
        3    1    3    3  502    0 -0.27717364981E+03 -0.34606615808E+03 -0.10983164973E+03  0.45678224506E+03  0.10100000352E+00 0. -1.
       -3    1    3    3    0  502  0.27717364981E+03  0.34606615808E+03  0.61332852915E+01  0.44342377621E+03  0.10100000352E+00 0.  1.
</event>
<event>
 5   0  0.3815269E-03  0.8992498E+03  0.7818609E-02  0.9426520E-01
       -2   -1    0    0    0  501  0.00000000000E+00  0.00000000000E+00  0.19229029684E+03  0.19229029685E+03  0.25500000920E-02 0.  1.
        2   -1    0    0  501    0  0.00000000000E+00  0.00000000000E+00 -0.10513402479E+04  0.10513402479E+04  0.25500000920E-02 0. -1.
    10030    2    1    2    0    0  0.00000000000E+00  0.00000000000E+00 -0.85904995102E+03  0.12436305447E+04  0.89924975029E+03 0.  0.
        5    1    3    3  502    0 -0.21516511561E+03  0.37432204150E+03 -0.25608875327E+03  0.50201250710E+03  0.46999998093E+01 0.  1.
       -5    1    3    3    0  502  0.21516511561E+03 -0.37432204150E+03 -0.60296119775E+03  0.74161803762E+03  0.46999998093E+01 0. -1.
</event>
<event>
 5   0  0.2074970E-03  0.8996980E+03  0.7818609E-02  0.9425959E-01
        1   -1    0    0  501    0  0.00000000000E+00  0.00000000000E+00  0.11469993225E+04  0.11469993225E+04  0.50400001928E-02 0.  1.
       -1   -1    0    0    0  501  0.00000000000E+00  0.00000000000E+00 -0.17642917365E+03  0.17642917372E+03  0.50400001928E-02 0. -1.
    10030    2    1    2    0    0  0.00000000000E+00  0.00000000000E+00  0.97057014885E+03  0.13234284962E+04  0.89969804423E+03 0.  0.
        2    1    3    3  502    0 -0.17121865512E+03 -0.16476301222E+02  0.10967146984E+04  0.11101218068E+04  0.25500000920E-02 0.  1.
       -2    1    3    3    0  502  0.17121865512E+03  0.16476301222E+02 -0.12614454952E+03  0.21330668940E+03  0.25500000920E-02 0. -1.
</event>
<event>
 5   0  0.3685879E-03  0.9059964E+03  0.7818609E-02  0.9418116E-01
        2   -1    0    0  501    0  0.00000000000E+00  0.00000000000E+00  0.19500407527E+03  0.19500407529E+03  0.25500000920E-02 0.  1.
       -2   -1    0    0    0  501  0.00000000000E+00  0.00000000000E+00 -0.10523235494E+04  0.10523235494E+04  0.25500000920E-02 0. -1.
    10030    2    1    2    0    0  0.00000000000E+00  0.00000000000E+00 -0.85731947412E+03  0.12473276247E+04  0.90599642526E+03 0.  0.
        1    1    3    3  502    0  0.44484969068E+03 -0.21435474352E+02 -0.31465834189E+03  0.54530780208E+03  0.50400001928E-02 0. -1.
       -1    1    3    3    0  502 -0.44484969068E+03  0.21435474352E+02 -0.54266113223E+03  0.70201982260E+03  0.50400001928E-02 0.  1.
</event>
<event>
 5   0  0.2074970E-03  0.8989659E+03  0.7818609E-02  0.9426875E-01
       -1   -1    0    0    0  501  0.00000000000E+00  0.00000000000E+00  0.64038303269E+03  0.64038303271E+03  0.50400001928E-02 0. -1.
        1   -1    0    0  501    0  0.00000000000E+00  0.00000000000E+00 -0.31549077904E+03  0.31549077908E+03  0.50400001928E-02 0.  1.
    10030    2    1    2    0    0  0.00000000000E+00  0.00000000000E+00  0.32489225365E+03  0.95587381179E+03  0.89896594351E+03 0.  0.
        2    1    3    3  502    0  0.38063781932E+02 -0.14752841897E+03  0.61208840283E+03  0.63076596198E+03  0.25500000920E-02 0. -1.
       -2    1    3    3    0  502 -0.38063781932E+02  0.14752841897E+03 -0.28719614918E+03  0.32510784981E+03  0.25500000920E-02 0.  1.
</event>
<event>
 5   0  0.3663255E-03  0.8878753E+03  0.7818609E-02  0.9440866E-01
        2   -1    0    0  501    0  0.00000000000E+00  0.00000000000E+00  0.10242411317E+04  0.10242411317E+04  0.25500000920E-02 0.  1.
       -2   -1    0    0    0  501  0.00000000000E+00  0.00000000000E+00 -0.19241624065E+03  0.19241624067E+03  0.25500000920E-02 0. -1.
    10030    2    1    2    0    0  0.00000000000E+00  0.00000000000E+00  0.83182489105E+03  0.12166573724E+04  0.88787527974E+03 0.  0.
        4    1    3    3  502    0  0.10994184781E+03 -0.27188999484E+03  0.87259044690E+03  0.92055802648E+03  0.12699999809E+01 0.  1.
       -4    1    3    3    0  502 -0.10994184781E+03  0.27188999484E+03 -0.40765555853E+02  0.29609934589E+03  0.12699999809E+01 0. -1.
</event>
<event>
 5   0  0.2295158E-03  0.8990437E+03  0.7818609E-02  0.9426778E-01
        1   -1    0    0  501    0  0.00000000000E+00  0.00000000000E+00  0.33671565416E+03  0.33671565420E+03  0.50400001928E-02 0.  1.
       -1   -1    0    0    0  501  0.00000000000E+00  0.00000000000E+00 -0.60012022633E+03  0.60012022635E+03  0.50400001928E-02 0. -1.
    10030    2    1    2    0    0  0.00000000000E+00  0.00000000000E+00 -0.26340457217E+03  0.93683588055E+03  0.89904365769E+03 0.  0.
        4    1    3    3  502    0  0.69522490883E+02 -0.34837956261E+03 -0.41871950074E+03  0.54911686332E+03  0.12699999809E+01 0. -1.
       -4    1    3    3    0  502 -0.69522490883E+02  0.34837956261E+03  0.15531492857E+03  0.38771901723E+03  0.12699999809E+01 0.  1.
</event>
<event>
 5   0  0.1436000E-03  0.8987295E+03  0.7818609E-02  0.9427171E-01
        4   -1    0    0  501    0  0.00000000000E+00  0.00000000000E+00  0.42253196115E+03  0.42253386976E+03  0.12699999809E+01 0. -1.
       -4   -1    0    0    0  501  0.00000000000E+00  0.00000000000E+00 -0.47789769186E+03  0.47789937935E+03  0.12699999809E+01 0.  1.
    10030    2    1    2    0    0  0.00000000000E+00  0.00000000000E+00 -0.55365730708E+02  0.90043324911E+03  0.89872947652E+03 0.  0.
        3    1    3    3  502    0 -0.58867933602E+02 -0.24192903465E+03 -0.40246897679E+03  0.47326142764E+03  0.10100000352E+00 0.  1.
       -3    1    3    3    0  502  0.58867933602E+02  0.24192903465E+03  0.34710324609E+03  0.42717182147E+03  0.10100000352E+00 0. -1.
</event>
<event>
 5   0  0.2129280E-03  0.9059312E+03  0.7818609E-02  0.9418197E-01
       -1   -1    0    0    0  501  0.00000000000E+00  0.00000000000E+00  0.38620060378E+03  0.38620060382E+03  0.50400001928E-02 0. -1.
        1   -1    0    0  501    0  0.00000000000E+00  0.00000000000E+00 -0.53127272083E+03  0.53127272085E+03  0.50400001928E-02 0.  1.
    10030    2    1    2    0    0  0.00000000000E+00  0.00000000000E+00 -0.14507211704E+03  0.91747332467E+03  0.90593122384E+03 0.  0.
        3    1    3    3  502    0 -0.73001408655E+02  0.31522509075E+03  0.24849116311E+03  0.40797540594E+03  0.10100000352E+00 0. -1.
       -3    1    3    3    0  502  0.73001408655E+02 -0.31522509075E+03 -0.39356328016E+03  0.50949791873E+03  0.10100000352E+00 0.  1.
</event>
<event>
 5   0  0.2074970E-03  0.8975552E+03  0.7818609E-02  0.9428643E-01
       -1   -1    0    0    0  501  0.00000000000E+00  0.00000000000E+00  0.89984804643E+03  0.89984804644E+03  0.50400001928E-02 0. -1.
        1   -1    0    0  501    0  0.00000000000E+00  0.00000000000E+00 -0.22381702659E+03  0.22381702665E+03  0.50400001928E-02 0.  1.
    10030    2    1    2    0    0  0.00000000000E+00  0.00000000000E+00  0.67603101983E+03  0.11236650731E+04  0.89755515525E+03 0.  0.
        2    1    3    3  502    0  0.26841083965E+03  0.31643970728E+03  0.12400406547E+03  0.43307675468E+03  0.25500000920E-02 0. -1.
       -2    1    3    3    0  502 -0.26841083965E+03 -0.31643970728E+03  0.55202695436E+03  0.69058831841E+03  0.25500000920E-02 0.  1.
</event>
<event>
 5   0  0.2129280E-03  0.9189324E+03  0.7818609E-02  0.9402220E-01
        1   -1    0    0  501    0  0.00000000000E+00  0.00000000000E+00  0.16079306937E+04  0.16079306937E+04  0.50400001928E-02 0.  1.
       -1   -1    0    0    0  501  0.00000000000E+00  0.00000000000E+00 -0.13129247500E+03  0.13129247510E+03  0.50400001928E-02 0. -1.
    10030    2    1    2    0    0  0.00000000000E+00  0.00000000000E+00  0.14766382187E+04  0.17392231688E+04  0.91893242515E+03 0.  0.
        3    1    3    3  502    0 -0.19164308737E+02  0.32043872628E+02 -0.12841641497E+03  0.13373431249E+03  0.10100000352E+00 0. -1.
       -3    1    3    3    0  502  0.19164308737E+02 -0.32043872628E+02  0.16050546337E+04  0.16054888563E+04  0.10100000352E+00 0.  1.
</event>
<event>
 5   0  0.2130975E-03  0.9023381E+03  0.7818609E-02  0.9422663E-01
        1   -1    0    0  501    0  0.00000000000E+00  0.00000000000E+00  0.21785291201E+04  0.21785291201E+04  0.50400001928E-02 0.  1.
       -1   -1    0    0    0  501  0.00000000000E+00  0.00000000000E+00 -0.93436206874E+02  0.93436207010E+02  0.50400001928E-02 0. -1.
    10030    2    1    2    0    0  0.00000000000E+00  0.00000000000E+00  0.20850929133E+04  0.22719653272E+04  0.90233806904E+03 0.  0.
        5    1    3    3  502    0 -0.83883479161E+02  0.43602957869E+03  0.84153982784E+03  0.95150911893E+03  0.46999998093E+01 0. -1.
       -5    1    3    3    0  502  0.83883479161E+02 -0.43602957869E+03  0.12435530854E+04  0.13204562082E+04  0.46999998093E+01 0.  1.
</event>
<event>
 5   0  0.2130975E-03  0.9012275E+03  0.7818609E-02  0.9424048E-01
        1   -1    0    0  501    0  0.00000000000E+00  0.00000000000E+00  0.19987510237E+03  0.19987510243E+03  0.50400001928E-02 0. -1.
       -1   -1    0    0    0  501  0.00000000000E+00  0.00000000000E+00 -0.10158980838E+04  0.10158980838E+04  0.50400001928E-02 0.  1.
    10030    2    1    2    0    0  0.00000000000E+00  0.00000000000E+00 -0.81602298142E+03  0.12157731862E+04  0.90122745973E+03 0.  0.
        5    1    3    3  502    0  0.32237946119E+03 -0.31340672092E+03 -0.36803056050E+03  0.58105152369E+03  0.46999998093E+01 0. -1.
       -5    1    3    3    0  502 -0.32237946119E+03  0.31340672092E+03 -0.44799242092E+03  0.63472166255E+03  0.46999998093E+01 0.  1.
</event>
<event>
 5   0  0.2130975E-03  0.8980387E+03  0.7818609E-02  0.9428036E-01
       -1   -1    0    0    0  501  0.00000000000E+00  0.00000000000E+00  0.43322088354E+03  0.43322088357E+03  0.50400001928E-02 0.  1.
        1   -1    0    0  501    0  0.00000000000E+00  0.00000000000E+00 -0.46539395949E+03  0.46539395952E+03  0.50400001928E-02 0. -1.
    10030    2    1    2    0    0  0.00000000000E+00  0.00000000000E+00 -0.32173075950E+02  0.89861484308E+03  0.89803871264E+03 0.  0.
        5    1    3    3  502    0 -0.32616497479E+03  0.30068667810E+03  0.53241553409E+02  0.44682527030E+03  0.46999998093E+01 0.  1.
       -5    1    3    3    0  502  0.32616497479E+03 -0.30068667810E+03 -0.85414629360E+02  0.45178957279E+03  0.46999998093E+01 0. -1.
</event>
<event>
 5   0  0.3663255E-03  0.9103350E+03  0.7818609E-02  0.9412754E-01
       -2   -1    0    0    0  501  0.00000000000E+00  0.00000000000E+00  0.62894984648E+03  0.62894984649E+03  0.25500000920E-02 0.  1.
        2   -1    0    0  501    0  0.00000000000E+00  0.00000000000E+00 -0.32940220703E+03  0.32940220704E+03  0.25500000920E-02 0. -1.
    10030    2    1    2    0    0  0.00000000000E+00  0.00000000000E+00  0.29954763945E+03  0.95835205353E+03  0.91033503184E+03 0.  0.
        4    1    3    3  502    0 -0.29954919522E+03 -0.24275317168E+03  0.40443630146E+03  0.55877469301E+03  0.12699999809E+01 0.  1.
       -4    1    3    3    0  502  0.29954919522E+03  0.24275317168E+03 -0.10488866201E+03  0.39957736051E+03  0.12699999809E+01 0. -1.
</event>
<event>
 5   0  0.2295158E-03  0.8990529E+03  0.7818609E-02  0.9426766E-01
        1   -1    0    0  501    0  0.00000000000E+00  0.00000000000E+00  0.59815163357E+03  0.59815163360E+03  0.50400001928E-02 0.  1.
       -1   -1    0    0    0  501  0.00000000000E+00  0.00000000000E+00 -0.33783074229E+03  0.33783074233E+03  0.50400001928E-02 0. -1.
    10030    2    1    2    0    0  0.00000000000E+00  0.00000000000E+00  0.26032089128E+03  0.93598237592E+03  0.89905285807E+03 0.  0.
        4    1    3    3  502    0 -0.10583883140E+02 -0.42394907909E+03 -0.25052633323E+02  0.42482241888E+03  0.12699999809E+01 0. -1.
       -4    1    3    3    0  502  0.10583883140E+02  0.42394907909E+03  0.28537352461E+03  0.51115995705E+03  0.12699999809E+01 0.  1.
</event>
<event>
 5   0  0.3626546E-03  0.8715538E+03  0.7818609E-02  0.9461856E-01
        2   -1    0    0  501    0  0.00000000000E+00  0.00000000000E+00  0.17716111474E+04  0.17716111474E+04  0.25500000920E-02 0. -1.
       -2   -1    0    0    0  501  0.00000000000E+00  0.00000000000E+00 -0.10719142139E+03  0.10719142142E+03  0.25500000920E-02 0.  1.
    10030    2    1    2    0    0  0.00000000000E+00  0.00000000000E+00  0.16644197260E+04  0.18788025688E+04  0.87155382409E+03 0.  0.
        3    1    3    3  502    0 -0.34869740825E+02  0.29227780335E+03  0.13949978253E+03  0.32573365298E+03  0.10100000352E+00 0.  1.
       -3    1    3    3    0  502  0.34869740825E+02 -0.29227780335E+03  0.15249199434E+04  0.15530689158E+04  0.10100000352E+00 0. -1.
</event>
<event>
 5   0  0.3685879E-03  0.8996732E+03  0.7818609E-02  0.9425990E-01
       -2   -1    0    0    0  501  0.00000000000E+00  0.00000000000E+00  0.20685398897E+03  0.20685398898E+03  0.25500000920E-02 0.  1.
        2   -1    0    0  501    0  0.00000000000E+00  0.00000000000E+00 -0.97824061136E+03  0.97824061136E+03  0.25500000920E-02 0. -1.
    10030    2    1    2    0    0  0.00000000000E+00  0.00000000000E+00 -0.77138662239E+03  0.11850946003E+04  0.89967321321E+03 0.  0.
        1    1    3    3  502    0 -0.31333726212E+03  0.26936237470E+03 -0.15147215899E+03  0.44009106298E+03  0.50400001928E-02 0.  1.
       -1    1    3    3    0  502  0.31333726212E+03 -0.26936237470E+03 -0.61991446339E+03  0.74500353737E+03  0.50400001928E-02 0. -1.
</event>
<event>
 5   0  0.2295158E-03  0.9098302E+03  0.7818609E-02  0.9413376E-01
        1   -1    0    0  501    0  0.00000000000E+00  0.00000000000E+00  0.91618099953E+03  0.91618099955E+03  0.50400001928E-02 0. -1.
       -1   -1    0    0    0  501  0.00000000000E+00  0.00000000000E+00 -0.22588084625E+03  0.22588084630E+03  0.50400001928E-02 0.  1.
    10030    2    1    2    0    0  0.00000000000E+00  0.00000000000E+00  0.69030015329E+03  0.11420618459E+04  0.90983018092E+03 0.  0.
        4    1    3    3  502    0 -0.13172786934E+03  0.38400793845E+03  0.60280252974E+03  0.72676463254E+03  0.12699999809E+01 0.  1.
       -4    1    3    3    0  502  0.13172786934E+03 -0.38400793845E+03  0.87497623547E+02  0.41529721331E+03  0.12699999809E+01 0. -1.
</event>
<event>
 5   0  0.3685879E-03  0.8982412E+03  0.7818609E-02  0.9427783E-01
       -2   -1    0    0    0  501  0.00000000000E+00  0.00000000000E+00  0.11173345369E+03  0.11173345372E+03  0.25500000920E-02 0. -1.
        2   -1    0    0  501    0  0.00000000000E+00  0.00000000000E+00 -0.18052721908E+04  0.18052721908E+04  0.25500000920E-02 0.  1.
    10030    2    1    2    0    0  0.00000000000E+00  0.00000000000E+00 -0.16935387371E+04  0.19170056445E+04  0.89824116307E+03 0.  0.
        1    1    3    3  502    0  0.25561371351E+03  0.32072594263E+03 -0.45611704857E+03  0.61338916100E+03  0.50400001928E-02 0. -1.
       -1    1    3    3    0  502 -0.25561371351E+03 -0.32072594263E+03 -0.12374216885E+04  0.13036164835E+04  0.50400001928E-02 0.  1.
</event>
<event>
 5   0  0.3626546E-03  0.8983771E+03  0.7818609E-02  0.9427612E-01
        2   -1    0    0  501    0  0.00000000000E+00  0.00000000000E+00  0.44384303527E+03  0.44384303528E+03  0.25500000920E-02 0.  1.
       -2   -1    0    0    0  501  0.00000000000E+00  0.00000000000E+00 -0.45459841826E+03  0.45459841826E+03  0.25500000920E-02 0. -1.
    10030    2    1    2    0    0  0.00000000000E+00  0.00000000000E+00 -0.10755382987E+02  0.89844145354E+03  0.89837707405E+03 0.  0.
        3    1    3    3  502    0  0.24006541578E+02  0.21915461124E+03 -0.39676909018E+03  0.45390613434E+03  0.10100000352E+00 0. -1.
       -3    1    3    3    0  502 -0.24006541578E+02 -0.21915461124E+03  0.38601370720E+03  0.44453531920E+03  0.10100000352E+00 0.  1.
</event>
<event>
 5   0  0.2074970E-03  0.9029079E+03  0.7818609E-02  0.9421954E-01
        1   -1    0    0  501    0  0.00000000000E+00  0.00000000000E+00  0.80837464173E+03  0.80837464174E+03  0.50400001928E-02 0. -1.
       -1   -1    0    0    0  501  0.00000000000E+00  0.00000000000E+00 -0.25212403799E+03  0.25212403804E+03  0.50400001928E-02 0.  1.
    10030    2    1    2    0    0  0.00000000000E+00  0.00000000000E+00  0.55625060374E+03  0.10604986798E+04  0.90290792203E+03 0.  0.
        2    1    3    3  502    0  0.42591377020E+03  0.50197410466E+02  0.11248494912E+03  0.44336800003E+03  0.25500000920E-02 0. -1.
       -2    1    3    3    0  502 -0.42591377020E+03 -0.50197410466E+02  0.44376565462E+03  0.61713067975E+03  0.25500000920E-02 0.  1.
</event>
<event>
 5   0  0.3626546E-03  0.8964538E+03  0.7818609E-02  0.9430025E-01
        2   -1    0    0  501    0  0.00000000000E+00  0.00000000000E+00  0.72551275912E+03  0.72551275913E+03  0.25500000920E-02 0. -1.
       -2   -1    0    0    0  501  0.00000000000E+00  0.00000000000E+00 -0.27691774125E+03  0.27691774126E+03  0.25500000920E-02 0.  1.
    10030    2    1    2    0    0  0.00000000000E+00  0.00000000000E+00  0.44859501788E+03  0.10024305004E+04  0.89645380140E+03 0.  0.
        3    1    3    3  502    0  0.34677977828E+03  0.43938915024E+02  0.53803779264E+03  0.64161633348E+03  0.10100000352E+00 0. -1.
       -3    1    3    3    0  502 -0.34677977828E+03 -0.43938915024E+02 -0.89442774766E+02  0.36081416690E+03  0.10100000352E+00 0.  1.
</event>
<event>
 5   0  0.2295158E-03  0.9020340E+03  0.7818609E-02  0.9423042E-01
       -1   -1    0    0    0  501  0.00000000000E+00  0.00000000000E+00  0.41887473119E+03  0.41887473122E+03  0.50400001928E-02 0.  1.
        1   -1    0    0  501    0  0.00000000000E+00  0.00000000000E+00 -0.48562565116E+03  0.48562565119E+03  0.50400001928E-02 0. -1.
    10030    2    1    2    0    0  0.00000000000E+00  0.00000000000E+00 -0.66750919970E+02  0.90450038241E+03  0.90203395527E+03 0.  0.
        4    1    3    3  502    0 -0.89785275680E+02  0.22580647779E+03  0.34761704787E+03  0.42413345306E+03  0.12699999809E+01 0.  1.
       -4    1    3    3    0  502  0.89785275680E+02 -0.22580647779E+03 -0.41436796784E+03  0.48036692935E+03  0.12699999809E+01 0. -1.
</event>
<event>
 5   0  0.2074970E-03  0.9133865E+03  0.7818609E-02  0.9409001E-01
        1   -1    0    0  501    0  0.00000000000E+00  0.00000000000E+00  0.17692274951E+04  0.17692274951E+04  0.50400001928E-02 0.  1.
       -1   -1    0    0    0  501  0.00000000000E+00  0.00000000000E+00 -0.11788689450E+03  0.11788689461E+03  0.50400001928E-02 0. -1.
    10030    2    1    2    0    0  0.00000000000E+00  0.00000000000E+00  0.16513406006E+04  0.18871143897E+04  0.91338652315E+03 0.  0.
        2    1    3    3  502    0  0.30470422104E+03 -0.22200583003E+03  0.13582078264E+04  0.14095601266E+04  0.25500000920E-02 0.  1.
       -2    1    3    3    0  502 -0.30470422104E+03  0.22200583003E+03  0.29313277424E+03  0.47755426313E+03  0.25500000920E-02 0. -1.
</event>
<event>
 5   0  0.2295158E-03  0.8988220E+03  0.7818609E-02  0.9427055E-01
        1   -1    0    0  501    0  0.00000000000E+00  0.00000000000E+00  0.43485231639E+03  0.43485231642E+03  0.50400001928E-02 0. -1.
       -1   -1    0    0    0  501  0.00000000000E+00  0.00000000000E+00 -0.46445707139E+03  0.46445707142E+03  0.50400001928E-02 0.  1.
    10030    2    1    2    0    0  0.00000000000E+00  0.00000000000E+00 -0.29604755002E+02  0.89930938784E+03  0.89882196988E+03 0.  0.
        4    1    3    3  502    0 -0.18400935235E+03 -0.20772303183E+03 -0.36849134512E+03  0.46129793414E+03  0.12699999809E+01 0.  1.
       -4    1    3    3    0  502  0.18400935235E+03  0.20772303183E+03  0.33888659012E+03  0.43801145370E+03  0.12699999809E+01 0. -1.
</event>
<event>
 5   0  0.3685879E-03  0.8987258E+03  0.7818609E-02  0.9427176E-01
       -2   -1    0    0    0  501  0.00000000000E+00  0.00000000000E+00  0.12812569483E+03  0.12812569486E+03  0.25500000920E-02 0.  1.
        2   -1    0    0  501    0  0.00000000000E+00  0.00000000000E+00 -0.15760071692E+04  0.15760071692E+04  0.25500000920E-02 0. -1.
    10030    2    1    2    0    0  0.00000000000E+00  0.00000000000E+00 -0.14478814744E+04  0.17041328641E+04  0.89872579498E+03 0.  0.
        1    1    3    3  502    0  0.26363998144E+03  0.21556615463E+03 -0.12798510883E+04  0.13243842400E+04  0.50400001928E-02 0. -1.
       -1    1    3    3    0  502 -0.26363998144E+03 -0.21556615463E+03 -0.16803038610E+03  0.37974862412E+03  0.50400001928E-02 0.  1.
</event>
<event>
 5   0  0.2134145E-03  0.8958193E+03  0.7818609E-02  0.9430823E-01
       -1   -1    0    0    0  501  0.00000000000E+00  0.00000000000E+00  0.13367871638E+03  0.13367871648E+03  0.50400001928E-02 0. -1.
        1   -1    0    0  501    0  0.00000000000E+00  0.00000000000E+00 -0.15007854449E+04  0.15007854450E+04  0.50400001928E-02 0.  1.
    10030    2    1    2    0    0  0.00000000000E+00  0.00000000000E+00 -0.13671067286E+04  0.16344641614E+04  0.89581933878E+03 0.  0.
        1    1    3    3  502    0 -0.15793831596E+03 -0.12385377185E+03  0.47037585057E+02  0.20614752699E+03  0.50400001928E-02 0. -1.
       -1    1    3    3    0  502  0.15793831596E+03  0.12385377185E+03 -0.14141443136E+04  0.14283166344E+04  0.50400001928E-02 0.  1.
</event>
<event>
 5   0  0.2074970E-03  0.9120032E+03  0.7818609E-02  0.9410700E-01
       -1   -1    0    0    0  501  0.00000000000E+00  0.00000000000E+00  0.12479320982E+04  0.12479320982E+04  0.50400001928E-02 0.  1.
        1   -1    0    0  501    0  0.00000000000E+00  0.00000000000E+00 -0.16662561875E+03  0.16662561883E+03  0.50400001928E-02 0. -1.
    10030    2    1    2    0    0  0.00000000000E+00  0.00000000000E+00  0.10813064795E+04  0.14145577171E+04  0.91200319755E+03 0.  0.
        2    1    3    3  502    0  0.81796575081E+02  0.13697842980E+03 -0.12192372985E+03  0.20079632923E+03  0.25500000920E-02 0. -1.
       -2    1    3    3    0  502 -0.81796575081E+02 -0.13697842980E+03  0.12032302093E+04  0.12137613878E+04  0.25500000920E-02 0.  1.
</event>
<event>
 5   0  0.3806019E-03  0.9404616E+03  0.7818609E-02  0.9376369E-01
        2   -1    0    0  501    0  0.00000000000E+00  0.00000000000E+00  0.19860577320E+03  0.19860577322E+03  0.25500000920E-02 0.  1.
       -2   -1    0    0    0  501  0.00000000000E+00  0.00000000000E+00 -0.11133463682E+04  0.11133463682E+04  0.25500000920E-02 0. -1.
    10030    2    1    2    0    0  0.00000000000E+00  0.00000000000E+00 -0.91474059496E+03  0.13119521414E+04  0.94046162347E+03 0.  0.
        2    1    3    3  502    0 -0.45973412131E+03 -0.98328172483E+02 -0.44390831952E+03  0.64658989162E+03  0.25500000920E-02 0. -1.
       -2    1    3    3    0  502  0.45973412131E+03  0.98328172483E+02 -0.47083227544E+03  0.66536224976E+03  0.25500000920E-02 0.  1.
</event>
<event>
 5   0  0.3806019E-03  0.9014105E+03  0.7818609E-02  0.9423820E-01
       -2   -1    0    0    0  501  0.00000000000E+00  0.00000000000E+00  0.41748568465E+03  0.41748568465E+03  0.25500000920E-02 0.  1.
        2   -1    0    0  501    0  0.00000000000E+00  0.00000000000E+00 -0.48656806529E+03  0.48656806529E+03  0.25500000920E-02 0. -1.
    10030    2    1    2    0    0  0.00000000000E+00  0.00000000000E+00 -0.69082380642E+02  0.90405374995E+03  0.90141045450E+03 0.  0.
        2    1    3    3  502    0  0.39654287010E+03 -0.39261495383E+02 -0.24574715487E+03  0.46816597161E+03  0.25500000920E-02 0. -1.
       -2    1    3    3    0  502 -0.39654287010E+03  0.39261495383E+02  0.17666477423E+03  0.43588777834E+03  0.25500000920E-02 0.  1.
</event>
<event>
 5   0  0.1436000E-03  0.9007810E+03  0.7818609E-02  0.9424606E-01
        4   -1    0    0  501    0  0.00000000000E+00  0.00000000000E+00  0.65592166425E+03  0.65592289374E+03  0.12699999809E+01 0.  1.
       -4   -1    0    0    0  501  0.00000000000E+00  0.00000000000E+00 -0.30925911938E+03  0.30926172705E+03  0.12699999809E+01 0. -1.
    10030    2    1    2    0    0  0.00000000000E+00  0.00000000000E+00  0.34666254487E+03  0.96518462078E+03  0.90078101233E+03 0.  0.
        4    1    3    3  502    0  0.88233021275E+02 -0.31670020025E+01 -0.29989582162E+03  0.31262471539E+03  0.12699999809E+01 0. -1.
       -4    1    3    3    0  502 -0.88233021275E+02  0.31670020025E+01  0.64655836649E+03  0.65255990539E+03  0.12699999809E+01 0.  1.
</event>
<event>
 5   0  0.3685879E-03  0.9082464E+03  0.7818609E-02  0.9415331E-01
        2   -1    0    0  501    0  0.00000000000E+00  0.00000000000E+00  0.40840647916E+03  0.40840647917E+03  0.25500000920E-02 0.  1.
       -2   -1    0    0    0  501  0.00000000000E+00  0.00000000000E+00 -0.50495739457E+03  0.50495739458E+03  0.25500000920E-02 0. -1.
    10030    2    1    2    0    0  0.00000000000E+00  0.00000000000E+00 -0.96550915409E+02  0.91336387374E+03  0.90824637990E+03 0.  0.
        1    1    3    3  502    0 -0.59140634010E+02 -0.39181892184E+03 -0.27135453926E+03  0.48026343615E+03  0.50400001928E-02 0. -1.
       -1    1    3    3    0  502  0.59140634010E+02  0.39181892184E+03  0.17480362385E+03  0.43310043759E+03  0.50400001928E-02 0.  1.
</event>
<event>
 5   0  0.2129280E-03  0.8968297E+03  0.7818609E-02  0.9429553E-01
        1   -1    0    0  501    0  0.00000000000E+00  0.00000000000E+00  0.36919170377E+03  0.36919170380E+03  0.50400001928E-02 0.  1.
       -1   -1    0    0    0  501  0.00000000000E+00  0.00000000000E+00 -0.54463817286E+03  0.54463817288E+03  0.50400001928E-02 0. -1.
    10030    2    1    2    0    0  0.00000000000E+00  0.00000000000E+00 -0.17544646909E+03  0.91382987668E+03  0.89682973858E+03 0.  0.
        3    1    3    3  502    0 -0.29371914085E+03 -0.25850150923E+03  0.13547675335E+03  0.41406270646E+03  0.10100000352E+00 0.  1.
       -3    1    3    3    0  502  0.29371914085E+03  0.25850150923E+03 -0.31092322244E+03  0.49976717022E+03  0.10100000352E+00 0. -1.
</event>
<event>
 5   0  0.3663255E-03  0.9016248E+03  0.7818609E-02  0.9423553E-01
        2   -1    0    0  501    0  0.00000000000E+00  0.00000000000E+00  0.47494234801E+03  0.47494234801E+03  0.25500000920E-02 0. -1.
       -2   -1    0    0    0  501  0.00000000000E+00  0.00000000000E+00 -0.42790838915E+03  0.42790838916E+03  0.25500000920E-02 0.  1.
    10030    2    1    2    0    0  0.00000000000E+00  0.00000000000E+00  0.47033958854E+02  0.90285073717E+03  0.90162478911E+03 0.  0.
        4    1    3    3  502    0 -0.10946459836E+03  0.25406039851E+03  0.37995183361E+03  0.46999382246E+03  0.12699999809E+01 0. -1.
       -4    1    3    3    0  502  0.10946459836E+03 -0.25406039851E+03 -0.33291787476E+03  0.43285691472E+03  0.12699999809E+01 0.  1.
</event>
<event>
 5   0  0.3815269E-03  0.8961673E+03  0.7818609E-02  0.9430385E-01
        2   -1    0    0  501    0  0.00000000000E+00  0.00000000000E+00  0.11239707986E+04  0.11239707986E+04  0.25500000920E-02 0.  1.
       -2   -1    0    0    0  501  0.00000000000E+00  0.00000000000E+00 -0.17863358929E+03  0.17863358931E+03  0.25500000920E-02 0. -1.
    10030    2    1    2    0    0  0.00000000000E+00  0.00000000000E+00  0.94533720930E+03  0.13026043879E+04  0.89616725676E+03 0.  0.
        5    1    3    3  502    0  0.21307347651E+03  0.16669041323E+03  0.99182616815E+03  0.10280696660E+04  0.46999998093E+01 0.  1.
       -5    1    3    3    0  502 -0.21307347651E+03 -0.16669041323E+03 -0.46488958852E+02  0.27453472193E+03  0.46999998093E+01 0. -1.
</event>
<event>
 5   0  0.3626546E-03  0.8995378E+03  0.7818609E-02  0.9426159E-01
       -2   -1    0    0    0  501  0.00000000000E+00  0.00000000000E+00  0.36948232394E+03  0.36948232395E+03  0.25500000920E-02 0. -1.
        2   -1    0    0  501    0  0.00000000000E+00  0.00000000000E+00 -0.54750137925E+03  0.54750137926E+03  0.25500000920E-02 0.  1.
    10030    2    1    2    0    0  0.00000000000E+00  0.00000000000E+00 -0.17801905532E+03  0.91698370321E+03  0.89953784128E+03 0.  0.
        3    1    3    3  502    0  0.39745946861E+03 -0.20926961858E+03 -0.65668530675E+02  0.45396053636E+03  0.10100000352E+00 0.  1.
       -3    1    3    3    0  502 -0.39745946861E+03  0.20926961858E+03 -0.11235052464E+03  0.46302316685E+03  0.10100000352E+00 0. -1.
</event>
<event>
 5   0  0.2134145E-03  0.9009028E+03  0.7818609E-02  0.9424454E-01
        1   -1    0    0  501    0  0.00000000000E+00  0.00000000000E+00  0.87052463179E+03  0.87052463181E+03  0.50400001928E-02 0. -1.
       -1   -1    0    0    0  501  0.00000000000E+00  0.00000000000E+00 -0.23308524697E+03  0.23308524703E+03  0.50400001928E-02 0.  1.
    10030    2    1    2    0    0  0.00000000000E+00  0.00000000000E+00  0.63743938482E+03  0.11036098788E+04  0.90090276686E+03 0.  0.
        1    1    3    3  502    0  0.21994608044E+03  0.36015834687E+03  0.12574305430E+03  0.44034262666E+03  0.50400001928E-02 0.  1.
       -1    1    3    3    0  502 -0.21994608044E+03 -0.36015834687E+03  0.51169633052E+03  0.66326725218E+03  0.50400001928E-02 0. -1.
</event>
<event>
 5   0  0.1436000E-03  0.9038407E+03  0.7818609E-02  0.9420793E-01
        4   -1    0    0  501    0  0.00000000000E+00  0.00000000000E+00  0.24110119651E+03  0.24110454134E+03  0.12699999809E+01 0.  1.
       -4   -1    0    0    0  501  0.00000000000E+00  0.00000000000E+00 -0.84707035748E+03  0.84707130953E+03  0.12699999809E+01 0. -1.
    10030    2    1    2    0    0  0.00000000000E+00  0.00000000000E+00 -0.60596916097E+03  0.10881758509E+04  0.90384072621E+03 0.  0.
        3    1    3    3  502    0  0.41584329885E+03 -0.88860756355E+02 -0.11877635959E+03  0.44150845634E+03  0.10100000352E+00 0.  1.
       -3    1    3    3    0  502 -0.41584329885E+03  0.88860756355E+02 -0.48719280139E+03  0.64666739453E+03  0.10100000352E+00 0. -1.
</event>
<event>
 5   0  0.2074970E-03  0.9011647E+03  0.7818609E-02  0.9424127E-01
       -1   -1    0    0    0  501  0.00000000000E+00  0.00000000000E+00  0.19693473216E+03  0.19693473222E+03  0.50400001928E-02 0.  1.
        1   -1    0    0  501    0  0.00000000000E+00  0.00000000000E+00 -0.10309224389E+04  0.10309224389E+04  0.50400001928E-02 0. -1.
    10030    2    1    2    0    0  0.00000000000E+00  0.00000000000E+00 -0.83398770675E+03  0.12278571711E+04  0.90116465627E+03 0.  0.
        2    1    3    3  502    0 -0.21183281589E+03 -0.12616193250E+03 -0.93085539300E+03  0.96295469145E+03  0.25500000920E-02 0. -1.
       -2    1    3    3    0  502  0.21183281589E+03  0.12616193250E+03  0.96867686254E+02  0.26490247969E+03  0.25500000920E-02 0.  1.
</event>
<event>
 5   0  0.3806019E-03  0.8983306E+03  0.7818609E-02  0.9427671E-01
        2   -1    0    0  501    0  0.00000000000E+00  0.00000000000E+00  0.12657115468E+04  0.12657115468E+04  0.25500000920E-02 0. -1.
       -2   -1    0    0    0  501  0.00000000000E+00  0.00000000000E+00 -0.15939607210E+03  0.15939607212E+03  0.25500000920E-02 0.  1.
    10030    2    1    2    0    0  0.00000000000E+00  0.00000000000E+00  0.11063154747E+04  0.14251076189E+04  0.89833056051E+03 0.  0.
        2    1    3    3  502    0 -0.34604111055E+03  0.16158511196E+03  0.17809929936E+03  0.42139477813E+03  0.25500000920E-02 0.  1.
       -2    1    3    3    0  502  0.34604111055E+03 -0.16158511196E+03  0.92821617533E+03  0.10037128408E+04  0.25500000920E-02 0. -1.
</event>
<event>
 5   0  0.3663255E-03  0.8993773E+03  0.7818609E-02  0.9426360E-01
       -2   -1    0    0    0  501  0.00000000000E+00  0.00000000000E+00  0.46443548766E+03  0.46443548767E+03  0.25500000920E-02 0.  1.
        2   -1    0    0  501    0  0.00000000000E+00  0.00000000000E+00 -0.43541004227E+03  0.43541004227E+03  0.25500000920E-02 0. -1.
    10030    2    1    2    0    0  0.00000000000E+00  0.00000000000E+00  0.29025445393E+02  0.89984552994E+03  0.89937728528E+03 0.  0.
        4    1    3    3  502    0  0.83927068366E+02  0.24798932430E+03 -0.35129464834E+03  0.43812327103E+03  0.12699999809E+01 0.  1.
       -4    1    3    3    0  502 -0.83927068366E+02 -0.24798932430E+03  0.38032009373E+03  0.46172225890E+03  0.12699999809E+01 0. -1.
</event>
<event>
 5   0  0.3815269E-03  0.9016668E+03  0.7818609E-02  0.9423500E-01
        2   -1    0    0  501    0  0.00000000000E+00  0.00000000000E+00  0.10104712062E+04  0.10104712062E+04  0.25500000920E-02 0. -1.
       -2   -1    0    0    0  501  0.00000000000E+00  0.00000000000E+00 -0.20114452187E+03  0.20114452188E+03  0.25500000920E-02 0.  1.
    10030    2    1    2    0    0  0.00000000000E+00  0.00000000000E+00  0.80932668437E+03  0.12116157281E+04  0.90166678469E+03 0.  0.
        5    1    3    3  502    0  0.92926461252E+01 -0.42240964882E+03  0.19342330687E+03  0.46470520798E+03  0.46999998093E+01 0.  1.
       -5    1    3    3    0  502 -0.92926461252E+01  0.42240964882E+03  0.61590337751E+03  0.74691052015E+03  0.46999998093E+01 0. -1.
</event>
<event>
 5   0  0.2295158E-03  0.9012747E+03  0.7818609E-02  0.9423989E-01
        1   -1    0    0  501    0  0.00000000000E+00  0.00000000000E+00  0.41477229797E+03  0.41477229800E+03  0.50400001928E-02 0. -1.
       -1   -1    0    0    0  501  0.00000000000E+00  0.00000000000E+00 -0.48960366478E+03  0.48960366480E+03  0.50400001928E-02 0.  1.
    10030    2    1    2    0    0  0.00000000000E+00  0.00000000000E+00 -0.74831366811E+02  0.90437596280E+03  0.90127473538E+03 0.  0.
        4    1    3    3  502    0  0.61934820582E+02 -0.35585970470E+03  0.23295602127E+03  0.42981644009E+03  0.12699999809E+01 0. -1.
       -4    1    3    3    0  502 -0.61934820582E+02  0.35585970470E+03 -0.30778738808E+03  0.47455952271E+03  0.12699999809E+01 0.  1.
</event>
<event>
 5   0  0.2295158E-03  0.9025744E+03  0.7818609E-02  0.9422369E-01
       -1   -1    0    0    0  501  0.00000000000E+00  0.00000000000E+00  0.10861530101E+03  0.10861530113E+03  0.50400001928E-02 0. -1.
        1   -1    0    0  501    0  0.00000000000E+00  0.00000000000E+00 -0.18750593064E+04  0.18750593064E+04  0.50400001928E-02 0.  1.
    10030    2    1    2    0    0  0.00000000000E+00  0.00000000000E+00 -0.17664440054E+04  0.19836746076E+04  0.90257438720E+03 0.  0.
        4    1    3    3  502    0  0.96135873522E+02 -0.22764410096E+03 -0.53296842465E+02  0.25279657671E+03  0.12699999809E+01 0. -1.
       -4    1    3    3    0  502 -0.96135873522E+02  0.22764410096E+03 -0.17131471629E+04  0.17308780309E+04  0.12699999809E+01 0.  1.
</event>
<event>
 5   0  0.3806019E-03  0.9014200E+03  0.7818609E-02  0.9423808E-01
        2   -1    0    0  501    0  0.00000000000E+00  0.00000000000E+00  0.22684437777E+03  0.22684437779E+03  0.25500000920E-02 0. -1.
       -2   -1    0    0    0  501  0.00000000000E+00  0.00000000000E+00 -0.89550157883E+03  0.89550157883E+03  0.25500000920E-02 0.  1.
    10030    2    1    2    0    0  0.00000000000E+00  0.00000000000E+00 -0.66865720105E+03  0.11223459566E+04  0.90141998747E+03 0.  0.
        2    1    3    3  502    0  0.34583448986E+02  0.24506414711E+03 -0.80332654387E+03  0.84058669228E+03  0.25500000920E-02 0.  1.
       -2    1    3    3    0  502 -0.34583448986E+02 -0.24506414711E+03  0.13466934281E+03  0.28175926434E+03  0.25500000920E-02 0. -1.
</event>
<event>
 5   0  0.3685879E-03  0.9161826E+03  0.7818609E-02  0.9405575E-01
       -2   -1    0    0    0  501  0.00000000000E+00  0.00000000000E+00  0.14944624380E+03  0.14944624382E+03  0.25500000920E-02 0. -1.
        2   -1    0    0  501    0  0.00000000000E+00  0.00000000000E+00 -0.14041679232E+04  0.14041679232E+04  0.25500000920E-02 0.  1.
    10030    2    1    2    0    0  0.00000000000E+00  0.00000000000E+00 -0.12547216794E+04  0.15536141670E+04  0.91618256216E+03 0.  0.
        1    1    3    3  502    0  0.57817606679E+01 -0.17678448405E+03  0.89203167905E+02  0.19809943904E+03  0.50400001928E-02 0. -1.
       -1    1    3    3    0  502 -0.57817606679E+01  0.17678448405E+03 -0.13439248473E+04  0.13555147280E+04  0.50400001928E-02 0.  1.
</event>
<event>
 5   0  0.3685879E-03  0.9002207E+03  0.7818609E-02  0.9425306E-01
       -2   -1    0    0    0  501  0.00000000000E+00  0.00000000000E+00  0.14409703912E+03  0.14409703914E+03  0.25500000920E-02 0. -1.
        2   -1    0    0  501    0  0.00000000000E+00  0.00000000000E+00 -0.14059923037E+04  0.14059923037E+04  0.25500000920E-02 0.  1.
    10030    2    1    2    0    0  0.00000000000E+00  0.00000000000E+00 -0.12618952645E+04  0.15500893428E+04  0.90022070183E+03 0.  0.
        1    1    3    3  502    0  0.66620940522E+02 -0.87287560586E+02  0.12068034074E+03  0.16316008279E+03  0.50400001928E-02 0. -1.
       -1    1    3    3    0  502 -0.66620940522E+02  0.87287560586E+02 -0.13825756053E+04  0.13869292600E+04  0.50400001928E-02 0.  1.
</event>
<event>
 5   0  0.2074970E-03  0.8977337E+03  0.7818609E-02  0.9428419E-01
       -1   -1    0    0    0  501  0.00000000000E+00  0.00000000000E+00  0.11387195561E+03  0.11387195572E+03  0.50400001928E-02 0.  1.
        1   -1    0    0  501    0  0.00000000000E+00  0.00000000000E+00 -0.17693684765E+04  0.17693684765E+04  0.50400001928E-02 0. -1.
    10030    2    1    2    0    0  0.00000000000E+00  0.00000000000E+00 -0.16554965209E+04  0.18832404322E+04  0.89773369930E+03 0.  0.
        2    1    3    3  502    0 -0.27158037117E+03 -0.78379224422E+02 -0.96283638487E+02  0.29861302697E+03  0.25500000920E-02 0.  1.
       -2    1    3    3    0  502  0.27158037117E+03  0.78379224422E+02 -0.15592128824E+04  0.15846274052E+04  0.25500000920E-02 0. -1.
</event>
<event>
 5   0  0.3815269E-03  0.9031726E+03  0.7818609E-02  0.9421624E-01
       -2   -1    0    0    0  501  0.00000000000E+00  0.00000000000E+00  0.60641230878E+03  0.60641230878E+03  0.25500000920E-02 0. -1.
        2   -1    0    0  501    0  0.00000000000E+00  0.00000000000E+00 -0.33628968459E+03  0.33628968460E+03  0.25500000920E-02 0.  1.
    10030    2    1    2    0    0  0.00000000000E+00  0.00000000000E+00  0.27012262418E+03  0.94270199339E+03  0.90317263922E+03 0.  0.
        5    1    3    3  502    0  0.23348096028E+03  0.25668836788E+02 -0.26748097167E+03  0.35600619123E+03  0.46999998093E+01 0.  1.
       -5    1    3    3    0  502 -0.23348096028E+03 -0.25668836788E+02  0.53760359585E+03  0.58669580215E+03  0.46999998093E+01 0. -1.
</event>
<event>
 5   0  0.2295158E-03  0.8988606E+03  0.7818609E-02  0.9427007E-01
        1   -1    0    0  501    0  0.00000000000E+00  0.00000000000E+00  0.17902884352E+03  0.17902884359E+03  0.50400001928E-02 0.  1.
       -1   -1    0    0    0  501  0.00000000000E+00  0.00000000000E+00 -0.11282405551E+04  0.11282405551E+04  0.50400001928E-02 0. -1.
    10030    2    1    2    0    0  0.00000000000E+00  0.00000000000E+00 -0.94921171158E+03  0.13072693987E+04  0.89886061622E+03 0.  0.
        4    1    3    3  502    0  0.15557470422E+02  0.25697286909E+02  0.17756452771E+03  0.18009208712E+03  0.12699999809E+01 0.  1.
       -4    1    3    3    0  502 -0.15557470422E+02 -0.25697286909E+02 -0.11267762393E+04  0.11271773116E+04  0.12699999809E+01 0. -1.
</event>
<event>
 5   0  0.2134145E-03  0.8838923E+03  0.7818609E-02  0.9445944E-01
       -1   -1    0    0    0  501  0.00000000000E+00  0.00000000000E+00  0.17874774940E+04  0.17874774940E+04  0.50400001928E-02 0.  1.
        1   -1    0    0  501    0  0.00000000000E+00  0.00000000000E+00 -0.10926929328E+03  0.10926929340E+03  0.50400001928E-02 0. -1.
    10030    2    1    2    0    0  0.00000000000E+00  0.00000000000E+00  0.16782082007E+04  0.18967467874E+04  0.88389230711E+03 0.  0.
        1    1    3    3  502    0 -0.30329477479E+03 -0.26826835130E+03  0.12191214184E+04  0.12846060336E+04  0.50400001928E-02 0.  1.
       -1    1    3    3    0  502  0.30329477479E+03  0.26826835130E+03  0.45908678222E+03  0.61214075372E+03  0.50400001928E-02 0. -1.
</event>
<event>
 5   0  0.2134145E-03  0.9010441E+03  0.7818609E-02  0.9424277E-01
        1   -1    0    0  501    0  0.00000000000E+00  0.00000000000E+00  0.46840199692E+03  0.46840199694E+03  0.50400001928E-02 0. -1.
       -1   -1    0    0    0  501  0.00000000000E+00  0.00000000000E+00 -0.43332461525E+03  0.43332461528E+03  0.50400001928E-02 0.  1.
    10030    2    1    2    0    0  0.00000000000E+00  0.00000000000E+00  0.35077381669E+02  0.90172661222E+03  0.90104409464E+03 0.  0.
        1    1    3    3  502    0 -0.35610191315E+03  0.13225284139E+03 -0.22486519789E+03  0.44143373665E+03  0.50400001928E-02 0.  1.
       -1    1    3    3    0  502  0.35610191315E+03 -0.13225284139E+03  0.25994257956E+03  0.46029287557E+03  0.50400001928E-02 0. -1.
</event>
<event>
 5   0  0.2074970E-03  0.8998852E+03  0.7818609E-02  0.9425725E-01
       -1   -1    0    0    0  501  0.00000000000E+00  0.00000000000E+00  0.17659941711E+04  0.17659941712E+04  0.50400001928E-02 0.  1.
        1   -1    0    0  501    0  0.00000000000E+00  0.00000000000E+00 -0.11463703345E+03  0.11463703356E+03  0.50400001928E-02 0. -1.
    10030    2    1    2    0    0  0.00000000000E+00  0.00000000000E+00  0.16513571377E+04  0.18806312047E+04  0.89988517706E+03 0.  0.
        2    1    3    3  502    0 -0.12362465152E+02  0.25237613857E+03  0.16037168304E+04  0.16235006061E+04  0.25500000920E-02 0.  1.
       -2    1    3    3    0  502  0.12362465152E+02 -0.25237613857E+03  0.47640307312E+02  0.25713059863E+03  0.25500000920E-02 0. -1.
</event>
<event>
 5   0  0.1436000E-03  0.8912715E+03  0.7818609E-02  0.9436559E-01
        3   -1    0    0  501    0  0.00000000000E+00  0.00000000000E+00  0.72588586331E+03  0.72588587034E+03  0.10100000352E+00 0.  1.
       -3   -1    0    0    0  501  0.00000000000E+00  0.00000000000E+00 -0.27358462759E+03  0.27358464623E+03  0.10100000352E+00 0. -1.
    10030    2    1    2    0    0  0.00000000000E+00  0.00000000000E+00  0.45230123572E+03  0.99947051657E+03  0.89127151063E+03 0.  0.
        3    1    3    3  502    0 -0.10829820619E+03 -0.16206429882E+03  0.67554730215E+03  0.70310561515E+03  0.10100000352E+00 0.  1.
       -3    1    3    3    0  502  0.10829820619E+03  0.16206429882E+03 -0.22324606643E+03  0.29636490142E+03  0.10100000352E+00 0. -1.
</event>
<event>
 5   0  0.2134145E-03  0.9016846E+03  0.7818609E-02  0.9423478E-01
        1   -1    0    0  501    0  0.00000000000E+00  0.00000000000E+00  0.49506848848E+03  0.49506848850E+03  0.50400001928E-02 0.  1.
       -1   -1    0    0    0  501  0.00000000000E+00  0.00000000000E+00 -0.41056702379E+03  0.41056702382E+03  0.50400001928E-02 0. -1.
    10030    2    1    2    0    0  0.00000000000E+00  0.00000000000E+00  0.84501464690E+02  0.90563551232E+03  0.90168463647E+03 0.  0.
        1    1    3    3  502    0 -0.43884293996E+03 -0.98524835557E+02  0.10993208194E+02  0.44990123341E+03  0.50400001928E-02 0.  1.
       -1    1    3    3    0  502  0.43884293996E+03  0.98524835557E+02  0.73508256496E+02  0.45573427891E+03  0.50400001928E-02 0. -1.
</event>
<event>
 5   0  0.3626546E-03  0.9035835E+03  0.7818609E-02  0.9421113E-01
       -2   -1    0    0    0  501  0.00000000000E+00  0.00000000000E+00  0.48570977719E+03  0.48570977719E+03  0.25500000920E-02 0.  1.
        2   -1    0    0  501    0  0.00000000000E+00  0.00000000000E+00 -0.42024230484E+03  0.42024230485E+03  0.25500000920E-02 0. -1.
    10030    2    1    2    0    0  0.00000000000E+00  0.00000000000E+00  0.65467472347E+02  0.90595208204E+03  0.90358352410E+03 0.  0.
        3    1    3    3  502    0 -0.48823233557E+02  0.18933887697E+03  0.44108856091E+03  0.48248528188E+03  0.10100000352E+00 0.  1.
       -3    1    3    3    0  502  0.48823233557E+02 -0.18933887697E+03 -0.37562108856E+03  0.42346680016E+03  0.10100000352E+00 0. -1.
</event>
<event>
 5   0  0.2129280E-03  0.8971127E+03  0.7818609E-02  0.9429198E-01
       -1   -1    0    0    0  501  0.00000000000E+00  0.00000000000E+00  0.12313744703E+04  0.12313744704E+04  0.50400001928E-02 0. -1.
        1   -1    0    0  501    0  0.00000000000E+00  0.00000000000E+00 -0.16339693055E+03  0.16339693063E+03  0.50400001928E-02 0.  1.
    10030    2    1    2    0    0  0.00000000000E+00  0.00000000000E+00  0.10679775398E+04  0.13947714010E+04  0.89711272174E+03 0.  0.
        3    1    3    3  502    0 -0.44509021962E+02  0.20656243364E+03 -0.81170674219E+02  0.22635763866E+03  0.10100000352E+00 0.  1.
       -3    1    3    3    0  502  0.44509021962E+02 -0.20656243364E+03  0.11491482140E+04  0.11684137623E+04  0.10100000352E+00 0. -1.
</event>
<event>
 5   0  0.3663255E-03  0.8995158E+03  0.7818609E-02  0.9426187E-01
       -2   -1    0    0    0  501  0.00000000000E+00  0.00000000000E+00  0.19551155275E+03  0.19551155276E+03  0.25500000920E-02 0.  1.
        2   -1    0    0  501    0  0.00000000000E+00  0.00000000000E+00 -0.10346302179E+04  0.10346302179E+04  0.25500000920E-02 0. -1.
    10030    2    1    2    0    0  0.00000000000E+00  0.00000000000E+00 -0.83911866513E+03  0.12301417706E+04  0.89951578180E+03 0.  0.
        4    1    3    3  502    0  0.18295855737E+00  0.70357740092E+02 -0.10270551177E+04  0.10294630021E+04  0.12699999809E+01 0. -1.
       -4    1    3    3    0  502 -0.18295855737E+00 -0.70357740092E+02  0.18793645252E+03  0.20067876856E+03  0.12699999809E+01 0.  1.
</event>
<event>
 5   0  0.3626546E-03  0.9098144E+03  0.7818609E-02  0.9413395E-01
       -2   -1    0    0    0  501  0.00000000000E+00  0.00000000000E+00  0.15991595741E+03  0.15991595744E+03  0.25500000920E-02 0. -1.
        2   -1    0    0  501    0  0.00000000000E+00  0.00000000000E+00 -0.12940583402E+04  0.12940583402E+04  0.25500000920E-02 0.  1.
    10030    2    1    2    0    0  0.00000000000E+00  0.00000000000E+00 -0.11341423828E+04  0.14539742976E+04  0.90981443919E+03 0.  0.
        3    1    3    3  502    0 -0.11993698038E+03 -0.43263233686E+03 -0.44979907980E+03  0.63551147948E+03  0.10100000352E+00 0.  1.
       -3    1    3    3    0  502  0.11993698038E+03  0.43263233686E+03 -0.68434330298E+03  0.81846281816E+03  0.10100000352E+00 0. -1.
</event>
<event>
 5   0  0.3806019E-03  0.9031258E+03  0.7818609E-02  0.9421682E-01
        2   -1    0    0  501    0  0.00000000000E+00  0.00000000000E+00  0.83675877343E+03  0.83675877343E+03  0.25500000920E-02 0. -1.
       -2   -1    0    0    0  501  0.00000000000E+00  0.00000000000E+00 -0.24368918792E+03  0.24368918793E+03  0.25500000920E-02 0.  1.
    10030    2    1    2    0    0  0.00000000000E+00  0.00000000000E+00  0.59306958551E+03  0.10804479614E+04  0.90312582953E+03 0.  0.
        2    1    3    3  502    0 -0.10029857623E+02  0.22728209407E+03  0.76318713493E+03  0.79637450440E+03  0.25500000920E-02 0. -1.
       -2    1    3    3    0  502  0.10029857623E+02 -0.22728209407E+03 -0.17011754942E+03  0.28407345697E+03  0.25500000920E-02 0.  1.
</event>
<event>
 5   0  0.2130975E-03  0.8938519E+03  0.7818609E-02  0.9433300E-01
        1   -1    0    0  501    0  0.00000000000E+00  0.00000000000E+00  0.40606186376E+03  0.40606186379E+03  0.50400001928E-02 0. -1.
       -1   -1    0    0    0  501  0.00000000000E+00  0.00000000000E+00 -0.49190241104E+03  0.49190241107E+03  0.50400001928E-02 0.  1.
    10030    2    1    2    0    0  0.00000000000E+00  0.00000000000E+00 -0.85840547281E+02  0.89796427486E+03  0.89385191132E+03 0.  0.
        5    1    3    3  502    0 -0.45156022121E+02 -0.18980662394E+03 -0.44683360696E+03  0.48759407619E+03  0.46999998093E+01 0.  1.
       -5    1    3    3    0  502  0.45156022121E+02  0.18980662394E+03  0.36099305968E+03  0.41037019868E+03  0.46999998093E+01 0. -1.
</event>
<event>
 5   0  0.2134145E-03  0.9069031E+03  0.7818609E-02  0.9416993E-01
       -1   -1    0    0    0  501  0.00000000000E+00  0.00000000000E+00  0.92028404783E+03  0.92028404785E+03  0.50400001928E-02 0. -1.
        1   -1    0    0  501    0  0.00000000000E+00  0.00000000000E+00 -0.22342919665E+03  0.22342919671E+03  0.50400001928E-02 0.  1.
    10030    2    1    2    0    0  0.00000000000E+00  0.00000000000E+00  0.69685485118E+03  0.11437132446E+04  0.90690313824E+03 0.  0.
        1    1    3    3  502    0 -0.83568812549E+02 -0.43095521770E+03  0.20512418165E+03  0.48454316218E+03  0.50400001928E-02 0.  1.
       -1    1    3    3    0  502  0.83568812549E+02  0.43095521770E+03  0.49173066954E+03  0.65917008237E+03  0.50400001928E-02 0. -1.
</event>
<event>
 5   0  0.3685879E-03  0.9017639E+03  0.7818609E-02  0.9423379E-01
       -2   -1    0    0    0  501  0.00000000000E+00  0.00000000000E+00  0.16315974662E+03  0.16315974664E+03  0.25500000920E-02 0. -1.
        2   -1    0    0  501    0  0.00000000000E+00  0.00000000000E+00 -0.12459846384E+04  0.12459846384E+04  0.25500000920E-02 0.  1.
    10030    2    1    2    0    0  0.00000000000E+00  0.00000000000E+00 -0.10828248918E+04  0.14091443850E+04  0.90176391126E+03 0.  0.
        1    1    3    3  502    0  0.40243948092E+02 -0.26207022454E+03  0.28461666769E+02  0.26666541667E+03  0.50400001928E-02 0. -1.
       -1    1    3    3    0  502 -0.40243948092E+02  0.26207022454E+03 -0.11112865585E+04  0.11424789684E+04  0.50400001928E-02 0.  1.
</event>
<event>
 5   0  0.3663255E-03  0.9041308E+03  0.7818609E-02  0.9420432E-01
        2   -1    0    0  501    0  0.00000000000E+00  0.00000000000E+00  0.10976818977E+04  0.10976818977E+04  0.25500000920E-02 0.  1.
       -2   -1    0    0    0  501  0.00000000000E+00  0.00000000000E+00 -0.18617698873E+03  0.18617698875E+03  0.25500000920E-02 0. -1.
    10030    2    1    2    0    0  0.00000000000E+00  0.00000000000E+00  0.91150490892E+03  0.12838588864E+04  0.90413076555E+03 0.  0.
        4    1    3    3  502    0 -0.33334362113E+03  0.29126842326E+03  0.58594519306E+03  0.73436274845E+03  0.12699999809E+01 0.  1.
       -4    1    3    3    0  502  0.33334362113E+03 -0.29126842326E+03  0.32555971586E+03  0.54949613795E+03  0.12699999809E+01 0. -1.
</event>
<event>
 5   0  0.1436000E-03  0.8557080E+03  0.7818609E-02  0.9482708E-01
       -4   -1    0    0    0  501  0.00000000000E+00  0.00000000000E+00  0.33735716760E+03  0.33735955808E+03  0.12699999809E+01 0. -1.
        4   -1    0    0  501    0  0.00000000000E+00  0.00000000000E+00 -0.54262181025E+03  0.54262329646E+03  0.12699999809E+01 0.  1.
    10030    2    1    2    0    0  0.00000000000E+00  0.00000000000E+00 -0.20526464265E+03  0.87998285454E+03  0.85570804061E+03 0.  0.
        2    1    3    3  502    0 -0.11862467310E+03  0.17339871374E+03 -0.48592559421E+03  0.52939834728E+03  0.25500000920E-02 0.  1.
       -2    1    3    3    0  502  0.11862467310E+03 -0.17339871374E+03  0.28066095156E+03  0.35058450726E+03  0.25500000920E-02 0. -1.
</event>
<event>
 5   0  0.3626546E-03  0.9001520E+03  0.7818609E-02  0.9425391E-01
        2   -1    0    0  501    0  0.00000000000E+00  0.00000000000E+00  0.41078741793E+03  0.41078741793E+03  0.25500000920E-02 0.  1.
       -2   -1    0    0    0  501  0.00000000000E+00  0.00000000000E+00 -0.49312220735E+03  0.49312220736E+03  0.25500000920E-02 0. -1.
    10030    2    1    2    0    0  0.00000000000E+00  0.00000000000E+00 -0.82334789425E+02  0.90390962529E+03  0.90015198336E+03 0.  0.
        3    1    3    3  502    0 -0.34186250452E+03  0.31524745519E+02 -0.33342288796E+03  0.47857560948E+03  0.10100000352E+00 0. -1.
       -3    1    3    3    0  502  0.34186250452E+03 -0.31524745519E+02  0.25108809853E+03  0.42533401581E+03  0.10100000352E+00 0.  1.
</event>
<event>
 5   0  0.3663255E-03  0.9021338E+03  0.7818609E-02  0.9422918E-01
       -2   -1    0    0    0  501  0.00000000000E+00  0.00000000000E+00  0.29797829552E+03  0.29797829553E+03  0.25500000920E-02 0. -1.
        2   -1    0    0  501    0  0.00000000000E+00  0.00000000000E+00 -0.68280591625E+03  0.68280591626E+03  0.25500000920E-02 0.  1.
    10030    2    1    2    0    0  0.00000000000E+00  0.00000000000E+00 -0.38482762073E+03  0.98078421179E+03  0.90213378854E+03 0.  0.
        4    1    3    3  502    0  0.24106079989E+03 -0.38124220051E+03 -0.19453465558E+03  0.49122425614E+03  0.12699999809E+01 0.  1.
       -4    1    3    3    0  502 -0.24106079989E+03  0.38124220051E+03 -0.19029296515E+03  0.48955995565E+03  0.12699999809E+01 0. -1.
</event>
<event>
 5   0  0.1436000E-03  0.9038690E+03  0.7818609E-02  0.9420758E-01
        3   -1    0    0  501    0  0.00000000000E+00  0.00000000000E+00  0.12147721260E+04  0.12147721302E+04  0.10100000352E+00 0. -1.
       -3   -1    0    0    0  501  0.00000000000E+00  0.00000000000E+00 -0.16813423583E+03  0.16813426617E+03  0.10100000352E+00 0.  1.
    10030    2    1    2    0    0  0.00000000000E+00  0.00000000000E+00  0.10466378901E+04  0.13829063963E+04  0.90386903252E+03 0.  0.
        5    1    3    3  502    0 -0.30475502249E+03  0.85075813535E+02  0.10169833693E+04  0.10650778287E+04  0.46999998093E+01 0. -1.
       -5    1    3    3    0  502  0.30475502249E+03 -0.85075813535E+02  0.29654520811E+02  0.31782856760E+03  0.46999998093E+01 0.  1.
</event>
<event>
 5   0  0.2130975E-03  0.8950546E+03  0.7818609E-02  0.9431785E-01
       -1   -1    0    0    0  501  0.00000000000E+00  0.00000000000E+00  0.11447288655E+03  0.11447288666E+03  0.50400001928E-02 0.  1.
        1   -1    0    0  501    0  0.00000000000E+00  0.00000000000E+00 -0.17495907659E+04  0.17495907659E+04  0.50400001928E-02 0. -1.
    10030    2    1    2    0    0  0.00000000000E+00  0.00000000000E+00 -0.16351178793E+04  0.18640636525E+04  0.89505464716E+03 0.  0.
        5    1    3    3  502    0 -0.88769760736E+02  0.10933088302E+02  0.95617168023E+02  0.13101273091E+03  0.46999998093E+01 0.  1.
       -5    1    3    3    0  502  0.88769760736E+02 -0.10933088302E+02 -0.17307350473E+04  0.17330509216E+04  0.46999998093E+01 0. -1.
</event>
<event>
 5   0  0.2074970E-03  0.8899857E+03  0.7818609E-02  0.9438187E-01
       -1   -1    0    0    0  501  0.00000000000E+00  0.00000000000E+00  0.92274485550E+02  0.92274485688E+02  0.50400001928E-02 0. -1.
        1   -1    0    0  501    0  0.00000000000E+00  0.00000000000E+00 -0.21459739921E+04  0.21459739921E+04  0.50400001928E-02 0.  1.
    10030    2    1    2    0    0  0.00000000000E+00  0.00000000000E+00 -0.20536995066E+04  0.22382484778E+04  0.88998572188E+03 0.  0.
        2    1    3    3  502    0  0.22997325481E+03  0.29218706064E+03 -0.41206641877E+03  0.55503126922E+03  0.25500000920E-02 0. -1.
       -2    1    3    3    0  502 -0.22997325481E+03 -0.29218706064E+03 -0.16416330878E+04  0.16832172086E+04  0.25500000920E-02 0.  1.
</event>
<event>
 5   0  0.1436000E-03  0.9008037E+03  0.7818609E-02  0.9424577E-01
        3   -1    0    0  501    0  0.00000000000E+00  0.00000000000E+00  0.49712682655E+03  0.49712683681E+03  0.10100000352E+00 0.  1.
       -3   -1    0    0    0  501  0.00000000000E+00  0.00000000000E+00 -0.40806853999E+03  0.40806855249E+03  0.10100000352E+00 0. -1.
    10030    2    1    2    0    0  0.00000000000E+00  0.00000000000E+00  0.89058286561E+02  0.90519538930E+03  0.90080370470E+03 0.  0.
        3    1    3    3  502    0 -0.24818132494E+03  0.37570864290E+03  0.55109673712E+02  0.45363866759E+03  0.10100000352E+00 0.  1.
       -3    1    3    3    0  502  0.24818132494E+03 -0.37570864290E+03  0.33948612849E+02  0.45155672170E+03  0.10100000352E+00 0. -1.
</event>
<event>
 5   0  0.3663255E-03  0.9000008E+03  0.7818609E-02  0.9425580E-01
        2   -1    0    0  501    0  0.00000000000E+00  0.00000000000E+00  0.10555752498E+04  0.10555752498E+04  0.25500000920E-02 0. -1.
       -2   -1    0    0    0  501  0.00000000000E+00  0.00000000000E+00 -0.19183885540E+03  0.19183885542E+03  0.25500000920E-02 0.  1.
    10030    2    1    2    0    0  0.00000000000E+00  0.00000000000E+00  0.86373639445E+03  0.12474141053E+04  0.90000077273E+03 0.  0.
        4    1    3    3  502    0 -0.43316137694E+02  0.34904739587E+03  0.42824122368E+02  0.35432455561E+03  0.12699999809E+01 0.  1.
       -4    1    3    3    0  502  0.43316137694E+02 -0.34904739587E+03  0.82091227208E+03  0.89308954965E+03  0.12699999809E+01 0. -1.
</event>
<event>
 5   0  0.3626546E-03  0.9021926E+03  0.7818609E-02  0.9422845E-01
        2   -1    0    0  501    0  0.00000000000E+00  0.00000000000E+00  0.26828084207E+03  0.26828084208E+03  0.25500000920E-02 0. -1.
       -2   -1    0    0    0  501  0.00000000000E+00  0.00000000000E+00 -0.75848833507E+03  0.75848833507E+03  0.25500000920E-02 0.  1.
    10030    2    1    2    0    0  0.00000000000E+00  0.00000000000E+00 -0.49020749300E+03  0.10267691772E+04  0.90219263850E+03 0.  0.
        3    1    3    3  502    0  0.20339610528E+03 -0.23834075464E+03  0.12422373526E+03  0.33705761758E+03  0.10100000352E+00 0. -1.
       -3    1    3    3    0  502 -0.20339610528E+03  0.23834075464E+03 -0.61443122826E+03  0.68971155958E+03  0.10100000352E+00 0.  1.
</event>
<event>
 5   0  0.2130975E-03  0.9027476E+03  0.7818609E-02  0.9422153E-01
       -1   -1    0    0    0  501  0.00000000000E+00  0.00000000000E+00  0.19481627189E+03  0.19481627196E+03  0.50400001928E-02 0. -1.
        1   -1    0    0  501    0  0.00000000000E+00  0.00000000000E+00 -0.10457972596E+04  0.10457972596E+04  0.50400001928E-02 0.  1.
    10030    2    1    2    0    0  0.00000000000E+00  0.00000000000E+00 -0.85098098773E+03  0.12406135316E+04  0.90274763544E+03 0.  0.
        5    1    3    3  502    0 -0.38819499889E+03 -0.46925848684E+01 -0.74186639932E+03  0.83732026248E+03  0.46999998093E+01 0.  1.
       -5    1    3    3    0  502  0.38819499889E+03  0.46925848684E+01 -0.10911458841E+03  0.40329326912E+03  0.46999998093E+01 0. -1.
</event>
<event>
 5   0  0.3806019E-03  0.8990995E+03  0.7818609E-02  0.9426708E-01
        2   -1    0    0  501    0  0.00000000000E+00  0.00000000000E+00  0.76483985112E+03  0.76483985112E+03  0.25500000920E-02 0. -1.
       -2   -1    0    0    0  501  0.00000000000E+00  0.00000000000E+00 -0.26423175787E+03  0.26423175788E+03  0.25500000920E-02 0.  1.
    10030    2    1    2    0    0  0.00000000000E+00  0.00000000000E+00  0.50060809325E+03  0.10290716090E+04  0.89909950141E+03 0.  0.
        2    1    3    3  502    0 -0.50756870471E+02  0.44449491764E+03  0.19985270176E+03  0.48999295313E+03  0.25500000920E-02 0.  1.
       -2    1    3    3    0  502  0.50756870471E+02 -0.44449491764E+03  0.30075539148E+03  0.53907865588E+03  0.25500000920E-02 0. -1.
</event>
<event>
 5   0  0.3663255E-03  0.9063512E+03  0.7818609E-02  0.9417677E-01
       -2   -1    0    0    0  501  0.00000000000E+00  0.00000000000E+00  0.47480701838E+03  0.47480701839E+03  0.25500000920E-02 0. -1.
        2   -1    0    0  501    0  0.00000000000E+00  0.00000000000E+00 -0.43252970943E+03  0.43252970943E+03  0.25500000920E-02 0.  1.
    10030    2    1    2    0    0  0.00000000000E+00  0.00000000000E+00  0.42277308952E+02  0.90733672782E+03  0.90635123810E+03 0.  0.
        4    1    3    3  502    0 -0.34914947951E+02 -0.27333726403E+03  0.38129950739E+03  0.47045004064E+03  0.12699999809E+01 0. -1.
       -4    1    3    3    0  502  0.34914947951E+02  0.27333726403E+03 -0.33902219844E+03  0.43688668718E+03  0.12699999809E+01 0.  1.
</event>
<event>
 5   0  0.2134145E-03  0.9260377E+03  0.7818609E-02  0.9393606E-01
       -1   -1    0    0    0  501  0.00000000000E+00  0.00000000000E+00  0.13583511215E+03  0.13583511225E+03  0.50400001928E-02 0. -1.
        1   -1    0    0  501    0  0.00000000000E+00  0.00000000000E+00 -0.15782845333E+04  0.15782845333E+04  0.50400001928E-02 0.  1.
    10030    2    1    2    0    0  0.00000000000E+00  0.00000000000E+00 -0.14424494211E+04  0.17141196455E+04  0.92603770263E+03 0.  0.
        1    1    3    3  502    0 -0.39876688307E+03 -0.23530121172E+03 -0.71718227220E+03  0.85365806905E+03  0.50400001928E-02 0. -1.
       -1    1    3    3    0  502  0.39876688307E+03  0.23530121172E+03 -0.72526714893E+03  0.86046157649E+03  0.50400001928E-02 0.  1.
</event>
<event>
 5   0  0.3806019E-03  0.8929544E+03  0.7818609E-02  0.9434432E-01
       -2   -1    0    0    0  501  0.00000000000E+00  0.00000000000E+00  0.19272355569E+03  0.19272355570E+03  0.25500000920E-02 0.  1.
        2   -1    0    0  501    0  0.00000000000E+00  0.00000000000E+00 -0.10343409946E+04  0.10343409946E+04  0.25500000920E-02 0. -1.
    10030    2    1    2    0    0  0.00000000000E+00  0.00000000000E+00 -0.84161743886E+03  0.12270645503E+04  0.89295436451E+03 0.  0.
        2    1    3    3  502    0  0.16433907585E+03  0.23090212147E+03 -0.89488239737E+03  0.93868931318E+03  0.25500000920E-02 0. -1.
       -2    1    3    3    0  502 -0.16433907585E+03 -0.23090212147E+03  0.53264958504E+02  0.28837523708E+03  0.25500000920E-02 0.  1.
</event>
<event>
 5   0  0.2130975E-03  0.9015072E+03  0.7818609E-02  0.9423699E-01
        1   -1    0    0  501    0  0.00000000000E+00  0.00000000000E+00  0.29622607714E+03  0.29622607719E+03  0.50400001928E-02 0. -1.
       -1   -1    0    0    0  501  0.00000000000E+00  0.00000000000E+00 -0.68589105854E+03  0.68589105856E+03  0.50400001928E-02 0.  1.
    10030    2    1    2    0    0  0.00000000000E+00  0.00000000000E+00 -0.38966498140E+03  0.98211713575E+03  0.90150722160E+03 0.  0.
        5    1    3    3  502    0  0.22359075464E+03  0.21912867819E+03 -0.54809011148E+03  0.63121712862E+03  0.46999998093E+01 0.  1.
       -5    1    3    3    0  502 -0.22359075464E+03 -0.21912867819E+03  0.15842513008E+03  0.35090000713E+03  0.46999998093E+01 0. -1.
</event>
<event>
 5   0  0.1436000E-03  0.9001297E+03  0.7818609E-02  0.9425419E-01
       -3   -1    0    0    0  501  0.00000000000E+00  0.00000000000E+00  0.23332476066E+03  0.23332478252E+03  0.10100000352E+00 0. -1.
        3   -1    0    0  501    0  0.00000000000E+00  0.00000000000E+00 -0.86813909854E+03  0.86813910442E+03  0.10100000352E+00 0.  1.
    10030    2    1    2    0    0  0.00000000000E+00  0.00000000000E+00 -0.63481433788E+03  0.11014638869E+04  0.90012968546E+03 0.  0.
        1    1    3    3  502    0  0.36716804589E+03  0.15030463739E+03 -0.57743253688E+03  0.70059417112E+03  0.50400001928E-02 0.  1.
       -1    1    3    3    0  502 -0.36716804589E+03 -0.15030463739E+03 -0.57381801007E+02  0.40086971581E+03  0.50400001928E-02 0. -1.
</event>
<event>
 5   0  0.2129280E-03  0.9005019E+03  0.7818609E-02  0.9424954E-01
       -1   -1    0    0    0  501  0.00000000000E+00  0.00000000000E+00  0.12218923908E+04  0.12218923908E+04  0.50400001928E-02 0.  1.
        1   -1    0    0  501    0  0.00000000000E+00  0.00000000000E+00 -0.16591142886E+03  0.16591142894E+03  0.50400001928E-02 0. -1.
    10030    2    1    2    0    0  0.00000000000E+00  0.00000000000E+00  0.10559809620E+04  0.13878038198E+04  0.90050188792E+03 0.  0.
        3    1    3    3  502    0  0.15725159297E+01 -0.21936689075E+03 -0.77978562537E+02  0.23281961254E+03  0.10100000352E+00 0. -1.
       -3    1    3    3    0  502 -0.15725159297E+01  0.21936689075E+03  0.11339595245E+04  0.11549842072E+04  0.10100000352E+00 0.  1.
</event>
<event>
 5   0  0.3815269E-03  0.8995372E+03  0.7818609E-02  0.9426160E-01
        2   -1    0    0  501    0  0.00000000000E+00  0.00000000000E+00  0.66712039086E+03  0.66712039087E+03  0.25500000920E-02 0. -1.
       -2   -1    0    0    0  501  0.00000000000E+00  0.00000000000E+00 -0.30323134407E+03  0.30323134408E+03  0.25500000920E-02 0.  1.
    10030    2    1    2    0    0  0.00000000000E+00  0.00000000000E+00  0.36388904679E+03  0.97035173495E+03  0.89953724277E+03 0.  0.
        5    1    3    3  502    0  0.14495704730E+03  0.39624227642E+03  0.34992509876E+03  0.54816982033E+03  0.46999998093E+01 0. -1.
       -5    1    3    3    0  502 -0.14495704730E+03 -0.39624227642E+03  0.13963948035E+02  0.42218191461E+03  0.46999998093E+01 0.  1.
</event>
<event>
 5   0  0.2130975E-03  0.8989715E+03  0.7818609E-02  0.9426868E-01
       -1   -1    0    0    0  501  0.00000000000E+00  0.00000000000E+00  0.29479908825E+03  0.29479908829E+03  0.50400001928E-02 0.  1.
        1   -1    0    0  501    0  0.00000000000E+00  0.00000000000E+00 -0.68533937728E+03  0.68533937730E+03  0.50400001928E-02 0. -1.
    10030    2    1    2    0    0  0.00000000000E+00  0.00000000000E+00 -0.39054028903E+03  0.98013846560E+03  0.89897146472E+03 0.  0.
        5    1    3    3  502    0 -0.39098974505E+03 -0.65576121779E+02 -0.42614924406E+03  0.58206397990E+03  0.46999998093E+01 0. -1.
       -5    1    3    3    0  502  0.39098974505E+03  0.65576121779E+02  0.35608955029E+02  0.39807448569E+03  0.46999998093E+01 0.  1.
</event>
<event>
 5   0  0.3626546E-03  0.9069111E+03  0.7818609E-02  0.9416983E-01
        2   -1    0    0  501    0  0.00000000000E+00  0.00000000000E+00  0.14488881581E+04  0.14488881581E+04  0.25500000920E-02 0. -1.
       -2   -1    0    0    0  501  0.00000000000E+00  0.00000000000E+00 -0.14191703644E+03  0.14191703647E+03  0.25500000920E-02 0.  1.
    10030    2    1    2    0    0  0.00000000000E+00  0.00000000000E+00  0.13069711217E+04  0.15908051946E+04  0.90691105089E+03 0.  0.
        3    1    3    3  502    0  0.27225177131E+03  0.20478835374E+03  0.12853830624E+03  0.36411729316E+03  0.10100000352E+00 0.  1.
       -3    1    3    3    0  502 -0.27225177131E+03 -0.20478835374E+03  0.11784328154E+04  0.12266879014E+04  0.10100000352E+00 0. -1.
</event>
<event>
 5   0  0.2134145E-03  0.9009586E+03  0.7818609E-02  0.9424384E-01
       -1   -1    0    0    0  501  0.00000000000E+00  0.00000000000E+00  0.26239500010E+03  0.26239500015E+03  0.50400001928E-02 0.  1.
        1   -1    0    0  501    0  0.00000000000E+00  0.00000000000E+00 -0.77338202838E+03  0.77338202840E+03  0.50400001928E-02 0. -1.
    10030    2    1    2    0    0  0.00000000000E+00  0.00000000000E+00 -0.51098702828E+03  0.10357770286E+04  0.90095855055E+03 0.  0.
        1    1    3    3  502    0 -0.44740660813E+02 -0.75267362924E+02  0.25251770660E+03  0.26726783350E+03  0.50400001928E-02 0.  1.
       -1    1    3    3    0  502  0.44740660813E+02  0.75267362924E+02 -0.76350473489E+03  0.76850919505E+03  0.50400001928E-02 0. -1.
</event>
<event>
 5   0  0.2129280E-03  0.9001798E+03  0.7818609E-02  0.9425357E-01
        1   -1    0    0  501    0  0.00000000000E+00  0.00000000000E+00  0.13381965240E+04  0.13381965240E+04  0.50400001928E-02 0. -1.
       -1   -1    0    0    0  501  0.00000000000E+00  0.00000000000E+00 -0.15138353032E+03  0.15138353040E+03  0.50400001928E-02 0.  1.
    10030    2    1    2    0    0  0.00000000000E+00  0.00000000000E+00  0.11868129937E+04  0.14895800544E+04  0.90017979124E+03 0.  0.
        3    1    3    3  502    0  0.24726217797E+03 -0.24837250011E+03  0.12609200554E+03  0.37246031672E+03  0.10100000352E+00 0.  1.
       -3    1    3    3    0  502 -0.24726217797E+03  0.24837250011E+03  0.10607209882E+04  0.11171197377E+04  0.10100000352E+00 0. -1.
</event>
<event>
 5   0  0.3626546E-03  0.9007169E+03  0.7818609E-02  0.9424686E-01
        2   -1    0    0  501    0  0.00000000000E+00  0.00000000000E+00  0.82364257625E+03  0.82364257625E+03  0.25500000920E-02 0. -1.
       -2   -1    0    0    0  501  0.00000000000E+00  0.00000000000E+00 -0.24625092024E+03  0.24625092025E+03  0.25500000920E-02 0.  1.
    10030    2    1    2    0    0  0.00000000000E+00  0.00000000000E+00  0.57739165600E+03  0.10698934965E+04  0.90071691970E+03 0.  0.
        3    1    3    3  502    0 -0.60987798894E+02 -0.55088173669E+02  0.81465999202E+03  0.81879492628E+03  0.10100000352E+00 0. -1.
       -3    1    3    3    0  502  0.60987798894E+02  0.55088173669E+02 -0.23726833602E+03  0.25109857023E+03  0.10100000352E+00 0.  1.
</event>
<event>
 5   0  0.3815269E-03  0.9031648E+03  0.7818609E-02  0.9421634E-01
        2   -1    0    0  501    0  0.00000000000E+00  0.00000000000E+00  0.71592973390E+03  0.71592973390E+03  0.25500000920E-02 0. -1.
       -2   -1    0    0    0  501  0.00000000000E+00  0.00000000000E+00 -0.28484175740E+03  0.28484175741E+03  0.25500000920E-02 0.  1.
    10030    2    1    2    0    0  0.00000000000E+00  0.00000000000E+00  0.43108797650E+03  0.10007714913E+04  0.90316484340E+03 0.  0.
        5    1    3    3  502    0  0.30862383600E+03  0.17591497706E+02  0.58027716204E+03  0.65749662183E+03  0.46999998093E+01 0. -1.
       -5    1    3    3    0  502 -0.30862383600E+03 -0.17591497706E+02 -0.14918918554E+03  0.34327486948E+03  0.46999998093E+01 0.  1.
</event>
<event>
 5   0  0.3815269E-03  0.8990991E+03  0.7818609E-02  0.9426708E-01
        2   -1    0    0  501    0  0.00000000000E+00  0.00000000000E+00  0.10038702024E+04  0.10038702024E+04  0.25500000920E-02 0. -1.
       -2   -1    0    0    0  501  0.00000000000E+00  0.00000000000E+00 -0.20131564794E+03  0.20131564796E+03  0.25500000920E-02 0.  1.
    10030    2    1    2    0    0  0.00000000000E+00  0.00000000000E+00  0.80255455446E+03  0.12051858504E+04  0.89909906075E+03 0.  0.
        5    1    3    3  502    0  0.79146271671E+02 -0.41240121521E+03  0.61630695496E+03  0.74578498735E+03  0.46999998093E+01 0. -1.
       -5    1    3    3    0  502 -0.79146271671E+02  0.41240121521E+03  0.18624759951E+03  0.45940086302E+03  0.46999998093E+01 0.  1.
</event>
<event>
 5   0  0.2295158E-03  0.8983761E+03  0.7818609E-02  0.9427614E-01
        1   -1    0    0  501    0  0.00000000000E+00  0.00000000000E+00  0.16758762458E+04  0.16758762459E+04  0.50400001928E-02 0.  1.
       -1   -1    0    0    0  501  0.00000000000E+00  0.00000000000E+00 -0.12039666249E+03  0.12039666260E+03  0.50400001928E-02 0. -1.
    10030    2    1    2    0    0  0.00000000000E+00  0.00000000000E+00  0.15554795834E+04  0.17962729084E+04  0.89837610576E+03 0.  0.
        4    1    3    3  502    0 -0.37749652511E+03 -0.22435664188E+03  0.96667366016E+03  0.10617434282E+04  0.12699999809E+01 0. -1.
       -4    1    3    3    0  502  0.37749652511E+03  0.22435664188E+03  0.58880592319E+03  0.73452948022E+03  0.12699999809E+01 0.  1.
</event>
<event>
 5   0  0.2130975E-03  0.9017998E+03  0.7818609E-02  0.9423334E-01
        1   -1    0    0  501    0  0.00000000000E+00  0.00000000000E+00  0.20635449400E+03  0.20635449406E+03  0.50400001928E-02 0.  1.
       -1   -1    0    0    0  501  0.00000000000E+00  0.00000000000E+00 -0.98524967722E+03  0.98524967723E+03  0.50400001928E-02 0. -1.
    10030    2    1    2    0    0  0.00000000000E+00  0.00000000000E+00 -0.77889518322E+03  0.11916041713E+04  0.90179975305E+03 0.  0.
        5    1    3    3  502    0 -0.15045959397E+03  0.36988027701E+03 -0.66611163335E+03  0.77664426015E+03  0.46999998093E+01 0. -1.
       -5    1    3    3    0  502  0.15045959397E+03 -0.36988027701E+03 -0.11278354987E+03  0.41495991115E+03  0.46999998093E+01 0.  1.
</event>
<event>
 5   0  0.2295158E-03  0.9032738E+03  0.7818609E-02  0.9421498E-01
       -1   -1    0    0    0  501  0.00000000000E+00  0.00000000000E+00  0.25130552990E+03  0.25130552995E+03  0.50400001928E-02 0. -1.
        1   -1    0    0  501    0  0.00000000000E+00  0.00000000000E+00 -0.81166497913E+03  0.81166497915E+03  0.50400001928E-02 0.  1.
    10030    2    1    2    0    0  0.00000000000E+00  0.00000000000E+00 -0.56035944923E+03  0.10629705091E+04  0.90327381833E+03 0.  0.
        4    1    3    3  502    0 -0.72625900834E+02  0.24362079160E+03  0.15911219258E+03  0.29990650927E+03  0.12699999809E+01 0. -1.
       -4    1    3    3    0  502  0.72625900834E+02 -0.24362079160E+03 -0.71947164181E+03  0.76306399984E+03  0.12699999809E+01 0.  1.
</event>
<event>
 5   0  0.2129280E-03  0.9007263E+03  0.7818609E-02  0.9424674E-01
        1   -1    0    0  501    0  0.00000000000E+00  0.00000000000E+00  0.19361431015E+04  0.19361431015E+04  0.50400001928E-02 0. -1.
       -1   -1    0    0    0  501  0.00000000000E+00  0.00000000000E+00 -0.10475825227E+03  0.10475825239E+03  0.50400001928E-02 0.  1.
    10030    2    1    2    0    0  0.00000000000E+00  0.00000000000E+00  0.18313848492E+04  0.20409013539E+04  0.90072630157E+03 0.  0.
        3    1    3    3  502    0 -0.49846438197E+01  0.33801182957E+03  0.15899467343E+04  0.16254868415E+04  0.10100000352E+00 0. -1.
       -3    1    3    3    0  502  0.49846438197E+01 -0.33801182957E+03  0.24143811490E+03  0.41541451242E+03  0.10100000352E+00 0.  1.
</event>
<event>
 5   0  0.1436000E-03  0.8974022E+03  0.7818609E-02  0.9428835E-01
       -3   -1    0    0    0  501  0.00000000000E+00  0.00000000000E+00  0.34061648395E+03  0.34061649893E+03  0.10100000352E+00 0.  1.
        3   -1    0    0  501    0  0.00000000000E+00  0.00000000000E+00 -0.59108317771E+03  0.59108318634E+03  0.10100000352E+00 0. -1.
    10030    2    1    2    0    0  0.00000000000E+00  0.00000000000E+00 -0.25046669376E+03  0.93169968526E+03  0.89740221687E+03 0.  0.
        3    1    3    3  502    0 -0.14390461718E+03 -0.26915273408E+03  0.21624580093E+03  0.37405078496E+03  0.10100000352E+00 0.  1.
       -3    1    3    3    0  502  0.14390461718E+03  0.26915273408E+03 -0.46671249469E+03  0.55764890030E+03  0.10100000352E+00 0. -1.
</event>
<event>
 5   0  0.2295158E-03  0.8936385E+03  0.7818609E-02  0.9433569E-01
       -1   -1    0    0    0  501  0.00000000000E+00  0.00000000000E+00  0.24723316302E+03  0.24723316308E+03  0.50400001928E-02 0.  1.
        1   -1    0    0  501    0  0.00000000000E+00  0.00000000000E+00 -0.80752698005E+03  0.80752698006E+03  0.50400001928E-02 0. -1.
    10030    2    1    2    0    0  0.00000000000E+00  0.00000000000E+00 -0.56029381702E+03  0.10547601431E+04  0.89363851649E+03 0.  0.
        4    1    3    3  502    0  0.37273074075E+03 -0.14896181722E+03 -0.51182241032E+03  0.65044724666E+03  0.12699999809E+01 0. -1.
       -4    1    3    3    0  502 -0.37273074075E+03  0.14896181722E+03 -0.48471406706E+02  0.40431289648E+03  0.12699999809E+01 0.  1.
</event>
<event>
 5   0  0.3626546E-03  0.9016492E+03  0.7818609E-02  0.9423522E-01
       -2   -1    0    0    0  501  0.00000000000E+00  0.00000000000E+00  0.12410275204E+03  0.12410275207E+03  0.25500000920E-02 0. -1.
        2   -1    0    0  501    0  0.00000000000E+00  0.00000000000E+00 -0.16376979424E+04  0.16376979424E+04  0.25500000920E-02 0.  1.
    10030    2    1    2    0    0  0.00000000000E+00  0.00000000000E+00 -0.15135951903E+04  0.17618006944E+04  0.90164920381E+03 0.  0.
        3    1    3    3  502    0 -0.34189985441E+03 -0.28980271622E+03 -0.66183986700E+03  0.79932042669E+03  0.10100000352E+00 0. -1.
       -3    1    3    3    0  502  0.34189985441E+03  0.28980271622E+03 -0.85175532332E+03  0.96248026773E+03  0.10100000352E+00 0.  1.
</event>
<event>
 5   0  0.3815269E-03  0.9014083E+03  0.7818609E-02  0.9423823E-01
       -2   -1    0    0    0  501  0.00000000000E+00  0.00000000000E+00  0.47571638917E+03  0.47571638918E+03  0.25500000920E-02 0. -1.
        2   -1    0    0  501    0  0.00000000000E+00  0.00000000000E+00 -0.42700703150E+03  0.42700703150E+03  0.25500000920E-02 0.  1.
    10030    2    1    2    0    0  0.00000000000E+00  0.00000000000E+00  0.48709357676E+02  0.90272342068E+03  0.90140832741E+03 0.  0.
        5    1    3    3  502    0  0.38133330960E+02  0.27404699546E+03 -0.33191178011E+03  0.43213820292E+03  0.46999998093E+01 0.  1.
       -5    1    3    3    0  502 -0.38133330960E+02 -0.27404699546E+03  0.38062113778E+03  0.47058521776E+03  0.46999998093E+01 0. -1.
</event>
<event>
 5   0  0.3815269E-03  0.8977136E+03  0.7818609E-02  0.9428444E-01
        2   -1    0    0  501    0  0.00000000000E+00  0.00000000000E+00  0.18538695271E+03  0.18538695272E+03  0.25500000920E-02 0. -1.
       -2   -1    0    0    0  501  0.00000000000E+00  0.00000000000E+00 -0.10867669052E+04  0.10867669052E+04  0.25500000920E-02 0.  1.
    10030    2    1    2    0    0  0.00000000000E+00  0.00000000000E+00 -0.90137995246E+03  0.12721538579E+04  0.89771355089E+03 0.  0.
        5    1    3    3  502    0  0.12393072044E+03  0.29664297111E+02  0.15917803930E+03  0.20395718224E+03  0.46999998093E+01 0. -1.
       -5    1    3    3    0  502 -0.12393072044E+03 -0.29664297111E+02 -0.10605579918E+04  0.10681966757E+04  0.46999998093E+01 0.  1.
</event>
<event>
 5   0  0.2134145E-03  0.8989269E+03  0.7818609E-02  0.9426924E-01
       -1   -1    0    0    0  501  0.00000000000E+00  0.00000000000E+00  0.21781029889E+03  0.21781029895E+03  0.50400001928E-02 0. -1.
        1   -1    0    0  501    0  0.00000000000E+00  0.00000000000E+00 -0.92749232120E+03  0.92749232122E+03  0.50400001928E-02 0.  1.
    10030    2    1    2    0    0  0.00000000000E+00  0.00000000000E+00 -0.70968202231E+03  0.11453026202E+04  0.89892687075E+03 0.  0.
        1    1    3    3  502    0  0.36117482942E+03  0.26248321446E+03 -0.28897373048E+03  0.53183692258E+03  0.50400001928E-02 0. -1.
       -1    1    3    3    0  502 -0.36117482942E+03 -0.26248321446E+03 -0.42070829183E+03  0.61346569759E+03  0.50400001928E-02 0.  1.
</event>
<event>
 5   0  0.3685879E-03  0.9083817E+03  0.7818609E-02  0.9415164E-01
       -2   -1    0    0    0  501  0.00000000000E+00  0.00000000000E+00  0.29054475277E+03  0.29054475278E+03  0.25500000920E-02 0. -1.
        2   -1    0    0  501    0  0.00000000000E+00  0.00000000000E+00 -0.71000882773E+03  0.71000882774E+03  0.25500000920E-02 0.  1.
    10030    2    1    2    0    0  0.00000000000E+00  0.00000000000E+00 -0.41946407496E+03  0.10005535805E+04  0.90838172445E+03 0.  0.
        1    1    3    3  502    0 -0.34375291472E+03 -0.27690251043E+03 -0.91878684184E+02  0.45086889369E+03  0.50400001928E-02 0. -1.
       -1    1    3    3    0  502  0.34375291472E+03  0.27690251043E+03 -0.32758539077E+03  0.54968468683E+03  0.50400001928E-02 0.  1.
</event>
<event>
 5   0  0.3685879E-03  0.8968430E+03  0.7818609E-02  0.9429537E-01
       -2   -1    0    0    0  501  0.00000000000E+00  0.00000000000E+00  0.40792440871E+03  0.40792440872E+03  0.25500000920E-02 0.  1.
        2   -1    0    0  501    0  0.00000000000E+00  0.00000000000E+00 -0.49293892601E+03  0.49293892602E+03  0.25500000920E-02 0. -1.
    10030    2    1    2    0    0  0.00000000000E+00  0.00000000000E+00 -0.85014517298E+02  0.90086333474E+03  0.89684295154E+03 0.  0.
        1    1    3    3  502    0 -0.42293414226E+03  0.10068699604E+03 -0.15286632598E+03  0.46084625799E+03  0.50400001928E-02 0. -1.
       -1    1    3    3    0  502  0.42293414226E+03 -0.10068699604E+03  0.67851808682E+02  0.44001707674E+03  0.50400001928E-02 0.  1.
</event>
<event>
 5   0  0.2129280E-03  0.9279466E+03  0.7818609E-02  0.9391306E-01
       -1   -1    0    0    0  501  0.00000000000E+00  0.00000000000E+00  0.96992382132E+03  0.96992382133E+03  0.50400001928E-02 0.  1.
        1   -1    0    0  501    0  0.00000000000E+00  0.00000000000E+00 -0.22194652710E+03  0.22194652715E+03  0.50400001928E-02 0. -1.
    10030    2    1    2    0    0  0.00000000000E+00  0.00000000000E+00  0.74797729423E+03  0.11918703485E+04  0.92794660133E+03 0.  0.
        3    1    3    3  502    0  0.19661278923E+03 -0.37842193281E+03  0.60876469737E+03  0.74327263846E+03  0.10100000352E+00 0.  1.
       -3    1    3    3    0  502 -0.19661278923E+03  0.37842193281E+03  0.13921259685E+03  0.44859771003E+03  0.10100000352E+00 0. -1.
</event>
<event>
 5   0  0.3663255E-03  0.8969545E+03  0.7818609E-02  0.9429396E-01
       -2   -1    0    0    0  501  0.00000000000E+00  0.00000000000E+00  0.22836471276E+03  0.22836471277E+03  0.25500000920E-02 0.  1.
        2   -1    0    0  501    0  0.00000000000E+00  0.00000000000E+00 -0.88074839847E+03  0.88074839848E+03  0.25500000920E-02 0. -1.
    10030    2    1    2    0    0  0.00000000000E+00  0.00000000000E+00 -0.65238368571E+03  0.11091131113E+04  0.89695452514E+03 0.  0.
        4    1    3    3  502    0  0.58999804369E+02 -0.43178717781E+03 -0.45710724771E+03  0.63156139262E+03  0.12699999809E+01 0. -1.
       -4    1    3    3    0  502 -0.58999804369E+02  0.43178717781E+03 -0.19527643800E+03  0.47755171863E+03  0.12699999809E+01 0.  1.
</event>
<event>
 5   0  0.2074970E-03  0.9010331E+03  0.7818609E-02  0.9424291E-01
       -1   -1    0    0    0  501  0.00000000000E+00  0.00000000000E+00  0.43104306705E+03  0.43104306708E+03  0.50400001928E-02 0.  1.
        1   -1    0    0  501    0  0.00000000000E+00  0.00000000000E+00 -0.47086983932E+03  0.47086983934E+03  0.50400001928E-02 0. -1.
    10030    2    1    2    0    0  0.00000000000E+00  0.00000000000E+00 -0.39826772269E+02  0.90191290642E+03  0.90103313978E+03 0.  0.
        2    1    3    3  502    0  0.41116524714E+03 -0.34391706534E+01  0.16437637650E+03  0.44281856500E+03  0.25500000920E-02 0.  1.
       -2    1    3    3    0  502 -0.41116524714E+03  0.34391706534E+01 -0.20420314877E+03  0.45909434142E+03  0.25500000920E-02 0. -1.
</event>
<event>
 5   0  0.3806019E-03  0.9016687E+03  0.7818609E-02  0.9423498E-01
       -2   -1    0    0    0  501  0.00000000000E+00  0.00000000000E+00  0.24946710868E+03  0.24946710870E+03  0.25500000920E-02 0. -1.
        2   -1    0    0  501    0  0.00000000000E+00  0.00000000000E+00 -0.81474310900E+03  0.81474310901E+03  0.25500000920E-02 0.  1.
    10030    2    1    2    0    0  0.00000000000E+00  0.00000000000E+00 -0.56527600032E+03  0.10642102177E+04  0.90166869244E+03 0.  0.
        2    1    3    3  502    0  0.14136034184E+03  0.87539056561E+02 -0.77723312472E+03  0.79481894973E+03  0.25500000920E-02 0.  1.
       -2    1    3    3    0  502 -0.14136034184E+03 -0.87539056561E+02  0.21195712440E+03  0.26939126798E+03  0.25500000920E-02 0. -1.
</event>
<event>
 5   0  0.2134145E-03  0.8923702E+03  0.7818609E-02  0.9435170E-01
        1   -1    0    0  501    0  0.00000000000E+00  0.00000000000E+00  0.47532894970E+03  0.47532894972E+03  0.50400001928E-02 0. -1.
       -1   -1    0    0    0  501  0.00000000000E+00  0.00000000000E+00 -0.41882811000E+03  0.41882811003E+03  0.50400001928E-02 0.  1.
    10030    2    1    2    0    0  0.00000000000E+00  0.00000000000E+00  0.56500839692E+02  0.89415705976E+03  0.89237016010E+03 0.  0.
        1    1    3    3  502    0 -0.91450970417E+02  0.24095292091E+03  0.39320431779E+03  0.47013958102E+03  0.50400001928E-02 0. -1.
       -1    1    3    3    0  502  0.91450970417E+02 -0.24095292091E+03 -0.33670347810E+03  0.42401747874E+03  0.50400001928E-02 0.  1.
</event>
<event>
 5   0  0.3806019E-03  0.8726448E+03  0.7818609E-02  0.9460438E-01
       -2   -1    0    0    0  501  0.00000000000E+00  0.00000000000E+00  0.18204867748E+03  0.18204867750E+03  0.25500000920E-02 0.  1.
        2   -1    0    0  501    0  0.00000000000E+00  0.00000000000E+00 -0.10457489703E+04  0.10457489703E+04  0.25500000920E-02 0. -1.
    10030    2    1    2    0    0  0.00000000000E+00  0.00000000000E+00 -0.86370029282E+03  0.12277976478E+04  0.87264475483E+03 0.  0.
        2    1    3    3  502    0 -0.53148687710E+02 -0.34721074810E+03 -0.67669036431E+02  0.35771383129E+03  0.25500000920E-02 0.  1.
       -2    1    3    3    0  502  0.53148687710E+02  0.34721074810E+03 -0.79603125639E+03  0.87008381651E+03  0.25500000920E-02 0. -1.
</event>
<event>
 5   0  0.3815269E-03  0.8983037E+03  0.7818609E-02  0.9427704E-01
        2   -1    0    0  501    0  0.00000000000E+00  0.00000000000E+00  0.38962661069E+03  0.38962661070E+03  0.25500000920E-02 0. -1.
       -2   -1    0    0    0  501  0.00000000000E+00  0.00000000000E+00 -0.51777103859E+03  0.51777103859E+03  0.25500000920E-02 0.  1.
    10030    2    1    2    0    0  0.00000000000E+00  0.00000000000E+00 -0.12814442790E+03  0.90739764929E+03  0.89830367891E+03 0.  0.
        5    1    3    3  502    0 -0.35760510116E+03  0.16816912117E+03  0.15152000080E+03  0.42325248060E+03  0.46999998093E+01 0. -1.
       -5    1    3    3    0  502  0.35760510116E+03 -0.16816912117E+03 -0.27966442870E+03  0.48414516869E+03  0.46999998093E+01 0.  1.
</event>
<event>
 5   0  0.3815269E-03  0.8999741E+03  0.7818609E-02  0.9425614E-01
        2   -1    0    0  501    0  0.00000000000E+00  0.00000000000E+00  0.56198385912E+03  0.56198385913E+03  0.25500000920E-02 0.  1.
       -2   -1    0    0    0  501  0.00000000000E+00  0.00000000000E+00 -0.36030986540E+03  0.36030986541E+03  0.25500000920E-02 0. -1.
    10030    2    1    2    0    0  0.00000000000E+00  0.00000000000E+00  0.20167399373E+03  0.92229372453E+03  0.89997406328E+03 0.  0.
        5    1    3    3  502    0 -0.17817838556E+03 -0.36270450316E+03  0.30364429756E+03  0.50549386063E+03  0.46999998093E+01 0.  1.
       -5    1    3    3    0  502  0.17817838556E+03  0.36270450316E+03 -0.10197030383E+03  0.41679986391E+03  0.46999998093E+01 0. -1.
</event>
<event>
 5   0  0.1436000E-03  0.9013965E+03  0.7818609E-02  0.9423837E-01
        4   -1    0    0  501    0  0.00000000000E+00  0.00000000000E+00  0.27089945762E+03  0.27090243454E+03  0.12699999809E+01 0.  1.
       -4   -1    0    0    0  501  0.00000000000E+00  0.00000000000E+00 -0.74982381197E+03  0.74982488749E+03  0.12699999809E+01 0. -1.
    10030    2    1    2    0    0  0.00000000000E+00  0.00000000000E+00 -0.47892435435E+03  0.10207273220E+04  0.90139654356E+03 0.  0.
        4    1    3    3  502    0  0.90393025969E+01 -0.45053998307E+03 -0.24818476801E+03  0.51445629290E+03  0.12699999809E+01 0. -1.
       -4    1    3    3    0  502 -0.90393025969E+01  0.45053998307E+03 -0.23073958634E+03  0.50627102913E+03  0.12699999809E+01 0.  1.
</event>
<event>
 5   0  0.2134145E-03  0.8951609E+03  0.7818609E-02  0.9431651E-01
        1   -1    0    0  501    0  0.00000000000E+00  0.00000000000E+00  0.47064832742E+03  0.47064832744E+03  0.50400001928E-02 0. -1.
       -1   -1    0    0    0  501  0.00000000000E+00  0.00000000000E+00 -0.42564321763E+03  0.42564321766E+03  0.50400001928E-02 0.  1.
    10030    2    1    2    0    0  0.00000000000E+00  0.00000000000E+00  0.45005109784E+02  0.89629154510E+03  0.89516092068E+03 0.  0.
        1    1    3    3  502    0  0.77373170756E+01  0.43570757519E+03 -0.79740626610E+02  0.44301187875E+03  0.50400001928E-02 0.  1.
       -1    1    3    3    0  502 -0.77373170756E+01 -0.43570757519E+03  0.12474573639E+03  0.45327966635E+03  0.50400001928E-02 0. -1.
</event>
<event>
 5   0  0.2129280E-03  0.8998335E+03  0.7818609E-02  0.9425790E-01
        1   -1    0    0  501    0  0.00000000000E+00  0.00000000000E+00  0.51346578226E+03  0.51346578228E+03  0.50400001928E-02 0. -1.
       -1   -1    0    0    0  501  0.00000000000E+00  0.00000000000E+00 -0.39423284816E+03  0.39423284819E+03  0.50400001928E-02 0.  1.
    10030    2    1    2    0    0  0.00000000000E+00  0.00000000000E+00  0.11923293410E+03  0.90769863047E+03  0.89983349081E+03 0.  0.
        3    1    3    3  502    0 -0.19963110930E+03 -0.22280680164E+03 -0.27937085381E+03  0.40932082138E+03  0.10100000352E+00 0.  1.
       -3    1    3    3    0  502  0.19963110930E+03  0.22280680164E+03  0.39860378791E+03  0.49837780909E+03  0.10100000352E+00 0. -1.
</event>
<event>
 5   0  0.2129280E-03  0.8982752E+03  0.7818609E-02  0.9427740E-01
       -1   -1    0    0    0  501  0.00000000000E+00  0.00000000000E+00  0.32271295351E+03  0.32271295355E+03  0.50400001928E-02 0. -1.
        1   -1    0    0  501    0  0.00000000000E+00  0.00000000000E+00 -0.62508987615E+03  0.62508987617E+03  0.50400001928E-02 0.  1.
    10030    2    1    2    0    0  0.00000000000E+00  0.00000000000E+00 -0.30237692263E+03  0.94780282972E+03  0.89827523659E+03 0.  0.
        3    1    3    3  502    0 -0.42619606460E+03 -0.69009454795E+02 -0.20593442728E+02  0.43223777070E+03  0.10100000352E+00 0.  1.
       -3    1    3    3    0  502  0.42619606460E+03  0.69009454795E+02 -0.28178347991E+03  0.51556505902E+03  0.10100000352E+00 0. -1.
</event>
<event>
 5   0  0.3685879E-03  0.8962968E+03  0.7818609E-02  0.9430222E-01
       -2   -1    0    0    0  501  0.00000000000E+00  0.00000000000E+00  0.17245178695E+03  0.17245178697E+03  0.25500000920E-02 0.  1.
        2   -1    0    0  501    0  0.00000000000E+00  0.00000000000E+00 -0.11645979910E+04  0.11645979910E+04  0.25500000920E-02 0. -1.
    10030    2    1    2    0    0  0.00000000000E+00  0.00000000000E+00 -0.99214620408E+03  0.13370497780E+04  0.89629683621E+03 0.  0.
        1    1    3    3  502    0 -0.26896009702E+03 -0.68741568079E+02 -0.10208890645E+04  0.10579600272E+04  0.50400001928E-02 0. -1.
       -1    1    3    3    0  502  0.26896009702E+03  0.68741568079E+02  0.28742860454E+02  0.27908975084E+03  0.50400001928E-02 0.  1.
</event>
<event>
 5   0  0.2130975E-03  0.8991764E+03  0.7818609E-02  0.9426611E-01
       -1   -1    0    0    0  501  0.00000000000E+00  0.00000000000E+00  0.10024635617E+04  0.10024635617E+04  0.50400001928E-02 0. -1.
        1   -1    0    0  501    0  0.00000000000E+00  0.00000000000E+00 -0.20163283475E+03  0.20163283481E+03  0.50400001928E-02 0.  1.
    10030    2    1    2    0    0  0.00000000000E+00  0.00000000000E+00  0.80083072695E+03  0.12040963965E+04  0.89917644481E+03 0.  0.
        5    1    3    3  502    0  0.15047100166E+03 -0.42344640434E+03  0.38352451455E+03  0.59081428804E+03  0.46999998093E+01 0.  1.
       -5    1    3    3    0  502 -0.15047100166E+03  0.42344640434E+03  0.41730621240E+03  0.61328210849E+03  0.46999998093E+01 0. -1.
</event>
<event>
 5   0  0.3685879E-03  0.8989565E+03  0.7818609E-02  0.9426887E-01
       -2   -1    0    0    0  501  0.00000000000E+00  0.00000000000E+00  0.64234701866E+03  0.64234701867E+03  0.25500000920E-02 0.  1.
        2   -1    0    0  501    0  0.00000000000E+00  0.00000000000E+00 -0.31451954020E+03  0.31451954021E+03  0.25500000920E-02 0. -1.
    10030    2    1    2    0    0  0.00000000000E+00  0.00000000000E+00  0.32782747846E+03  0.95686655888E+03  0.89895648163E+03 0.  0.
        1    1    3    3  502    0  0.17732297989E+03  0.38375026322E+03  0.13570755081E+01  0.42274051781E+03  0.50400001928E-02 0.  1.
       -1    1    3    3    0  502 -0.17732297989E+03 -0.38375026322E+03  0.32647040295E+03  0.53412604107E+03  0.50400001928E-02 0. -1.
</event>
<event>
 5   0  0.3626546E-03  0.9040768E+03  0.7818609E-02  0.9420499E-01
       -2   -1    0    0    0  501  0.00000000000E+00  0.00000000000E+00  0.28400893705E+03  0.28400893706E+03  0.25500000920E-02 0.  1.
        2   -1    0    0  501    0  0.00000000000E+00  0.00000000000E+00 -0.71947995578E+03  0.71947995579E+03  0.25500000920E-02 0. -1.
    10030    2    1    2    0    0  0.00000000000E+00  0.00000000000E+00 -0.43547101874E+03  0.10034888928E+04  0.90407684956E+03 0.  0.
        3    1    3    3  502    0  0.23361998086E+03  0.36107660628E+03 -0.63199311195E+02  0.43468238313E+03  0.10100000352E+00 0.  1.
       -3    1    3    3    0  502 -0.23361998086E+03 -0.36107660628E+03 -0.37227170754E+03  0.56880650972E+03  0.10100000352E+00 0. -1.
</event>
<event>
 5   0  0.3806019E-03  0.8998804E+03  0.7818609E-02  0.9425731E-01
       -2   -1    0    0    0  501  0.00000000000E+00  0.00000000000E+00  0.38917413077E+03  0.38917413078E+03  0.25500000920E-02 0. -1.
        2   -1    0    0  501    0  0.00000000000E+00  0.00000000000E+00 -0.52019430363E+03  0.52019430364E+03  0.25500000920E-02 0.  1.
    10030    2    1    2    0    0  0.00000000000E+00  0.00000000000E+00 -0.13102017286E+03  0.90936843442E+03  0.89988036084E+03 0.  0.
        2    1    3    3  502    0  0.33192111013E+02  0.74863842425E+02  0.38157968303E+03  0.39026832519E+03  0.25500000920E-02 0. -1.
       -2    1    3    3    0  502 -0.33192111013E+02 -0.74863842425E+02 -0.51259985589E+03  0.51910010923E+03  0.25500000920E-02 0.  1.
</event>
<event>
 5   0  0.2074970E-03  0.9018029E+03  0.7818609E-02  0.9423330E-01
        1   -1    0    0  501    0  0.00000000000E+00  0.00000000000E+00  0.84608651855E+03  0.84608651856E+03  0.50400001928E-02 0.  1.
       -1   -1    0    0    0  501  0.00000000000E+00  0.00000000000E+00 -0.24029708416E+03  0.24029708422E+03  0.50400001928E-02 0. -1.
    10030    2    1    2    0    0  0.00000000000E+00  0.00000000000E+00  0.60578943438E+03  0.10863836028E+04  0.90180291282E+03 0.  0.
        2    1    3    3  502    0 -0.16887541702E+03 -0.39652915661E+03  0.14326741565E+03  0.45418039468E+03  0.25500000920E-02 0. -1.
       -2    1    3    3    0  502  0.16887541702E+03  0.39652915661E+03  0.46252201874E+03  0.63220320810E+03  0.25500000920E-02 0.  1.
</event>
<event>
 5   0  0.3815269E-03  0.9052933E+03  0.7818609E-02  0.9418989E-01
       -2   -1    0    0    0  501  0.00000000000E+00  0.00000000000E+00  0.15876403376E+03  0.15876403378E+03  0.25500000920E-02 0. -1.
        2   -1    0    0  501    0  0.00000000000E+00  0.00000000000E+00 -0.12905253604E+04  0.12905253604E+04  0.25500000920E-02 0.  1.
    10030    2    1    2    0    0  0.00000000000E+00  0.00000000000E+00 -0.11317613267E+04  0.14492893942E+04  0.90529334895E+03 0.  0.
        5    1    3    3  502    0 -0.32189246629E+03 -0.18349445358E+02 -0.57317808565E+02  0.32750402009E+03  0.46999998093E+01 0. -1.
       -5    1    3    3    0  502  0.32189246629E+03  0.18349445358E+02 -0.10744435181E+04  0.11217853741E+04  0.46999998093E+01 0.  1.
</event>
<event>
 5   0  0.1436000E-03  0.9050655E+03  0.7818609E-02  0.9419271E-01
       -3   -1    0    0    0  501  0.00000000000E+00  0.00000000000E+00  0.88554943689E+03  0.88554944265E+03  0.10100000352E+00 0.  1.
        3   -1    0    0  501    0  0.00000000000E+00  0.00000000000E+00 -0.23125292009E+03  0.23125294215E+03  0.10100000352E+00 0. -1.
    10030    2    1    2    0    0  0.00000000000E+00  0.00000000000E+00  0.65429651680E+03  0.11168023848E+04  0.90506554171E+03 0.  0.
        2    1    3    3  502    0 -0.37049975779E+03  0.76148912860E+02  0.63369686298E+03  0.73799758916E+03  0.25500000920E-02 0.  1.
       -2    1    3    3    0  502  0.37049975779E+03 -0.76148912860E+02  0.20599653824E+02  0.37880479564E+03  0.25500000920E-02 0. -1.
</event>
<event>
 5   0  0.3815269E-03  0.8974487E+03  0.7818609E-02  0.9428776E-01
        2   -1    0    0  501    0  0.00000000000E+00  0.00000000000E+00  0.12915811153E+04  0.12915811153E+04  0.25500000920E-02 0. -1.
       -2   -1    0    0    0  501  0.00000000000E+00  0.00000000000E+00 -0.15589694494E+03  0.15589694496E+03  0.25500000920E-02 0.  1.
    10030    2    1    2    0    0  0.00000000000E+00  0.00000000000E+00  0.11356841704E+04  0.14474780603E+04  0.89744871729E+03 0.  0.
        5    1    3    3  502    0  0.31172985715E+03  0.28417753473E+03  0.32112354556E+03  0.53016487680E+03  0.46999998093E+01 0. -1.
       -5    1    3    3    0  502 -0.31172985715E+03 -0.28417753473E+03  0.81456062485E+03  0.91731318350E+03  0.46999998093E+01 0.  1.
</event>
<event>
 5   0  0.3685879E-03  0.9060426E+03  0.7818609E-02  0.9418059E-01
        2   -1    0    0  501    0  0.00000000000E+00  0.00000000000E+00  0.10738873271E+04  0.10738873271E+04  0.25500000920E-02 0. -1.
       -2   -1    0    0    0  501  0.00000000000E+00  0.00000000000E+00 -0.19110785541E+03  0.19110785542E+03  0.25500000920E-02 0.  1.
    10030    2    1    2    0    0  0.00000000000E+00  0.00000000000E+00  0.88277947169E+03  0.12649951825E+04  0.90604261278E+03 0.  0.
        1    1    3    3  502    0 -0.12167026878E+03  0.35046502597E+03  0.80439264987E+03  0.88581991620E+03  0.50400001928E-02 0. -1.
       -1    1    3    3    0  502  0.12167026878E+03 -0.35046502597E+03  0.78386821819E+02  0.37917526633E+03  0.50400001928E-02 0.  1.
</event>
<event>
 5   0  0.3663255E-03  0.8995950E+03  0.7818609E-02  0.9426088E-01
       -2   -1    0    0    0  501  0.00000000000E+00  0.00000000000E+00  0.18776580478E+03  0.18776580480E+03  0.25500000920E-02 0. -1.
        2   -1    0    0  501    0  0.00000000000E+00  0.00000000000E+00 -0.10775007338E+04  0.10775007338E+04  0.25500000920E-02 0.  1.
    10030    2    1    2    0    0  0.00000000000E+00  0.00000000000E+00 -0.88973492900E+03  0.12652665386E+04  0.89959500319E+03 0.  0.
        4    1    3    3  502    0  0.25485473498E+03 -0.22293607030E+03 -0.86130272298E+03  0.92547037818E+03  0.12699999809E+01 0.  1.
       -4    1    3    3    0  502 -0.25485473498E+03  0.22293607030E+03 -0.28432206022E+02  0.33979616040E+03  0.12699999809E+01 0. -1.
</event>
<event>
 5   0  0.2074970E-03  0.8983207E+03  0.7818609E-02  0.9427683E-01
       -1   -1    0    0    0  501  0.00000000000E+00  0.00000000000E+00  0.28870856352E+03  0.28870856356E+03  0.50400001928E-02 0. -1.
        1   -1    0    0  501    0  0.00000000000E+00  0.00000000000E+00 -0.69878435809E+03  0.69878435811E+03  0.50400001928E-02 0.  1.
    10030    2    1    2    0    0  0.00000000000E+00  0.00000000000E+00 -0.41007579457E+03  0.98749292167E+03  0.89832071837E+03 0.  0.
        2    1    3    3  502    0 -0.17103297215E+03 -0.39306377985E+03 -0.57582119198E+02  0.43251255826E+03  0.25500000920E-02 0. -1.
       -2    1    3    3    0  502  0.17103297215E+03  0.39306377985E+03 -0.35249367538E+03  0.55498036342E+03  0.25500000920E-02 0.  1.
</event>
<event>
 5   0  0.2074970E-03  0.8926265E+03  0.7818609E-02  0.9434846E-01
        1   -1    0    0  501    0  0.00000000000E+00  0.00000000000E+00  0.14897069961E+04  0.14897069961E+04  0.50400001928E-02 0.  1.
       -1   -1    0    0    0  501  0.00000000000E+00  0.00000000000E+00 -0.13371457345E+03  0.13371457354E+03  0.50400001928E-02 0. -1.
    10030    2    1    2    0    0  0.00000000000E+00  0.00000000000E+00  0.13559924226E+04  0.16234215696E+04  0.89262654145E+03 0.  0.
        2    1    3    3  502    0 -0.17344630490E+00 -0.26532215423E+03  0.13307041188E+04  0.13568969480E+04  0.25500000920E-02 0.  1.
       -2    1    3    3    0  502  0.17344630490E+00  0.26532215423E+03  0.25288303779E+02  0.26652462161E+03  0.25500000920E-02 0. -1.
</event>
<event>
 5   0  0.3815269E-03  0.9003171E+03  0.7818609E-02  0.9425185E-01
       -2   -1    0    0    0  501  0.00000000000E+00  0.00000000000E+00  0.35765518428E+03  0.35765518429E+03  0.25500000920E-02 0. -1.
        2   -1    0    0  501    0  0.00000000000E+00  0.00000000000E+00 -0.56658686502E+03  0.56658686503E+03  0.25500000920E-02 0.  1.
    10030    2    1    2    0    0  0.00000000000E+00  0.00000000000E+00 -0.20893168075E+03  0.92424204932E+03  0.90031712108E+03 0.  0.
        5    1    3    3  502    0 -0.85828913222E+02 -0.38477476025E+03 -0.32750049704E+03  0.51253964142E+03  0.46999998093E+01 0.  1.
       -5    1    3    3    0  502  0.85828913222E+02  0.38477476025E+03  0.11856881630E+03  0.41170240789E+03  0.46999998093E+01 0. -1.
</event>
<event>
 5   0  0.3626546E-03  0.9009141E+03  0.7818609E-02  0.9424440E-01
        2   -1    0    0  501    0  0.00000000000E+00  0.00000000000E+00  0.23261535062E+04  0.23261535062E+04  0.25500000920E-02 0.  1.
       -2   -1    0    0    0  501  0.00000000000E+00  0.00000000000E+00 -0.87230501686E+02  0.87230501723E+02  0.25500000920E-02 0. -1.
    10030    2    1    2    0    0  0.00000000000E+00  0.00000000000E+00  0.22389230045E+04  0.24133840079E+04  0.90091406336E+03 0.  0.
        3    1    3    3  502    0 -0.39306546137E+02 -0.12172452868E+03  0.22764799865E+04  0.22800708332E+04  0.10100000352E+00 0.  1.
       -3    1    3    3    0  502  0.39306546137E+02  0.12172452868E+03 -0.37556981978E+02  0.13331317469E+03  0.10100000352E+00 0. -1.
</event>
<event>
 5   0  0.2074970E-03  0.8964850E+03  0.7818609E-02  0.9429986E-01
        1   -1    0    0  501    0  0.00000000000E+00  0.00000000000E+00  0.54079061252E+03  0.54079061254E+03  0.50400001928E-02 0. -1.
       -1   -1    0    0    0  501  0.00000000000E+00  0.00000000000E+00 -0.37153262283E+03  0.37153262287E+03  0.50400001928E-02 0.  1.
    10030    2    1    2    0    0  0.00000000000E+00  0.00000000000E+00  0.16925798968E+03  0.91232323541E+03  0.89648503546E+03 0.  0.
        2    1    3    3  502    0  0.74938933965E+02  0.20166263557E+02 -0.36464399556E+03  0.37281062956E+03  0.25500000920E-02 0.  1.
       -2    1    3    3    0  502 -0.74938933965E+02 -0.20166263557E+02  0.53390198525E+03  0.53951260584E+03  0.25500000920E-02 0. -1.
</event>
<event>
 5   0  0.3663255E-03  0.9000208E+03  0.7818609E-02  0.9425555E-01
       -2   -1    0    0    0  501  0.00000000000E+00  0.00000000000E+00  0.12936553133E+03  0.12936553136E+03  0.25500000920E-02 0. -1.
        2   -1    0    0  501    0  0.00000000000E+00  0.00000000000E+00 -0.15654044530E+04  0.15654044530E+04  0.25500000920E-02 0.  1.
    10030    2    1    2    0    0  0.00000000000E+00  0.00000000000E+00 -0.14360389217E+04  0.16947699844E+04  0.90002084162E+03 0.  0.
        4    1    3    3  502    0  0.20853066693E+03 -0.37611622747E+03 -0.46849569034E+03  0.63595462132E+03  0.12699999809E+01 0. -1.
       -4    1    3    3    0  502 -0.20853066693E+03  0.37611622747E+03 -0.96754323136E+03  0.10588153631E+04  0.12699999809E+01 0.  1.
</event>
<event>
 5   0  0.2074970E-03  0.9004234E+03  0.7818609E-02  0.9425052E-01
        1   -1    0    0  501    0  0.00000000000E+00  0.00000000000E+00  0.56401429246E+03  0.56401429249E+03  0.50400001928E-02 0.  1.
       -1   -1    0    0    0  501  0.00000000000E+00  0.00000000000E+00 -0.35937138203E+03  0.35937138207E+03  0.50400001928E-02 0. -1.
    10030    2    1    2    0    0  0.00000000000E+00  0.00000000000E+00  0.20464291043E+03  0.92338567455E+03  0.90042344660E+03 0.  0.
        2    1    3    3  502    0  0.21100859314E+03  0.15570104021E+03 -0.27296610945E+03  0.37852072231E+03  0.25500000920E-02 0. -1.
       -2    1    3    3    0  502 -0.21100859314E+03 -0.15570104021E+03  0.47760901988E+03  0.54486495224E+03  0.25500000920E-02 0.  1.
</event>
<event>
 5   0  0.2129280E-03  0.9025432E+03  0.7818609E-02  0.9422408E-01
       -1   -1    0    0    0  501  0.00000000000E+00  0.00000000000E+00  0.57237043112E+03  0.57237043114E+03  0.50400001928E-02 0. -1.
        1   -1    0    0  501    0  0.00000000000E+00  0.00000000000E+00 -0.35579418037E+03  0.35579418041E+03  0.50400001928E-02 0.  1.
    10030    2    1    2    0    0  0.00000000000E+00  0.00000000000E+00  0.21657625075E+03  0.92816461155E+03  0.90254322542E+03 0.  0.
        3    1    3    3  502    0 -0.30177995212E+03 -0.33384945130E+03  0.73879938344E+02  0.45605356168E+03  0.10100000352E+00 0.  1.
       -3    1    3    3    0  502  0.30177995212E+03  0.33384945130E+03  0.14269631241E+03  0.47211104987E+03  0.10100000352E+00 0. -1.
</event>
<event>
 5   0  0.3626546E-03  0.8408481E+03  0.7818609E-02  0.9502703E-01
       -2   -1    0    0    0  501  0.00000000000E+00  0.00000000000E+00  0.18472153439E+03  0.18472153441E+03  0.25500000920E-02 0. -1.
        2   -1    0    0  501    0  0.00000000000E+00  0.00000000000E+00 -0.95688020998E+03  0.95688020999E+03  0.25500000920E-02 0.  1.
    10030    2    1    2    0    0  0.00000000000E+00  0.00000000000E+00 -0.77215867559E+03  0.11416017444E+04  0.84084809717E+03 0.  0.
        3    1    3    3  502    0 -0.13266833976E+03 -0.24750293862E+03  0.38719670373E+02  0.28347454220E+03  0.10100000352E+00 0. -1.
       -3    1    3    3    0  502  0.13266833976E+03  0.24750293862E+03 -0.81087834596E+03  0.85812720220E+03  0.10100000352E+00 0.  1.
</event>
<event>
 5   0  0.2074970E-03  0.8985845E+03  0.7818609E-02  0.9427353E-01
        1   -1    0    0  501    0  0.00000000000E+00  0.00000000000E+00  0.11682836018E+04  0.11682836019E+04  0.50400001928E-02 0.  1.
       -1   -1    0    0    0  501  0.00000000000E+00  0.00000000000E+00 -0.17278639933E+03  0.17278639940E+03  0.50400001928E-02 0. -1.
    10030    2    1    2    0    0  0.00000000000E+00  0.00000000000E+00  0.99549720252E+03  0.13410700013E+04  0.89858448020E+03 0.  0.
        2    1    3    3  502    0  0.35104705186E+02 -0.40217253014E+03  0.20344013574E+03  0.45206523109E+03  0.25500000920E-02 0. -1.
       -2    1    3    3    0  502 -0.35104705186E+02  0.40217253014E+03  0.79205706678E+03  0.88900477016E+03  0.25500000920E-02 0.  1.
</event>
<event>
 5   0  0.3685879E-03  0.8928460E+03  0.7818609E-02  0.9434569E-01
       -2   -1    0    0    0  501  0.00000000000E+00  0.00000000000E+00  0.11469419098E+04  0.11469419098E+04  0.25500000920E-02 0.  1.
        2   -1    0    0  501    0  0.00000000000E+00  0.00000000000E+00 -0.17376076890E+03  0.17376076892E+03  0.25500000920E-02 0. -1.
    10030    2    1    2    0    0  0.00000000000E+00  0.00000000000E+00  0.97318114087E+03  0.13207026787E+04  0.89284602960E+03 0.  0.
        1    1    3    3  502    0  0.39653943925E+03 -0.18180048460E+03  0.34627201121E+03  0.55695533830E+03  0.50400001928E-02 0.  1.
       -1    1    3    3    0  502 -0.39653943925E+03  0.18180048460E+03  0.62690912967E+03  0.76374734040E+03  0.50400001928E-02 0. -1.
</event>
<event>
 5   0  0.3626546E-03  0.9010768E+03  0.7818609E-02  0.9424236E-01
       -2   -1    0    0    0  501  0.00000000000E+00  0.00000000000E+00  0.45421002136E+03  0.45421002137E+03  0.25500000920E-02 0. -1.
        2   -1    0    0  501    0  0.00000000000E+00  0.00000000000E+00 -0.44689647921E+03  0.44689647922E+03  0.25500000920E-02 0.  1.
    10030    2    1    2    0    0  0.00000000000E+00  0.00000000000E+00  0.73135421497E+01  0.90110650058E+03  0.90107682108E+03 0.  0.
        3    1    3    3  502    0 -0.19170147280E+03  0.34354610463E+03  0.22323510450E+03  0.45233538747E+03  0.10100000352E+00 0. -1.
       -3    1    3    3    0  502  0.19170147280E+03 -0.34354610463E+03 -0.21592156235E+03  0.44877111311E+03  0.10100000352E+00 0.  1.
</event>
<event>
 5   0  0.2134145E-03  0.8977272E+03  0.7818609E-02  0.9428427E-01
        1   -1    0    0  501    0  0.00000000000E+00  0.00000000000E+00  0.95586425275E+03  0.95586425276E+03  0.50400001928E-02 0. -1.
       -1   -1    0    0    0  501  0.00000000000E+00  0.00000000000E+00 -0.21078151497E+03  0.21078151503E+03  0.50400001928E-02 0.  1.
    10030    2    1    2    0    0  0.00000000000E+00  0.00000000000E+00  0.74508273777E+03  0.11666457678E+04  0.89772716422E+03 0.  0.
        1    1    3    3  502    0 -0.22706239606E+03  0.31663578049E+03  0.82933091499E+02  0.39836346077E+03  0.50400001928E-02 0.  1.
       -1    1    3    3    0  502  0.22706239606E+03 -0.31663578049E+03  0.66214964628E+03  0.76828230702E+03  0.50400001928E-02 0. -1.
</event>
<event>
 5   0  0.2134145E-03  0.9173087E+03  0.7818609E-02  0.9404200E-01
        1   -1    0    0  501    0  0.00000000000E+00  0.00000000000E+00  0.76230260631E+03  0.76230260633E+03  0.50400001928E-02 0.  1.
       -1   -1    0    0    0  501  0.00000000000E+00  0.00000000000E+00 -0.27595840206E+03  0.27595840211E+03  0.50400001928E-02 0. -1.
    10030    2    1    2    0    0  0.00000000000E+00  0.00000000000E+00  0.48634420425E+03  0.10382610084E+04  0.91730869212E+03 0.  0.
        1    1    3    3  502    0 -0.20850254822E+03  0.37240098685E+03  0.53074256558E+02  0.43008450839E+03  0.50400001928E-02 0.  1.
       -1    1    3    3    0  502  0.20850254822E+03 -0.37240098685E+03  0.43326994769E+03  0.60817650005E+03  0.50400001928E-02 0. -1.
</event>
<event>
 5   0  0.3685879E-03  0.9097848E+03  0.7818609E-02  0.9413432E-01
       -2   -1    0    0    0  501  0.00000000000E+00  0.00000000000E+00  0.25416042401E+03  0.25416042402E+03  0.25500000920E-02 0.  1.
        2   -1    0    0  501    0  0.00000000000E+00  0.00000000000E+00 -0.81415932293E+03  0.81415932293E+03  0.25500000920E-02 0. -1.
    10030    2    1    2    0    0  0.00000000000E+00  0.00000000000E+00 -0.55999889892E+03  0.10683197470E+04  0.90978476298E+03 0.  0.
        1    1    3    3  502    0  0.36408708488E+03  0.27216105198E+03 -0.30020330324E+03  0.54475046296E+03  0.50400001928E-02 0.  1.
       -1    1    3    3    0  502 -0.36408708488E+03 -0.27216105198E+03 -0.25979559567E+03  0.52356928400E+03  0.50400001928E-02 0. -1.
</event>
<event>
 5   0  0.2074970E-03  0.9247257E+03  0.7818609E-02  0.9395190E-01
       -1   -1    0    0    0  501  0.00000000000E+00  0.00000000000E+00  0.15972180887E+03  0.15972180895E+03  0.50400001928E-02 0. -1.
        1   -1    0    0  501    0  0.00000000000E+00  0.00000000000E+00 -0.13384484028E+04  0.13384484028E+04  0.50400001928E-02 0.  1.
    10030    2    1    2    0    0  0.00000000000E+00  0.00000000000E+00 -0.11787265939E+04  0.14981702117E+04  0.92472568913E+03 0.  0.
        2    1    3    3  502    0 -0.62183549305E+02  0.27993270282E+03 -0.11769800064E+04  0.12114087037E+04  0.25500000920E-02 0.  1.
       -2    1    3    3    0  502  0.62183549305E+02 -0.27993270282E+03 -0.17465874922E+01  0.28676150803E+03  0.25500000920E-02 0. -1.
</event>
<event>
 5   0  0.2134145E-03  0.9032020E+03  0.7818609E-02  0.9421588E-01
       -1   -1    0    0    0  501  0.00000000000E+00  0.00000000000E+00  0.43027402195E+03  0.43027402198E+03  0.50400001928E-02 0. -1.
        1   -1    0    0  501    0  0.00000000000E+00  0.00000000000E+00 -0.47398504875E+03  0.47398504878E+03  0.50400001928E-02 0.  1.
    10030    2    1    2    0    0  0.00000000000E+00  0.00000000000E+00 -0.43711026801E+02  0.90425907076E+03  0.90320197807E+03 0.  0.
        1    1    3    3  502    0  0.57644187761E+02 -0.16750504355E+02 -0.46997295920E+03  0.47379110817E+03  0.50400001928E-02 0.  1.
       -1    1    3    3    0  502 -0.57644187761E+02  0.16750504355E+02  0.42626193240E+03  0.43046796259E+03  0.50400001928E-02 0. -1.
</event>
<event>
 5   0  0.3626546E-03  0.8995903E+03  0.7818609E-02  0.9426094E-01
        2   -1    0    0  501    0  0.00000000000E+00  0.00000000000E+00  0.42504830959E+03  0.42504830960E+03  0.25500000920E-02 0.  1.
       -2   -1    0    0    0  501  0.00000000000E+00  0.00000000000E+00 -0.47598280413E+03  0.47598280413E+03  0.25500000920E-02 0. -1.
    10030    2    1    2    0    0  0.00000000000E+00  0.00000000000E+00 -0.50934494533E+02  0.90103111374E+03  0.89959032075E+03 0.  0.
        3    1    3    3  502    0 -0.38941937955E+02 -0.40560474956E+03 -0.21625589311E+03  0.46130067082E+03  0.10100000352E+00 0. -1.
       -3    1    3    3    0  502  0.38941937955E+02  0.40560474956E+03  0.16532139858E+03  0.43973044291E+03  0.10100000352E+00 0.  1.
</event>
<event>
 5   0  0.2295158E-03  0.9029917E+03  0.7818609E-02  0.9421849E-01
        1   -1    0    0  501    0  0.00000000000E+00  0.00000000000E+00  0.22740769526E+03  0.22740769532E+03  0.50400001928E-02 0.  1.
       -1   -1    0    0    0  501  0.00000000000E+00  0.00000000000E+00 -0.89640116078E+03  0.89640116079E+03  0.50400001928E-02 0. -1.
    10030    2    1    2    0    0  0.00000000000E+00  0.00000000000E+00 -0.66899346552E+03  0.11238088561E+04  0.90299174314E+03 0.  0.
        4    1    3    3  502    0  0.41549165707E+03 -0.14855591088E+03 -0.21548378965E+03  0.49105707638E+03  0.12699999809E+01 0.  1.
       -4    1    3    3    0  502 -0.41549165707E+03  0.14855591088E+03 -0.45350967586E+03  0.63275177973E+03  0.12699999809E+01 0. -1.
</event>
<event>
 5   0  0.2295158E-03  0.9005652E+03  0.7818609E-02  0.9424875E-01
       -1   -1    0    0    0  501  0.00000000000E+00  0.00000000000E+00  0.52896611472E+03  0.52896611474E+03  0.50400001928E-02 0. -1.
        1   -1    0    0  501    0  0.00000000000E+00  0.00000000000E+00 -0.38330322158E+03  0.38330322161E+03  0.50400001928E-02 0.  1.
    10030    2    1    2    0    0  0.00000000000E+00  0.00000000000E+00  0.14566289314E+03  0.91226933636E+03  0.90056519121E+03 0.  0.
        4    1    3    3  502    0 -0.19396906584E+03  0.24652547703E+03 -0.25440559525E+03  0.40388442545E+03  0.12699999809E+01 0. -1.
       -4    1    3    3    0  502  0.19396906584E+03 -0.24652547703E+03  0.40006848839E+03  0.50838491090E+03  0.12699999809E+01 0.  1.
</event>
<event>
 5   0  0.2295158E-03  0.9001611E+03  0.7818609E-02  0.9425380E-01
       -1   -1    0    0    0  501  0.00000000000E+00  0.00000000000E+00  0.23073395514E+03  0.23073395520E+03  0.50400001928E-02 0. -1.
        1   -1    0    0  501    0  0.00000000000E+00  0.00000000000E+00 -0.87794843636E+03  0.87794843637E+03  0.50400001928E-02 0.  1.
    10030    2    1    2    0    0  0.00000000000E+00  0.00000000000E+00 -0.64721448121E+03  0.11086823916E+04  0.90016113040E+03 0.  0.
        4    1    3    3  502    0 -0.91414012560E+02  0.65289970547E+02  0.21318764889E+03  0.24097694596E+03  0.12699999809E+01 0. -1.
       -4    1    3    3    0  502  0.91414012560E+02 -0.65289970547E+02 -0.86040213010E+03  0.86770544561E+03  0.12699999809E+01 0.  1.
</event>
<event>
 5   0  0.3806019E-03  0.9033727E+03  0.7818609E-02  0.9421375E-01
        2   -1    0    0  501    0  0.00000000000E+00  0.00000000000E+00  0.18195837166E+04  0.18195837166E+04  0.25500000920E-02 0.  1.
       -2   -1    0    0    0  501  0.00000000000E+00  0.00000000000E+00 -0.11212485187E+03  0.11212485190E+03  0.25500000920E-02 0. -1.
    10030    2    1    2    0    0  0.00000000000E+00  0.00000000000E+00  0.17074588648E+04  0.19317085685E+04  0.90337269104E+03 0.  0.
        2    1    3    3  502    0  0.12505783209E+03 -0.12445188984E+02  0.17814446875E+04  0.17858722011E+04  0.25500000920E-02 0.  1.
       -2    1    3    3    0  502 -0.12505783209E+03  0.12445188984E+02 -0.73985822722E+02  0.14583636744E+03  0.25500000920E-02 0. -1.
</event>
<event>
 5   0  0.3663255E-03  0.8984072E+03  0.7818609E-02  0.9427575E-01
        2   -1    0    0  501    0  0.00000000000E+00  0.00000000000E+00  0.49044074323E+03  0.49044074323E+03  0.25500000920E-02 0.  1.
       -2   -1    0    0    0  501  0.00000000000E+00  0.00000000000E+00 -0.41143376234E+03  0.41143376235E+03  0.25500000920E-02 0. -1.
    10030    2    1    2    0    0  0.00000000000E+00  0.00000000000E+00  0.79006980886E+02  0.90187450558E+03  0.89840721323E+03 0.  0.
        4    1    3    3  502    0  0.39344808528E+03 -0.70789780241E+02 -0.16615218606E+03  0.43292118293E+03  0.12699999809E+01 0. -1.
       -4    1    3    3    0  502 -0.39344808528E+03  0.70789780241E+02  0.24515916694E+03  0.46895332266E+03  0.12699999809E+01 0.  1.
</event>
<event>
 5   0  0.3626546E-03  0.8945371E+03  0.7818609E-02  0.9432436E-01
       -2   -1    0    0    0  501  0.00000000000E+00  0.00000000000E+00  0.43487299857E+03  0.43487299858E+03  0.25500000920E-02 0. -1.
        2   -1    0    0  501    0  0.00000000000E+00  0.00000000000E+00 -0.46001746732E+03  0.46001746733E+03  0.25500000920E-02 0.  1.
    10030    2    1    2    0    0  0.00000000000E+00  0.00000000000E+00 -0.25144468751E+02  0.89489046591E+03  0.89453714382E+03 0.  0.
        3    1    3    3  502    0 -0.25663268890E+03  0.60567094412E+02  0.34884660982E+03  0.43729015233E+03  0.10100000352E+00 0. -1.
       -3    1    3    3    0  502  0.25663268890E+03 -0.60567094412E+02 -0.37399107858E+03  0.45760031358E+03  0.10100000352E+00 0.  1.
</event>
<event>
 5   0  0.2129280E-03  0.9283687E+03  0.7818609E-02  0.9390798E-01
       -1   -1    0    0    0  501  0.00000000000E+00  0.00000000000E+00  0.33711536805E+03  0.33711536809E+03  0.50400001928E-02 0.  1.
        1   -1    0    0  501    0  0.00000000000E+00  0.00000000000E+00 -0.63914943845E+03  0.63914943847E+03  0.50400001928E-02 0. -1.
    10030    2    1    2    0    0  0.00000000000E+00  0.00000000000E+00 -0.30203407040E+03  0.97626480656E+03  0.92836867292E+03 0.  0.
        3    1    3    3  502    0 -0.31870379889E+03 -0.28326040028E+03  0.41910705624E+02  0.42844495940E+03  0.10100000352E+00 0.  1.
       -3    1    3    3    0  502  0.31870379889E+03  0.28326040028E+03 -0.34394477603E+03  0.54781984716E+03  0.10100000352E+00 0. -1.
</event>
<event>
 5   0  0.3815269E-03  0.8985910E+03  0.7818609E-02  0.9427344E-01
        2   -1    0    0  501    0  0.00000000000E+00  0.00000000000E+00  0.63771507643E+03  0.63771507644E+03  0.25500000920E-02 0. -1.
       -2   -1    0    0    0  501  0.00000000000E+00  0.00000000000E+00 -0.31654648462E+03  0.31654648463E+03  0.25500000920E-02 0.  1.
    10030    2    1    2    0    0  0.00000000000E+00  0.00000000000E+00  0.32116859182E+03  0.95426156107E+03  0.89859104300E+03 0.  0.
        5    1    3    3  502    0  0.10297552405E+02  0.22612610561E+03 -0.25153742259E+03  0.33842609265E+03  0.46999998093E+01 0.  1.
       -5    1    3    3    0  502 -0.10297552405E+02 -0.22612610561E+03  0.57270601440E+03  0.61583546842E+03  0.46999998093E+01 0. -1.
</event>
<event>
 5   0  0.1436000E-03  0.9000927E+03  0.7818609E-02  0.9425466E-01
        3   -1    0    0  501    0  0.00000000000E+00  0.00000000000E+00  0.61311018527E+03  0.61311019359E+03  0.10100000352E+00 0.  1.
       -3   -1    0    0    0  501  0.00000000000E+00  0.00000000000E+00 -0.33035120414E+03  0.33035121958E+03  0.10100000352E+00 0. -1.
    10030    2    1    2    0    0  0.00000000000E+00  0.00000000000E+00  0.28275898113E+03  0.94346141317E+03  0.90009266008E+03 0.  0.
        3    1    3    3  502    0  0.92903430918E+02  0.37944449409E+03  0.37560201282E+03  0.54192808915E+03  0.10100000352E+00 0.  1.
       -3    1    3    3    0  502 -0.92903430918E+02 -0.37944449409E+03 -0.92843031689E+02  0.40153332402E+03  0.10100000352E+00 0. -1.
</event>
<event>
 5   0  0.3806019E-03  0.9003986E+03  0.7818609E-02  0.9425083E-01
        2   -1    0    0  501    0  0.00000000000E+00  0.00000000000E+00  0.11031271607E+04  0.11031271607E+04  0.25500000920E-02 0. -1.
       -2   -1    0    0    0  501  0.00000000000E+00  0.00000000000E+00 -0.18373167281E+03  0.18373167283E+03  0.25500000920E-02 0.  1.
    10030    2    1    2    0    0  0.00000000000E+00  0.00000000000E+00  0.91939548788E+03  0.12868588335E+04  0.90039857524E+03 0.  0.
        2    1    3    3  502    0  0.36083654974E+03  0.22748118354E+03  0.66546775453E+03  0.79044167199E+03  0.25500000920E-02 0. -1.
       -2    1    3    3    0  502 -0.36083654974E+03 -0.22748118354E+03  0.25392773335E+03  0.49641716153E+03  0.25500000920E-02 0.  1.
</event>
<event>
 5   0  0.2129280E-03  0.9035605E+03  0.7818609E-02  0.9421142E-01
       -1   -1    0    0    0  501  0.00000000000E+00  0.00000000000E+00  0.15337250923E+03  0.15337250931E+03  0.50400001928E-02 0.  1.
        1   -1    0    0  501    0  0.00000000000E+00  0.00000000000E+00 -0.13307821959E+04  0.13307821959E+04  0.50400001928E-02 0. -1.
    10030    2    1    2    0    0  0.00000000000E+00  0.00000000000E+00 -0.11774096867E+04  0.14841547052E+04  0.90356052303E+03 0.  0.
        3    1    3    3  502    0  0.22202572196E+03  0.37590725072E+03 -0.77957960635E+03  0.89350212937E+03  0.10100000352E+00 0. -1.
       -3    1    3    3    0  502 -0.22202572196E+03 -0.37590725072E+03 -0.39783008032E+03  0.59065257586E+03  0.10100000352E+00 0.  1.
</event>
<event>
 5   0  0.3815269E-03  0.8940233E+03  0.7818609E-02  0.9433084E-01
       -2   -1    0    0    0  501  0.00000000000E+00  0.00000000000E+00  0.87761189212E+02  0.87761189249E+02  0.25500000920E-02 0. -1.
        2   -1    0    0  501    0  0.00000000000E+00  0.00000000000E+00 -0.22768541847E+04  0.22768541847E+04  0.25500000920E-02 0.  1.
    10030    2    1    2    0    0  0.00000000000E+00  0.00000000000E+00 -0.21890929955E+04  0.23646153740E+04  0.89402333517E+03 0.  0.
        5    1    3    3  502    0  0.10732872547E+03  0.39121025885E+02 -0.22375273958E+04  0.22404465731E+04  0.46999998093E+01 0.  1.
       -5    1    3    3    0  502 -0.10732872547E+03 -0.39121025885E+02  0.48434400297E+02  0.12416880086E+03  0.46999998093E+01 0. -1.
</event>
<event>
 5   0  0.2130975E-03  0.9037236E+03  0.7818609E-02  0.9420939E-01
        1   -1    0    0  501    0  0.00000000000E+00  0.00000000000E+00  0.22359595351E+03  0.22359595357E+03  0.50400001928E-02 0.  1.
       -1   -1    0    0    0  501  0.00000000000E+00  0.00000000000E+00 -0.91316098089E+03  0.91316098091E+03  0.50400001928E-02 0. -1.
    10030    2    1    2    0    0  0.00000000000E+00  0.00000000000E+00 -0.68956502738E+03  0.11367569345E+04  0.90372363093E+03 0.  0.
        5    1    3    3  502    0  0.27964493804E+03 -0.16106660890E+03 -0.74257885035E+03  0.80968461938E+03  0.46999998093E+01 0. -1.
       -5    1    3    3    0  502 -0.27964493804E+03  0.16106660890E+03  0.53013822974E+02  0.32707231509E+03  0.46999998093E+01 0.  1.
</event>
<event>
 5   0  0.3815269E-03  0.9003693E+03  0.7818609E-02  0.9425120E-01
       -2   -1    0    0    0  501  0.00000000000E+00  0.00000000000E+00  0.21944626993E+03  0.21944626995E+03  0.25500000920E-02 0.  1.
        2   -1    0    0  501    0  0.00000000000E+00  0.00000000000E+00 -0.92353468319E+03  0.92353468320E+03  0.25500000920E-02 0. -1.
    10030    2    1    2    0    0  0.00000000000E+00  0.00000000000E+00 -0.70408841326E+03  0.11429809531E+04  0.90036934953E+03 0.  0.
        5    1    3    3  502    0  0.27861530539E+02  0.44710463363E+03 -0.40832191109E+03  0.60615814057E+03  0.46999998093E+01 0. -1.
       -5    1    3    3    0  502 -0.27861530539E+02 -0.44710463363E+03 -0.29576650217E+03  0.53682281258E+03  0.46999998093E+01 0.  1.
</event>
<event>
 5   0  0.3685879E-03  0.8967002E+03  0.7818609E-02  0.9429716E-01
       -2   -1    0    0    0  501  0.00000000000E+00  0.00000000000E+00  0.43199548171E+03  0.43199548172E+03  0.25500000920E-02 0. -1.
        2   -1    0    0  501    0  0.00000000000E+00  0.00000000000E+00 -0.46532382761E+03  0.46532382762E+03  0.25500000920E-02 0.  1.
    10030    2    1    2    0    0  0.00000000000E+00  0.00000000000E+00 -0.33328345899E+02  0.89731930933E+03  0.89670015293E+03 0.  0.
        1    1    3    3  502    0 -0.23483848913E+03  0.48548693139E+02  0.36242678279E+03  0.43457941102E+03  0.50400001928E-02 0. -1.
       -1    1    3    3    0  502  0.23483848913E+03 -0.48548693139E+02 -0.39575512868E+03  0.46273989831E+03  0.50400001928E-02 0.  1.
</event>
<event>
 5   0  0.3663255E-03  0.9126974E+03  0.7818609E-02  0.9409847E-01
       -2   -1    0    0    0  501  0.00000000000E+00  0.00000000000E+00  0.15321448967E+03  0.15321448969E+03  0.25500000920E-02 0. -1.
        2   -1    0    0  501    0  0.00000000000E+00  0.00000000000E+00 -0.13592326293E+04  0.13592326293E+04  0.25500000920E-02 0.  1.
    10030    2    1    2    0    0  0.00000000000E+00  0.00000000000E+00 -0.12060181396E+04  0.15124471190E+04  0.91269739489E+03 0.  0.
        4    1    3    3  502    0 -0.39944028150E+03  0.21995591930E+03 -0.57339456906E+03  0.73260909744E+03  0.12699999809E+01 0.  1.
       -4    1    3    3    0  502  0.39944028150E+03 -0.21995591930E+03 -0.63262357056E+03  0.77983802155E+03  0.12699999809E+01 0. -1.
</event>
<event>
 5   0  0.2129280E-03  0.8987250E+03  0.7818609E-02  0.9427177E-01
       -1   -1    0    0    0  501  0.00000000000E+00  0.00000000000E+00  0.38417031447E+03  0.38417031451E+03  0.50400001928E-02 0. -1.
        1   -1    0    0  501    0  0.00000000000E+00  0.00000000000E+00 -0.52561756502E+03  0.52561756504E+03  0.50400001928E-02 0.  1.
    10030    2    1    2    0    0  0.00000000000E+00  0.00000000000E+00 -0.14144725054E+03  0.90978787955E+03  0.89872501973E+03 0.  0.
        3    1    3    3  502    0  0.13546549191E+03  0.26669462493E+03 -0.41018669019E+03  0.50767120607E+03  0.10100000352E+00 0.  1.
       -3    1    3    3    0  502 -0.13546549191E+03 -0.26669462493E+03  0.26873943965E+03  0.40211667348E+03  0.10100000352E+00 0. -1.
</event>
<event>
 5   0  0.2295158E-03  0.9030896E+03  0.7818609E-02  0.9421727E-01
       -1   -1    0    0    0  501  0.00000000000E+00  0.00000000000E+00  0.19525170000E+03  0.19525170007E+03  0.50400001928E-02 0.  1.
        1   -1    0    0  501    0  0.00000000000E+00  0.00000000000E+00 -0.10442557528E+04  0.10442557528E+04  0.50400001928E-02 0. -1.
    10030    2    1    2    0    0  0.00000000000E+00  0.00000000000E+00 -0.84900405281E+03  0.12395074529E+04  0.90308961022E+03 0.  0.
        4    1    3    3  502    0  0.40329251222E+03 -0.18449331777E+03 -0.54103253601E+03  0.69957162080E+03  0.12699999809E+01 0.  1.
       -4    1    3    3    0  502 -0.40329251222E+03  0.18449331777E+03 -0.30797151680E+03  0.53993583209E+03  0.12699999809E+01 0. -1.
</event>
<event>
 5   0  0.3685879E-03  0.8945188E+03  0.7818609E-02  0.9432459E-01
       -2   -1    0    0    0  501  0.00000000000E+00  0.00000000000E+00  0.49671120089E+03  0.49671120090E+03  0.25500000920E-02 0.  1.
        2   -1    0    0  501    0  0.00000000000E+00  0.00000000000E+00 -0.40273097141E+03  0.40273097142E+03  0.25500000920E-02 0. -1.
    10030    2    1    2    0    0  0.00000000000E+00  0.00000000000E+00  0.93980229481E+02  0.89944217232E+03  0.89451883033E+03 0.  0.
        1    1    3    3  502    0  0.14551236360E+03  0.41109695387E+03  0.14686672643E+03  0.46015691758E+03  0.50400001928E-02 0.  1.
       -1    1    3    3    0  502 -0.14551236360E+03 -0.41109695387E+03 -0.52886496947E+02  0.43928525473E+03  0.50400001928E-02 0. -1.
</event>
<event>
 5   0  0.2134145E-03  0.8917689E+03  0.7818609E-02  0.9435930E-01
        1   -1    0    0  501    0  0.00000000000E+00  0.00000000000E+00  0.59340964447E+03  0.59340964449E+03  0.50400001928E-02 0.  1.
       -1   -1    0    0    0  501  0.00000000000E+00  0.00000000000E+00 -0.33503490368E+03  0.33503490372E+03  0.50400001928E-02 0. -1.
    10030    2    1    2    0    0  0.00000000000E+00  0.00000000000E+00  0.25837474079E+03  0.92844454821E+03  0.89176890079E+03 0.  0.
        1    1    3    3  502    0  0.24867339574E+03 -0.88539864607E+01 -0.25602406681E+03  0.35702265143E+03  0.50400001928E-02 0. -1.
       -1    1    3    3    0  502 -0.24867339574E+03  0.88539864607E+01  0.51439880760E+03  0.57142189677E+03  0.50400001928E-02 0.  1.
</event>
<event>
 5   0  0.3663255E-03  0.9033283E+03  0.7818609E-02  0.9421430E-01
        2   -1    0    0  501    0  0.00000000000E+00  0.00000000000E+00  0.85786458450E+03  0.85786458451E+03  0.25500000920E-02 0.  1.
       -2   -1    0    0    0  501  0.00000000000E+00  0.00000000000E+00 -0.23780034190E+03  0.23780034192E+03  0.25500000920E-02 0. -1.
    10030    2    1    2    0    0  0.00000000000E+00  0.00000000000E+00  0.62006424260E+03  0.10956649264E+04  0.90332827148E+03 0.  0.
        4    1    3    3  502    0 -0.26820648177E+02 -0.14642983320E+03 -0.20718665620E+03  0.25512539393E+03  0.12699999809E+01 0. -1.
       -4    1    3    3    0  502  0.26820648177E+02  0.14642983320E+03  0.82725089880E+03  0.84053953249E+03  0.12699999809E+01 0.  1.
</event>
<event>
 5   0  0.3815269E-03  0.9013241E+03  0.7818609E-02  0.9423928E-01
        2   -1    0    0  501    0  0.00000000000E+00  0.00000000000E+00  0.31907054964E+03  0.31907054965E+03  0.25500000920E-02 0. -1.
       -2   -1    0    0    0  501  0.00000000000E+00  0.00000000000E+00 -0.63652464806E+03  0.63652464807E+03  0.25500000920E-02 0.  1.
    10030    2    1    2    0    0  0.00000000000E+00  0.00000000000E+00 -0.31745409842E+03  0.95559519772E+03  0.90132406897E+03 0.  0.
        5    1    3    3  502    0 -0.10705183600E+03 -0.14943263181E+03  0.27748826731E+03  0.33288441768E+03  0.46999998093E+01 0. -1.
       -5    1    3    3    0  502  0.10705183600E+03  0.14943263181E+03 -0.59494236573E+03  0.62271078004E+03  0.46999998093E+01 0.  1.
</event>
<event>
 5   0  0.3815269E-03  0.9163783E+03  0.7818609E-02  0.9405336E-01
       -2   -1    0    0    0  501  0.00000000000E+00  0.00000000000E+00  0.27998639711E+03  0.27998639712E+03  0.25500000920E-02 0.  1.
        2   -1    0    0  501    0  0.00000000000E+00  0.00000000000E+00 -0.74981251482E+03  0.74981251483E+03  0.25500000920E-02 0. -1.
    10030    2    1    2    0    0  0.00000000000E+00  0.00000000000E+00 -0.46982611771E+03  0.10297989119E+04  0.91637831607E+03 0.  0.
        5    1    3    3  502    0 -0.22840871594E+03  0.89234307696E+01  0.21130314242E+03  0.31132182244E+03  0.46999998093E+01 0.  1.
       -5    1    3    3    0  502  0.22840871594E+03 -0.89234307696E+01 -0.68112926013E+03  0.71847708950E+03  0.46999998093E+01 0. -1.
</event>
<event>
 5   0  0.2295158E-03  0.9030917E+03  0.7818609E-02  0.9421725E-01
        1   -1    0    0  501    0  0.00000000000E+00  0.00000000000E+00  0.36230895459E+03  0.36230895462E+03  0.50400001928E-02 0.  1.
       -1   -1    0    0    0  501  0.00000000000E+00  0.00000000000E+00 -0.56276188893E+03  0.56276188895E+03  0.50400001928E-02 0. -1.
    10030    2    1    2    0    0  0.00000000000E+00  0.00000000000E+00 -0.20045293434E+03  0.92507084357E+03  0.90309173772E+03 0.  0.
        4    1    3    3  502    0 -0.27854647098E+03  0.13479904301E+03 -0.43706559318E+03  0.53552484922E+03  0.12699999809E+01 0. -1.
       -4    1    3    3    0  502  0.27854647098E+03 -0.13479904301E+03  0.23661265884E+03  0.38954599435E+03  0.12699999809E+01 0.  1.
</event>
<event>
 5   0  0.2295158E-03  0.9016018E+03  0.7818609E-02  0.9423581E-01
       -1   -1    0    0    0  501  0.00000000000E+00  0.00000000000E+00  0.27647332156E+03  0.27647332161E+03  0.50400001928E-02 0.  1.
        1   -1    0    0  501    0  0.00000000000E+00  0.00000000000E+00 -0.73504897051E+03  0.73504897053E+03  0.50400001928E-02 0. -1.
    10030    2    1    2    0    0  0.00000000000E+00  0.00000000000E+00 -0.45857564895E+03  0.10115222921E+04  0.90160175337E+03 0.  0.
        4    1    3    3  502    0 -0.23243070120E+03 -0.32914754856E+03 -0.45606406485E+03  0.60857060702E+03  0.12699999809E+01 0. -1.
       -4    1    3    3    0  502  0.23243070120E+03  0.32914754856E+03 -0.25115840992E+01  0.40295168511E+03  0.12699999809E+01 0.  1.
</event>
<event>
 5   0  0.1436000E-03  0.9067621E+03  0.7818609E-02  0.9417168E-01
       -3   -1    0    0    0  501  0.00000000000E+00  0.00000000000E+00  0.80573627729E+03  0.80573628362E+03  0.10100000352E+00 0.  1.
        3   -1    0    0  501    0  0.00000000000E+00  0.00000000000E+00 -0.25511370820E+03  0.25511372819E+03  0.10100000352E+00 0. -1.
    10030    2    1    2    0    0  0.00000000000E+00  0.00000000000E+00  0.55062256908E+03  0.10608500118E+04  0.90676211543E+03 0.  0.
        3    1    3    3  502    0  0.14570404808E+03 -0.23621456429E+03  0.69474028111E+03  0.74812502859E+03  0.10100000352E+00 0.  1.
       -3    1    3    3    0  502 -0.14570404808E+03  0.23621456429E+03 -0.14411771203E+03  0.31272498322E+03  0.10100000352E+00 0. -1.
</event>
<event>
 5   0  0.2134145E-03  0.8990908E+03  0.7818609E-02  0.9426719E-01
        1   -1    0    0  501    0  0.00000000000E+00  0.00000000000E+00  0.17608407734E+03  0.17608407741E+03  0.50400001928E-02 0. -1.
       -1   -1    0    0    0  501  0.00000000000E+00  0.00000000000E+00 -0.11476963523E+04  0.11476963523E+04  0.50400001928E-02 0.  1.
    10030    2    1    2    0    0  0.00000000000E+00  0.00000000000E+00 -0.97161227499E+03  0.13237804298E+04  0.89909077033E+03 0.  0.
        1    1    3    3  502    0  0.11128562931E+03  0.25032619322E+03 -0.10105995814E+04  0.10470717302E+04  0.50400001928E-02 0.  1.
       -1    1    3    3    0  502 -0.11128562931E+03 -0.25032619322E+03  0.38987306406E+02  0.27670869952E+03  0.50400001928E-02 0. -1.
</event>
<event>
 5   0  0.3815269E-03  0.9015372E+03  0.7818609E-02  0.9423662E-01
       -2   -1    0    0    0  501  0.00000000000E+00  0.00000000000E+00  0.15209065714E+03  0.15209065717E+03  0.25500000920E-02 0.  1.
        2   -1    0    0  501    0  0.00000000000E+00  0.00000000000E+00 -0.13359947023E+04  0.13359947023E+04  0.25500000920E-02 0. -1.
    10030    2    1    2    0    0  0.00000000000E+00  0.00000000000E+00 -0.11839040452E+04  0.14880853595E+04  0.90153715894E+03 0.  0.
        5    1    3    3  502    0  0.72756490242E+02 -0.43348222006E+03 -0.42713988840E+03  0.61291999171E+03  0.46999998093E+01 0. -1.
       -5    1    3    3    0  502 -0.72756490242E+02  0.43348222006E+03 -0.75676415679E+03  0.87516536779E+03  0.46999998093E+01 0.  1.
</event>
<event>
 5   0  0.3685879E-03  0.8844693E+03  0.7818609E-02  0.9445207E-01
        2   -1    0    0  501    0  0.00000000000E+00  0.00000000000E+00  0.11829930644E+04  0.11829930644E+04  0.25500000920E-02 0. -1.
       -2   -1    0    0    0  501  0.00000000000E+00  0.00000000000E+00 -0.16531920600E+03  0.16531920602E+03  0.25500000920E-02 0.  1.
    10030    2    1    2    0    0  0.00000000000E+00  0.00000000000E+00  0.10176738584E+04  0.13483122705E+04  0.88446927393E+03 0.  0.
        1    1    3    3  502    0 -0.81243361203E+02 -0.15859347970E+03  0.11258438032E+04  0.11398581687E+04  0.50400001928E-02 0. -1.
       -1    1    3    3    0  502  0.81243361203E+02  0.15859347970E+03 -0.10816994479E+03  0.20845410172E+03  0.50400001928E-02 0.  1.
</event>
<event>
 5   0  0.3685879E-03  0.8881387E+03  0.7818609E-02  0.9440531E-01
        2   -1    0    0  501    0  0.00000000000E+00  0.00000000000E+00  0.20052113231E+04  0.20052113231E+04  0.25500000920E-02 0. -1.
       -2   -1    0    0    0  501  0.00000000000E+00  0.00000000000E+00 -0.98342539920E+02  0.98342539953E+02  0.25500000920E-02 0.  1.
    10030    2    1    2    0    0  0.00000000000E+00  0.00000000000E+00  0.19068687832E+04  0.21035538630E+04  0.88813867076E+03 0.  0.
        1    1    3    3  502    0  0.80539446266E+02  0.13401073197E+03  0.19378636642E+04  0.19441607598E+04  0.50400001928E-02 0. -1.
       -1    1    3    3    0  502 -0.80539446266E+02 -0.13401073197E+03 -0.30994881070E+02  0.15939310326E+03  0.50400001928E-02 0.  1.
</event>
<event>
 5   0  0.3685879E-03  0.8995112E+03  0.7818609E-02  0.9426193E-01
       -2   -1    0    0    0  501  0.00000000000E+00  0.00000000000E+00  0.51052688676E+03  0.51052688677E+03  0.25500000920E-02 0.  1.
        2   -1    0    0  501    0  0.00000000000E+00  0.00000000000E+00 -0.39621828701E+03  0.39621828702E+03  0.25500000920E-02 0. -1.
    10030    2    1    2    0    0  0.00000000000E+00  0.00000000000E+00  0.11430859975E+03  0.90674517379E+03  0.89951117514E+03 0.  0.
        1    1    3    3  502    0 -0.37272546863E+03 -0.14707925835E+03  0.26306033849E+03  0.47933007929E+03  0.50400001928E-02 0.  1.
       -1    1    3    3    0  502  0.37272546863E+03  0.14707925835E+03 -0.14875173874E+03  0.42741509450E+03  0.50400001928E-02 0. -1.
</event>
<event>
 5   0  0.2074970E-03  0.9035564E+03  0.7818609E-02  0.9421147E-01
       -1   -1    0    0    0  501  0.00000000000E+00  0.00000000000E+00  0.32758751716E+03  0.32758751720E+03  0.50400001928E-02 0. -1.
        1   -1    0    0  501    0  0.00000000000E+00  0.00000000000E+00 -0.62305038710E+03  0.62305038712E+03  0.50400001928E-02 0.  1.
    10030    2    1    2    0    0  0.00000000000E+00  0.00000000000E+00 -0.29546286994E+03  0.95063790431E+03  0.90355637212E+03 0.  0.
        2    1    3    3  502    0 -0.53466921895E+02  0.37791250406E+03  0.10658036247E+03  0.39627761245E+03  0.25500000920E-02 0. -1.
       -2    1    3    3    0  502  0.53466921895E+02 -0.37791250406E+03 -0.40204323241E+03  0.55436029186E+03  0.25500000920E-02 0.  1.
</event>
<event>
 5   0  0.2130975E-03  0.9028872E+03  0.7818609E-02  0.9421979E-01
       -1   -1    0    0    0  501  0.00000000000E+00  0.00000000000E+00  0.11468427920E+03  0.11468427931E+03  0.50400001928E-02 0. -1.
        1   -1    0    0  501    0  0.00000000000E+00  0.00000000000E+00 -0.17770643266E+04  0.17770643266E+04  0.50400001928E-02 0.  1.
    10030    2    1    2    0    0  0.00000000000E+00  0.00000000000E+00 -0.16623800474E+04  0.18917486059E+04  0.90288723881E+03 0.  0.
        5    1    3    3  502    0  0.10847914982E+03 -0.20973786593E+03 -0.25083592222E+02  0.23750573666E+03  0.46999998093E+01 0. -1.
       -5    1    3    3    0  502 -0.10847914982E+03  0.20973786593E+03 -0.16372964552E+04  0.16542428692E+04  0.46999998093E+01 0.  1.
</event>
<event>
 5   0  0.3815269E-03  0.9009496E+03  0.7818609E-02  0.9424395E-01
       -2   -1    0    0    0  501  0.00000000000E+00  0.00000000000E+00  0.23380422358E+03  0.23380422359E+03  0.25500000920E-02 0. -1.
        2   -1    0    0  501    0  0.00000000000E+00  0.00000000000E+00 -0.86793791244E+03  0.86793791245E+03  0.25500000920E-02 0.  1.
    10030    2    1    2    0    0  0.00000000000E+00  0.00000000000E+00 -0.63413368887E+03  0.11017421360E+04  0.90094960956E+03 0.  0.
        5    1    3    3  502    0  0.14722410972E+03  0.98068522003E+02  0.18952087638E+03  0.25929254921E+03  0.46999998093E+01 0. -1.
       -5    1    3    3    0  502 -0.14722410972E+03 -0.98068522003E+02 -0.82365456525E+03  0.84244958683E+03  0.46999998093E+01 0.  1.
</event>
<event>
 5   0  0.2295158E-03  0.8992793E+03  0.7818609E-02  0.9426483E-01
        1   -1    0    0  501    0  0.00000000000E+00  0.00000000000E+00  0.21814674831E+03  0.21814674837E+03  0.50400001928E-02 0.  1.
       -1   -1    0    0    0  501  0.00000000000E+00  0.00000000000E+00 -0.92678802575E+03  0.92678802576E+03  0.50400001928E-02 0. -1.
    10030    2    1    2    0    0  0.00000000000E+00  0.00000000000E+00 -0.70864127744E+03  0.11449347741E+04  0.89927925413E+03 0.  0.
        4    1    3    3  502    0 -0.12561593818E+03 -0.28465475585E+03 -0.76759400952E+03  0.82825712813E+03  0.12699999809E+01 0. -1.
       -4    1    3    3    0  502  0.12561593818E+03  0.28465475585E+03  0.58952732080E+02  0.31667764599E+03  0.12699999809E+01 0.  1.
</event>
<event>
 5   0  0.3806019E-03  0.8955080E+03  0.7818609E-02  0.9431214E-01
        2   -1    0    0  501    0  0.00000000000E+00  0.00000000000E+00  0.35434517912E+04  0.35434517912E+04  0.25500000920E-02 0.  1.
       -2   -1    0    0    0  501  0.00000000000E+00  0.00000000000E+00 -0.56578628898E+02  0.56578628956E+02  0.25500000920E-02 0. -1.
    10030    2    1    2    0    0  0.00000000000E+00  0.00000000000E+00  0.34868731623E+04  0.36000304202E+04  0.89550799889E+03 0.  0.
        2    1    3    3  502    0 -0.14055139557E+03 -0.21961071347E+02  0.36684996419E+02  0.14691076346E+03  0.25500000920E-02 0. -1.
       -2    1    3    3    0  502  0.14055139557E+03  0.21961071347E+02  0.34501881659E+04  0.34531196567E+04  0.25500000920E-02 0.  1.
</event>
<event>
 5   0  0.2134145E-03  0.9410419E+03  0.7818609E-02  0.9375683E-01
       -1   -1    0    0    0  501  0.00000000000E+00  0.00000000000E+00  0.19721893981E+03  0.19721893988E+03  0.50400001928E-02 0. -1.
        1   -1    0    0  501    0  0.00000000000E+00  0.00000000000E+00 -0.11225593819E+04  0.11225593819E+04  0.50400001928E-02 0.  1.
    10030    2    1    2    0    0  0.00000000000E+00  0.00000000000E+00 -0.92534044209E+03  0.13197783218E+04  0.94104191453E+03 0.  0.
        1    1    3    3  502    0 -0.29828575911E+03 -0.35758987104E+03 -0.36812014272E+03  0.59359695876E+03  0.50400001928E-02 0. -1.
       -1    1    3    3    0  502  0.29828575911E+03  0.35758987104E+03 -0.55722029938E+03  0.72618136303E+03  0.50400001928E-02 0.  1.
</event>
<event>
 5   0  0.3626546E-03  0.9002043E+03  0.7818609E-02  0.9425326E-01
       -2   -1    0    0    0  501  0.00000000000E+00  0.00000000000E+00  0.90543561499E+03  0.90543561500E+03  0.25500000920E-02 0.  1.
        2   -1    0    0  501    0  0.00000000000E+00  0.00000000000E+00 -0.22375078136E+03  0.22375078137E+03  0.25500000920E-02 0. -1.
    10030    2    1    2    0    0  0.00000000000E+00  0.00000000000E+00  0.68168483364E+03  0.11291863964E+04  0.90020425756E+03 0.  0.
        3    1    3    3  502    0  0.21449531466E+02 -0.34804511734E+03  0.69783361917E+03  0.78010720824E+03  0.10100000352E+00 0.  1.
       -3    1    3    3    0  502 -0.21449531466E+02  0.34804511734E+03 -0.16148785532E+02  0.34907918813E+03  0.10100000352E+00 0. -1.
</event>
<event>
 5   0  0.3815269E-03  0.9019577E+03  0.7818609E-02  0.9423138E-01
       -2   -1    0    0    0  501  0.00000000000E+00  0.00000000000E+00  0.14115426401E+03  0.14115426403E+03  0.25500000920E-02 0.  1.
        2   -1    0    0  501    0  0.00000000000E+00  0.00000000000E+00 -0.14408485152E+04  0.14408485152E+04  0.25500000920E-02 0. -1.
    10030    2    1    2    0    0  0.00000000000E+00  0.00000000000E+00 -0.12996942512E+04  0.15820027792E+04  0.90195767468E+03 0.  0.
        5    1    3    3  502    0 -0.34952146485E+03  0.58978494085E+02 -0.11388107996E+04  0.11927094552E+04  0.46999998093E+01 0.  1.
       -5    1    3    3    0  502  0.34952146485E+03 -0.58978494085E+02 -0.16088345155E+03  0.38929332403E+03  0.46999998093E+01 0. -1.
</event>
<event>
 5   0  0.2134145E-03  0.8982135E+03  0.7818609E-02  0.9427817E-01
        1   -1    0    0  501    0  0.00000000000E+00  0.00000000000E+00  0.35113973657E+03  0.35113973660E+03  0.50400001928E-02 0. -1.
       -1   -1    0    0    0  501  0.00000000000E+00  0.00000000000E+00 -0.57440631934E+03  0.57440631936E+03  0.50400001928E-02 0.  1.
    10030    2    1    2    0    0  0.00000000000E+00  0.00000000000E+00 -0.22326658277E+03  0.92554605596E+03  0.89821352402E+03 0.  0.
        1    1    3    3  502    0 -0.27382527569E+03  0.27639564918E+03  0.11951867642E+03  0.40701296113E+03  0.50400001928E-02 0. -1.
       -1    1    3    3    0  502  0.27382527569E+03 -0.27639564918E+03 -0.34278525919E+03  0.51853309483E+03  0.50400001928E-02 0.  1.
</event>
<event>
 5   0  0.2295158E-03  0.8993956E+03  0.7818609E-02  0.9426337E-01
        1   -1    0    0  501    0  0.00000000000E+00  0.00000000000E+00  0.30178284629E+03  0.30178284634E+03  0.50400001928E-02 0. -1.
       -1   -1    0    0    0  501  0.00000000000E+00  0.00000000000E+00 -0.67011135305E+03  0.67011135307E+03  0.50400001928E-02 0.  1.
    10030    2    1    2    0    0  0.00000000000E+00  0.00000000000E+00 -0.36832850676E+03  0.97189419940E+03  0.89939560036E+03 0.  0.
        4    1    3    3  502    0 -0.33040241263E+03 -0.30047970439E+03 -0.24106513716E+03  0.50751139916E+03  0.12699999809E+01 0.  1.
       -4    1    3    3    0  502  0.33040241263E+03  0.30047970439E+03 -0.12726336960E+03  0.46438280025E+03  0.12699999809E+01 0. -1.
</event>
<event>
 5   0  0.2130975E-03  0.8996428E+03  0.7818609E-02  0.9426028E-01
        1   -1    0    0  501    0  0.00000000000E+00  0.00000000000E+00  0.16211461581E+04  0.16211461582E+04  0.50400001928E-02 0. -1.
       -1   -1    0    0    0  501  0.00000000000E+00  0.00000000000E+00 -0.12481250131E+03  0.12481250141E+03  0.50400001928E-02 0.  1.
    10030    2    1    2    0    0  0.00000000000E+00  0.00000000000E+00  0.14963336568E+04  0.17459586596E+04  0.89964283376E+03 0.  0.
        5    1    3    3  502    0  0.24888233230E+02  0.23117121265E+03  0.14954279838E+04  0.15134022923E+04  0.46999998093E+01 0. -1.
       -5    1    3    3    0  502 -0.24888233230E+02 -0.23117121265E+03  0.90567306562E+00  0.23255636726E+03  0.46999998093E+01 0.  1.
</event>
<event>
 5   0  0.2130975E-03  0.9007122E+03  0.7818609E-02  0.9424692E-01
       -1   -1    0    0    0  501  0.00000000000E+00  0.00000000000E+00  0.52025261963E+03  0.52025261966E+03  0.50400001928E-02 0.  1.
        1   -1    0    0  501    0  0.00000000000E+00  0.00000000000E+00 -0.38985026477E+03  0.38985026480E+03  0.50400001928E-02 0. -1.
    10030    2    1    2    0    0  0.00000000000E+00  0.00000000000E+00  0.13040235486E+03  0.91010288446E+03  0.90071221050E+03 0.  0.
        5    1    3    3  502    0  0.26717449818E+03  0.35219564765E+03 -0.21569312737E+02  0.44261869815E+03  0.46999998093E+01 0. -1.
       -5    1    3    3    0  502 -0.26717449818E+03 -0.35219564765E+03  0.15197166760E+03  0.46748418631E+03  0.46999998093E+01 0.  1.
</event>
<event>
 5   0  0.3815269E-03  0.9040014E+03  0.7818609E-02  0.9420593E-01
       -2   -1    0    0    0  501  0.00000000000E+00  0.00000000000E+00  0.33086443622E+03  0.33086443623E+03  0.25500000920E-02 0. -1.
        2   -1    0    0  501    0  0.00000000000E+00  0.00000000000E+00 -0.61748749237E+03  0.61748749238E+03  0.25500000920E-02 0.  1.
    10030    2    1    2    0    0  0.00000000000E+00  0.00000000000E+00 -0.28662305615E+03  0.94835192861E+03  0.90400144036E+03 0.  0.
        5    1    3    3  502    0  0.35908265534E+03  0.19439361997E+03  0.59982502140E+02  0.41273384089E+03  0.46999998093E+01 0. -1.
       -5    1    3    3    0  502 -0.35908265534E+03 -0.19439361997E+03 -0.34660555829E+03  0.53561808772E+03  0.46999998093E+01 0.  1.
</event>
<event>
 5   0  0.3815269E-03  0.8988706E+03  0.7818609E-02  0.9426994E-01
       -2   -1    0    0    0  501  0.00000000000E+00  0.00000000000E+00  0.12849936923E+03  0.12849936925E+03  0.25500000920E-02 0.  1.
        2   -1    0    0  501    0  0.00000000000E+00  0.00000000000E+00 -0.15719305270E+04  0.15719305270E+04  0.25500000920E-02 0. -1.
    10030    2    1    2    0    0  0.00000000000E+00  0.00000000000E+00 -0.14434311578E+04  0.17004298962E+04  0.89887058291E+03 0.  0.
        5    1    3    3  502    0  0.29535553987E+02  0.49332870175E+01 -0.15699946896E+04  0.15702872673E+04  0.46999998093E+01 0. -1.
       -5    1    3    3    0  502 -0.29535553987E+02 -0.49332870175E+01  0.12656353189E+03  0.13014262896E+03  0.46999998093E+01 0.  1.
</event>
<event>
 5   0  0.3626546E-03  0.9038787E+03  0.7818609E-02  0.9420746E-01
        2   -1    0    0  501    0  0.00000000000E+00  0.00000000000E+00  0.22906199712E+03  0.22906199714E+03  0.25500000920E-02 0. -1.
       -2   -1    0    0    0  501  0.00000000000E+00  0.00000000000E+00 -0.89167633418E+03  0.89167633419E+03  0.25500000920E-02 0.  1.
    10030    2    1    2    0    0  0.00000000000E+00  0.00000000000E+00 -0.66261433706E+03  0.11207383313E+04  0.90387866864E+03 0.  0.
        3    1    3    3  502    0  0.12340898679E+03  0.32239433945E+03  0.30361638964E+02  0.34653964773E+03  0.10100000352E+00 0. -1.
       -3    1    3    3    0  502 -0.12340898679E+03 -0.32239433945E+03 -0.69297597602E+03  0.77419868359E+03  0.10100000352E+00 0.  1.
</event>
<event>
 5   0  0.3815269E-03  0.8976716E+03  0.7818609E-02  0.9428497E-01
        2   -1    0    0  501    0  0.00000000000E+00  0.00000000000E+00  0.18871995531E+03  0.18871995532E+03  0.25500000920E-02 0.  1.
       -2   -1    0    0    0  501  0.00000000000E+00  0.00000000000E+00 -0.10674736016E+04  0.10674736016E+04  0.25500000920E-02 0. -1.
    10030    2    1    2    0    0  0.00000000000E+00  0.00000000000E+00 -0.87875364625E+03  0.12561935569E+04  0.89767158892E+03 0.  0.
        5    1    3    3  502    0 -0.95424605899E+02  0.22292180445E+03  0.89125374099E+02  0.25839003196E+03  0.46999998093E+01 0.  1.
       -5    1    3    3    0  502  0.95424605899E+02 -0.22292180445E+03 -0.96787902035E+03  0.99780352492E+03  0.46999998093E+01 0. -1.
</event>
<event>
 5   0  0.2074970E-03  0.8915490E+03  0.7818609E-02  0.9436208E-01
       -1   -1    0    0    0  501  0.00000000000E+00  0.00000000000E+00  0.37825543340E+03  0.37825543344E+03  0.50400001928E-02 0. -1.
        1   -1    0    0  501    0  0.00000000000E+00  0.00000000000E+00 -0.52534583863E+03  0.52534583866E+03  0.50400001928E-02 0.  1.
    10030    2    1    2    0    0  0.00000000000E+00  0.00000000000E+00 -0.14709040523E+03  0.90360127210E+03  0.89154902929E+03 0.  0.
        2    1    3    3  502    0 -0.10136321043E+03  0.31697395047E+03 -0.37414853718E+03  0.50073357545E+03  0.25500000920E-02 0.  1.
       -2    1    3    3    0  502  0.10136321043E+03 -0.31697395047E+03  0.22705813195E+03  0.40286769664E+03  0.25500000920E-02 0. -1.
</event>
<event>
 5   0  0.3626546E-03  0.8999660E+03  0.7818609E-02  0.9425624E-01
       -2   -1    0    0    0  501  0.00000000000E+00  0.00000000000E+00  0.21210713786E+03  0.21210713788E+03  0.25500000920E-02 0. -1.
        2   -1    0    0  501    0  0.00000000000E+00  0.00000000000E+00 -0.95463413200E+03  0.95463413200E+03  0.25500000920E-02 0.  1.
    10030    2    1    2    0    0  0.00000000000E+00  0.00000000000E+00 -0.74252699414E+03  0.11667412699E+04  0.89996602926E+03 0.  0.
        3    1    3    3  502    0 -0.43671121595E+03 -0.96304288403E+02 -0.30652639859E+03  0.54217123248E+03  0.10100000352E+00 0. -1.
       -3    1    3    3    0  502  0.43671121595E+03  0.96304288403E+02 -0.43600059555E+03  0.62457003740E+03  0.10100000352E+00 0.  1.
</event>
<event>
 5   0  0.3663255E-03  0.8995427E+03  0.7818609E-02  0.9426153E-01
       -2   -1    0    0    0  501  0.00000000000E+00  0.00000000000E+00  0.10562480636E+03  0.10562480639E+03  0.25500000920E-02 0. -1.
        2   -1    0    0  501    0  0.00000000000E+00  0.00000000000E+00 -0.19152155502E+04  0.19152155502E+04  0.25500000920E-02 0.  1.
    10030    2    1    2    0    0  0.00000000000E+00  0.00000000000E+00 -0.18095907439E+04  0.20208403566E+04  0.89954270975E+03 0.  0.
        4    1    3    3  502    0 -0.24412985974E+03 -0.33210854850E+03 -0.50043942167E+03  0.64833379062E+03  0.12699999809E+01 0. -1.
       -4    1    3    3    0  502  0.24412985974E+03  0.33210854850E+03 -0.13091513222E+04  0.13725065660E+04  0.12699999809E+01 0.  1.
</event>
<event>
 5   0  0.3626546E-03  0.8993085E+03  0.7818609E-02  0.9426446E-01
        2   -1    0    0  501    0  0.00000000000E+00  0.00000000000E+00  0.96170337941E+03  0.96170337941E+03  0.25500000920E-02 0. -1.
       -2   -1    0    0    0  501  0.00000000000E+00  0.00000000000E+00 -0.21024042794E+03  0.21024042796E+03  0.25500000920E-02 0.  1.
    10030    2    1    2    0    0  0.00000000000E+00  0.00000000000E+00  0.75146295146E+03  0.11719438074E+04  0.89930846778E+03 0.  0.
        3    1    3    3  502    0  0.44269809295E+03 -0.44970999934E+02  0.46003429060E+03  0.64002777367E+03  0.10100000352E+00 0. -1.
       -3    1    3    3    0  502 -0.44269809295E+03  0.44970999934E+02  0.29142866086E+03  0.53191603370E+03  0.10100000352E+00 0.  1.
</event>
<event>
 5   0  0.2074970E-03  0.8970191E+03  0.7818609E-02  0.9429315E-01
        1   -1    0    0  501    0  0.00000000000E+00  0.00000000000E+00  0.43575638146E+03  0.43575638149E+03  0.50400001928E-02 0. -1.
       -1   -1    0    0    0  501  0.00000000000E+00  0.00000000000E+00 -0.46163593027E+03  0.46163593030E+03  0.50400001928E-02 0.  1.
    10030    2    1    2    0    0  0.00000000000E+00  0.00000000000E+00 -0.25879548812E+02  0.89739231179E+03  0.89701906904E+03 0.  0.
        2    1    3    3  502    0  0.25793614453E+03 -0.24997118431E+03 -0.28164817519E+03  0.45644533324E+03  0.25500000920E-02 0.  1.
       -2    1    3    3    0  502 -0.25793614453E+03  0.24997118431E+03  0.25576862638E+03  0.44094697855E+03  0.25500000920E-02 0. -1.
</event>
<event>
 5   0  0.3806019E-03  0.8988889E+03  0.7818609E-02  0.9426971E-01
        2   -1    0    0  501    0  0.00000000000E+00  0.00000000000E+00  0.83400045247E+03  0.83400045248E+03  0.25500000920E-02 0.  1.
       -2   -1    0    0    0  501  0.00000000000E+00  0.00000000000E+00 -0.24220648253E+03  0.24220648254E+03  0.25500000920E-02 0. -1.
    10030    2    1    2    0    0  0.00000000000E+00  0.00000000000E+00  0.59179396994E+03  0.10762069350E+04  0.89888890533E+03 0.  0.
        2    1    3    3  502    0 -0.24526213976E+03 -0.11955573287E+03  0.72349481140E+03  0.77323465558E+03  0.25500000920E-02 0.  1.
       -2    1    3    3    0  502  0.24526213976E+03  0.11955573287E+03 -0.13170084145E+03  0.30297227944E+03  0.25500000920E-02 0. -1.
</event>
<event>
 5   0  0.2295158E-03  0.9023589E+03  0.7818609E-02  0.9422638E-01
        1   -1    0    0  501    0  0.00000000000E+00  0.00000000000E+00  0.50405736944E+03  0.50405736946E+03  0.50400001928E-02 0.  1.
       -1   -1    0    0    0  501  0.00000000000E+00  0.00000000000E+00 -0.40384863030E+03  0.40384863033E+03  0.50400001928E-02 0. -1.
    10030    2    1    2    0    0  0.00000000000E+00  0.00000000000E+00  0.10020873913E+03  0.90790599980E+03  0.90235886047E+03 0.  0.
        4    1    3    3  502    0 -0.42083559615E+02 -0.28236283632E+03  0.40162506068E+03  0.49275155971E+03  0.12699999809E+01 0.  1.
       -4    1    3    3    0  502  0.42083559615E+02  0.28236283632E+03 -0.30141632155E+03  0.41515444009E+03  0.12699999809E+01 0. -1.
</event>
<event>
 5   0  0.2295158E-03  0.9019050E+03  0.7818609E-02  0.9423203E-01
       -1   -1    0    0    0  501  0.00000000000E+00  0.00000000000E+00  0.13879343878E+03  0.13879343887E+03  0.50400001928E-02 0. -1.
        1   -1    0    0  501    0  0.00000000000E+00  0.00000000000E+00 -0.14651855053E+04  0.14651855053E+04  0.50400001928E-02 0.  1.
    10030    2    1    2    0    0  0.00000000000E+00  0.00000000000E+00 -0.13263920665E+04  0.16039789441E+04  0.90190495021E+03 0.  0.
        4    1    3    3  502    0 -0.21458975940E+03  0.39532253408E+03 -0.60617921246E+03  0.75484006339E+03  0.12699999809E+01 0. -1.
       -4    1    3    3    0  502  0.21458975940E+03 -0.39532253408E+03 -0.72021285404E+03  0.84913888076E+03  0.12699999809E+01 0.  1.
</event>
<event>
 5   0  0.3663255E-03  0.9001634E+03  0.7818609E-02  0.9425377E-01
       -2   -1    0    0    0  501  0.00000000000E+00  0.00000000000E+00  0.20310587302E+03  0.20310587303E+03  0.25500000920E-02 0. -1.
        2   -1    0    0  501    0  0.00000000000E+00  0.00000000000E+00 -0.99737909916E+03  0.99737909917E+03  0.25500000920E-02 0.  1.
    10030    2    1    2    0    0  0.00000000000E+00  0.00000000000E+00 -0.79427322614E+03  0.12004849722E+04  0.90016343555E+03 0.  0.
        4    1    3    3  502    0  0.11521531734E+03 -0.10819291227E+03  0.16487675822E+03  0.22839928615E+03  0.12699999809E+01 0. -1.
       -4    1    3    3    0  502 -0.11521531734E+03  0.10819291227E+03 -0.95914998436E+03  0.97208568605E+03  0.12699999809E+01 0.  1.
</event>
<event>
 5   0  0.2129280E-03  0.8986920E+03  0.7818609E-02  0.9427218E-01
        1   -1    0    0  501    0  0.00000000000E+00  0.00000000000E+00  0.45515853297E+03  0.45515853299E+03  0.50400001928E-02 0. -1.
       -1   -1    0    0    0  501  0.00000000000E+00  0.00000000000E+00 -0.44360768982E+03  0.44360768985E+03  0.50400001928E-02 0.  1.
    10030    2    1    2    0    0  0.00000000000E+00  0.00000000000E+00  0.11550843143E+02  0.89876622284E+03  0.89869199471E+03 0.  0.
        3    1    3    3  502    0  0.43734813471E+03 -0.97878511571E+01 -0.96910331074E+02  0.44806340559E+03  0.10100000352E+00 0. -1.
       -3    1    3    3    0  502 -0.43734813471E+03  0.97878511571E+01  0.10846117422E+03  0.45070281725E+03  0.10100000352E+00 0.  1.
</event>
<event>
 5   0  0.1436000E-03  0.9032355E+03  0.7818609E-02  0.9421546E-01
        4   -1    0    0  501    0  0.00000000000E+00  0.00000000000E+00  0.35554716461E+03  0.35554943280E+03  0.12699999809E+01 0.  1.
       -4   -1    0    0    0  501  0.00000000000E+00  0.00000000000E+00 -0.57364231320E+03  0.57364371904E+03  0.12699999809E+01 0. -1.
    10030    2    1    2    0    0  0.00000000000E+00  0.00000000000E+00 -0.21809514859E+03  0.92919315184E+03  0.90323552830E+03 0.  0.
        5    1    3    3  502    0 -0.47836348657E+02 -0.44899208247E+03 -0.11662879227E+03  0.46637599805E+03  0.46999998093E+01 0.  1.
       -5    1    3    3    0  502  0.47836348657E+02  0.44899208247E+03 -0.10146635632E+03  0.46281715378E+03  0.46999998093E+01 0. -1.
</event>
<event>
 5   0  0.3626546E-03  0.9015364E+03  0.7818609E-02  0.9423663E-01
       -2   -1    0    0    0  501  0.00000000000E+00  0.00000000000E+00  0.16105378280E+03  0.16105378282E+03  0.25500000920E-02 0.  1.
        2   -1    0    0  501    0  0.00000000000E+00  0.00000000000E+00 -0.12616403945E+04  0.12616403945E+04  0.25500000920E-02 0. -1.
    10030    2    1    2    0    0  0.00000000000E+00  0.00000000000E+00 -0.11005866117E+04  0.14226941773E+04  0.90153637327E+03 0.  0.
        3    1    3    3  502    0  0.27023732058E+03  0.21971461864E+03 -0.10018805652E+04  0.10606919441E+04  0.10100000352E+00 0. -1.
       -3    1    3    3    0  502 -0.27023732058E+03 -0.21971461864E+03 -0.98706046537E+02  0.36200223328E+03  0.10100000352E+00 0.  1.
</event>
<event>
 5   0  0.3626546E-03  0.8481552E+03  0.7818609E-02  0.9492816E-01
       -2   -1    0    0    0  501  0.00000000000E+00  0.00000000000E+00  0.13019785857E+03  0.13019785860E+03  0.25500000920E-02 0.  1.
        2   -1    0    0  501    0  0.00000000000E+00  0.00000000000E+00 -0.13812960974E+04  0.13812960974E+04  0.25500000920E-02 0. -1.
    10030    2    1    2    0    0  0.00000000000E+00  0.00000000000E+00 -0.12510982388E+04  0.15114939560E+04  0.84815516023E+03 0.  0.
        3    1    3    3  502    0  0.25146445783E+03  0.22389275076E+03 -0.10850377853E+04  0.11360762928E+04  0.10100000352E+00 0. -1.
       -3    1    3    3    0  502 -0.25146445783E+03 -0.22389275076E+03 -0.16606045353E+03  0.37541766317E+03  0.10100000352E+00 0.  1.
</event>
<event>
 5   0  0.3663255E-03  0.9010057E+03  0.7818609E-02  0.9424325E-01
        2   -1    0    0  501    0  0.00000000000E+00  0.00000000000E+00  0.53125140248E+03  0.53125140249E+03  0.25500000920E-02 0.  1.
       -2   -1    0    0    0  501  0.00000000000E+00  0.00000000000E+00 -0.38202778494E+03  0.38202778495E+03  0.25500000920E-02 0. -1.
    10030    2    1    2    0    0  0.00000000000E+00  0.00000000000E+00  0.14922361755E+03  0.91327918744E+03  0.90100565269E+03 0.  0.
        4    1    3    3  502    0 -0.25078498567E+02  0.31845987992E+03 -0.24737166981E+03  0.40402967977E+03  0.12699999809E+01 0. -1.
       -4    1    3    3    0  502  0.25078498567E+02 -0.31845987992E+03  0.39659528736E+03  0.50924950767E+03  0.12699999809E+01 0.  1.
</event>
<event>
 5   0  0.2134145E-03  0.8998013E+03  0.7818609E-02  0.9425830E-01
       -1   -1    0    0    0  501  0.00000000000E+00  0.00000000000E+00  0.13893518241E+03  0.13893518250E+03  0.50400001928E-02 0. -1.
        1   -1    0    0  501    0  0.00000000000E+00  0.00000000000E+00 -0.14568707840E+04  0.14568707840E+04  0.50400001928E-02 0.  1.
    10030    2    1    2    0    0  0.00000000000E+00  0.00000000000E+00 -0.13179356016E+04  0.15958059665E+04  0.89980132965E+03 0.  0.
        1    1    3    3  502    0 -0.15356553756E+03  0.16458298703E+03 -0.13498189091E+04  0.13684593605E+04  0.50400001928E-02 0.  1.
       -1    1    3    3    0  502  0.15356553756E+03 -0.16458298703E+03  0.31883307513E+02  0.22734660602E+03  0.50400001928E-02 0. -1.
</event>
<event>
 5   0  0.3663255E-03  0.9227597E+03  0.7818609E-02  0.9397569E-01
        2   -1    0    0  501    0  0.00000000000E+00  0.00000000000E+00  0.22923793274E+04  0.22923793274E+04  0.25500000920E-02 0. -1.
       -2   -1    0    0    0  501  0.00000000000E+00  0.00000000000E+00 -0.92860452409E+02  0.92860452444E+02  0.25500000920E-02 0.  1.
    10030    2    1    2    0    0  0.00000000000E+00  0.00000000000E+00  0.21995188750E+04  0.23852397799E+04  0.92275973358E+03 0.  0.
        4    1    3    3  502    0 -0.18092163308E+02 -0.14372783789E+03  0.22320649978E+04  0.22367612267E+04  0.12699999809E+01 0. -1.
       -4    1    3    3    0  502  0.18092163308E+02  0.14372783789E+03 -0.32546122781E+02  0.14847855322E+03  0.12699999809E+01 0.  1.
</event>
<event>
 5   0  0.2129280E-03  0.9042495E+03  0.7818609E-02  0.9420285E-01
       -1   -1    0    0    0  501  0.00000000000E+00  0.00000000000E+00  0.34019374375E+03  0.34019374379E+03  0.50400001928E-02 0. -1.
        1   -1    0    0  501    0  0.00000000000E+00  0.00000000000E+00 -0.60088342447E+03  0.60088342449E+03  0.50400001928E-02 0.  1.
    10030    2    1    2    0    0  0.00000000000E+00  0.00000000000E+00 -0.26068968072E+03  0.94107716827E+03  0.90424948273E+03 0.  0.
        3    1    3    3  502    0 -0.43052634798E+03  0.86481269300E+02 -0.18328414171E+02  0.43950868844E+03  0.10100000352E+00 0.  1.
       -3    1    3    3    0  502  0.43052634798E+03 -0.86481269300E+02 -0.24236126655E+03  0.50156847984E+03  0.10100000352E+00 0. -1.
</event>
<event>
 5   0  0.3626546E-03  0.8875484E+03  0.7818609E-02  0.9441282E-01
        2   -1    0    0  501    0  0.00000000000E+00  0.00000000000E+00  0.17063804362E+04  0.17063804362E+04  0.25500000920E-02 0.  1.
       -2   -1    0    0    0  501  0.00000000000E+00  0.00000000000E+00 -0.11541126172E+03  0.11541126175E+03  0.25500000920E-02 0. -1.
    10030    2    1    2    0    0  0.00000000000E+00  0.00000000000E+00  0.15909691745E+04  0.18217916979E+04  0.88754835167E+03 0.  0.
        3    1    3    3  502    0 -0.13420744347E+03 -0.33883783252E+03  0.13152160995E+04  0.13647769463E+04  0.10100000352E+00 0.  1.
       -3    1    3    3    0  502  0.13420744347E+03  0.33883783252E+03  0.27575307496E+03  0.45701475160E+03  0.10100000352E+00 0. -1.
</event>
<event>
 5   0  0.3626546E-03  0.8949166E+03  0.7818609E-02  0.9431958E-01
        2   -1    0    0  501    0  0.00000000000E+00  0.00000000000E+00  0.84355587726E+03  0.84355587726E+03  0.25500000920E-02 0.  1.
       -2   -1    0    0    0  501  0.00000000000E+00  0.00000000000E+00 -0.23735111397E+03  0.23735111398E+03  0.25500000920E-02 0. -1.
    10030    2    1    2    0    0  0.00000000000E+00  0.00000000000E+00  0.60620476329E+03  0.10809069912E+04  0.89491659315E+03 0.  0.
        3    1    3    3  502    0  0.17957055264E+03  0.40153301240E+02  0.79574455369E+03  0.81674186614E+03  0.10100000352E+00 0.  1.
       -3    1    3    3    0  502 -0.17957055264E+03 -0.40153301240E+02 -0.18953979040E+03  0.26416512510E+03  0.10100000352E+00 0. -1.
</event>
<event>
 5   0  0.2295158E-03  0.8998219E+03  0.7818609E-02  0.9425804E-01
       -1   -1    0    0    0  501  0.00000000000E+00  0.00000000000E+00  0.96461178238E+03  0.96461178239E+03  0.50400001928E-02 0.  1.
        1   -1    0    0  501    0  0.00000000000E+00  0.00000000000E+00 -0.20984594933E+03  0.20984594939E+03  0.50400001928E-02 0. -1.
    10030    2    1    2    0    0  0.00000000000E+00  0.00000000000E+00  0.75476583304E+03  0.11744577318E+04  0.89982192739E+03 0.  0.
        4    1    3    3  502    0  0.20018657956E+03 -0.35072836358E+03  0.63624027703E+03  0.75358367463E+03  0.12699999809E+01 0.  1.
       -4    1    3    3    0  502 -0.20018657956E+03  0.35072836358E+03  0.11852555602E+03  0.42087405715E+03  0.12699999809E+01 0. -1.
</event>
<event>
 5   0  0.2134145E-03  0.9022672E+03  0.7818609E-02  0.9422752E-01
       -1   -1    0    0    0  501  0.00000000000E+00  0.00000000000E+00  0.21346066014E+03  0.21346066020E+03  0.50400001928E-02 0. -1.
        1   -1    0    0  501    0  0.00000000000E+00  0.00000000000E+00 -0.95343812981E+03  0.95343812982E+03  0.50400001928E-02 0.  1.
    10030    2    1    2    0    0  0.00000000000E+00  0.00000000000E+00 -0.73997746967E+03  0.11668987900E+04  0.90226721681E+03 0.  0.
        1    1    3    3  502    0  0.41361188977E+03  0.18007221415E+03 -0.37587784111E+03  0.58718391423E+03  0.50400001928E-02 0.  1.
       -1    1    3    3    0  502 -0.41361188977E+03 -0.18007221415E+03 -0.36409962856E+03  0.57971487579E+03  0.50400001928E-02 0. -1.
</event>
<event>
 5   0  0.3685879E-03  0.9023209E+03  0.7818609E-02  0.9422685E-01
        2   -1    0    0  501    0  0.00000000000E+00  0.00000000000E+00  0.42682281743E+03  0.42682281744E+03  0.25500000920E-02 0. -1.
       -2   -1    0    0    0  501  0.00000000000E+00  0.00000000000E+00 -0.47688578148E+03  0.47688578149E+03  0.25500000920E-02 0.  1.
    10030    2    1    2    0    0  0.00000000000E+00  0.00000000000E+00 -0.50062964045E+02  0.90370859893E+03  0.90232085835E+03 0.  0.
        1    1    3    3  502    0 -0.48952820169E+02  0.94569276017E+01  0.42405519531E+03  0.42697613607E+03  0.50400001928E-02 0. -1.
       -1    1    3    3    0  502  0.48952820169E+02 -0.94569276017E+01 -0.47411815935E+03  0.47673246285E+03  0.50400001928E-02 0.  1.
</event>
<event>
 5   0  0.2295158E-03  0.8992701E+03  0.7818609E-02  0.9426494E-01
       -1   -1    0    0    0  501  0.00000000000E+00  0.00000000000E+00  0.28551894424E+03  0.28551894428E+03  0.50400001928E-02 0.  1.
        1   -1    0    0  501    0  0.00000000000E+00  0.00000000000E+00 -0.70808491729E+03  0.70808491731E+03  0.50400001928E-02 0. -1.
    10030    2    1    2    0    0  0.00000000000E+00  0.00000000000E+00 -0.42256597305E+03  0.99360386159E+03  0.89927005521E+03 0.  0.
        4    1    3    3  502    0 -0.40801385322E+03 -0.18584771070E+03 -0.24883934910E+03  0.51277413210E+03  0.12699999809E+01 0. -1.
       -4    1    3    3    0  502  0.40801385322E+03  0.18584771070E+03 -0.17372662396E+03  0.48082972949E+03  0.12699999809E+01 0.  1.
</event>
<event>
 5   0  0.3815269E-03  0.9002222E+03  0.7818609E-02  0.9425304E-01
        2   -1    0    0  501    0  0.00000000000E+00  0.00000000000E+00  0.30845114194E+03  0.30845114195E+03  0.25500000920E-02 0.  1.
       -2   -1    0    0    0  501  0.00000000000E+00  0.00000000000E+00 -0.65683012609E+03  0.65683012610E+03  0.25500000920E-02 0. -1.
    10030    2    1    2    0    0  0.00000000000E+00  0.00000000000E+00 -0.34837898415E+03  0.96528126805E+03  0.90022220026E+03 0.  0.
        5    1    3    3  502    0 -0.19187663568E+03  0.42994085261E+02 -0.60831026220E+03  0.63931885612E+03  0.46999998093E+01 0. -1.
       -5    1    3    3    0  502  0.19187663568E+03 -0.42994085261E+02  0.25993127805E+03  0.32596241193E+03  0.46999998093E+01 0.  1.
</event>
<event>
 5   0  0.2074970E-03  0.9008910E+03  0.7818609E-02  0.9424468E-01
       -1   -1    0    0    0  501  0.00000000000E+00  0.00000000000E+00  0.13629240972E+03  0.13629240981E+03  0.50400001928E-02 0.  1.
        1   -1    0    0  501    0  0.00000000000E+00  0.00000000000E+00 -0.14887192725E+04  0.14887192725E+04  0.50400001928E-02 0. -1.
    10030    2    1    2    0    0  0.00000000000E+00  0.00000000000E+00 -0.13524268628E+04  0.16250116823E+04  0.90089097483E+03 0.  0.
        2    1    3    3  502    0  0.70493987625E+02  0.42493045482E+03 -0.43851178405E+03  0.61467705218E+03  0.25500000920E-02 0.  1.
       -2    1    3    3    0  502 -0.70493987625E+02 -0.42493045482E+03 -0.91391507875E+03  0.10103346302E+04  0.25500000920E-02 0. -1.
</event>
<event>
 5   0  0.2130975E-03  0.9000380E+03  0.7818609E-02  0.9425534E-01
       -1   -1    0    0    0  501  0.00000000000E+00  0.00000000000E+00  0.91188062970E+03  0.91188062971E+03  0.50400001928E-02 0. -1.
        1   -1    0    0  501    0  0.00000000000E+00  0.00000000000E+00 -0.22208731528E+03  0.22208731533E+03  0.50400001928E-02 0.  1.
    10030    2    1    2    0    0  0.00000000000E+00  0.00000000000E+00  0.68979331442E+03  0.11339679450E+04  0.90003804573E+03 0.  0.
        5    1    3    3  502    0  0.17297115666E+03  0.54299365324E+02  0.86380201460E+03  0.88263438214E+03  0.46999998093E+01 0. -1.
       -5    1    3    3    0  502 -0.17297115666E+03 -0.54299365324E+02 -0.17400870017E+03  0.25133356291E+03  0.46999998093E+01 0.  1.
</event>
<event>
 5   0  0.2134145E-03  0.8979136E+03  0.7818609E-02  0.9428193E-01
       -1   -1    0    0    0  501  0.00000000000E+00  0.00000000000E+00  0.34300221078E+03  0.34300221081E+03  0.50400001928E-02 0.  1.
        1   -1    0    0  501    0  0.00000000000E+00  0.00000000000E+00 -0.58764119311E+03  0.58764119313E+03  0.50400001928E-02 0. -1.
    10030    2    1    2    0    0  0.00000000000E+00  0.00000000000E+00 -0.24463898234E+03  0.93064340394E+03  0.89791364486E+03 0.  0.
        1    1    3    3  502    0 -0.32171040155E+03  0.30884915096E+03 -0.17594366046E+03  0.47941793061E+03  0.50400001928E-02 0.  1.
       -1    1    3    3    0  502  0.32171040155E+03 -0.30884915096E+03 -0.68695321874E+02  0.45122547333E+03  0.50400001928E-02 0. -1.
</event>
<event>
 5   0  0.3815269E-03  0.9071956E+03  0.7818609E-02  0.9416631E-01
        2   -1    0    0  501    0  0.00000000000E+00  0.00000000000E+00  0.95457761350E+03  0.95457761350E+03  0.25500000920E-02 0. -1.
       -2   -1    0    0    0  501  0.00000000000E+00  0.00000000000E+00 -0.21554135594E+03  0.21554135596E+03  0.25500000920E-02 0.  1.
    10030    2    1    2    0    0  0.00000000000E+00  0.00000000000E+00  0.73903625756E+03  0.11701189695E+04  0.90719557578E+03 0.  0.
        5    1    3    3  502    0 -0.50177663467E+02 -0.11544892826E+03 -0.19252765334E+03  0.23007659647E+03  0.46999998093E+01 0.  1.
       -5    1    3    3    0  502  0.50177663467E+02  0.11544892826E+03  0.93156391089E+03  0.94004237299E+03  0.46999998093E+01 0. -1.
</event>
<event>
 5   0  0.2074970E-03  0.9008961E+03  0.7818609E-02  0.9424462E-01
       -1   -1    0    0    0  501  0.00000000000E+00  0.00000000000E+00  0.86967753188E+03  0.86967753189E+03  0.50400001928E-02 0.  1.
        1   -1    0    0  501    0  0.00000000000E+00  0.00000000000E+00 -0.23330882293E+03  0.23330882299E+03  0.50400001928E-02 0. -1.
    10030    2    1    2    0    0  0.00000000000E+00  0.00000000000E+00  0.63636870895E+03  0.11029863549E+04  0.90089609019E+03 0.  0.
        2    1    3    3  502    0 -0.11748077118E+03  0.40146254779E+03  0.11357415894E+03  0.43344318943E+03  0.25500000920E-02 0. -1.
       -2    1    3    3    0  502  0.11748077118E+03 -0.40146254779E+03  0.52279455001E+03  0.66954316545E+03  0.25500000920E-02 0.  1.
</event>
<event>
 5   0  0.2129280E-03  0.9012337E+03  0.7818609E-02  0.9424040E-01
        1   -1    0    0  501    0  0.00000000000E+00  0.00000000000E+00  0.80321050352E+03  0.80321050353E+03  0.50400001928E-02 0. -1.
       -1   -1    0    0    0  501  0.00000000000E+00  0.00000000000E+00 -0.25280491941E+03  0.25280491946E+03  0.50400001928E-02 0.  1.
    10030    2    1    2    0    0  0.00000000000E+00  0.00000000000E+00  0.55040558411E+03  0.10560154230E+04  0.90123374691E+03 0.  0.
        3    1    3    3  502    0  0.50012441156E+02  0.25716844884E+03  0.70480119944E+03  0.75191861014E+03  0.10100000352E+00 0. -1.
       -3    1    3    3    0  502 -0.50012441156E+02 -0.25716844884E+03 -0.15439561533E+03  0.30409681284E+03  0.10100000352E+00 0.  1.
</event>
<event>
 5   0  0.3626546E-03  0.8980582E+03  0.7818609E-02  0.9428012E-01
        2   -1    0    0  501    0  0.00000000000E+00  0.00000000000E+00  0.96638253052E+03  0.96638253052E+03  0.25500000920E-02 0. -1.
       -2   -1    0    0    0  501  0.00000000000E+00  0.00000000000E+00 -0.20864112076E+03  0.20864112078E+03  0.25500000920E-02 0.  1.
    10030    2    1    2    0    0  0.00000000000E+00  0.00000000000E+00  0.75774140976E+03  0.11750236513E+04  0.89805820360E+03 0.  0.
        3    1    3    3  502    0  0.69652811668E+01  0.11316120098E+03  0.94734683938E+03  0.95410692107E+03  0.10100000352E+00 0. -1.
       -3    1    3    3    0  502 -0.69652811668E+01 -0.11316120098E+03 -0.18960542963E+03  0.22091673023E+03  0.10100000352E+00 0.  1.
</event>
<event>
 5   0  0.3815269E-03  0.9004958E+03  0.7818609E-02  0.9424962E-01
        2   -1    0    0  501    0  0.00000000000E+00  0.00000000000E+00  0.96049072519E+03  0.96049072519E+03  0.25500000920E-02 0. -1.
       -2   -1    0    0    0  501  0.00000000000E+00  0.00000000000E+00 -0.21106208602E+03  0.21106208604E+03  0.25500000920E-02 0.  1.
    10030    2    1    2    0    0  0.00000000000E+00  0.00000000000E+00  0.74942863917E+03  0.11715528112E+04  0.90049581026E+03 0.  0.
        5    1    3    3  502    0 -0.12637395198E+03  0.27074029949E+03  0.81288660709E+03  0.86607009618E+03  0.46999998093E+01 0. -1.
       -5    1    3    3    0  502  0.12637395198E+03 -0.27074029949E+03 -0.63457967924E+02  0.30548271505E+03  0.46999998093E+01 0.  1.
</event>
<event>
 5   0  0.3685879E-03  0.9027250E+03  0.7818609E-02  0.9422181E-01
       -2   -1    0    0    0  501  0.00000000000E+00  0.00000000000E+00  0.41908171665E+03  0.41908171666E+03  0.25500000920E-02 0. -1.
        2   -1    0    0  501    0  0.00000000000E+00  0.00000000000E+00 -0.48612980157E+03  0.48612980158E+03  0.25500000920E-02 0.  1.
    10030    2    1    2    0    0  0.00000000000E+00  0.00000000000E+00 -0.67048084916E+02  0.90521151824E+03  0.90272501187E+03 0.  0.
        1    1    3    3  502    0  0.34526528005E+03 -0.23153983150E+03 -0.20981872481E+03  0.46566372468E+03  0.50400001928E-02 0.  1.
       -1    1    3    3    0  502 -0.34526528005E+03  0.23153983150E+03  0.14277063989E+03  0.43954779356E+03  0.50400001928E-02 0. -1.
</event>
<event>
 5   0  0.2295158E-03  0.9014045E+03  0.7818609E-02  0.9423827E-01
        1   -1    0    0  501    0  0.00000000000E+00  0.00000000000E+00  0.19171575429E+04  0.19171575429E+04  0.50400001928E-02 0.  1.
       -1   -1    0    0    0  501  0.00000000000E+00  0.00000000000E+00 -0.10595504276E+03  0.10595504288E+03  0.50400001928E-02 0. -1.
    10030    2    1    2    0    0  0.00000000000E+00  0.00000000000E+00  0.18112025001E+04  0.20231125857E+04  0.90140448091E+03 0.  0.
        4    1    3    3  502    0  0.41808491306E+03  0.15227175232E+03  0.74454748725E+03  0.86737203942E+03  0.12699999809E+01 0. -1.
       -4    1    3    3    0  502 -0.41808491306E+03 -0.15227175232E+03  0.10666550128E+04  0.11557405463E+04  0.12699999809E+01 0.  1.
</event>
<event>
 5   0  0.2129280E-03  0.9039726E+03  0.7818609E-02  0.9420629E-01
       -1   -1    0    0    0  501  0.00000000000E+00  0.00000000000E+00  0.35955241327E+03  0.35955241331E+03  0.50400001928E-02 0.  1.
        1   -1    0    0  501    0  0.00000000000E+00  0.00000000000E+00 -0.56818312658E+03  0.56818312661E+03  0.50400001928E-02 0. -1.
    10030    2    1    2    0    0  0.00000000000E+00  0.00000000000E+00 -0.20863071331E+03  0.92773553991E+03  0.90397259775E+03 0.  0.
        3    1    3    3  502    0 -0.39746237933E+03 -0.14436181326E+03 -0.26811969930E+03  0.50070436334E+03  0.10100000352E+00 0. -1.
       -3    1    3    3    0  502  0.39746237933E+03  0.14436181326E+03  0.59488985987E+02  0.42703117658E+03  0.10100000352E+00 0.  1.
</event>
<event>
 5   0  0.2134145E-03  0.9103705E+03  0.7818609E-02  0.9412710E-01
        1   -1    0    0  501    0  0.00000000000E+00  0.00000000000E+00  0.45540942260E+03  0.45540942263E+03  0.50400001928E-02 0. -1.
       -1   -1    0    0    0  501  0.00000000000E+00  0.00000000000E+00 -0.45496122180E+03  0.45496122182E+03  0.50400001928E-02 0.  1.
    10030    2    1    2    0    0  0.00000000000E+00  0.00000000000E+00  0.44820080321E+00  0.91037064445E+03  0.91037053412E+03 0.  0.
        1    1    3    3  502    0  0.34923540438E+03 -0.20571842433E+03  0.20736704607E+03  0.45528730446E+03  0.50400001928E-02 0. -1.
       -1    1    3    3    0  502 -0.34923540438E+03  0.20571842433E+03 -0.20691884527E+03  0.45508333999E+03  0.50400001928E-02 0.  1.
</event>
<event>
 5   0  0.3806019E-03  0.9096155E+03  0.7818609E-02  0.9413641E-01
       -2   -1    0    0    0  501  0.00000000000E+00  0.00000000000E+00  0.25160804584E+03  0.25160804585E+03  0.25500000920E-02 0. -1.
        2   -1    0    0  501    0  0.00000000000E+00  0.00000000000E+00 -0.82211244626E+03  0.82211244626E+03  0.25500000920E-02 0.  1.
    10030    2    1    2    0    0  0.00000000000E+00  0.00000000000E+00 -0.57050440042E+03  0.10737204921E+04  0.90961553653E+03 0.  0.
        2    1    3    3  502    0  0.39236502465E+02  0.29088187440E+03  0.12484236825E+03  0.31896298359E+03  0.25500000920E-02 0. -1.
       -2    1    3    3    0  502 -0.39236502465E+02 -0.29088187440E+03 -0.69534676866E+03  0.75475750853E+03  0.25500000920E-02 0.  1.
</event>
<event>
 5   0  0.2134145E-03  0.9005982E+03  0.7818609E-02  0.9424834E-01
        1   -1    0    0  501    0  0.00000000000E+00  0.00000000000E+00  0.74771917954E+03  0.74771917955E+03  0.50400001928E-02 0.  1.
       -1   -1    0    0    0  501  0.00000000000E+00  0.00000000000E+00 -0.27118372609E+03  0.27118372614E+03  0.50400001928E-02 0. -1.
    10030    2    1    2    0    0  0.00000000000E+00  0.00000000000E+00  0.47653545345E+03  0.10189029057E+04  0.90059818612E+03 0.  0.
        1    1    3    3  502    0  0.69696357605E+02  0.44453132252E+03  0.25798053427E+03  0.51867102777E+03  0.50400001928E-02 0.  1.
       -1    1    3    3    0  502 -0.69696357605E+02 -0.44453132252E+03  0.21855491918E+03  0.50023187792E+03  0.50400001928E-02 0. -1.
</event>
<event>
 5   0  0.1436000E-03  0.9015157E+03  0.7818609E-02  0.9423689E-01
       -4   -1    0    0    0  501  0.00000000000E+00  0.00000000000E+00  0.71589916927E+03  0.71590029575E+03  0.12699999809E+01 0. -1.
        4   -1    0    0  501    0  0.00000000000E+00  0.00000000000E+00 -0.28381180529E+03  0.28381464677E+03  0.12699999809E+01 0.  1.
    10030    2    1    2    0    0  0.00000000000E+00  0.00000000000E+00  0.43208736398E+03  0.99971494253E+03  0.90151565500E+03 0.  0.
        3    1    3    3  502    0  0.17151812711E+03  0.13057085267E+03  0.65503783843E+03  0.68959538533E+03  0.10100000352E+00 0. -1.
       -3    1    3    3    0  502 -0.17151812711E+03 -0.13057085267E+03 -0.22295047445E+03  0.31011955720E+03  0.10100000352E+00 0.  1.
</event>
<event>
 5   0  0.2295158E-03  0.9029197E+03  0.7818609E-02  0.9421939E-01
        1   -1    0    0  501    0  0.00000000000E+00  0.00000000000E+00  0.58177578394E+03  0.58177578396E+03  0.50400001928E-02 0. -1.
       -1   -1    0    0    0  501  0.00000000000E+00  0.00000000000E+00 -0.35033430878E+03  0.35033430881E+03  0.50400001928E-02 0.  1.
    10030    2    1    2    0    0  0.00000000000E+00  0.00000000000E+00  0.23144147516E+03  0.93211009278E+03  0.90291974651E+03 0.  0.
        4    1    3    3  502    0 -0.42163976859E+03 -0.15638413111E+03  0.74708385905E+02  0.45587174375E+03  0.12699999809E+01 0.  1.
       -4    1    3    3    0  502  0.42163976859E+03  0.15638413111E+03  0.15673308926E+03  0.47623834903E+03  0.12699999809E+01 0. -1.
</event>
<event>
 5   0  0.3626546E-03  0.8942921E+03  0.7818609E-02  0.9432745E-01
       -2   -1    0    0    0  501  0.00000000000E+00  0.00000000000E+00  0.20650316631E+03  0.20650316633E+03  0.25500000920E-02 0. -1.
        2   -1    0    0  501    0  0.00000000000E+00  0.00000000000E+00 -0.96821557035E+03  0.96821557036E+03  0.25500000920E-02 0.  1.
    10030    2    1    2    0    0  0.00000000000E+00  0.00000000000E+00 -0.76171240404E+03  0.11747187367E+04  0.89429207972E+03 0.  0.
        3    1    3    3  502    0  0.40515153446E+03 -0.15819798525E+03 -0.24456569409E+03  0.49898572860E+03  0.10100000352E+00 0. -1.
       -3    1    3    3    0  502 -0.40515153446E+03  0.15819798525E+03 -0.51714670994E+03  0.67573300809E+03  0.10100000352E+00 0.  1.
</event>
<event>
 5   0  0.3626546E-03  0.8994955E+03  0.7818609E-02  0.9426212E-01
       -2   -1    0    0    0  501  0.00000000000E+00  0.00000000000E+00  0.26742353604E+03  0.26742353605E+03  0.25500000920E-02 0. -1.
        2   -1    0    0  501    0  0.00000000000E+00  0.00000000000E+00 -0.75637701817E+03  0.75637701818E+03  0.25500000920E-02 0.  1.
    10030    2    1    2    0    0  0.00000000000E+00  0.00000000000E+00 -0.48895348213E+03  0.10238005542E+04  0.89949545144E+03 0.  0.
        3    1    3    3  502    0 -0.13510180492E+03 -0.37599729253E+03 -0.47952569061E+03  0.62415651870E+03  0.10100000352E+00 0.  1.
       -3    1    3    3    0  502  0.13510180492E+03  0.37599729253E+03 -0.94277915233E+01  0.39964403553E+03  0.10100000352E+00 0. -1.
</event>
<event>
 5   0  0.2074970E-03  0.9031281E+03  0.7818609E-02  0.9421680E-01
        1   -1    0    0  501    0  0.00000000000E+00  0.00000000000E+00  0.96141665492E+03  0.96141665493E+03  0.50400001928E-02 0.  1.
       -1   -1    0    0    0  501  0.00000000000E+00  0.00000000000E+00 -0.21209335266E+03  0.21209335272E+03  0.50400001928E-02 0. -1.
    10030    2    1    2    0    0  0.00000000000E+00  0.00000000000E+00  0.74932330226E+03  0.11735100077E+04  0.90312807882E+03 0.  0.
        2    1    3    3  502    0  0.25934322344E+02  0.41623341783E+03  0.14964966120E+03  0.44307772264E+03  0.25500000920E-02 0. -1.
       -2    1    3    3    0  502 -0.25934322344E+02 -0.41623341783E+03  0.59967364106E+03  0.73043228501E+03  0.25500000920E-02 0.  1.
</event>
<event>
 5   0  0.1436000E-03  0.9010277E+03  0.7818609E-02  0.9424298E-01
        3   -1    0    0  501    0  0.00000000000E+00  0.00000000000E+00  0.32465006142E+03  0.32465007713E+03  0.10100000352E+00 0. -1.
       -3   -1    0    0    0  501  0.00000000000E+00  0.00000000000E+00 -0.62517388403E+03  0.62517389219E+03  0.10100000352E+00 0.  1.
    10030    2    1    2    0    0  0.00000000000E+00  0.00000000000E+00 -0.30052382261E+03  0.94982396932E+03  0.90102774915E+03 0.  0.
        4    1    3    3  502    0  0.40234703084E+03  0.11099961304E+03 -0.32902482898E+03  0.53147248123E+03  0.12699999809E+01 0.  1.
       -4    1    3    3    0  502 -0.40234703084E+03 -0.11099961304E+03  0.28501006373E+02  0.41835148808E+03  0.12699999809E+01 0. -1.
</event>
<event>
 5   0  0.2130975E-03  0.9001152E+03  0.7818609E-02  0.9425437E-01
       -1   -1    0    0    0  501  0.00000000000E+00  0.00000000000E+00  0.29851158226E+03  0.29851158230E+03  0.50400001928E-02 0. -1.
        1   -1    0    0  501    0  0.00000000000E+00  0.00000000000E+00 -0.67853936534E+03  0.67853936536E+03  0.50400001928E-02 0.  1.
    10030    2    1    2    0    0  0.00000000000E+00  0.00000000000E+00 -0.38002778308E+03  0.97705094766E+03  0.90011523618E+03 0.  0.
        5    1    3    3  502    0  0.91189964399E+02  0.46320940329E+02  0.28570150113E+03  0.30349411340E+03  0.46999998093E+01 0. -1.
       -5    1    3    3    0  502 -0.91189964399E+02 -0.46320940329E+02 -0.66572928421E+03  0.67355683426E+03  0.46999998093E+01 0.  1.
</event>
<event>
 5   0  0.3815269E-03  0.8846955E+03  0.7818609E-02  0.9444918E-01
        2   -1    0    0  501    0  0.00000000000E+00  0.00000000000E+00  0.29673185733E+03  0.29673185734E+03  0.25500000920E-02 0.  1.
       -2   -1    0    0    0  501  0.00000000000E+00  0.00000000000E+00 -0.65942202058E+03  0.65942202059E+03  0.25500000920E-02 0. -1.
    10030    2    1    2    0    0  0.00000000000E+00  0.00000000000E+00 -0.36269016326E+03  0.95615387793E+03  0.88469547515E+03 0.  0.
        5    1    3    3  502    0 -0.24691720539E+03 -0.12227958091E+03 -0.55531245534E+03  0.61993097622E+03  0.46999998093E+01 0. -1.
       -5    1    3    3    0  502  0.24691720539E+03  0.12227958091E+03  0.19262229209E+03  0.33622290170E+03  0.46999998093E+01 0.  1.
</event>
<event>
 5   0  0.3685879E-03  0.8985071E+03  0.7818609E-02  0.9427450E-01
       -2   -1    0    0    0  501  0.00000000000E+00  0.00000000000E+00  0.54545815955E+03  0.54545815956E+03  0.25500000920E-02 0.  1.
        2   -1    0    0  501    0  0.00000000000E+00  0.00000000000E+00 -0.37001691832E+03  0.37001691833E+03  0.25500000920E-02 0. -1.
    10030    2    1    2    0    0  0.00000000000E+00  0.00000000000E+00  0.17544124123E+03  0.91547507789E+03  0.89850708907E+03 0.  0.
        1    1    3    3  502    0 -0.29982531644E+03 -0.52853460479E+02 -0.24888167186E+03  0.39323122368E+03  0.50400001928E-02 0. -1.
       -1    1    3    3    0  502  0.29982531644E+03  0.52853460479E+02  0.42432291309E+03  0.52224385421E+03  0.50400001928E-02 0.  1.
</event>
<event>
 5   0  0.2130975E-03  0.8982902E+03  0.7818609E-02  0.9427721E-01
       -1   -1    0    0    0  501  0.00000000000E+00  0.00000000000E+00  0.66383213516E+03  0.66383213518E+03  0.50400001928E-02 0. -1.
        1   -1    0    0  501    0  0.00000000000E+00  0.00000000000E+00 -0.30388906468E+03  0.30388906473E+03  0.50400001928E-02 0.  1.
    10030    2    1    2    0    0  0.00000000000E+00  0.00000000000E+00  0.35994307047E+03  0.96772119991E+03  0.89829021300E+03 0.  0.
        5    1    3    3  502    0  0.21368593719E+03 -0.74236368354E+02  0.59795059165E+03  0.63932755156E+03  0.46999998093E+01 0. -1.
       -5    1    3    3    0  502 -0.21368593719E+03  0.74236368354E+02 -0.23800752117E+03  0.32839364834E+03  0.46999998093E+01 0.  1.
</event>
<event>
 5   0  0.2295158E-03  0.8989683E+03  0.7818609E-02  0.9426872E-01
        1   -1    0    0  501    0  0.00000000000E+00  0.00000000000E+00  0.59214985565E+03  0.59214985568E+03  0.50400001928E-02 0. -1.
       -1   -1    0    0    0  501  0.00000000000E+00  0.00000000000E+00 -0.34119069914E+03  0.34119069917E+03  0.50400001928E-02 0.  1.
    10030    2    1    2    0    0  0.00000000000E+00  0.00000000000E+00  0.25095915652E+03  0.93334055485E+03  0.89896834932E+03 0.  0.
        4    1    3    3  502    0  0.34191121522E+03 -0.27016374696E+03  0.23988669223E+03  0.49743237457E+03  0.12699999809E+01 0. -1.
       -4    1    3    3    0  502 -0.34191121522E+03  0.27016374696E+03  0.11072464287E+02  0.43590818027E+03  0.12699999809E+01 0.  1.
</event>
<event>
 5   0  0.3663255E-03  0.9426079E+03  0.7818609E-02  0.9373833E-01
        2   -1    0    0  501    0  0.00000000000E+00  0.00000000000E+00  0.60667799475E+03  0.60667799476E+03  0.25500000920E-02 0.  1.
       -2   -1    0    0    0  501  0.00000000000E+00  0.00000000000E+00 -0.36613721896E+03  0.36613721897E+03  0.25500000920E-02 0. -1.
    10030    2    1    2    0    0  0.00000000000E+00  0.00000000000E+00  0.24054077579E+03  0.97281521373E+03  0.94260785868E+03 0.  0.
        4    1    3    3  502    0  0.23376088114E+03  0.16051980255E+03 -0.26824412416E+03  0.39034251576E+03  0.12699999809E+01 0. -1.
       -4    1    3    3    0  502 -0.23376088114E+03 -0.16051980255E+03  0.50878489995E+03  0.58247269797E+03  0.12699999809E+01 0.  1.
</event>
<event>
 5   0  0.3626546E-03  0.8984811E+03  0.7818609E-02  0.9427482E-01
        2   -1    0    0  501    0  0.00000000000E+00  0.00000000000E+00  0.10679449566E+04  0.10679449566E+04  0.25500000920E-02 0.  1.
       -2   -1    0    0    0  501  0.00000000000E+00  0.00000000000E+00 -0.18897703934E+03  0.18897703936E+03  0.25500000920E-02 0. -1.
    10030    2    1    2    0    0  0.00000000000E+00  0.00000000000E+00  0.87896791722E+03  0.12569219959E+04  0.89848110961E+03 0.  0.
        3    1    3    3  502    0  0.39090874494E+03 -0.24024660544E+02  0.74734707597E+03  0.84375025532E+03  0.10100000352E+00 0.  1.
       -3    1    3    3    0  502 -0.39090874494E+03  0.24024660544E+02  0.13162084125E+03  0.41317174060E+03  0.10100000352E+00 0. -1.
</event>
<event>
 5   0  0.3815269E-03  0.8846212E+03  0.7818609E-02  0.9445013E-01
       -2   -1    0    0    0  501  0.00000000000E+00  0.00000000000E+00  0.55659740742E+03  0.55659740743E+03  0.25500000920E-02 0.  1.
        2   -1    0    0  501    0  0.00000000000E+00  0.00000000000E+00 -0.35149040209E+03  0.35149040210E+03  0.25500000920E-02 0. -1.
    10030    2    1    2    0    0  0.00000000000E+00  0.00000000000E+00  0.20510700533E+03  0.90808780953E+03  0.88462115404E+03 0.  0.
        5    1    3    3  502    0  0.30500283673E+03  0.17890376225E+03  0.37527628087E+03  0.51564296131E+03  0.46999998093E+01 0.  1.
       -5    1    3    3    0  502 -0.30500283673E+03 -0.17890376225E+03 -0.17016927554E+03  0.39244484822E+03  0.46999998093E+01 0. -1.
</event>
<event>
 5   0  0.3815269E-03  0.8986879E+03  0.7818609E-02  0.9427223E-01
       -2   -1    0    0    0  501  0.00000000000E+00  0.00000000000E+00  0.17652468687E+03  0.17652468688E+03  0.25500000920E-02 0. -1.
        2   -1    0    0  501    0  0.00000000000E+00  0.00000000000E+00 -0.11438058377E+04  0.11438058377E+04  0.25500000920E-02 0.  1.
    10030    2    1    2    0    0  0.00000000000E+00  0.00000000000E+00 -0.96728115084E+03  0.13203305246E+04  0.89868785983E+03 0.  0.
        5    1    3    3  502    0  0.27545048609E+03  0.27665325956E+03 -0.81043853397E+03  0.89957918142E+03  0.46999998093E+01 0.  1.
       -5    1    3    3    0  502 -0.27545048609E+03 -0.27665325956E+03 -0.15684261687E+03  0.42075134317E+03  0.46999998093E+01 0. -1.
</event>
<event>
 5   0  0.3815269E-03  0.9028455E+03  0.7818609E-02  0.9422031E-01
        2   -1    0    0  501    0  0.00000000000E+00  0.00000000000E+00  0.32394229204E+03  0.32394229205E+03  0.25500000920E-02 0. -1.
       -2   -1    0    0    0  501  0.00000000000E+00  0.00000000000E+00 -0.62907041607E+03  0.62907041607E+03  0.25500000920E-02 0.  1.
    10030    2    1    2    0    0  0.00000000000E+00  0.00000000000E+00 -0.30512812402E+03  0.95301270813E+03  0.90284552930E+03 0.  0.
        5    1    3    3  502    0  0.18161964265E+03  0.39231422598E+03 -0.15485642048E+02  0.43261766216E+03  0.46999998093E+01 0. -1.
       -5    1    3    3    0  502 -0.18161964265E+03 -0.39231422598E+03 -0.28964248198E+03  0.52039504597E+03  0.46999998093E+01 0.  1.
</event>
<event>
 5   0  0.2130975E-03  0.9000594E+03  0.7818609E-02  0.9425507E-01
       -1   -1    0    0    0  501  0.00000000000E+00  0.00000000000E+00  0.17776702956E+03  0.17776702963E+03  0.50400001928E-02 0.  1.
        1   -1    0    0  501    0  0.00000000000E+00  0.00000000000E+00 -0.11392817598E+04  0.11392817598E+04  0.50400001928E-02 0. -1.
    10030    2    1    2    0    0  0.00000000000E+00  0.00000000000E+00 -0.96151473019E+03  0.13170487894E+04  0.90005940764E+03 0.  0.
        5    1    3    3  502    0  0.43363574023E+03  0.75175176135E+02 -0.34338417450E+03  0.55823475672E+03  0.46999998093E+01 0.  1.
       -5    1    3    3    0  502 -0.43363574023E+03 -0.75175176135E+02 -0.61813055569E+03  0.75881403268E+03  0.46999998093E+01 0. -1.
</event>
<event>
 5   0  0.3685879E-03  0.8922920E+03  0.7818609E-02  0.9435268E-01
        2   -1    0    0  501    0  0.00000000000E+00  0.00000000000E+00  0.69046993597E+03  0.69046993598E+03  0.25500000920E-02 0. -1.
       -2   -1    0    0    0  501  0.00000000000E+00  0.00000000000E+00 -0.28827649271E+03  0.28827649272E+03  0.25500000920E-02 0.  1.
    10030    2    1    2    0    0  0.00000000000E+00  0.00000000000E+00  0.40219344326E+03  0.97874642870E+03  0.89229199587E+03 0.  0.
        1    1    3    3  502    0 -0.38702313997E+03  0.46383203286E+01 -0.42298826382E+02  0.38935538475E+03  0.50400001928E-02 0.  1.
       -1    1    3    3    0  502  0.38702313997E+03 -0.46383203286E+01  0.44449226965E+03  0.58939104395E+03  0.50400001928E-02 0. -1.
</event>
<event>
 5   0  0.2074970E-03  0.8981354E+03  0.7818609E-02  0.9427915E-01
       -1   -1    0    0    0  501  0.00000000000E+00  0.00000000000E+00  0.12056237032E+03  0.12056237043E+03  0.50400001928E-02 0.  1.
        1   -1    0    0  501    0  0.00000000000E+00  0.00000000000E+00 -0.16726761161E+04  0.16726761161E+04  0.50400001928E-02 0. -1.
    10030    2    1    2    0    0  0.00000000000E+00  0.00000000000E+00 -0.15521137458E+04  0.17932384865E+04  0.89813539610E+03 0.  0.
        2    1    3    3  502    0  0.26909946931E+03 -0.35757388809E+03 -0.70166588621E+03  0.83223111316E+03  0.25500000920E-02 0.  1.
       -2    1    3    3    0  502 -0.26909946931E+03  0.35757388809E+03 -0.85044785955E+03  0.96100737336E+03  0.25500000920E-02 0. -1.
</event>
<event>
 5   0  0.2074970E-03  0.9037178E+03  0.7818609E-02  0.9420946E-01
        1   -1    0    0  501    0  0.00000000000E+00  0.00000000000E+00  0.36805837774E+03  0.36805837777E+03  0.50400001928E-02 0. -1.
       -1   -1    0    0    0  501  0.00000000000E+00  0.00000000000E+00 -0.55473935246E+03  0.55473935249E+03  0.50400001928E-02 0.  1.
    10030    2    1    2    0    0  0.00000000000E+00  0.00000000000E+00 -0.18668097473E+03  0.92279773026E+03  0.90371780144E+03 0.  0.
        2    1    3    3  502    0  0.19908330727E+02  0.43445394841E+03  0.31844312524E+02  0.43607411660E+03  0.25500000920E-02 0. -1.
       -2    1    3    3    0  502 -0.19908330727E+02 -0.43445394841E+03 -0.21852528725E+03  0.48672361366E+03  0.25500000920E-02 0.  1.
</event>
<event>
 5   0  0.2129280E-03  0.9051367E+03  0.7818609E-02  0.9419183E-01
       -1   -1    0    0    0  501  0.00000000000E+00  0.00000000000E+00  0.18320111345E+03  0.18320111351E+03  0.50400001928E-02 0. -1.
        1   -1    0    0  501    0  0.00000000000E+00  0.00000000000E+00 -0.11179959219E+04  0.11179959219E+04  0.50400001928E-02 0.  1.
    10030    2    1    2    0    0  0.00000000000E+00  0.00000000000E+00 -0.93479480848E+03  0.13011970355E+04  0.90513666985E+03 0.  0.
        3    1    3    3  502    0  0.14361021336E+03  0.42882231456E+03 -0.44226595857E+03  0.63254380018E+03  0.10100000352E+00 0. -1.
       -3    1    3    3    0  502 -0.14361021336E+03 -0.42882231456E+03 -0.49252884992E+03  0.66865323527E+03  0.10100000352E+00 0.  1.
</event>
<event>
 5   0  0.3685879E-03  0.8966879E+03  0.7818609E-02  0.9429731E-01
        2   -1    0    0  501    0  0.00000000000E+00  0.00000000000E+00  0.20792729459E+04  0.20792729459E+04  0.25500000920E-02 0.  1.
       -2   -1    0    0    0  501  0.00000000000E+00  0.00000000000E+00 -0.96674318023E+02  0.96674318056E+02  0.25500000920E-02 0. -1.
    10030    2    1    2    0    0  0.00000000000E+00  0.00000000000E+00  0.19825986279E+04  0.21759472640E+04  0.89668789235E+03 0.  0.
        1    1    3    3  502    0  0.28797398454E+02  0.27862594020E+03  0.18408020110E+04  0.18619918765E+04  0.50400001928E-02 0.  1.
       -1    1    3    3    0  502 -0.28797398454E+02 -0.27862594020E+03  0.14179661696E+03  0.31395538747E+03  0.50400001928E-02 0. -1.
</event>
<event>
 5   0  0.2295158E-03  0.8997515E+03  0.7818609E-02  0.9425892E-01
        1   -1    0    0  501    0  0.00000000000E+00  0.00000000000E+00  0.10836078447E+04  0.10836078447E+04  0.50400001928E-02 0.  1.
       -1   -1    0    0    0  501  0.00000000000E+00  0.00000000000E+00 -0.18677253828E+03  0.18677253835E+03  0.50400001928E-02 0. -1.
    10030    2    1    2    0    0  0.00000000000E+00  0.00000000000E+00  0.89683530637E+03  0.12703803830E+04  0.89975149391E+03 0.  0.
        4    1    3    3  502    0 -0.14757999682E+03  0.22649230083E+03  0.95613713426E+03  0.99361886567E+03  0.12699999809E+01 0.  1.
       -4    1    3    3    0  502  0.14757999682E+03 -0.22649230083E+03 -0.59301827886E+02  0.27676151735E+03  0.12699999809E+01 0. -1.
</event>
<event>
 5   0  0.2295158E-03  0.9011896E+03  0.7818609E-02  0.9424096E-01
       -1   -1    0    0    0  501  0.00000000000E+00  0.00000000000E+00  0.13780654705E+03  0.13780654714E+03  0.50400001928E-02 0.  1.
        1   -1    0    0  501    0  0.00000000000E+00  0.00000000000E+00 -0.14733382785E+04  0.14733382785E+04  0.50400001928E-02 0. -1.
    10030    2    1    2    0    0  0.00000000000E+00  0.00000000000E+00 -0.13355317315E+04  0.16111448256E+04  0.90118957134E+03 0.  0.
        4    1    3    3  502    0 -0.12677612312E+03  0.38543165509E+02 -0.14377160373E+04  0.14438098136E+04  0.12699999809E+01 0. -1.
       -4    1    3    3    0  502  0.12677612312E+03 -0.38543165509E+02  0.10218430585E+03  0.16733501206E+03  0.12699999809E+01 0.  1.
</event>
<event>
 5   0  0.2130975E-03  0.8979408E+03  0.7818609E-02  0.9428159E-01
        1   -1    0    0  501    0  0.00000000000E+00  0.00000000000E+00  0.45615703593E+03  0.45615703596E+03  0.50400001928E-02 0. -1.
       -1   -1    0    0    0  501  0.00000000000E+00  0.00000000000E+00 -0.44189701557E+03  0.44189701560E+03  0.50400001928E-02 0.  1.
    10030    2    1    2    0    0  0.00000000000E+00  0.00000000000E+00  0.14260020366E+02  0.89805405156E+03  0.89794082842E+03 0.  0.
        5    1    3    3  502    0 -0.11544790337E+03 -0.41632500165E+03  0.12920119689E+03  0.45096536970E+03  0.46999998093E+01 0. -1.
       -5    1    3    3    0  502  0.11544790337E+03  0.41632500165E+03 -0.11494117652E+03  0.44708868186E+03  0.46999998093E+01 0.  1.
</event>
<event>
 5   0  0.3806019E-03  0.9001508E+03  0.7818609E-02  0.9425393E-01
       -2   -1    0    0    0  501  0.00000000000E+00  0.00000000000E+00  0.10285087090E+03  0.10285087093E+03  0.25500000920E-02 0.  1.
        2   -1    0    0  501    0  0.00000000000E+00  0.00000000000E+00 -0.19695300410E+04  0.19695300410E+04  0.25500000920E-02 0. -1.
    10030    2    1    2    0    0  0.00000000000E+00  0.00000000000E+00 -0.18666791701E+04  0.20723809119E+04  0.90015083183E+03 0.  0.
        2    1    3    3  502    0 -0.53002450817E+02  0.22871089048E+03 -0.18173891389E+04  0.18324904402E+04  0.25500000920E-02 0. -1.
       -2    1    3    3    0  502  0.53002450817E+02 -0.22871089048E+03 -0.49290031115E+02  0.23989047165E+03  0.25500000920E-02 0.  1.
</event>
<event>
 5   0  0.3663255E-03  0.9051423E+03  0.7818609E-02  0.9419176E-01
       -2   -1    0    0    0  501  0.00000000000E+00  0.00000000000E+00  0.15508337505E+03  0.15508337507E+03  0.25500000920E-02 0.  1.
        2   -1    0    0  501    0  0.00000000000E+00  0.00000000000E+00 -0.13207130877E+04  0.13207130877E+04  0.25500000920E-02 0. -1.
    10030    2    1    2    0    0  0.00000000000E+00  0.00000000000E+00 -0.11656297127E+04  0.14757964628E+04  0.90514229408E+03 0.  0.
        4    1    3    3  502    0  0.42532006848E+03 -0.13001838964E+03 -0.71939515751E+03  0.84577357954E+03  0.12699999809E+01 0. -1.
       -4    1    3    3    0  502 -0.42532006848E+03  0.13001838964E+03 -0.44623455515E+03  0.63002288324E+03  0.12699999809E+01 0.  1.
</event>
<event>
 5   0  0.3815269E-03  0.8963492E+03  0.7818609E-02  0.9430157E-01
       -2   -1    0    0    0  501  0.00000000000E+00  0.00000000000E+00  0.21904491013E+03  0.21904491015E+03  0.25500000920E-02 0. -1.
        2   -1    0    0  501    0  0.00000000000E+00  0.00000000000E+00 -0.91698308141E+03  0.91698308141E+03  0.25500000920E-02 0.  1.
    10030    2    1    2    0    0  0.00000000000E+00  0.00000000000E+00 -0.69793817127E+03  0.11360279916E+04  0.89634921023E+03 0.  0.
        5    1    3    3  502    0 -0.27081489009E+03  0.35692653496E+03 -0.36171447527E+03  0.57584434327E+03  0.46999998093E+01 0. -1.
       -5    1    3    3    0  502  0.27081489009E+03 -0.35692653496E+03 -0.33622369600E+03  0.56018364829E+03  0.46999998093E+01 0.  1.
</event>
<event>
 5   0  0.3626546E-03  0.9000182E+03  0.7818609E-02  0.9425559E-01
        2   -1    0    0  501    0  0.00000000000E+00  0.00000000000E+00  0.22386098100E+04  0.22386098100E+04  0.25500000920E-02 0. -1.
       -2   -1    0    0    0  501  0.00000000000E+00  0.00000000000E+00 -0.90461582520E+02  0.90461582556E+02  0.25500000920E-02 0.  1.
    10030    2    1    2    0    0  0.00000000000E+00  0.00000000000E+00  0.21481482275E+04  0.23290713926E+04  0.90001819115E+03 0.  0.
        3    1    3    3  502    0 -0.34637598233E+03  0.22574032035E+03  0.15338969715E+04  0.15886393369E+04  0.10100000352E+00 0. -1.
       -3    1    3    3    0  502  0.34637598233E+03 -0.22574032035E+03  0.61425125595E+03  0.74043205563E+03  0.10100000352E+00 0.  1.
</event>
<event>
 5   0  0.3815269E-03  0.9001988E+03  0.7818609E-02  0.9425333E-01
        2   -1    0    0  501    0  0.00000000000E+00  0.00000000000E+00  0.22306790664E+03  0.22306790665E+03  0.25500000920E-02 0. -1.
       -2   -1    0    0    0  501  0.00000000000E+00  0.00000000000E+00 -0.90819639090E+03  0.90819639090E+03  0.25500000920E-02 0.  1.
    10030    2    1    2    0    0  0.00000000000E+00  0.00000000000E+00 -0.68512848426E+03  0.11312642976E+04  0.90019879525E+03 0.  0.
        5    1    3    3  502    0 -0.42671829181E+03  0.88926227148E+02 -0.48346412236E+03  0.65096545381E+03  0.46999998093E+01 0. -1.
       -5    1    3    3    0  502  0.42671829181E+03 -0.88926227148E+02 -0.20166436190E+03  0.48029884374E+03  0.46999998093E+01 0.  1.
</event>
<event>
 5   0  0.3806019E-03  0.9020561E+03  0.7818609E-02  0.9423015E-01
       -2   -1    0    0    0  501  0.00000000000E+00  0.00000000000E+00  0.21220808765E+03  0.21220808767E+03  0.25500000920E-02 0.  1.
        2   -1    0    0  501    0  0.00000000000E+00  0.00000000000E+00 -0.95861713757E+03  0.95861713758E+03  0.25500000920E-02 0. -1.
    10030    2    1    2    0    0  0.00000000000E+00  0.00000000000E+00 -0.74640904992E+03  0.11708252252E+04  0.90205611702E+03 0.  0.
        2    1    3    3  502    0 -0.17831463744E+02 -0.17957700723E+02 -0.95769489385E+03  0.95802920093E+03  0.25500000920E-02 0. -1.
       -2    1    3    3    0  502  0.17831463744E+02  0.17957700723E+02  0.21128584393E+03  0.21279602432E+03  0.25500000920E-02 0.  1.
</event>
<event>
 5   0  0.2134145E-03  0.8431555E+03  0.7818609E-02  0.9499570E-01
       -1   -1    0    0    0  501  0.00000000000E+00  0.00000000000E+00  0.33767683307E+03  0.33767683311E+03  0.50400001928E-02 0.  1.
        1   -1    0    0  501    0  0.00000000000E+00  0.00000000000E+00 -0.52632511906E+03  0.52632511909E+03  0.50400001928E-02 0. -1.
    10030    2    1    2    0    0  0.00000000000E+00  0.00000000000E+00 -0.18864828599E+03  0.86400195219E+03  0.84315550024E+03 0.  0.
        1    1    3    3  502    0 -0.39992353729E+03 -0.21168695217E+02 -0.22926461892E+03  0.46146420755E+03  0.50400001928E-02 0. -1.
       -1    1    3    3    0  502  0.39992353729E+03  0.21168695217E+02  0.40616332930E+02  0.40253774464E+03  0.50400001928E-02 0.  1.
</event>
<event>
 5   0  0.2295158E-03  0.9010094E+03  0.7818609E-02  0.9424321E-01
        1   -1    0    0  501    0  0.00000000000E+00  0.00000000000E+00  0.12216121889E+04  0.12216121889E+04  0.50400001928E-02 0. -1.
       -1   -1    0    0    0  501  0.00000000000E+00  0.00000000000E+00 -0.16613658824E+03  0.16613658832E+03  0.50400001928E-02 0.  1.
    10030    2    1    2    0    0  0.00000000000E+00  0.00000000000E+00  0.10554756006E+04  0.13877487772E+04  0.90100939235E+03 0.  0.
        4    1    3    3  502    0  0.12239961517E+03  0.33762983523E+03  0.10881811905E+03  0.37525800106E+03  0.12699999809E+01 0.  1.
       -4    1    3    3    0  502 -0.12239961517E+03 -0.33762983523E+03  0.94665748158E+03  0.10124907761E+04  0.12699999809E+01 0. -1.
</event>
<event>
 5   0  0.3663255E-03  0.8952937E+03  0.7818609E-02  0.9431484E-01
        2   -1    0    0  501    0  0.00000000000E+00  0.00000000000E+00  0.13120020671E+04  0.13120020671E+04  0.25500000920E-02 0. -1.
       -2   -1    0    0    0  501  0.00000000000E+00  0.00000000000E+00 -0.15273429415E+03  0.15273429417E+03  0.25500000920E-02 0.  1.
    10030    2    1    2    0    0  0.00000000000E+00  0.00000000000E+00  0.11592677730E+04  0.14647363613E+04  0.89529371643E+03 0.  0.
        4    1    3    3  502    0 -0.22982294068E+03  0.66180052488E+02  0.11987139283E+04  0.12223400010E+04  0.12699999809E+01 0. -1.
       -4    1    3    3    0  502  0.22982294068E+03 -0.66180052488E+02 -0.39446155281E+02  0.24239636028E+03  0.12699999809E+01 0.  1.
</event>
<event>
 5   0  0.3663255E-03  0.8963641E+03  0.7818609E-02  0.9430138E-01
       -2   -1    0    0    0  501  0.00000000000E+00  0.00000000000E+00  0.24552078687E+03  0.24552078689E+03  0.25500000920E-02 0.  1.
        2   -1    0    0  501    0  0.00000000000E+00  0.00000000000E+00 -0.81812693671E+03  0.81812693672E+03  0.25500000920E-02 0. -1.
    10030    2    1    2    0    0  0.00000000000E+00  0.00000000000E+00 -0.57260614984E+03  0.10636477236E+04  0.89636414313E+03 0.  0.
        4    1    3    3  502    0  0.14630216758E+02  0.43388724077E+03 -0.15420145521E+03  0.46070802319E+03  0.12699999809E+01 0.  1.
       -4    1    3    3    0  502 -0.14630216758E+02 -0.43388724077E+03 -0.41840469463E+03  0.60293970041E+03  0.12699999809E+01 0. -1.
</event>
<event>
 5   0  0.2074970E-03  0.8963441E+03  0.7818609E-02  0.9430163E-01
        1   -1    0    0  501    0  0.00000000000E+00  0.00000000000E+00  0.22790321823E+04  0.22790321823E+04  0.50400001928E-02 0. -1.
       -1   -1    0    0    0  501  0.00000000000E+00  0.00000000000E+00 -0.88133114737E+02  0.88133114881E+02  0.50400001928E-02 0.  1.
    10030    2    1    2    0    0  0.00000000000E+00  0.00000000000E+00  0.21908990676E+04  0.23671652972E+04  0.89634414147E+03 0.  0.
        2    1    3    3  502    0 -0.25053103422E+03 -0.16150622097E+03  0.21159945211E+03  0.36554669559E+03  0.25500000920E-02 0.  1.
       -2    1    3    3    0  502  0.25053103422E+03  0.16150622097E+03  0.19792996154E+04  0.20016186016E+04  0.25500000920E-02 0. -1.
</event>
<event>
 5   0  0.2074970E-03  0.9082962E+03  0.7818609E-02  0.9415270E-01
       -1   -1    0    0    0  501  0.00000000000E+00  0.00000000000E+00  0.14195034915E+03  0.14195034924E+03  0.50400001928E-02 0. -1.
        1   -1    0    0  501    0  0.00000000000E+00  0.00000000000E+00 -0.14529764128E+04  0.14529764128E+04  0.50400001928E-02 0.  1.
    10030    2    1    2    0    0  0.00000000000E+00  0.00000000000E+00 -0.13110260636E+04  0.15949267620E+04  0.90829622741E+03 0.  0.
        2    1    3    3  502    0  0.33391810582E+03  0.22000368250E+03 -0.27748256607E+03  0.48672322339E+03  0.25500000920E-02 0. -1.
       -2    1    3    3    0  502 -0.33391810582E+03 -0.22000368250E+03 -0.10335434975E+04  0.11082035386E+04  0.25500000920E-02 0.  1.
</event>
<event>
 5   0  0.3806019E-03  0.8977233E+03  0.7818609E-02  0.9428432E-01
        2   -1    0    0  501    0  0.00000000000E+00  0.00000000000E+00  0.77379208615E+03  0.77379208615E+03  0.25500000920E-02 0. -1.
       -2   -1    0    0    0  501  0.00000000000E+00  0.00000000000E+00 -0.26037585990E+03  0.26037585991E+03  0.25500000920E-02 0.  1.
    10030    2    1    2    0    0  0.00000000000E+00  0.00000000000E+00  0.51341622625E+03  0.10341679461E+04  0.89772329774E+03 0.  0.
        2    1    3    3  502    0 -0.36994123256E+03 -0.16757850005E+03  0.36507135728E+02  0.40776444204E+03  0.25500000920E-02 0. -1.
       -2    1    3    3    0  502  0.36994123256E+03  0.16757850005E+03  0.47690909052E+03  0.62640350402E+03  0.25500000920E-02 0.  1.
</event>
<event>
 5   0  0.3626546E-03  0.8913596E+03  0.7818609E-02  0.9436447E-01
        2   -1    0    0  501    0  0.00000000000E+00  0.00000000000E+00  0.34006159628E+03  0.34006159629E+03  0.25500000920E-02 0. -1.
       -2   -1    0    0    0  501  0.00000000000E+00  0.00000000000E+00 -0.58410147412E+03  0.58410147413E+03  0.25500000920E-02 0.  1.
    10030    2    1    2    0    0  0.00000000000E+00  0.00000000000E+00 -0.24403987784E+03  0.92416307041E+03  0.89135959003E+03 0.  0.
        3    1    3    3  502    0  0.26174791828E+03 -0.10697080202E+03  0.23515144026E+03  0.36776478253E+03  0.10100000352E+00 0. -1.
       -3    1    3    3    0  502 -0.26174791828E+03  0.10697080202E+03 -0.47919131811E+03  0.55639828788E+03  0.10100000352E+00 0.  1.
</event>
<event>
 5   0  0.1436000E-03  0.8915043E+03  0.7818609E-02  0.9436264E-01
        3   -1    0    0  501    0  0.00000000000E+00  0.00000000000E+00  0.13312262537E+03  0.13312266369E+03  0.10100000352E+00 0. -1.
       -3   -1    0    0    0  501  0.00000000000E+00  0.00000000000E+00 -0.14925706814E+04  0.14925706848E+04  0.10100000352E+00 0.  1.
    10030    2    1    2    0    0  0.00000000000E+00  0.00000000000E+00 -0.13594480560E+04  0.16256933485E+04  0.89150426040E+03 0.  0.
        3    1    3    3  502    0 -0.44083749527E+03 -0.52622122735E+02 -0.60705268280E+03  0.75207696078E+03  0.10100000352E+00 0.  1.
       -3    1    3    3    0  502  0.44083749527E+03  0.52622122735E+02 -0.75239537321E+03  0.87361638770E+03  0.10100000352E+00 0. -1.
</event>
<event>
 5   0  0.3806019E-03  0.9057391E+03  0.7818609E-02  0.9418436E-01
        2   -1    0    0  501    0  0.00000000000E+00  0.00000000000E+00  0.60771326524E+03  0.60771326524E+03  0.25500000920E-02 0. -1.
       -2   -1    0    0    0  501  0.00000000000E+00  0.00000000000E+00 -0.33747959772E+03  0.33747959773E+03  0.25500000920E-02 0.  1.
    10030    2    1    2    0    0  0.00000000000E+00  0.00000000000E+00  0.27023366752E+03  0.94519286297E+03  0.90573909773E+03 0.  0.
        2    1    3    3  502    0 -0.17035351840E+03 -0.31525305930E+03 -0.15386823576E+03  0.38997467432E+03  0.25500000920E-02 0.  1.
       -2    1    3    3    0  502  0.17035351840E+03  0.31525305930E+03  0.42410190328E+03  0.55521818865E+03  0.25500000920E-02 0. -1.
</event>
<event>
 5   0  0.3685879E-03  0.9041524E+03  0.7818609E-02  0.9420406E-01
        2   -1    0    0  501    0  0.00000000000E+00  0.00000000000E+00  0.49235950943E+03  0.49235950944E+03  0.25500000920E-02 0.  1.
       -2   -1    0    0    0  501  0.00000000000E+00  0.00000000000E+00 -0.41508875946E+03  0.41508875946E+03  0.25500000920E-02 0. -1.
    10030    2    1    2    0    0  0.00000000000E+00  0.00000000000E+00  0.77270749975E+02  0.90744826890E+03  0.90415241631E+03 0.  0.
        1    1    3    3  502    0  0.74696292042E+02 -0.27860405315E+03  0.38800361051E+03  0.48347342871E+03  0.50400001928E-02 0.  1.
       -1    1    3    3    0  502 -0.74696292042E+02  0.27860405315E+03 -0.31073286053E+03  0.42397484019E+03  0.50400001928E-02 0. -1.
</event>
<event>
 5   0  0.2129280E-03  0.9052482E+03  0.7818609E-02  0.9419045E-01
       -1   -1    0    0    0  501  0.00000000000E+00  0.00000000000E+00  0.69839238223E+03  0.69839238225E+03  0.50400001928E-02 0.  1.
        1   -1    0    0  501    0  0.00000000000E+00  0.00000000000E+00 -0.29334308646E+03  0.29334308650E+03  0.50400001928E-02 0. -1.
    10030    2    1    2    0    0  0.00000000000E+00  0.00000000000E+00  0.40504929577E+03  0.99173546875E+03  0.90524820242E+03 0.  0.
        3    1    3    3  502    0 -0.14612353168E+02 -0.20718369287E+03 -0.23805397256E+03  0.31592452818E+03  0.10100000352E+00 0. -1.
       -3    1    3    3    0  502  0.14612353168E+02  0.20718369287E+03  0.64310326833E+03  0.67581094057E+03  0.10100000352E+00 0.  1.
</event>
<event>
 5   0  0.3815269E-03  0.8921227E+03  0.7818609E-02  0.9435482E-01
        2   -1    0    0  501    0  0.00000000000E+00  0.00000000000E+00  0.87879230477E+03  0.87879230477E+03  0.25500000920E-02 0.  1.
       -2   -1    0    0    0  501  0.00000000000E+00  0.00000000000E+00 -0.22641383809E+03  0.22641383810E+03  0.25500000920E-02 0. -1.
    10030    2    1    2    0    0  0.00000000000E+00  0.00000000000E+00  0.65237846668E+03  0.11052061429E+04  0.89212272388E+03 0.  0.
        5    1    3    3  502    0  0.15973505184E+03  0.14285158636E+03 -0.15843197598E+03  0.26654201080E+03  0.46999998093E+01 0. -1.
       -5    1    3    3    0  502 -0.15973505184E+03 -0.14285158636E+03  0.81081044266E+03  0.83866413208E+03  0.46999998093E+01 0.  1.
</event>
<event>
 5   0  0.3663255E-03  0.8987173E+03  0.7818609E-02  0.9427186E-01
        2   -1    0    0  501    0  0.00000000000E+00  0.00000000000E+00  0.13815846982E+04  0.13815846982E+04  0.25500000920E-02 0.  1.
       -2   -1    0    0    0  501  0.00000000000E+00  0.00000000000E+00 -0.14615333090E+03  0.14615333092E+03  0.25500000920E-02 0. -1.
    10030    2    1    2    0    0  0.00000000000E+00  0.00000000000E+00  0.12354313673E+04  0.15277380291E+04  0.89871732058E+03 0.  0.
        4    1    3    3  502    0 -0.43439303809E+03  0.11139946263E+03  0.66622839587E+03  0.80309964523E+03  0.12699999809E+01 0.  1.
       -4    1    3    3    0  502  0.43439303809E+03 -0.11139946263E+03  0.56920297142E+03  0.72463838387E+03  0.12699999809E+01 0. -1.
</event>
<event>
 5   0  0.3806019E-03  0.9097001E+03  0.7818609E-02  0.9413536E-01
        2   -1    0    0  501    0  0.00000000000E+00  0.00000000000E+00  0.41061369833E+03  0.41061369834E+03  0.25500000920E-02 0.  1.
       -2   -1    0    0    0  501  0.00000000000E+00  0.00000000000E+00 -0.50385205861E+03  0.50385205862E+03  0.25500000920E-02 0. -1.
    10030    2    1    2    0    0  0.00000000000E+00  0.00000000000E+00 -0.93238360285E+02  0.91446575696E+03  0.90970007630E+03 0.  0.
        2    1    3    3  502    0 -0.34819148918E+03 -0.27452070287E+03 -0.14858838865E+03  0.46762959561E+03  0.25500000920E-02 0. -1.
       -2    1    3    3    0  502  0.34819148918E+03  0.27452070287E+03  0.55350028365E+02  0.44683616135E+03  0.25500000920E-02 0.  1.
</event>
<event>
 5   0  0.2129280E-03  0.8977029E+03  0.7818609E-02  0.9428457E-01
       -1   -1    0    0    0  501  0.00000000000E+00  0.00000000000E+00  0.35967981744E+03  0.35967981748E+03  0.50400001928E-02 0. -1.
        1   -1    0    0  501    0  0.00000000000E+00  0.00000000000E+00 -0.56013049771E+03  0.56013049773E+03  0.50400001928E-02 0.  1.
    10030    2    1    2    0    0  0.00000000000E+00  0.00000000000E+00 -0.20045068027E+03  0.91981031521E+03  0.89770292455E+03 0.  0.
        3    1    3    3  502    0 -0.18171262271E+03 -0.34276790306E+03 -0.33152401993E+03  0.51031117822E+03  0.10100000352E+00 0.  1.
       -3    1    3    3    0  502  0.18171262271E+03  0.34276790306E+03  0.13107333967E+03  0.40949913699E+03  0.10100000352E+00 0. -1.
</event>
<event>
 5   0  0.2130975E-03  0.8969788E+03  0.7818609E-02  0.9429366E-01
        1   -1    0    0  501    0  0.00000000000E+00  0.00000000000E+00  0.41117839858E+03  0.41117839862E+03  0.50400001928E-02 0. -1.
       -1   -1    0    0    0  501  0.00000000000E+00  0.00000000000E+00 -0.48918606636E+03  0.48918606638E+03  0.50400001928E-02 0.  1.
    10030    2    1    2    0    0  0.00000000000E+00  0.00000000000E+00 -0.78007667773E+02  0.90036446500E+03  0.89697880332E+03 0.  0.
        5    1    3    3  502    0  0.32317587159E+03 -0.30877256609E+03 -0.75713884708E+02  0.45336279499E+03  0.46999998093E+01 0.  1.
       -5    1    3    3    0  502 -0.32317587159E+03  0.30877256609E+03 -0.22937830648E+01  0.44700167001E+03  0.46999998093E+01 0. -1.
</event>
<event>
 5   0  0.3685879E-03  0.9000798E+03  0.7818609E-02  0.9425482E-01
        2   -1    0    0  501    0  0.00000000000E+00  0.00000000000E+00  0.50513661999E+03  0.50513662000E+03  0.25500000920E-02 0.  1.
       -2   -1    0    0    0  501  0.00000000000E+00  0.00000000000E+00 -0.40095270774E+03  0.40095270774E+03  0.25500000920E-02 0. -1.
    10030    2    1    2    0    0  0.00000000000E+00  0.00000000000E+00  0.10418391226E+03  0.90608932774E+03  0.90007976439E+03 0.  0.
        1    1    3    3  502    0 -0.32349841115E+03  0.10353367009E+02 -0.26268971752E+03  0.41685045513E+03  0.50400001928E-02 0. -1.
       -1    1    3    3    0  502  0.32349841115E+03 -0.10353367009E+02  0.36687362977E+03  0.48923887261E+03  0.50400001928E-02 0.  1.
</event>
<event>
 5   0  0.3815269E-03  0.9024192E+03  0.7818609E-02  0.9422562E-01
        2   -1    0    0  501    0  0.00000000000E+00  0.00000000000E+00  0.89311405466E+03  0.89311405466E+03  0.25500000920E-02 0.  1.
       -2   -1    0    0    0  501  0.00000000000E+00  0.00000000000E+00 -0.22795529929E+03  0.22795529931E+03  0.25500000920E-02 0. -1.
    10030    2    1    2    0    0  0.00000000000E+00  0.00000000000E+00  0.66515875537E+03  0.11210693540E+04  0.90241915237E+03 0.  0.
        5    1    3    3  502    0  0.18673076930E+03 -0.21530483307E+03  0.76710413041E+03  0.81834918478E+03  0.46999998093E+01 0.  1.
       -5    1    3    3    0  502 -0.18673076930E+03  0.21530483307E+03 -0.10194537504E+03  0.30272016919E+03  0.46999998093E+01 0. -1.
</event>
<event>
 5   0  0.3815269E-03  0.8687851E+03  0.7818609E-02  0.9465465E-01
        2   -1    0    0  501    0  0.00000000000E+00  0.00000000000E+00  0.43858948688E+03  0.43858948688E+03  0.25500000920E-02 0.  1.
       -2   -1    0    0    0  501  0.00000000000E+00  0.00000000000E+00 -0.43023572522E+03  0.43023572523E+03  0.25500000920E-02 0. -1.
    10030    2    1    2    0    0  0.00000000000E+00  0.00000000000E+00  0.83537616534E+01  0.86882521211E+03  0.86878505044E+03 0.  0.
        5    1    3    3  502    0 -0.29246970830E+02  0.83134059691E+02  0.42952949337E+03  0.43850237497E+03  0.46999998093E+01 0.  1.
       -5    1    3    3    0  502  0.29246970830E+02 -0.83134059691E+02 -0.42117573172E+03  0.43032283714E+03  0.46999998093E+01 0. -1.
</event>
<event>
 5   0  0.2295158E-03  0.9006264E+03  0.7818609E-02  0.9424799E-01
       -1   -1    0    0    0  501  0.00000000000E+00  0.00000000000E+00  0.11672141345E+04  0.11672141345E+04  0.50400001928E-02 0.  1.
        1   -1    0    0  501    0  0.00000000000E+00  0.00000000000E+00 -0.17373160418E+03  0.17373160425E+03  0.50400001928E-02 0. -1.
    10030    2    1    2    0    0  0.00000000000E+00  0.00000000000E+00  0.99348253027E+03  0.13409457387E+04  0.90062641324E+03 0.  0.
        4    1    3    3  502    0 -0.40000184536E+03  0.33221533936E+02  0.80069361068E+03  0.89566568411E+03  0.12699999809E+01 0.  1.
       -4    1    3    3    0  502  0.40000184536E+03 -0.33221533936E+02  0.19278891959E+03  0.44528005460E+03  0.12699999809E+01 0. -1.
</event>
<event>
 5   0  0.2295158E-03  0.8962917E+03  0.7818609E-02  0.9430229E-01
       -1   -1    0    0    0  501  0.00000000000E+00  0.00000000000E+00  0.35083827555E+03  0.35083827559E+03  0.50400001928E-02 0. -1.
        1   -1    0    0  501    0  0.00000000000E+00  0.00000000000E+00 -0.57244244083E+03  0.57244244085E+03  0.50400001928E-02 0.  1.
    10030    2    1    2    0    0  0.00000000000E+00  0.00000000000E+00 -0.22160416527E+03  0.92328071644E+03  0.89629173559E+03 0.  0.
        4    1    3    3  502    0 -0.11764177707E+03 -0.56384273254E+02  0.33084367002E+03  0.35563734460E+03  0.12699999809E+01 0. -1.
       -4    1    3    3    0  502  0.11764177707E+03  0.56384273254E+02 -0.55244783529E+03  0.56764337184E+03  0.12699999809E+01 0.  1.
</event>
<event>
 5   0  0.2074970E-03  0.9115242E+03  0.7818609E-02  0.9411289E-01
       -1   -1    0    0    0  501  0.00000000000E+00  0.00000000000E+00  0.11763712673E+03  0.11763712684E+03  0.50400001928E-02 0. -1.
        1   -1    0    0  501    0  0.00000000000E+00  0.00000000000E+00 -0.17657615209E+04  0.17657615209E+04  0.50400001928E-02 0.  1.
    10030    2    1    2    0    0  0.00000000000E+00  0.00000000000E+00 -0.16481243942E+04  0.18833986477E+04  0.91152424415E+03 0.  0.
        2    1    3    3  502    0  0.16041348688E+03  0.14561160755E+02  0.56866233009E+02  0.17081651747E+03  0.25500000920E-02 0. -1.
       -2    1    3    3    0  502 -0.16041348688E+03 -0.14561160755E+02 -0.17049906272E+04  0.17125821303E+04  0.25500000920E-02 0.  1.
</event>
<event>
 5   0  0.3685879E-03  0.9046235E+03  0.7818609E-02  0.9419820E-01
       -2   -1    0    0    0  501  0.00000000000E+00  0.00000000000E+00  0.12892544145E+03  0.12892544148E+03  0.25500000920E-02 0.  1.
        2   -1    0    0  501    0  0.00000000000E+00  0.00000000000E+00 -0.15868546844E+04  0.15868546844E+04  0.25500000920E-02 0. -1.
    10030    2    1    2    0    0  0.00000000000E+00  0.00000000000E+00 -0.14579292430E+04  0.17157801259E+04  0.90462354763E+03 0.  0.
        1    1    3    3  502    0 -0.17508143184E+03 -0.21494961763E+02  0.60997803012E+02  0.18664477800E+03  0.50400001928E-02 0.  1.
       -1    1    3    3    0  502  0.17508143184E+03  0.21494961763E+02 -0.15189270460E+04  0.15291353479E+04  0.50400001928E-02 0. -1.
</event>
<event>
 5   0  0.3815269E-03  0.9000388E+03  0.7818609E-02  0.9425533E-01
       -2   -1    0    0    0  501  0.00000000000E+00  0.00000000000E+00  0.12487057293E+04  0.12487057293E+04  0.25500000920E-02 0. -1.
        2   -1    0    0  501    0  0.00000000000E+00  0.00000000000E+00 -0.16218190729E+03  0.16218190731E+03  0.25500000920E-02 0.  1.
    10030    2    1    2    0    0  0.00000000000E+00  0.00000000000E+00  0.10865238220E+04  0.14108876366E+04  0.90003883656E+03 0.  0.
        5    1    3    3  502    0 -0.11566329464E+03  0.36714195606E+01  0.12249432923E+04  0.12304062891E+04  0.46999998093E+01 0. -1.
       -5    1    3    3    0  502  0.11566329464E+03 -0.36714195606E+01 -0.13841947025E+03  0.18048134749E+03  0.46999998093E+01 0.  1.
</event>
<event>
 5   0  0.3626546E-03  0.9007787E+03  0.7818609E-02  0.9424609E-01
       -2   -1    0    0    0  501  0.00000000000E+00  0.00000000000E+00  0.15689506566E+03  0.15689506568E+03  0.25500000920E-02 0.  1.
        2   -1    0    0  501    0  0.00000000000E+00  0.00000000000E+00 -0.12929059681E+04  0.12929059681E+04  0.25500000920E-02 0. -1.
    10030    2    1    2    0    0  0.00000000000E+00  0.00000000000E+00 -0.11360109024E+04  0.14498010338E+04  0.90077870039E+03 0.  0.
        3    1    3    3  502    0  0.28719319666E+03  0.27491829003E+02 -0.11354700724E+02  0.28872941018E+03  0.10100000352E+00 0.  1.
       -3    1    3    3    0  502 -0.28719319666E+03 -0.27491829003E+02 -0.11246562017E+04  0.11610716236E+04  0.10100000352E+00 0. -1.
</event>
<event>
 5   0  0.2295158E-03  0.9028106E+03  0.7818609E-02  0.9422075E-01
       -1   -1    0    0    0  501  0.00000000000E+00  0.00000000000E+00  0.28350321323E+03  0.28350321327E+03  0.50400001928E-02 0.  1.
        1   -1    0    0  501    0  0.00000000000E+00  0.00000000000E+00 -0.71874583136E+03  0.71874583137E+03  0.50400001928E-02 0. -1.
    10030    2    1    2    0    0  0.00000000000E+00  0.00000000000E+00 -0.43524261813E+03  0.10022490446E+04  0.90281061738E+03 0.  0.
        4    1    3    3  502    0 -0.18152054090E+03 -0.16555423032E+03  0.20278044217E+03  0.31855836290E+03  0.12699999809E+01 0. -1.
       -4    1    3    3    0  502  0.18152054090E+03  0.16555423032E+03 -0.63802306030E+03  0.68369068175E+03  0.12699999809E+01 0.  1.
</event>
<event>
 5   0  0.3685879E-03  0.8968128E+03  0.7818609E-02  0.9429574E-01
       -2   -1    0    0    0  501  0.00000000000E+00  0.00000000000E+00  0.17413463916E+03  0.17413463918E+03  0.25500000920E-02 0.  1.
        2   -1    0    0  501    0  0.00000000000E+00  0.00000000000E+00 -0.11546715205E+04  0.11546715205E+04  0.25500000920E-02 0. -1.
    10030    2    1    2    0    0  0.00000000000E+00  0.00000000000E+00 -0.98053688129E+03  0.13288061596E+04  0.89681282012E+03 0.  0.
        1    1    3    3  502    0 -0.38782261618E+03  0.18107610031E+02 -0.15784570006E+03  0.41910563372E+03  0.50400001928E-02 0.  1.
       -1    1    3    3    0  502  0.38782261618E+03 -0.18107610031E+02 -0.82269118123E+03  0.90970052592E+03  0.50400001928E-02 0. -1.
</event>
<event>
 5   0  0.2295158E-03  0.8998460E+03  0.7818609E-02  0.9425774E-01
       -1   -1    0    0    0  501  0.00000000000E+00  0.00000000000E+00  0.39136347399E+03  0.39136347402E+03  0.50400001928E-02 0.  1.
        1   -1    0    0  501    0  0.00000000000E+00  0.00000000000E+00 -0.51724478174E+03  0.51724478176E+03  0.50400001928E-02 0. -1.
    10030    2    1    2    0    0  0.00000000000E+00  0.00000000000E+00 -0.12588130775E+03  0.90860825579E+03  0.89984601952E+03 0.  0.
        4    1    3    3  502    0 -0.28326523611E+03 -0.87104398290E+02  0.27888603121E+03  0.40694643566E+03  0.12699999809E+01 0.  1.
       -4    1    3    3    0  502  0.28326523611E+03  0.87104398290E+02 -0.40476733896E+03  0.50166182013E+03  0.12699999809E+01 0. -1.
</event>
<event>
 5   0  0.3626546E-03  0.8798530E+03  0.7818609E-02  0.9451123E-01
        2   -1    0    0  501    0  0.00000000000E+00  0.00000000000E+00  0.80942467756E+03  0.80942467756E+03  0.25500000920E-02 0.  1.
       -2   -1    0    0    0  501  0.00000000000E+00  0.00000000000E+00 -0.23910230691E+03  0.23910230692E+03  0.25500000920E-02 0. -1.
    10030    2    1    2    0    0  0.00000000000E+00  0.00000000000E+00  0.57032237065E+03  0.10485269845E+04  0.87985295972E+03 0.  0.
        3    1    3    3  502    0 -0.10794310763E+03  0.26575155970E+03  0.68266237996E+03  0.74047521308E+03  0.10100000352E+00 0.  1.
       -3    1    3    3    0  502  0.10794310763E+03 -0.26575155970E+03 -0.11234000932E+03  0.30805177140E+03  0.10100000352E+00 0. -1.
</event>
<event>
 5   0  0.3663255E-03  0.9000916E+03  0.7818609E-02  0.9425467E-01
        2   -1    0    0  501    0  0.00000000000E+00  0.00000000000E+00  0.10981010529E+04  0.10981010529E+04  0.25500000920E-02 0.  1.
       -2   -1    0    0    0  501  0.00000000000E+00  0.00000000000E+00 -0.18444679905E+03  0.18444679907E+03  0.25500000920E-02 0. -1.
    10030    2    1    2    0    0  0.00000000000E+00  0.00000000000E+00  0.91365425385E+03  0.12825478520E+04  0.90009160479E+03 0.  0.
        4    1    3    3  502    0  0.28244651831E+03  0.18886137044E+03  0.36310303925E+02  0.34170850739E+03  0.12699999809E+01 0. -1.
       -4    1    3    3    0  502 -0.28244651831E+03 -0.18886137044E+03  0.87734394992E+03  0.94083934458E+03  0.12699999809E+01 0.  1.
</event>
<event>
 5   0  0.2134145E-03  0.9014976E+03  0.7818609E-02  0.9423711E-01
        1   -1    0    0  501    0  0.00000000000E+00  0.00000000000E+00  0.62451902184E+03  0.62451902186E+03  0.50400001928E-02 0.  1.
       -1   -1    0    0    0  501  0.00000000000E+00  0.00000000000E+00 -0.32532950285E+03  0.32532950289E+03  0.50400001928E-02 0. -1.
    10030    2    1    2    0    0  0.00000000000E+00  0.00000000000E+00  0.29918951899E+03  0.94984852474E+03  0.90149756055E+03 0.  0.
        1    1    3    3  502    0  0.42161341550E+03 -0.15908717919E+03  0.16053735560E+03  0.47837103307E+03  0.50400001928E-02 0.  1.
       -1    1    3    3    0  502 -0.42161341550E+03  0.15908717919E+03  0.13865216339E+03  0.47147749167E+03  0.50400001928E-02 0. -1.
</event>
<event>
 5   0  0.3685879E-03  0.8996042E+03  0.7818609E-02  0.9426076E-01
       -2   -1    0    0    0  501  0.00000000000E+00  0.00000000000E+00  0.80945805749E+03  0.80945805750E+03  0.25500000920E-02 0.  1.
        2   -1    0    0  501    0  0.00000000000E+00  0.00000000000E+00 -0.24994737632E+03  0.24994737633E+03  0.25500000920E-02 0. -1.
    10030    2    1    2    0    0  0.00000000000E+00  0.00000000000E+00  0.55951068117E+03  0.10594054338E+04  0.89960417456E+03 0.  0.
        1    1    3    3  502    0  0.16988716688E+03 -0.21371116344E+03 -0.14121882267E+03  0.30737089444E+03  0.50400001928E-02 0. -1.
       -1    1    3    3    0  502 -0.16988716688E+03  0.21371116344E+03  0.70072950384E+03  0.75203453938E+03  0.50400001928E-02 0.  1.
</event>
<event>
 5   0  0.2130975E-03  0.9033997E+03  0.7818609E-02  0.9421342E-01
       -1   -1    0    0    0  501  0.00000000000E+00  0.00000000000E+00  0.15825153942E+03  0.15825153950E+03  0.50400001928E-02 0.  1.
        1   -1    0    0  501    0  0.00000000000E+00  0.00000000000E+00 -0.12892940669E+04  0.12892940669E+04  0.50400001928E-02 0. -1.
    10030    2    1    2    0    0  0.00000000000E+00  0.00000000000E+00 -0.11310425275E+04  0.14475456064E+04  0.90339973636E+03 0.  0.
        5    1    3    3  502    0 -0.49149380736E+02  0.36553362588E+03 -0.98329725230E+03  0.10502028707E+04  0.46999998093E+01 0. -1.
       -5    1    3    3    0  502  0.49149380736E+02 -0.36553362588E+03 -0.14774527517E+03  0.39734273569E+03  0.46999998093E+01 0.  1.
</event>
<event>
 5   0  0.2130975E-03  0.9173542E+03  0.7818609E-02  0.9404144E-01
       -1   -1    0    0    0  501  0.00000000000E+00  0.00000000000E+00  0.70009369633E+03  0.70009369635E+03  0.50400001928E-02 0. -1.
        1   -1    0    0  501    0  0.00000000000E+00  0.00000000000E+00 -0.30050931566E+03  0.30050931571E+03  0.50400001928E-02 0.  1.
    10030    2    1    2    0    0  0.00000000000E+00  0.00000000000E+00  0.39958438067E+03  0.10006030121E+04  0.91735419030E+03 0.  0.
        5    1    3    3  502    0 -0.23226192211E+03  0.15929730593E+02 -0.23124441084E+03  0.32816981019E+03  0.46999998093E+01 0.  1.
       -5    1    3    3    0  502  0.23226192211E+03 -0.15929730593E+02  0.63082879150E+03  0.67243320186E+03  0.46999998093E+01 0. -1.
</event>
<event>
 5   0  0.2295158E-03  0.9029332E+03  0.7818609E-02  0.9421922E-01
        1   -1    0    0  501    0  0.00000000000E+00  0.00000000000E+00  0.59071632630E+03  0.59071632632E+03  0.50400001928E-02 0.  1.
       -1   -1    0    0    0  501  0.00000000000E+00  0.00000000000E+00 -0.34504223444E+03  0.34504223447E+03  0.50400001928E-02 0. -1.
    10030    2    1    2    0    0  0.00000000000E+00  0.00000000000E+00  0.24567409186E+03  0.93575856079E+03  0.90293317842E+03 0.  0.
        4    1    3    3  502    0 -0.24313374586E+03  0.38035712179E+03  0.11671379751E+03  0.46627168250E+03  0.12699999809E+01 0.  1.
       -4    1    3    3    0  502  0.24313374586E+03 -0.38035712179E+03  0.12896029435E+03  0.46948687829E+03  0.12699999809E+01 0. -1.
</event>
<event>
 5   0  0.2129280E-03  0.9005581E+03  0.7818609E-02  0.9424884E-01
        1   -1    0    0  501    0  0.00000000000E+00  0.00000000000E+00  0.83727233308E+03  0.83727233309E+03  0.50400001928E-02 0. -1.
       -1   -1    0    0    0  501  0.00000000000E+00  0.00000000000E+00 -0.24215681684E+03  0.24215681689E+03  0.50400001928E-02 0.  1.
    10030    2    1    2    0    0  0.00000000000E+00  0.00000000000E+00  0.59511551624E+03  0.10794291500E+04  0.90055805597E+03 0.  0.
        3    1    3    3  502    0  0.41140414212E+03  0.10586549270E+03  0.11860409241E+03  0.44105307122E+03  0.10100000352E+00 0.  1.
       -3    1    3    3    0  502 -0.41140414212E+03 -0.10586549270E+03  0.47651142383E+03  0.63837607876E+03  0.10100000352E+00 0. -1.
</event>
<event>
 5   0  0.2129280E-03  0.9008301E+03  0.7818609E-02  0.9424544E-01
       -1   -1    0    0    0  501  0.00000000000E+00  0.00000000000E+00  0.18337663341E+03  0.18337663348E+03  0.50400001928E-02 0.  1.
        1   -1    0    0  501    0  0.00000000000E+00  0.00000000000E+00 -0.11063227079E+04  0.11063227079E+04  0.50400001928E-02 0. -1.
    10030    2    1    2    0    0  0.00000000000E+00  0.00000000000E+00 -0.92294607444E+03  0.12896993414E+04  0.90083013646E+03 0.  0.
        3    1    3    3  502    0  0.33260029416E+02  0.27601144495E+03 -0.96883132725E+03  0.10079299074E+04  0.10100000352E+00 0. -1.
       -3    1    3    3    0  502 -0.33260029416E+02 -0.27601144495E+03  0.45885252809E+02  0.28176943398E+03  0.10100000352E+00 0.  1.
</event>
<event>
 5   0  0.2295158E-03  0.9012589E+03  0.7818609E-02  0.9424009E-01
        1   -1    0    0  501    0  0.00000000000E+00  0.00000000000E+00  0.28482748942E+04  0.28482748942E+04  0.50400001928E-02 0. -1.
       -1   -1    0    0    0  501  0.00000000000E+00  0.00000000000E+00 -0.71294693377E+02  0.71294693555E+02  0.50400001928E-02 0.  1.
    10030    2    1    2    0    0  0.00000000000E+00  0.00000000000E+00  0.27769802008E+04  0.29195695878E+04  0.90125886515E+03 0.  0.
        4    1    3    3  502    0 -0.92653823657E+02 -0.44034949103E+03  0.14660248348E+04  0.15335327954E+04  0.12699999809E+01 0.  1.
       -4    1    3    3    0  502  0.92653823657E+02  0.44034949103E+03  0.13109553660E+04  0.13860367924E+04  0.12699999809E+01 0. -1.
</event>
<event>
 5   0  0.2129280E-03  0.9013136E+03  0.7818609E-02  0.9423941E-01
       -1   -1    0    0    0  501  0.00000000000E+00  0.00000000000E+00  0.42981165158E+03  0.42981165161E+03  0.50400001928E-02 0.  1.
        1   -1    0    0  501    0  0.00000000000E+00  0.00000000000E+00 -0.47251288782E+03  0.47251288785E+03  0.50400001928E-02 0. -1.
    10030    2    1    2    0    0  0.00000000000E+00  0.00000000000E+00 -0.42701236240E+02  0.90232453945E+03  0.90131358523E+03 0.  0.
        3    1    3    3  502    0 -0.12631923870E+03  0.19213874976E+03  0.36666337163E+03  0.43280005490E+03  0.10100000352E+00 0.  1.
       -3    1    3    3    0  502  0.12631923870E+03 -0.19213874976E+03 -0.40936460787E+03  0.46952448456E+03  0.10100000352E+00 0. -1.
</event>
<event>
 5   0  0.2134145E-03  0.8885240E+03  0.7818609E-02  0.9440042E-01
        1   -1    0    0  501    0  0.00000000000E+00  0.00000000000E+00  0.70449698669E+03  0.70449698671E+03  0.50400001928E-02 0.  1.
       -1   -1    0    0    0  501  0.00000000000E+00  0.00000000000E+00 -0.28015555432E+03  0.28015555436E+03  0.50400001928E-02 0. -1.
    10030    2    1    2    0    0  0.00000000000E+00  0.00000000000E+00  0.42434143238E+03  0.98465254108E+03  0.88852404324E+03 0.  0.
        1    1    3    3  502    0  0.33716545426E+03 -0.45016788209E+02 -0.10451100817E+03  0.35585053832E+03  0.50400001928E-02 0. -1.
       -1    1    3    3    0  502 -0.33716545426E+03  0.45016788209E+02  0.52885244055E+03  0.62880200275E+03  0.50400001928E-02 0.  1.
</event>
<event>
 5   0  0.2130975E-03  0.9082894E+03  0.7818609E-02  0.9415278E-01
        1   -1    0    0  501    0  0.00000000000E+00  0.00000000000E+00  0.10735822795E+04  0.10735822795E+04  0.50400001928E-02 0.  1.
       -1   -1    0    0    0  501  0.00000000000E+00  0.00000000000E+00 -0.19211139858E+03  0.19211139864E+03  0.50400001928E-02 0. -1.
    10030    2    1    2    0    0  0.00000000000E+00  0.00000000000E+00  0.88147088092E+03  0.12656936782E+04  0.90828936634E+03 0.  0.
        5    1    3    3  502    0  0.41275771595E+03  0.18259929442E+03  0.37086786222E+03  0.58418875000E+03  0.46999998093E+01 0.  1.
       -5    1    3    3    0  502 -0.41275771595E+03 -0.18259929442E+03  0.51060301870E+03  0.68150492816E+03  0.46999998093E+01 0. -1.
</event>
<event>
 5   0  0.3626546E-03  0.8984070E+03  0.7818609E-02  0.9427575E-01
        2   -1    0    0  501    0  0.00000000000E+00  0.00000000000E+00  0.79947615499E+03  0.79947615500E+03  0.25500000920E-02 0.  1.
       -2   -1    0    0    0  501  0.00000000000E+00  0.00000000000E+00 -0.25239497787E+03  0.25239497789E+03  0.25500000920E-02 0. -1.
    10030    2    1    2    0    0  0.00000000000E+00  0.00000000000E+00  0.54708117712E+03  0.10518711329E+04  0.89840696003E+03 0.  0.
        3    1    3    3  502    0 -0.20557320600E+03  0.32932670663E+03  0.53812303015E+03  0.66354564915E+03  0.10100000352E+00 0.  1.
       -3    1    3    3    0  502  0.20557320600E+03 -0.32932670663E+03  0.89581469696E+01  0.38832548374E+03  0.10100000352E+00 0. -1.
</event>
<event>
 5   0  0.3806019E-03  0.9014605E+03  0.7818609E-02  0.9423758E-01
       -2   -1    0    0    0  501  0.00000000000E+00  0.00000000000E+00  0.35257227619E+03  0.35257227620E+03  0.25500000920E-02 0.  1.
        2   -1    0    0  501    0  0.00000000000E+00  0.00000000000E+00 -0.57621595114E+03  0.57621595114E+03  0.25500000920E-02 0. -1.
    10030    2    1    2    0    0  0.00000000000E+00  0.00000000000E+00 -0.22364367494E+03  0.92878822735E+03  0.90146052488E+03 0.  0.
        2    1    3    3  502    0  0.82853569969E+02  0.17583564967E+03 -0.53081289983E+03  0.56528331338E+03  0.25500000920E-02 0. -1.
       -2    1    3    3    0  502 -0.82853569969E+02 -0.17583564967E+03  0.30716922489E+03  0.36350491396E+03  0.25500000920E-02 0.  1.
</event>
<event>
 5   0  0.2130975E-03  0.9009996E+03  0.7818609E-02  0.9424333E-01
       -1   -1    0    0    0  501  0.00000000000E+00  0.00000000000E+00  0.25247534092E+03  0.25247534097E+03  0.50400001928E-02 0. -1.
        1   -1    0    0  501    0  0.00000000000E+00  0.00000000000E+00 -0.80384106925E+03  0.80384106927E+03  0.50400001928E-02 0.  1.
    10030    2    1    2    0    0  0.00000000000E+00  0.00000000000E+00 -0.55136572833E+03  0.10563164102E+04  0.90099955169E+03 0.  0.
        5    1    3    3  502    0  0.23312659612E+03 -0.38584262514E+02 -0.72532065118E+03  0.76285574794E+03  0.46999998093E+01 0.  1.
       -5    1    3    3    0  502 -0.23312659612E+03  0.38584262514E+02  0.17395492285E+03  0.29346066230E+03  0.46999998093E+01 0. -1.
</event>
<event>
 5   0  0.3626546E-03  0.8907200E+03  0.7818609E-02  0.9437257E-01
       -2   -1    0    0    0  501  0.00000000000E+00  0.00000000000E+00  0.11359158308E+03  0.11359158311E+03  0.25500000920E-02 0.  1.
        2   -1    0    0  501    0  0.00000000000E+00  0.00000000000E+00 -0.17461286812E+04  0.17461286812E+04  0.25500000920E-02 0. -1.
    10030    2    1    2    0    0  0.00000000000E+00  0.00000000000E+00 -0.16325370982E+04  0.18597202643E+04  0.89071998113E+03 0.  0.
        3    1    3    3  502    0 -0.12178376597E+03  0.42358240114E+03 -0.94983073433E+03  0.10471063796E+04  0.10100000352E+00 0. -1.
       -3    1    3    3    0  502  0.12178376597E+03 -0.42358240114E+03 -0.68270636382E+03  0.81261388471E+03  0.10100000352E+00 0.  1.
</event>
<event>
 5   0  0.3685879E-03  0.9099311E+03  0.7818609E-02  0.9413252E-01
        2   -1    0    0  501    0  0.00000000000E+00  0.00000000000E+00  0.89004746386E+03  0.89004746387E+03  0.25500000920E-02 0. -1.
       -2   -1    0    0    0  501  0.00000000000E+00  0.00000000000E+00 -0.23256474077E+03  0.23256474078E+03  0.25500000920E-02 0.  1.
    10030    2    1    2    0    0  0.00000000000E+00  0.00000000000E+00  0.65748272309E+03  0.11226122046E+04  0.90993111325E+03 0.  0.
        1    1    3    3  502    0 -0.93844610628E+02 -0.21616873182E+03 -0.15139792990E+03  0.28010188283E+03  0.50400001928E-02 0.  1.
       -1    1    3    3    0  502  0.93844610628E+02  0.21616873182E+03  0.80888065299E+03  0.84251032182E+03  0.50400001928E-02 0. -1.
</event>
<event>
 5   0  0.3663255E-03  0.8969158E+03  0.7818609E-02  0.9429445E-01
        2   -1    0    0  501    0  0.00000000000E+00  0.00000000000E+00  0.85049774151E+03  0.85049774152E+03  0.25500000920E-02 0. -1.
       -2   -1    0    0    0  501  0.00000000000E+00  0.00000000000E+00 -0.23646683294E+03  0.23646683295E+03  0.25500000920E-02 0.  1.
    10030    2    1    2    0    0  0.00000000000E+00  0.00000000000E+00  0.61403090857E+03  0.10869645745E+04  0.89691584303E+03 0.  0.
        4    1    3    3  502    0  0.33498815063E+02 -0.43869159754E+03  0.20178024651E+03  0.48403447103E+03  0.12699999809E+01 0.  1.
       -4    1    3    3    0  502 -0.33498815063E+02  0.43869159754E+03  0.41225066207E+03  0.60293010344E+03  0.12699999809E+01 0. -1.
</event>
<event>
 5   0  0.3806019E-03  0.8976783E+03  0.7818609E-02  0.9428488E-01
       -2   -1    0    0    0  501  0.00000000000E+00  0.00000000000E+00  0.42024696763E+03  0.42024696764E+03  0.25500000920E-02 0.  1.
        2   -1    0    0  501    0  0.00000000000E+00  0.00000000000E+00 -0.47937669466E+03  0.47937669467E+03  0.25500000920E-02 0. -1.
    10030    2    1    2    0    0  0.00000000000E+00  0.00000000000E+00 -0.59129727033E+02  0.89962366231E+03  0.89767834393E+03 0.  0.
        2    1    3    3  502    0  0.18701615768E+02  0.27048255850E+03  0.32890573564E+03  0.42625056930E+03  0.25500000920E-02 0.  1.
       -2    1    3    3    0  502 -0.18701615768E+02 -0.27048255850E+03 -0.38803546267E+03  0.47337309301E+03  0.25500000920E-02 0. -1.
</event>
<event>
 5   0  0.2130975E-03  0.8927703E+03  0.7818609E-02  0.9434664E-01
        1   -1    0    0  501    0  0.00000000000E+00  0.00000000000E+00  0.58809716570E+03  0.58809716572E+03  0.50400001928E-02 0. -1.
       -1   -1    0    0    0  501  0.00000000000E+00  0.00000000000E+00 -0.33882107409E+03  0.33882107413E+03  0.50400001928E-02 0.  1.
    10030    2    1    2    0    0  0.00000000000E+00  0.00000000000E+00  0.24927609161E+03  0.92691823985E+03  0.89277032517E+03 0.  0.
        5    1    3    3  502    0  0.26519014449E+03  0.33425471881E+03  0.26074613929E+03  0.50006266501E+03  0.46999998093E+01 0. -1.
       -5    1    3    3    0  502 -0.26519014449E+03 -0.33425471881E+03 -0.11470047677E+02  0.42685557484E+03  0.46999998093E+01 0.  1.
</event>
<event>
 5   0  0.3806019E-03  0.9052241E+03  0.7818609E-02  0.9419075E-01
        2   -1    0    0  501    0  0.00000000000E+00  0.00000000000E+00  0.53429963430E+03  0.53429963431E+03  0.25500000920E-02 0. -1.
       -2   -1    0    0    0  501  0.00000000000E+00  0.00000000000E+00 -0.38341344299E+03  0.38341344299E+03  0.25500000920E-02 0.  1.
    10030    2    1    2    0    0  0.00000000000E+00  0.00000000000E+00  0.15088619131E+03  0.91771307730E+03  0.90522408801E+03 0.  0.
        2    1    3    3  502    0 -0.89117683876E+02 -0.10743386016E+03 -0.36104744694E+03  0.38709075788E+03  0.25500000920E-02 0.  1.
       -2    1    3    3    0  502  0.89117683876E+02  0.10743386016E+03  0.51193363825E+03  0.53062231942E+03  0.25500000920E-02 0. -1.
</event>
<event>
 5   0  0.2130975E-03  0.8959947E+03  0.7818609E-02  0.9430602E-01
        1   -1    0    0  501    0  0.00000000000E+00  0.00000000000E+00  0.65882768165E+03  0.65882768167E+03  0.50400001928E-02 0. -1.
       -1   -1    0    0    0  501  0.00000000000E+00  0.00000000000E+00 -0.30463449035E+03  0.30463449039E+03  0.50400001928E-02 0.  1.
    10030    2    1    2    0    0  0.00000000000E+00  0.00000000000E+00  0.35419319130E+03  0.96346217206E+03  0.89599472110E+03 0.  0.
        5    1    3    3  502    0  0.31226914200E+03  0.17891598372E+03  0.46393467604E+03  0.58718005749E+03  0.46999998093E+01 0. -1.
       -5    1    3    3    0  502 -0.31226914200E+03 -0.17891598372E+03 -0.10974148475E+03  0.37628211457E+03  0.46999998093E+01 0.  1.
</event>
<event>
 5   0  0.2074970E-03  0.8949747E+03  0.7818609E-02  0.9431885E-01
        1   -1    0    0  501    0  0.00000000000E+00  0.00000000000E+00  0.36480323022E+03  0.36480323026E+03  0.50400001928E-02 0.  1.
       -1   -1    0    0    0  501  0.00000000000E+00  0.00000000000E+00 -0.54891212711E+03  0.54891212714E+03  0.50400001928E-02 0. -1.
    10030    2    1    2    0    0  0.00000000000E+00  0.00000000000E+00 -0.18410889689E+03  0.91371535739E+03  0.89497467474E+03 0.  0.
        2    1    3    3  502    0 -0.41036841425E+03  0.17716474627E+03 -0.11383984105E+03  0.46124732211E+03  0.25500000920E-02 0.  1.
       -2    1    3    3    0  502  0.41036841425E+03 -0.17716474627E+03 -0.70269055840E+02  0.45246803528E+03  0.25500000920E-02 0. -1.
</event>
<event>
 5   0  0.2074970E-03  0.8993108E+03  0.7818609E-02  0.9426443E-01
        1   -1    0    0  501    0  0.00000000000E+00  0.00000000000E+00  0.41053136999E+03  0.41053137002E+03  0.50400001928E-02 0.  1.
       -1   -1    0    0    0  501  0.00000000000E+00  0.00000000000E+00 -0.49250798697E+03  0.49250798699E+03  0.50400001928E-02 0. -1.
    10030    2    1    2    0    0  0.00000000000E+00  0.00000000000E+00 -0.81976616977E+02  0.90303935702E+03  0.89931079977E+03 0.  0.
        2    1    3    3  502    0 -0.21646952154E+03 -0.13131212780E+03  0.33215436429E+03  0.41764632213E+03  0.25500000920E-02 0.  1.
       -2    1    3    3    0  502  0.21646952154E+03  0.13131212780E+03 -0.41413098127E+03  0.48539303489E+03  0.25500000920E-02 0. -1.
</event>
<event>
 5   0  0.2074970E-03  0.8998304E+03  0.7818609E-02  0.9425794E-01
       -1   -1    0    0    0  501  0.00000000000E+00  0.00000000000E+00  0.26588830784E+03  0.26588830788E+03  0.50400001928E-02 0. -1.
        1   -1    0    0  501    0  0.00000000000E+00  0.00000000000E+00 -0.76131090323E+03  0.76131090325E+03  0.50400001928E-02 0.  1.
    10030    2    1    2    0    0  0.00000000000E+00  0.00000000000E+00 -0.49542259540E+03  0.10271992111E+04  0.89983035697E+03 0.  0.
        2    1    3    3  502    0  0.39144590701E+03 -0.26148447296E+02  0.37144794190E+01  0.39233587240E+03  0.25500000920E-02 0.  1.
       -2    1    3    3    0  502 -0.39144590701E+03  0.26148447296E+02 -0.49913707482E+03  0.63486333874E+03  0.25500000920E-02 0. -1.
</event>
<event>
 5   0  0.3685879E-03  0.8958284E+03  0.7818609E-02  0.9430811E-01
        2   -1    0    0  501    0  0.00000000000E+00  0.00000000000E+00  0.78159388420E+03  0.78159388420E+03  0.25500000920E-02 0.  1.
       -2   -1    0    0    0  501  0.00000000000E+00  0.00000000000E+00 -0.25668971649E+03  0.25668971650E+03  0.25500000920E-02 0. -1.
    10030    2    1    2    0    0  0.00000000000E+00  0.00000000000E+00  0.52490416771E+03  0.10382836007E+04  0.89582835980E+03 0.  0.
        1    1    3    3  502    0  0.28198762248E+03  0.27666122128E+03  0.50713631698E+03  0.64284188928E+03  0.50400001928E-02 0.  1.
       -1    1    3    3    0  502 -0.28198762248E+03 -0.27666122128E+03  0.17767850723E+02  0.39544171142E+03  0.50400001928E-02 0. -1.
</event>
<event>
 5   0  0.3663255E-03  0.9000288E+03  0.7818609E-02  0.9425545E-01
        2   -1    0    0  501    0  0.00000000000E+00  0.00000000000E+00  0.68270575252E+03  0.68270575252E+03  0.25500000920E-02 0.  1.
       -2   -1    0    0    0  501  0.00000000000E+00  0.00000000000E+00 -0.29663287214E+03  0.29663287215E+03  0.25500000920E-02 0. -1.
    10030    2    1    2    0    0  0.00000000000E+00  0.00000000000E+00  0.38607288037E+03  0.97933862468E+03  0.90002881777E+03 0.  0.
        4    1    3    3  502    0  0.12816930615E+02  0.27223456987E+03  0.58269163293E+03  0.64327838975E+03  0.12699999809E+01 0.  1.
       -4    1    3    3    0  502 -0.12816930615E+02 -0.27223456987E+03 -0.19661875255E+03  0.33606023492E+03  0.12699999809E+01 0. -1.
</event>
<event>
 5   0  0.2129280E-03  0.8940137E+03  0.7818609E-02  0.9433096E-01
       -1   -1    0    0    0  501  0.00000000000E+00  0.00000000000E+00  0.72941525326E+03  0.72941525328E+03  0.50400001928E-02 0. -1.
        1   -1    0    0  501    0  0.00000000000E+00  0.00000000000E+00 -0.27393879237E+03  0.27393879241E+03  0.50400001928E-02 0.  1.
    10030    2    1    2    0    0  0.00000000000E+00  0.00000000000E+00  0.45547646089E+03  0.10033540457E+04  0.89401372170E+03 0.  0.
        3    1    3    3  502    0  0.98687914511E+02 -0.37606849954E+03 -0.19800903745E+02  0.38930567272E+03  0.10100000352E+00 0.  1.
       -3    1    3    3    0  502 -0.98687914511E+02  0.37606849954E+03  0.47527736464E+03  0.61404837298E+03  0.10100000352E+00 0. -1.
</event>
<event>
 5   0  0.3626546E-03  0.8991860E+03  0.7818609E-02  0.9426600E-01
       -2   -1    0    0    0  501  0.00000000000E+00  0.00000000000E+00  0.25647386938E+03  0.25647386940E+03  0.25500000920E-02 0.  1.
        2   -1    0    0  501    0  0.00000000000E+00  0.00000000000E+00 -0.78812647760E+03  0.78812647760E+03  0.25500000920E-02 0. -1.
    10030    2    1    2    0    0  0.00000000000E+00  0.00000000000E+00 -0.53165260821E+03  0.10446003470E+04  0.89918595915E+03 0.  0.
        3    1    3    3  502    0  0.32461270471E+03 -0.30192390786E+03 -0.35277979902E+03  0.56655542624E+03  0.10100000352E+00 0.  1.
       -3    1    3    3    0  502 -0.32461270471E+03  0.30192390786E+03 -0.17887280919E+03  0.47804492076E+03  0.10100000352E+00 0. -1.
</event>
<event>
 5   0  0.2129280E-03  0.9015942E+03  0.7818609E-02  0.9423591E-01
        1   -1    0    0  501    0  0.00000000000E+00  0.00000000000E+00  0.60713073605E+03  0.60713073607E+03  0.50400001928E-02 0. -1.
       -1   -1    0    0    0  501  0.00000000000E+00  0.00000000000E+00 -0.33471869441E+03  0.33471869445E+03  0.50400001928E-02 0.  1.
    10030    2    1    2    0    0  0.00000000000E+00  0.00000000000E+00  0.27241204164E+03  0.94184943052E+03  0.90159416000E+03 0.  0.
        3    1    3    3  502    0  0.27505617069E+02  0.26513916432E+03 -0.24356758482E+03  0.36108241996E+03  0.10100000352E+00 0.  1.
       -3    1    3    3    0  502 -0.27505617069E+02 -0.26513916432E+03  0.51597962646E+03  0.58076701056E+03  0.10100000352E+00 0. -1.
</event>
<event>
 5   0  0.2074970E-03  0.9020148E+03  0.7818609E-02  0.9423066E-01
       -1   -1    0    0    0  501  0.00000000000E+00  0.00000000000E+00  0.50175398599E+03  0.50175398602E+03  0.50400001928E-02 0. -1.
        1   -1    0    0  501    0  0.00000000000E+00  0.00000000000E+00 -0.40539322578E+03  0.40539322581E+03  0.50400001928E-02 0.  1.
    10030    2    1    2    0    0  0.00000000000E+00  0.00000000000E+00  0.96360760216E+02  0.90714721183E+03  0.90201478248E+03 0.  0.
        2    1    3    3  502    0 -0.33099378828E+03  0.30010203583E+03  0.11008994805E+03  0.46014988477E+03  0.25500000920E-02 0.  1.
       -2    1    3    3    0  502  0.33099378828E+03 -0.30010203583E+03 -0.13729187839E+02  0.44699732705E+03  0.25500000920E-02 0. -1.
</event>
<event>
 5   0  0.3806019E-03  0.8965982E+03  0.7818609E-02  0.9429844E-01
       -2   -1    0    0    0  501  0.00000000000E+00  0.00000000000E+00  0.21246200216E+03  0.21246200217E+03  0.25500000920E-02 0. -1.
        2   -1    0    0  501    0  0.00000000000E+00  0.00000000000E+00 -0.94592005159E+03  0.94592005159E+03  0.25500000920E-02 0.  1.
    10030    2    1    2    0    0  0.00000000000E+00  0.00000000000E+00 -0.73345804943E+03  0.11583820538E+04  0.89659816652E+03 0.  0.
        2    1    3    3  502    0 -0.26832135609E+02 -0.27928050464E+03 -0.81846679994E+03  0.86521989481E+03  0.25500000920E-02 0.  1.
       -2    1    3    3    0  502  0.26832135609E+02  0.27928050464E+03  0.85008750509E+02  0.29316215895E+03  0.25500000920E-02 0. -1.
</event>
<event>
 5   0  0.2130975E-03  0.9001657E+03  0.7818609E-02  0.9425374E-01
       -1   -1    0    0    0  501  0.00000000000E+00  0.00000000000E+00  0.19407557646E+03  0.19407557653E+03  0.50400001928E-02 0.  1.
        1   -1    0    0  501    0  0.00000000000E+00  0.00000000000E+00 -0.10437920975E+04  0.10437920975E+04  0.50400001928E-02 0. -1.
    10030    2    1    2    0    0  0.00000000000E+00  0.00000000000E+00 -0.84971652102E+03  0.12378676740E+04  0.90016565825E+03 0.  0.
        5    1    3    3  502    0 -0.15908545427E+03  0.33301895523E+03 -0.70658542485E+02  0.37579851773E+03  0.46999998093E+01 0.  1.
       -5    1    3    3    0  502  0.15908545427E+03 -0.33301895523E+03 -0.77905797853E+03  0.86206915629E+03  0.46999998093E+01 0. -1.
</event>
<event>
 5   0  0.2134145E-03  0.8943477E+03  0.7818609E-02  0.9432675E-01
        1   -1    0    0  501    0  0.00000000000E+00  0.00000000000E+00  0.38940454451E+03  0.38940454454E+03  0.50400001928E-02 0.  1.
       -1   -1    0    0    0  501  0.00000000000E+00  0.00000000000E+00 -0.51351334847E+03  0.51351334849E+03  0.50400001928E-02 0. -1.
    10030    2    1    2    0    0  0.00000000000E+00  0.00000000000E+00 -0.12410880396E+03  0.90291789304E+03  0.89434765407E+03 0.  0.
        1    1    3    3  502    0 -0.29712070976E+02  0.28355502879E+03 -0.40985258426E+03  0.49926486194E+03  0.50400001928E-02 0. -1.
       -1    1    3    3    0  502  0.29712070976E+02 -0.28355502879E+03  0.28574378030E+03  0.40365303110E+03  0.50400001928E-02 0.  1.
</event>
<event>
 5   0  0.3663255E-03  0.8968115E+03  0.7818609E-02  0.9429576E-01
       -2   -1    0    0    0  501  0.00000000000E+00  0.00000000000E+00  0.45698956428E+03  0.45698956428E+03  0.25500000920E-02 0.  1.
        2   -1    0    0  501    0  0.00000000000E+00  0.00000000000E+00 -0.43998312510E+03  0.43998312511E+03  0.25500000920E-02 0. -1.
    10030    2    1    2    0    0  0.00000000000E+00  0.00000000000E+00  0.17006439177E+02  0.89697268939E+03  0.89681145540E+03 0.  0.
        4    1    3    3  502    0 -0.29174091764E+03 -0.94582456550E+02  0.33568200854E+03  0.45468959507E+03  0.12699999809E+01 0.  1.
       -4    1    3    3    0  502  0.29174091764E+03  0.94582456550E+02 -0.31867556936E+03  0.44228309432E+03  0.12699999809E+01 0. -1.
</event>
<event>
 5   0  0.2134145E-03  0.8992576E+03  0.7818609E-02  0.9426510E-01
       -1   -1    0    0    0  501  0.00000000000E+00  0.00000000000E+00  0.99969261841E+02  0.99969261968E+02  0.50400001928E-02 0. -1.
        1   -1    0    0  501    0  0.00000000000E+00  0.00000000000E+00 -0.20222819870E+04  0.20222819870E+04  0.50400001928E-02 0.  1.
    10030    2    1    2    0    0  0.00000000000E+00  0.00000000000E+00 -0.19223127252E+04  0.21222512490E+04  0.89925755514E+03 0.  0.
        1    1    3    3  502    0  0.37917558818E+03 -0.15758369371E+02 -0.15302236282E+04  0.15765807323E+04  0.50400001928E-02 0. -1.
       -1    1    3    3    0  502 -0.37917558818E+03  0.15758369371E+02 -0.39208909695E+03  0.54567051675E+03  0.50400001928E-02 0.  1.
</event>
<event>
 5   0  0.3663255E-03  0.8917675E+03  0.7818609E-02  0.9435931E-01
        2   -1    0    0  501    0  0.00000000000E+00  0.00000000000E+00  0.49479156836E+03  0.49479156837E+03  0.25500000920E-02 0. -1.
       -2   -1    0    0    0  501  0.00000000000E+00  0.00000000000E+00 -0.40181024610E+03  0.40181024611E+03  0.25500000920E-02 0.  1.
    10030    2    1    2    0    0  0.00000000000E+00  0.00000000000E+00  0.92981322265E+02  0.89660181448E+03  0.89176750750E+03 0.  0.
        4    1    3    3  502    0 -0.45855022021E+02 -0.22195477237E+03 -0.33957544543E+03  0.40826425274E+03  0.12699999809E+01 0.  1.
       -4    1    3    3    0  502  0.45855022021E+02  0.22195477237E+03  0.43255676770E+03  0.48833756174E+03  0.12699999809E+01 0. -1.
</event>
<event>
 5   0  0.3815269E-03  0.8959107E+03  0.7818609E-02  0.9430708E-01
       -2   -1    0    0    0  501  0.00000000000E+00  0.00000000000E+00  0.77210635090E+02  0.77210635132E+02  0.25500000920E-02 0.  1.
        2   -1    0    0  501    0  0.00000000000E+00  0.00000000000E+00 -0.25989166340E+04  0.25989166340E+04  0.25500000920E-02 0. -1.
    10030    2    1    2    0    0  0.00000000000E+00  0.00000000000E+00 -0.25217059989E+04  0.26761272691E+04  0.89591071858E+03 0.  0.
        5    1    3    3  502    0  0.30603016880E+03 -0.15543864194E+03 -0.40119421662E+03  0.52800996683E+03  0.46999998093E+01 0.  1.
       -5    1    3    3    0  502 -0.30603016880E+03  0.15543864194E+03 -0.21205117823E+04  0.21481173023E+04  0.46999998093E+01 0. -1.
</event>
<event>
 5   0  0.2295158E-03  0.8888862E+03  0.7818609E-02  0.9439582E-01
       -1   -1    0    0    0  501  0.00000000000E+00  0.00000000000E+00  0.40568614970E+03  0.40568614973E+03  0.50400001928E-02 0. -1.
        1   -1    0    0  501    0  0.00000000000E+00  0.00000000000E+00 -0.48690263553E+03  0.48690263556E+03  0.50400001928E-02 0.  1.
    10030    2    1    2    0    0  0.00000000000E+00  0.00000000000E+00 -0.81216485832E+02  0.89258878529E+03  0.88888616934E+03 0.  0.
        4    1    3    3  502    0  0.36918337050E+03 -0.12265569912E+03 -0.25641566726E+03  0.46593066963E+03  0.12699999809E+01 0.  1.
       -4    1    3    3    0  502 -0.36918337050E+03  0.12265569912E+03  0.17519918143E+03  0.42665811566E+03  0.12699999809E+01 0. -1.
</event>
<event>
 5   0  0.3815269E-03  0.8977571E+03  0.7818609E-02  0.9428389E-01
        2   -1    0    0  501    0  0.00000000000E+00  0.00000000000E+00  0.83988696304E+03  0.83988696305E+03  0.25500000920E-02 0.  1.
       -2   -1    0    0    0  501  0.00000000000E+00  0.00000000000E+00 -0.23990368092E+03  0.23990368094E+03  0.25500000920E-02 0. -1.
    10030    2    1    2    0    0  0.00000000000E+00  0.00000000000E+00  0.59998328212E+03  0.10797906440E+04  0.89775714757E+03 0.  0.
        5    1    3    3  502    0  0.27202609718E+03  0.35700732688E+03  0.30501669525E+03  0.54268748223E+03  0.46999998093E+01 0. -1.
       -5    1    3    3    0  502 -0.27202609718E+03 -0.35700732688E+03  0.29496658687E+03  0.53710316175E+03  0.46999998093E+01 0.  1.
</event>
<event>
 5   0  0.1436000E-03  0.9021908E+03  0.7818609E-02  0.9422847E-01
        4   -1    0    0  501    0  0.00000000000E+00  0.00000000000E+00  0.42365295257E+03  0.42365485613E+03  0.12699999809E+01 0. -1.
       -4   -1    0    0    0  501  0.00000000000E+00  0.00000000000E+00 -0.48031163145E+03  0.48031331046E+03  0.12699999809E+01 0.  1.
    10030    2    1    2    0    0  0.00000000000E+00  0.00000000000E+00 -0.56658678880E+02  0.90396816659E+03  0.90219080040E+03 0.  0.
        5    1    3    3  502    0  0.12819104563E+03  0.40024854485E+01  0.40497609068E+03  0.42482547957E+03  0.46999998093E+01 0. -1.
       -5    1    3    3    0  502 -0.12819104563E+03 -0.40024854485E+01 -0.46163476956E+03  0.47914268703E+03  0.46999998093E+01 0.  1.
</event>
<event>
 5   0  0.3806019E-03  0.9008162E+03  0.7818609E-02  0.9424562E-01
        2   -1    0    0  501    0  0.00000000000E+00  0.00000000000E+00  0.16873130826E+04  0.16873130826E+04  0.25500000920E-02 0. -1.
       -2   -1    0    0    0  501  0.00000000000E+00  0.00000000000E+00 -0.12023105968E+03  0.12023105970E+03  0.25500000920E-02 0.  1.
    10030    2    1    2    0    0  0.00000000000E+00  0.00000000000E+00  0.15670820229E+04  0.18075441423E+04  0.90081616316E+03 0.  0.
        2    1    3    3  502    0 -0.27218060701E+03  0.24050524347E+02  0.65071815523E+02  0.28088262982E+03  0.25500000920E-02 0.  1.
       -2    1    3    3    0  502  0.27218060701E+03 -0.24050524347E+02  0.15020102074E+04  0.15266615125E+04  0.25500000920E-02 0. -1.
</event>
<event>
 5   0  0.2130975E-03  0.8955007E+03  0.7818609E-02  0.9431223E-01
       -1   -1    0    0    0  501  0.00000000000E+00  0.00000000000E+00  0.47522500175E+03  0.47522500177E+03  0.50400001928E-02 0. -1.
        1   -1    0    0  501    0  0.00000000000E+00  0.00000000000E+00 -0.42186407470E+03  0.42186407473E+03  0.50400001928E-02 0.  1.
    10030    2    1    2    0    0  0.00000000000E+00  0.00000000000E+00  0.53360927049E+02  0.89708907650E+03  0.89550065474E+03 0.  0.
        5    1    3    3  502    0 -0.28765129548E+03 -0.87625386533E+02  0.35898679506E+03  0.46831088518E+03  0.46999998093E+01 0. -1.
       -5    1    3    3    0  502  0.28765129548E+03  0.87625386533E+02 -0.30562586801E+03  0.42877819132E+03  0.46999998093E+01 0.  1.
</event>
</LesHouchesEvents>
